  -3.000000        1.0000000E-24
  -2.993500        1.0000000E-24
  -2.987000        1.0000000E-24
  -2.980500        1.0000000E-24
  -2.974000        1.0000000E-24
  -2.967500        1.0000000E-24
  -2.961000        1.0000000E-24
  -2.954500        1.0000000E-24
  -2.948000        1.0000000E-24
  -2.941500        1.0000000E-24
  -2.935000        1.0000000E-24
  -2.928500        1.0000000E-24
  -2.922000        1.0000000E-24
  -2.915500        1.0000000E-24
  -2.909000        1.0000000E-24
  -2.902500        1.0000000E-24
  -2.896000        1.0000000E-24
  -2.889500        1.0000000E-24
  -2.883000        1.0000000E-24
  -2.876500        1.0000000E-24
  -2.870000        1.0000000E-24
  -2.863500        1.0000000E-24
  -2.857000        1.0000000E-24
  -2.850500        1.0000000E-24
  -2.844000        1.0000000E-24
  -2.837500        1.0000000E-24
  -2.831000        1.0000000E-24
  -2.824500        1.0000000E-24
  -2.818000        1.0000000E-24
  -2.811500        1.0000001E-24
  -2.805000        1.0000002E-24
  -2.798500        1.0000003E-24
  -2.792000        1.0000003E-24
  -2.785500        1.0000003E-24
  -2.779000        1.0000003E-24
  -2.772500        1.0000003E-24
  -2.766000        1.0000003E-24
  -2.759500        1.0000003E-24
  -2.753000        1.0000003E-24
  -2.746500        1.0000003E-24
  -2.740000        1.0000003E-24
  -2.733500        1.0000003E-24
  -2.727000        1.0000003E-24
  -2.720500        1.0000003E-24
  -2.714000        1.0000003E-24
  -2.707500        1.0000003E-24
  -2.701000        1.0000003E-24
  -2.694500        1.0000003E-24
  -2.688000        1.0000003E-24
  -2.681500        1.0000003E-24
  -2.675000        1.0000003E-24
  -2.668500        1.0000003E-24
  -2.662000        1.0000003E-24
  -2.655500        1.0000003E-24
  -2.649000        1.0000003E-24
  -2.642500        1.0000002E-24
  -2.636000        1.0000001E-24
  -2.629500        1.0000000E-24
  -2.623000        1.0000000E-24
  -2.616500        1.0000000E-24
  -2.610000        1.0000000E-24
  -2.603500        1.0000000E-24
  -2.597000        1.0000000E-24
  -2.590500        1.0000000E-24
  -2.584000        1.0000000E-24
  -2.577500        1.0000000E-24
  -2.571000        1.0000000E-24
  -2.564500        1.0000000E-24
  -2.558000        1.0000000E-24
  -2.551500        1.0000000E-24
  -2.545000        1.0000000E-24
  -2.538500        1.0000000E-24
  -2.532000        1.0000001E-24
  -2.525500        1.0000002E-24
  -2.519000        1.0000003E-24
  -2.512500        1.0000004E-24
  -2.506000        1.0000004E-24
  -2.499500        1.0000004E-24
  -2.493000        1.0000004E-24
  -2.486500        1.0000004E-24
  -2.480000        1.0000004E-24
  -2.473500        1.0000004E-24
  -2.467000        1.0000004E-24
  -2.460500        1.0000004E-24
  -2.454000        1.0000004E-24
  -2.447500        1.0000003E-24
  -2.441000        1.0000002E-24
  -2.434500        1.0000001E-24
  -2.428000        1.0000000E-24
  -2.421500        9.9999992E-25
  -2.415000        9.9999982E-25
  -2.408500        9.9999972E-25
  -2.402000        9.9999972E-25
  -2.395500        9.9999972E-25
  -2.389000        9.9999972E-25
  -2.382500        9.9999972E-25
  -2.376000        9.9999972E-25
  -2.369500        9.9999982E-25
  -2.363000        9.9999992E-25
  -2.356500        1.0000000E-24
  -2.350000        1.0000001E-24
  -2.343500        1.0000002E-24
  -2.337000        1.0000003E-24
  -2.330500        1.0000004E-24
  -2.324000        1.0000005E-24
  -2.317500        1.0000006E-24
  -2.311000        1.0000006E-24
  -2.304500        1.0000006E-24
  -2.298000        1.0000006E-24
  -2.291500        1.0000006E-24
  -2.285000        1.0000005E-24
  -2.278500        1.0000004E-24
  -2.272000        1.0000003E-24
  -2.265500        1.0000002E-24
  -2.259000        1.0000001E-24
  -2.252500        9.9999992E-25
  -2.246000        9.9999972E-25
  -2.239500        9.9999963E-25
  -2.233000        9.9999953E-25
  -2.226500        9.9999943E-25
  -2.220000        9.9999933E-25
  -2.213500        9.9999923E-25
  -2.207000        9.9999923E-25
  -2.200500        9.9999923E-25
  -2.194000        9.9999923E-25
  -2.187500        9.9999933E-25
  -2.181000        9.9999943E-25
  -2.174500        9.9999953E-25
  -2.168000        9.9999963E-25
  -2.161500        9.9999972E-25
  -2.155000        9.9999982E-25
  -2.148500        1.0000000E-24
  -2.142000        1.0000002E-24
  -2.135500        1.0000003E-24
  -2.129000        1.0000004E-24
  -2.122500        1.0000005E-24
  -2.116000        1.0000006E-24
  -2.109500        1.0000007E-24
  -2.103000        1.0000008E-24
  -2.096500        1.0000008E-24
  -2.090000        1.0000008E-24
  -2.083500        1.0000008E-24
  -2.077000        1.0000008E-24
  -2.070500        1.0000007E-24
  -2.064000        1.0000006E-24
  -2.057500        1.0000005E-24
  -2.051000        1.0000004E-24
  -2.044500        1.0000003E-24
  -2.038000        1.0000001E-24
  -2.031500        9.9999992E-25
  -2.025000        9.9999972E-25
  -2.018500        9.9999963E-25
  -2.012000        9.9999953E-25
  -2.005500        9.9999943E-25
  -1.999000        9.9999933E-25
  -1.992500        9.9999933E-25
  -1.986000        9.9999933E-25
  -1.979500        9.9999933E-25
  -1.973000        9.9999943E-25
  -1.966500        9.9999953E-25
  -1.960000        9.9999972E-25
  -1.953500        9.9999992E-25
  -1.947000        1.0000001E-24
  -1.940500        1.0000004E-24
  -1.934000        1.0000007E-24
  -1.927500        1.0000010E-24
  -1.921000        1.0000013E-24
  -1.914500        1.0000015E-24
  -1.908000        1.0000017E-24
  -1.901500        1.0000019E-24
  -1.895000        1.0000020E-24
  -1.888500        1.0000021E-24
  -1.882000        1.0000021E-24
  -1.875500        1.0000021E-24
  -1.869000        1.0000020E-24
  -1.862500        1.0000018E-24
  -1.856000        1.0000016E-24
  -1.849500        1.0000013E-24
  -1.843000        1.0000010E-24
  -1.836500        1.0000006E-24
  -1.830000        1.0000002E-24
  -1.823500        9.9999982E-25
  -1.817000        9.9999943E-25
  -1.810500        9.9999903E-25
  -1.804000        9.9999864E-25
  -1.797500        9.9999834E-25
  -1.791000        9.9999805E-25
  -1.784500        9.9999785E-25
  -1.778000        9.9999765E-25
  -1.771500        9.9999755E-25
  -1.765000        9.9999755E-25
  -1.758500        9.9999755E-25
  -1.752000        9.9999765E-25
  -1.745500        9.9999785E-25
  -1.739000        9.9999805E-25
  -1.732500        9.9999834E-25
  -1.726000        9.9999864E-25
  -1.719500        9.9999893E-25
  -1.713000        9.9999933E-25
  -1.706500        9.9999972E-25
  -1.700000        1.0000001E-24
  -1.693500        1.0000005E-24
  -1.687000        1.0000009E-24
  -1.680500        1.0000013E-24
  -1.674000        1.0000016E-24
  -1.667500        1.0000019E-24
  -1.661000        1.0000021E-24
  -1.654500        1.0000023E-24
  -1.648000        1.0000024E-24
  -1.641500        1.0000025E-24
  -1.635000        1.0000025E-24
  -1.628500        1.0000025E-24
  -1.622000        1.0000024E-24
  -1.615500        1.0000023E-24
  -1.609000        1.0000021E-24
  -1.602500        1.0000019E-24
  -1.596000        1.0000017E-24
  -1.589500        1.0000015E-24
  -1.583000        1.0000012E-24
  -1.576500        1.0000009E-24
  -1.570000        1.0000006E-24
  -1.563500        1.0000003E-24
  -1.557000        1.0000001E-24
  -1.550500        9.9999992E-25
  -1.544000        9.9999972E-25
  -1.537500        9.9999953E-25
  -1.531000        9.9999933E-25
  -1.524500        9.9999913E-25
  -1.518000        9.9999893E-25
  -1.511500        9.9999874E-25
  -1.505000        9.9999864E-25
  -1.498500        9.9999854E-25
  -1.492000        9.9999844E-25
  -1.485500        9.9999834E-25
  -1.479000        9.9999824E-25
  -1.472500        9.9999824E-25
  -1.466000        9.9999824E-25
  -1.459500        9.9999824E-25
  -1.453000        9.9999834E-25
  -1.446500        9.9999844E-25
  -1.440000        9.9999864E-25
  -1.433500        9.9999884E-25
  -1.427000        9.9999913E-25
  -1.420500        9.9999943E-25
  -1.414000        9.9999982E-25
  -1.407500        1.0000002E-24
  -1.401000        1.0000006E-24
  -1.394500        1.0000010E-24
  -1.388000        1.0000014E-24
  -1.381500        1.0000018E-24
  -1.375000        1.0000021E-24
  -1.368500        1.0000024E-24
  -1.362000        1.0000026E-24
  -1.355500        1.0000027E-24
  -1.349000        1.0000026E-24
  -1.342500        1.0000025E-24
  -1.336000        1.0000023E-24
  -1.329500        1.0000020E-24
  -1.323000        1.0000016E-24
  -1.316500        1.0000012E-24
  -1.310000        1.0000007E-24
  -1.303500        1.0000002E-24
  -1.297000        9.9999972E-25
  -1.290500        9.9999923E-25
  -1.284000        9.9999884E-25
  -1.277500        9.9999854E-25
  -1.271000        9.9999824E-25
  -1.264500        9.9999805E-25
  -1.258000        9.9999805E-25
  -1.251500        9.9999824E-25
  -1.245000        9.9999844E-25
  -1.238500        9.9999864E-25
  -1.232000        9.9999893E-25
  -1.225500        9.9999933E-25
  -1.219000        9.9999972E-25
  -1.212500        1.0000002E-24
  -1.206000        1.0000007E-24
  -1.199500        1.0000011E-24
  -1.193000        1.0000015E-24
  -1.186500        1.0000018E-24
  -1.180000        1.0000021E-24
  -1.173500        1.0000023E-24
  -1.167000        1.0000024E-24
  -1.160500        1.0000024E-24
  -1.154000        1.0000023E-24
  -1.147500        1.0000021E-24
  -1.141000        1.0000019E-24
  -1.134500        1.0000016E-24
  -1.128000        1.0000012E-24
  -1.121500        1.0000008E-24
  -1.115000        1.0000003E-24
  -1.108500        9.9999982E-25
  -1.102000        9.9999933E-25
  -1.095500        9.9999884E-25
  -1.089000        9.9999844E-25
  -1.082500        9.9999805E-25
  -1.076000        9.9999775E-25
  -1.069500        9.9999746E-25
  -1.063000        9.9999726E-25
  -1.056500        9.9999716E-25
  -1.050000        9.9999716E-25
  -1.043500        9.9999726E-25
  -1.037000        9.9999736E-25
  -1.030500        9.9999755E-25
  -1.024000        9.9999785E-25
  -1.017500        9.9999824E-25
  -1.011000        9.9999874E-25
  -1.004500        9.9999923E-25
 -0.9980000        9.9999982E-25
 -0.9915000        1.0000004E-24
 -0.9850000        1.0000010E-24
 -0.9785000        1.0000016E-24
 -0.9720000        1.0000022E-24
 -0.9655000        1.0000028E-24
 -0.9590000        1.0000033E-24
 -0.9525000        1.0000038E-24
 -0.9460000        1.0000042E-24
 -0.9395000        1.0000045E-24
 -0.9330000        1.0000048E-24
 -0.9265000        1.0000049E-24
 -0.9200000        1.0000048E-24
 -0.9135000        1.0000046E-24
 -0.9070000        1.0000043E-24
 -0.9005000        1.0000038E-24
 -0.8940000        1.0000032E-24
 -0.8875000        1.0000025E-24
 -0.8810000        1.0000017E-24
 -0.8745000        1.0000009E-24
 -0.8680000        1.0000000E-24
 -0.8615000        9.9999903E-25
 -0.8550000        9.9999805E-25
 -0.8485000        9.9999706E-25
 -0.8420000        9.9999608E-25
 -0.8355000        9.9999509E-25
 -0.8290000        9.9999420E-25
 -0.8225000        9.9999351E-25
 -0.8160000        9.9999302E-25
 -0.8095000        9.9999262E-25
 -0.8030000        9.9999243E-25
 -0.7965000        9.9999253E-25
 -0.7900000        9.9999282E-25
 -0.7835000        9.9999341E-25
 -0.7770000        9.9999420E-25
 -0.7705000        9.9999529E-25
 -0.7640000        9.9999657E-25
 -0.7575000        9.9999805E-25
 -0.7510000        9.9999963E-25
 -0.7445000        1.0000012E-24
 -0.7380000        1.0000029E-24
 -0.7315000        1.0000046E-24
 -0.7250000        1.0000060E-24
 -0.7185000        1.0000074E-24
 -0.7120000        1.0000086E-24
 -0.7055000        1.0000096E-24
 -0.6990000        1.0000103E-24
 -0.6925000        1.0000106E-24
 -0.6860000        1.0000105E-24
 -0.6795000        1.0000101E-24
 -0.6730000        1.0000093E-24
 -0.6665000        1.0000082E-24
 -0.6600000        1.0000069E-24
 -0.6535000        1.0000053E-24
 -0.6470000        1.0000036E-24
 -0.6405000        1.0000017E-24
 -0.6340000        9.9999982E-25
 -0.6275000        9.9999785E-25
 -0.6210000        9.9999598E-25
 -0.6145000        9.9999430E-25
 -0.6080000        9.9999282E-25
 -0.6015000        9.9999154E-25
 -0.5950000        9.9999065E-25
 -0.5885000        9.9999006E-25
 -0.5820000        9.9998986E-25
 -0.5755000        9.9999006E-25
 -0.5690000        9.9999055E-25
 -0.5625000        9.9999144E-25
 -0.5560000        9.9999262E-25
 -0.5495000        9.9999400E-25
 -0.5430000        9.9999568E-25
 -0.5365000        9.9999755E-25
 -0.5300000        9.9999953E-25
 -0.5235000        1.0000015E-24
 -0.5170000        1.0000035E-24
 -0.5105000        1.0000052E-24
 -0.5040000        1.0000068E-24
 -0.4975000        1.0000082E-24
 -0.4910000        1.0000094E-24
 -0.4845000        1.0000101E-24
 -0.4780000        1.0000105E-24
 -0.4715000        1.0000105E-24
 -0.4650000        1.0000101E-24
 -0.4585000        1.0000093E-24
 -0.4520000        1.0000082E-24
 -0.4455000        1.0000067E-24
 -0.4390000        1.0000050E-24
 -0.4325000        1.0000032E-24
 -0.4260000        1.0000012E-24
 -0.4195000        9.9999923E-25
 -0.4130000        9.9999726E-25
 -0.4065000        9.9999538E-25
 -0.4000000        9.9999371E-25
 -0.3935000        9.9999223E-25
 -0.3870000        9.9999114E-25
 -0.3805000        9.9999036E-25
 -0.3740000        9.9998996E-25
 -0.3675000        9.9998996E-25
 -0.3610000        9.9999036E-25
 -0.3545000        9.9999105E-25
 -0.3480000        9.9999213E-25
 -0.3415000        9.9999341E-25
 -0.3350000        9.9999489E-25
 -0.3285000        9.9999657E-25
 -0.3220000        9.9999834E-25
 -0.3155000        1.0000001E-24
 -0.3090000        1.0000019E-24
 -0.3025000        1.0000035E-24
 -0.2960000        1.0000049E-24
 -0.2895000        1.0000060E-24
 -0.2830000        1.0000069E-24
 -0.2765000        1.0000074E-24
 -0.2700000        1.0000076E-24
 -0.2635000        1.0000075E-24
 -0.2570000        1.0000071E-24
 -0.2505000        1.0000065E-24
 -0.2440000        1.0000056E-24
 -0.2375000        1.0000046E-24
 -0.2310000        1.0000034E-24
 -0.2245000        1.0000022E-24
 -0.2180000        1.0000009E-24
 -0.2115000        9.9999972E-25
 -0.2050000        9.9999864E-25
 -0.1985000        9.9999775E-25
 -0.1920000        9.9999696E-25
 -0.1855000        9.9999637E-25
 -0.1790000        9.9999608E-25
 -0.1725000        9.9999598E-25
 -0.1660000        9.9999608E-25
 -0.1595000        9.9999637E-25
 -0.1530000        9.9999686E-25
 -0.1465000        9.9999755E-25
 -0.1400000        9.9999824E-25
 -0.1335000        9.9999903E-25
 -0.1270000        9.9999982E-25
 -0.1205000        1.0000006E-24
 -0.1140000        1.0000013E-24
 -0.1075000        1.0000018E-24
 -0.1010000        1.0000021E-24
 -9.4499998E-02    1.0000023E-24
 -8.8000000E-02    1.0000023E-24
 -8.1500001E-02    1.0000021E-24
 -7.5000003E-02    1.0000017E-24
 -6.8499997E-02    1.0000012E-24
 -6.1999999E-02    1.0000005E-24
 -5.5500001E-02    9.9999982E-25
 -4.8999999E-02    9.9999913E-25
 -4.2500000E-02    9.9999834E-25
 -3.5999998E-02    9.9999755E-25
 -2.9500000E-02    9.9999686E-25
 -2.3000000E-02    9.9999637E-25
 -1.6500000E-02    9.9999598E-25
 -9.9999998E-03    9.9999578E-25
 -3.5000001E-03    9.9999578E-25
  3.0000000E-03    9.9999598E-25
  9.4999997E-03    9.9999637E-25
  1.6000001E-02    9.9999696E-25
  2.2500001E-02    9.9999775E-25
  2.8999999E-02    9.9999864E-25
  3.5500001E-02    9.9999972E-25
  4.1999999E-02    1.0000008E-24
  4.8500001E-02    1.0000020E-24
  5.5000000E-02    1.0000032E-24
  6.1500002E-02    1.0000044E-24
  6.8000004E-02    1.0000054E-24
  7.4500002E-02    1.0000063E-24
  8.1000000E-02    1.0000070E-24
  8.7499999E-02    1.0000075E-24
  9.3999997E-02    1.0000078E-24
  0.1005000        1.0000079E-24
  0.1070000        1.0000077E-24
  0.1135000        1.0000073E-24
  0.1200000        1.0000066E-24
  0.1265000        1.0000057E-24
  0.1330000        1.0000047E-24
  0.1395000        1.0000034E-24
  0.1460000        1.0000021E-24
  0.1525000        1.0000008E-24
  0.1590000        9.9999943E-25
  0.1655000        9.9999805E-25
  0.1720000        9.9999677E-25
  0.1785000        9.9999568E-25
  0.1850000        9.9999479E-25
  0.1915000        9.9999400E-25
  0.1980000        9.9999351E-25
  0.2045000        9.9999322E-25
  0.2110000        9.9999312E-25
  0.2175000        9.9999331E-25
  0.2240000        9.9999371E-25
  0.2305000        9.9999440E-25
  0.2370000        9.9999529E-25
  0.2435000        9.9999637E-25
  0.2500000        9.9999755E-25
  0.2565000        9.9999874E-25
  0.2630000        1.0000000E-24
  0.2695000        1.0000013E-24
  0.2760000        1.0000025E-24
  0.2825000        1.0000036E-24
  0.2890000        1.0000045E-24
  0.2955000        1.0000052E-24
  0.3020000        1.0000057E-24
  0.3085000        1.0000060E-24
  0.3150000        1.0000060E-24
  0.3215000        1.0000058E-24
  0.3280000        1.0000053E-24
  0.3345000        1.0000046E-24
  0.3410000        1.0000036E-24
  0.3475000        1.0000024E-24
  0.3540000        1.0000010E-24
  0.3605000        9.9999963E-25
  0.3670000        9.9999815E-25
  0.3735000        9.9999667E-25
  0.3800000        9.9999529E-25
  0.3865000        9.9999410E-25
  0.3930000        9.9999312E-25
  0.3995000        9.9999243E-25
  0.4060000        9.9999203E-25
  0.4125000        9.9999203E-25
  0.4190000        9.9999233E-25
  0.4255000        9.9999302E-25
  0.4320000        9.9999400E-25
  0.4385000        9.9999519E-25
  0.4450000        9.9999667E-25
  0.4515000        9.9999834E-25
  0.4580000        1.0000001E-24
  0.4645000        1.0000019E-24
  0.4710000        1.0000037E-24
  0.4775000        1.0000052E-24
  0.4840000        1.0000067E-24
  0.4905000        1.0000080E-24
  0.4970000        1.0000089E-24
  0.5035000        1.0000094E-24
  0.5100000        1.0000096E-24
  0.5165000        1.0000094E-24
  0.5230000        1.0000088E-24
  0.5295000        1.0000078E-24
  0.5360000        1.0000064E-24
  0.5425000        1.0000049E-24
  0.5490000        1.0000030E-24
  0.5555000        1.0000009E-24
  0.5620000        9.9999884E-25
  0.5685000        9.9999677E-25
  0.5750000        9.9999489E-25
  0.5815000        9.9999312E-25
  0.5880000        9.9999154E-25
  0.5945000        9.9999036E-25
  0.6010000        9.9998957E-25
  0.6075000        9.9998917E-25
  0.6140000        9.9998907E-25
  0.6205000        9.9998937E-25
  0.6270000        9.9999006E-25
  0.6335000        9.9999114E-25
  0.6400000        9.9999243E-25
  0.6465000        9.9999391E-25
  0.6530000        9.9999558E-25
  0.6595000        9.9999726E-25
  0.6660000        9.9999893E-25
  0.6725000        1.0000006E-24
  0.6790000        1.0000021E-24
  0.6855000        1.0000034E-24
  0.6920000        1.0000045E-24
  0.6985000        1.0000052E-24
  0.7050000        1.0000057E-24
  0.7115000        1.0000058E-24
  0.7180000        1.0000057E-24
  0.7245000        1.0000054E-24
  0.7310000        1.0000049E-24
  0.7375000        1.0000041E-24
  0.7440000        1.0000032E-24
  0.7505000        1.0000023E-24
  0.7570000        1.0000013E-24
  0.7635000        1.0000004E-24
  0.7700000        9.9999953E-25
  0.7765000        9.9999893E-25
  0.7830000        9.9999844E-25
  0.7895000        9.9999815E-25
  0.7960000        9.9999805E-25
  0.8025000        9.9999815E-25
  0.8090000        9.9999844E-25
  0.8155000        9.9999893E-25
  0.8220000        9.9999953E-25
  0.8285000        1.0000001E-24
  0.8350000        1.0000008E-24
  0.8415000        1.0000015E-24
  0.8480000        1.0000022E-24
  0.8545000        1.0000029E-24
  0.8610000        1.0000035E-24
  0.8675000        1.0000039E-24
  0.8740000        1.0000042E-24
  0.8805000        1.0000043E-24
  0.8870000        1.0000042E-24
  0.8935000        1.0000040E-24
  0.9000000        1.0000036E-24
  0.9065000        1.0000030E-24
  0.9130000        1.0000023E-24
  0.9195000        1.0000016E-24
  0.9260000        1.0000008E-24
  0.9325000        1.0000000E-24
  0.9390000        9.9999923E-25
  0.9455000        9.9999844E-25
  0.9520000        9.9999765E-25
  0.9585000        9.9999696E-25
  0.9650000        9.9999647E-25
  0.9715000        9.9999617E-25
  0.9780000        9.9999598E-25
  0.9845000        9.9999598E-25
  0.9910000        9.9999617E-25
  0.9975000        9.9999647E-25
   1.004000        9.9999696E-25
   1.010500        9.9999765E-25
   1.017000        9.9999844E-25
   1.023500        9.9999933E-25
   1.030000        1.0000002E-24
   1.036500        1.0000012E-24
   1.043000        1.0000023E-24
   1.049500        1.0000034E-24
   1.056000        1.0000044E-24
   1.062500        1.0000051E-24
   1.069000        1.0000058E-24
   1.075500        1.0000063E-24
   1.082000        1.0000067E-24
   1.088500        1.0000068E-24
   1.095000        1.0000067E-24
   1.101500        1.0000064E-24
   1.108000        1.0000058E-24
   1.114500        1.0000050E-24
   1.121000        1.0000040E-24
   1.127500        1.0000027E-24
   1.134000        1.0000013E-24
   1.140500        9.9999982E-25
   1.147000        9.9999834E-25
   1.153500        9.9999686E-25
   1.160000        9.9999538E-25
   1.166500        9.9999410E-25
   1.173000        9.9999292E-25
   1.179500        9.9999193E-25
   1.186000        9.9999114E-25
   1.192500        9.9999065E-25
   1.199000        9.9999045E-25
   1.205500        9.9999055E-25
   1.212000        9.9999095E-25
   1.218500        9.9999154E-25
   1.225000        9.9999243E-25
   1.231500        9.9999361E-25
   1.238000        9.9999499E-25
   1.244500        9.9999647E-25
   1.251000        9.9999795E-25
   1.257500        9.9999953E-25
   1.264000        1.0000011E-24
   1.270500        1.0000027E-24
   1.277000        1.0000042E-24
   1.283500        1.0000054E-24
   1.290000        1.0000066E-24
   1.296500        1.0000076E-24
   1.303000        1.0000084E-24
   1.309500        1.0000090E-24
   1.316000        1.0000094E-24
   1.322500        1.0000095E-24
   1.329000        1.0000094E-24
   1.335500        1.0000090E-24
   1.342000        1.0000083E-24
   1.348500        1.0000074E-24
   1.355000        1.0000062E-24
   1.361500        1.0000049E-24
   1.368000        1.0000033E-24
   1.374500        1.0000015E-24
   1.381000        9.9999972E-25
   1.387500        9.9999785E-25
   1.394000        9.9999588E-25
   1.400500        9.9999391E-25
   1.407000        9.9999193E-25
   1.413500        9.9998996E-25
   1.420000        9.9998819E-25
   1.426500        9.9998661E-25
   1.433000        9.9998533E-25
   1.439500        9.9998444E-25
   1.446000        9.9998395E-25
   1.452500        9.9998405E-25
   1.459000        9.9998474E-25
   1.465500        9.9998602E-25
   1.472000        9.9998789E-25
   1.478500        9.9999036E-25
   1.485000        9.9999322E-25
   1.491500        9.9999647E-25
   1.498000        1.0000000E-24
   1.504500        1.0000036E-24
   1.511000        1.0000069E-24
   1.517500        1.0000099E-24
   1.524000        1.0000120E-24
   1.530500        1.0000134E-24
   1.537000        1.0000138E-24
   1.543500        1.0000127E-24
   1.550000        1.0000105E-24
   1.556500        1.0000070E-24
   1.563000        1.0000026E-24
   1.569500        9.9999726E-25
   1.576000        9.9999134E-25
   1.582500        9.9998523E-25
   1.589000        9.9997911E-25
   1.595500        9.9997340E-25
   1.602000        9.9996847E-25
   1.608500        9.9996462E-25
   1.615000        9.9996225E-25
   1.621500        9.9996166E-25
   1.628000        9.9996304E-25
   1.634500        9.9996620E-25
   1.641000        9.9997152E-25
   1.647500        9.9997921E-25
   1.654000        9.9998917E-25
   1.660500        1.0000006E-24
   1.667000        1.0000134E-24
   1.673500        1.0000268E-24
   1.680000        1.0000406E-24
   1.686500        1.0000536E-24
   1.693000        1.0000654E-24
   1.699500        1.0000755E-24
   1.706000        1.0000831E-24
   1.712500        1.0000878E-24
   1.719000        1.0000893E-24
   1.725500        1.0000874E-24
   1.732000        1.0000822E-24
   1.738500        1.0000736E-24
   1.745000        1.0000621E-24
   1.751500        1.0000483E-24
   1.758000        1.0000329E-24
   1.764500        1.0000164E-24
   1.771000        9.9999992E-25
   1.777500        9.9998335E-25
   1.784000        9.9996856E-25
   1.790500        9.9995505E-25
   1.797000        9.9994391E-25
   1.803500        9.9993533E-25
   1.810000        9.9992942E-25
   1.816500        9.9992636E-25
   1.823000        9.9992449E-25
   1.829500        9.9992202E-25
   1.836000        9.9991847E-25
   1.842500        9.9991255E-25
   1.849000        9.9990319E-25
   1.855500        9.9988978E-25
   1.862000        9.9987282E-25
   1.868500        9.9985083E-25
   1.875000        9.9982470E-25
   1.881500        9.9979482E-25
   1.888000        9.9976307E-25
   1.894500        9.9973230E-25
   1.901000        9.9970548E-25
   1.907500        9.9968339E-25
   1.914000        9.9966840E-25
   1.920500        9.9966495E-25
   1.927000        9.9967491E-25
   1.933500        9.9969779E-25
   1.940000        9.9973565E-25
   1.946500        9.9978851E-25
   1.953000        9.9985507E-25
   1.959500        9.9993247E-25
   1.966000        1.0000182E-24
   1.972500        1.0001073E-24
   1.979000        1.0001950E-24
   1.985500        1.0002755E-24
   1.992000        1.0003432E-24
   1.998500        1.0003934E-24
   2.005000        1.0004219E-24
   2.011500        1.0004262E-24
   2.018000        1.0004047E-24
   2.024500        1.0003563E-24
   2.031000        1.0002811E-24
   2.037500        1.0001898E-24
   2.044000        1.0000898E-24
   2.050500        9.9997990E-25
   2.057000        9.9986779E-25
   2.063500        9.9976740E-25
   2.070000        9.9968004E-25
   2.076500        9.9961239E-25
   2.083000        9.9957729E-25
   2.089500        9.9958015E-25
   2.096000        9.9961703E-25
   2.102500        9.9968467E-25
   2.109000        9.9977736E-25
   2.115500        9.9988879E-25
   2.122000        1.0000106E-24
   2.128500        1.0001311E-24
   2.135000        1.0002397E-24
   2.141500        1.0003216E-24
   2.148000        1.0003692E-24
   2.154500        1.0003750E-24
   2.161000        1.0003272E-24
   2.167500        1.0002350E-24
   2.174000        1.0001102E-24
   2.180500        9.9997349E-25
   2.187000        9.9981898E-25
   2.193500        9.9966396E-25
   2.200000        9.9950955E-25
   2.206500        9.9938214E-25
   2.213000        9.9930069E-25
   2.219500        9.9925593E-25
   2.226000        9.9924962E-25
   2.232500        9.9928768E-25
   2.239000        9.9937761E-25
   2.245500        9.9951941E-25
   2.252000        9.9970696E-25
   2.258500        9.9994224E-25
   2.265000        1.0002039E-24
   2.271500        1.0004637E-24
   2.278000        1.0007257E-24
   2.284500        1.0009561E-24
   2.291000        1.0011693E-24
   2.297500        1.0013384E-24
   2.304000        1.0014604E-24
   2.310500        1.0015092E-24
   2.317000        1.0015119E-24
   2.323500        1.0014600E-24
   2.330000        1.0013707E-24
   2.336500        1.0012771E-24
   2.343000        1.0011882E-24
   2.349500        1.0010905E-24
   2.356000        1.0010015E-24
   2.362500        1.0009420E-24
   2.369000        1.0009121E-24
   2.375500        1.0009077E-24
   2.382000        1.0009259E-24
   2.388500        1.0009849E-24
   2.395000        1.0010924E-24
   2.401500        1.0012781E-24
   2.408000        1.0014732E-24
   2.414500        1.0016647E-24
   2.421000        1.0018580E-24
   2.427500        1.0019925E-24
   2.434000        1.0019883E-24
   2.440500        1.0017312E-24
   2.447000        1.0013757E-24
   2.453500        1.0009236E-24
   2.460000        1.0003776E-24
   2.466500        9.9973447E-25
   2.473000        9.9913848E-25
   2.479500        9.9868952E-25
   2.486000        9.9839104E-25
   2.492500        9.9827113E-25
   2.499000        9.9835436E-25
   2.505500        9.9863016E-25
   2.512000        9.9912251E-25
   2.518500        9.9982608E-25
   2.525000        1.0006879E-24
   2.531500        1.0016304E-24
   2.538000        1.0027058E-24
   2.544500        1.0038217E-24
   2.551000        1.0050172E-24
   2.557500        1.0061717E-24
   2.564000        1.0072882E-24
   2.570500        1.0081921E-24
   2.577000        1.0088985E-24
   2.583500        1.0092477E-24
   2.590000        1.0094217E-24
   2.596500        1.0092758E-24
   2.603000        1.0089478E-24
   2.609500        1.0084340E-24
   2.616000        1.0077822E-24
   2.622500        1.0070155E-24
   2.629000        1.0061457E-24
   2.635500        1.0052155E-24
   2.642000        1.0043625E-24
   2.648500        1.0035336E-24
   2.655000        1.0028873E-24
   2.661500        1.0022307E-24
   2.668000        1.0015881E-24
   2.674500        1.0011566E-24
   2.681000        1.0011551E-24
   2.687500        1.0013859E-24
   2.694000        1.0020536E-24
   2.700500        1.0030966E-24
   2.707000        1.0040769E-24
   2.713500        1.0052475E-24
   2.720000        1.0065081E-24
   2.726500        1.0074642E-24
   2.733000        1.0078515E-24
   2.739500        1.0072574E-24
   2.746000        1.0054752E-24
   2.752500        1.0022648E-24
   2.759000        9.9764004E-25
   2.765500        9.9144325E-25
   2.772000        9.8371310E-25
   2.778500        9.7417242E-25
   2.785000        9.6346018E-25
   2.791500        9.5120996E-25
   2.798000        9.3820963E-25
   2.804500        9.2449262E-25
   2.811000        9.1052456E-25
   2.817500        8.9651261E-25
   2.824000        8.8255037E-25
   2.830500        8.6963425E-25
   2.837000        8.5875576E-25
   2.843500        8.5019997E-25
   2.850000        8.4460596E-25
   2.856500        8.4159912E-25
   2.863000        8.4079576E-25
   2.869500        8.4223375E-25
   2.876000        8.4618092E-25
   2.882500        8.5162021E-25
   2.889000        8.5846260E-25
   2.895500        8.6614926E-25
   2.902000        8.7355991E-25