  -3.000000        1.0000000E-24
  -2.993500        1.0000000E-24
  -2.987000        1.0000000E-24
  -2.980500        1.0000000E-24
  -2.974000        1.0000000E-24
  -2.967500        1.0000000E-24
  -2.961000        1.0000000E-24
  -2.954500        1.0000000E-24
  -2.948000        1.0000000E-24
  -2.941500        1.0000000E-24
  -2.935000        1.0000000E-24
  -2.928500        1.0000000E-24
  -2.922000        1.0000000E-24
  -2.915500        1.0000000E-24
  -2.909000        1.0000000E-24
  -2.902500        1.0000000E-24
  -2.896000        1.0000000E-24
  -2.889500        1.0000000E-24
  -2.883000        1.0000000E-24
  -2.876500        1.0000000E-24
  -2.870000        1.0000000E-24
  -2.863500        1.0000000E-24
  -2.857000        1.0000000E-24
  -2.850500        1.0000000E-24
  -2.844000        1.0000000E-24
  -2.837500        1.0000000E-24
  -2.831000        1.0000000E-24
  -2.824500        1.0000000E-24
  -2.818000        1.0000000E-24
  -2.811500        1.0000000E-24
  -2.805000        1.0000001E-24
  -2.798500        1.0000001E-24
  -2.792000        1.0000001E-24
  -2.785500        1.0000001E-24
  -2.779000        1.0000001E-24
  -2.772500        1.0000001E-24
  -2.766000        1.0000001E-24
  -2.759500        1.0000001E-24
  -2.753000        1.0000001E-24
  -2.746500        1.0000001E-24
  -2.740000        1.0000001E-24
  -2.733500        1.0000001E-24
  -2.727000        1.0000001E-24
  -2.720500        1.0000002E-24
  -2.714000        1.0000003E-24
  -2.707500        1.0000003E-24
  -2.701000        1.0000004E-24
  -2.694500        1.0000004E-24
  -2.688000        1.0000004E-24
  -2.681500        1.0000004E-24
  -2.675000        1.0000004E-24
  -2.668500        1.0000004E-24
  -2.662000        1.0000004E-24
  -2.655500        1.0000004E-24
  -2.649000        1.0000004E-24
  -2.642500        1.0000004E-24
  -2.636000        1.0000004E-24
  -2.629500        1.0000004E-24
  -2.623000        1.0000004E-24
  -2.616500        1.0000004E-24
  -2.610000        1.0000004E-24
  -2.603500        1.0000004E-24
  -2.597000        1.0000003E-24
  -2.590500        1.0000002E-24
  -2.584000        1.0000001E-24
  -2.577500        1.0000001E-24
  -2.571000        1.0000000E-24
  -2.564500        1.0000000E-24
  -2.558000        9.9999992E-25
  -2.551500        9.9999992E-25
  -2.545000        9.9999992E-25
  -2.538500        9.9999992E-25
  -2.532000        9.9999992E-25
  -2.525500        9.9999992E-25
  -2.519000        9.9999982E-25
  -2.512500        9.9999982E-25
  -2.506000        9.9999982E-25
  -2.499500        9.9999972E-25
  -2.493000        9.9999972E-25
  -2.486500        9.9999982E-25
  -2.480000        9.9999992E-25
  -2.473500        1.0000000E-24
  -2.467000        1.0000000E-24
  -2.460500        1.0000001E-24
  -2.454000        1.0000001E-24
  -2.447500        1.0000001E-24
  -2.441000        1.0000001E-24
  -2.434500        1.0000001E-24
  -2.428000        1.0000001E-24
  -2.421500        1.0000001E-24
  -2.415000        1.0000001E-24
  -2.408500        1.0000001E-24
  -2.402000        1.0000001E-24
  -2.395500        1.0000001E-24
  -2.389000        1.0000000E-24
  -2.382500        1.0000000E-24
  -2.376000        1.0000000E-24
  -2.369500        1.0000000E-24
  -2.363000        1.0000000E-24
  -2.356500        1.0000000E-24
  -2.350000        1.0000000E-24
  -2.343500        1.0000000E-24
  -2.337000        1.0000000E-24
  -2.330500        1.0000000E-24
  -2.324000        1.0000000E-24
  -2.317500        1.0000000E-24
  -2.311000        9.9999992E-25
  -2.304500        9.9999982E-25
  -2.298000        9.9999982E-25
  -2.291500        9.9999972E-25
  -2.285000        9.9999963E-25
  -2.278500        9.9999963E-25
  -2.272000        9.9999972E-25
  -2.265500        9.9999972E-25
  -2.259000        9.9999982E-25
  -2.252500        9.9999982E-25
  -2.246000        9.9999992E-25
  -2.239500        9.9999992E-25
  -2.233000        9.9999992E-25
  -2.226500        1.0000000E-24
  -2.220000        1.0000001E-24
  -2.213500        1.0000002E-24
  -2.207000        1.0000003E-24
  -2.200500        1.0000003E-24
  -2.194000        1.0000004E-24
  -2.187500        1.0000005E-24
  -2.181000        1.0000006E-24
  -2.174500        1.0000007E-24
  -2.168000        1.0000008E-24
  -2.161500        1.0000009E-24
  -2.155000        1.0000009E-24
  -2.148500        1.0000010E-24
  -2.142000        1.0000009E-24
  -2.135500        1.0000009E-24
  -2.129000        1.0000009E-24
  -2.122500        1.0000008E-24
  -2.116000        1.0000007E-24
  -2.109500        1.0000006E-24
  -2.103000        1.0000004E-24
  -2.096500        1.0000002E-24
  -2.090000        1.0000001E-24
  -2.083500        9.9999992E-25
  -2.077000        9.9999982E-25
  -2.070500        9.9999963E-25
  -2.064000        9.9999953E-25
  -2.057500        9.9999943E-25
  -2.051000        9.9999933E-25
  -2.044500        9.9999933E-25
  -2.038000        9.9999933E-25
  -2.031500        9.9999933E-25
  -2.025000        9.9999933E-25
  -2.018500        9.9999943E-25
  -2.012000        9.9999953E-25
  -2.005500        9.9999963E-25
  -1.999000        9.9999972E-25
  -1.992500        9.9999982E-25
  -1.986000        9.9999992E-25
  -1.979500        1.0000001E-24
  -1.973000        1.0000002E-24
  -1.966500        1.0000004E-24
  -1.960000        1.0000005E-24
  -1.953500        1.0000006E-24
  -1.947000        1.0000006E-24
  -1.940500        1.0000007E-24
  -1.934000        1.0000007E-24
  -1.927500        1.0000007E-24
  -1.921000        1.0000006E-24
  -1.914500        1.0000006E-24
  -1.908000        1.0000005E-24
  -1.901500        1.0000004E-24
  -1.895000        1.0000003E-24
  -1.888500        1.0000003E-24
  -1.882000        1.0000002E-24
  -1.875500        1.0000001E-24
  -1.869000        1.0000000E-24
  -1.862500        9.9999992E-25
  -1.856000        9.9999982E-25
  -1.849500        9.9999972E-25
  -1.843000        9.9999972E-25
  -1.836500        9.9999963E-25
  -1.830000        9.9999963E-25
  -1.823500        9.9999963E-25
  -1.817000        9.9999963E-25
  -1.810500        9.9999972E-25
  -1.804000        9.9999982E-25
  -1.797500        9.9999992E-25
  -1.791000        1.0000000E-24
  -1.784500        1.0000001E-24
  -1.778000        1.0000001E-24
  -1.771500        1.0000002E-24
  -1.765000        1.0000002E-24
  -1.758500        1.0000002E-24
  -1.752000        1.0000003E-24
  -1.745500        1.0000004E-24
  -1.739000        1.0000005E-24
  -1.732500        1.0000005E-24
  -1.726000        1.0000005E-24
  -1.719500        1.0000005E-24
  -1.713000        1.0000006E-24
  -1.706500        1.0000005E-24
  -1.700000        1.0000005E-24
  -1.693500        1.0000004E-24
  -1.687000        1.0000004E-24
  -1.680500        1.0000004E-24
  -1.674000        1.0000004E-24
  -1.667500        1.0000004E-24
  -1.661000        1.0000004E-24
  -1.654500        1.0000004E-24
  -1.648000        1.0000003E-24
  -1.641500        1.0000003E-24
  -1.635000        1.0000002E-24
  -1.628500        1.0000002E-24
  -1.622000        1.0000002E-24
  -1.615500        1.0000002E-24
  -1.609000        1.0000002E-24
  -1.602500        1.0000002E-24
  -1.596000        1.0000002E-24
  -1.589500        1.0000002E-24
  -1.583000        1.0000002E-24
  -1.576500        1.0000003E-24
  -1.570000        1.0000003E-24
  -1.563500        1.0000003E-24
  -1.557000        1.0000004E-24
  -1.550500        1.0000004E-24
  -1.544000        1.0000004E-24
  -1.537500        1.0000004E-24
  -1.531000        1.0000004E-24
  -1.524500        1.0000004E-24
  -1.518000        1.0000003E-24
  -1.511500        1.0000003E-24
  -1.505000        1.0000002E-24
  -1.498500        1.0000000E-24
  -1.492000        9.9999982E-25
  -1.485500        9.9999953E-25
  -1.479000        9.9999943E-25
  -1.472500        9.9999923E-25
  -1.466000        9.9999893E-25
  -1.459500        9.9999884E-25
  -1.453000        9.9999854E-25
  -1.446500        9.9999844E-25
  -1.440000        9.9999834E-25
  -1.433500        9.9999824E-25
  -1.427000        9.9999824E-25
  -1.420500        9.9999824E-25
  -1.414000        9.9999834E-25
  -1.407500        9.9999854E-25
  -1.401000        9.9999874E-25
  -1.394500        9.9999893E-25
  -1.388000        9.9999923E-25
  -1.381500        9.9999963E-25
  -1.375000        1.0000000E-24
  -1.368500        1.0000004E-24
  -1.362000        1.0000007E-24
  -1.355500        1.0000011E-24
  -1.349000        1.0000014E-24
  -1.342500        1.0000017E-24
  -1.336000        1.0000020E-24
  -1.329500        1.0000023E-24
  -1.323000        1.0000025E-24
  -1.316500        1.0000027E-24
  -1.310000        1.0000027E-24
  -1.303500        1.0000028E-24
  -1.297000        1.0000027E-24
  -1.290500        1.0000026E-24
  -1.284000        1.0000025E-24
  -1.277500        1.0000023E-24
  -1.271000        1.0000021E-24
  -1.264500        1.0000019E-24
  -1.258000        1.0000016E-24
  -1.251500        1.0000013E-24
  -1.245000        1.0000009E-24
  -1.238500        1.0000006E-24
  -1.232000        1.0000002E-24
  -1.225500        9.9999992E-25
  -1.219000        9.9999963E-25
  -1.212500        9.9999933E-25
  -1.206000        9.9999903E-25
  -1.199500        9.9999884E-25
  -1.193000        9.9999864E-25
  -1.186500        9.9999854E-25
  -1.180000        9.9999844E-25
  -1.173500        9.9999854E-25
  -1.167000        9.9999854E-25
  -1.160500        9.9999854E-25
  -1.154000        9.9999874E-25
  -1.147500        9.9999884E-25
  -1.141000        9.9999903E-25
  -1.134500        9.9999923E-25
  -1.128000        9.9999953E-25
  -1.121500        9.9999972E-25
  -1.115000        1.0000000E-24
  -1.108500        1.0000003E-24
  -1.102000        1.0000006E-24
  -1.095500        1.0000008E-24
  -1.089000        1.0000010E-24
  -1.082500        1.0000012E-24
  -1.076000        1.0000012E-24
  -1.069500        1.0000012E-24
  -1.063000        1.0000012E-24
  -1.056500        1.0000012E-24
  -1.050000        1.0000011E-24
  -1.043500        1.0000010E-24
  -1.037000        1.0000008E-24
  -1.030500        1.0000006E-24
  -1.024000        1.0000004E-24
  -1.017500        1.0000002E-24
  -1.011000        1.0000000E-24
  -1.004500        9.9999972E-25
 -0.9980000        9.9999953E-25
 -0.9915000        9.9999933E-25
 -0.9850000        9.9999913E-25
 -0.9785000        9.9999903E-25
 -0.9720000        9.9999893E-25
 -0.9655000        9.9999884E-25
 -0.9590000        9.9999884E-25
 -0.9525000        9.9999884E-25
 -0.9460000        9.9999893E-25
 -0.9395000        9.9999903E-25
 -0.9330000        9.9999913E-25
 -0.9265000        9.9999923E-25
 -0.9200000        9.9999953E-25
 -0.9135000        9.9999972E-25
 -0.9070000        9.9999992E-25
 -0.9005000        1.0000001E-24
 -0.8940000        1.0000003E-24
 -0.8875000        1.0000006E-24
 -0.8810000        1.0000007E-24
 -0.8745000        1.0000009E-24
 -0.8680000        1.0000010E-24
 -0.8615000        1.0000011E-24
 -0.8550000        1.0000011E-24
 -0.8485000        1.0000011E-24
 -0.8420000        1.0000010E-24
 -0.8355000        1.0000009E-24
 -0.8290000        1.0000008E-24
 -0.8225000        1.0000006E-24
 -0.8160000        1.0000003E-24
 -0.8095000        1.0000001E-24
 -0.8030000        9.9999992E-25
 -0.7965000        9.9999972E-25
 -0.7900000        9.9999953E-25
 -0.7835000        9.9999933E-25
 -0.7770000        9.9999923E-25
 -0.7705000        9.9999913E-25
 -0.7640000        9.9999913E-25
 -0.7575000        9.9999923E-25
 -0.7510000        9.9999923E-25
 -0.7445000        9.9999933E-25
 -0.7380000        9.9999943E-25
 -0.7315000        9.9999963E-25
 -0.7250000        9.9999972E-25
 -0.7185000        9.9999992E-25
 -0.7120000        1.0000001E-24
 -0.7055000        1.0000003E-24
 -0.6990000        1.0000005E-24
 -0.6925000        1.0000006E-24
 -0.6860000        1.0000008E-24
 -0.6795000        1.0000008E-24
 -0.6730000        1.0000009E-24
 -0.6665000        1.0000008E-24
 -0.6600000        1.0000008E-24
 -0.6535000        1.0000008E-24
 -0.6470000        1.0000007E-24
 -0.6405000        1.0000006E-24
 -0.6340000        1.0000004E-24
 -0.6275000        1.0000003E-24
 -0.6210000        1.0000002E-24
 -0.6145000        1.0000001E-24
 -0.6080000        1.0000000E-24
 -0.6015000        9.9999982E-25
 -0.5950000        9.9999982E-25
 -0.5885000        9.9999982E-25
 -0.5820000        9.9999982E-25
 -0.5755000        9.9999982E-25
 -0.5690000        9.9999992E-25
 -0.5625000        9.9999992E-25
 -0.5560000        9.9999992E-25
 -0.5495000        9.9999992E-25
 -0.5430000        9.9999992E-25
 -0.5365000        9.9999992E-25
 -0.5300000        1.0000000E-24
 -0.5235000        9.9999992E-25
 -0.5170000        9.9999982E-25
 -0.5105000        9.9999972E-25
 -0.5040000        9.9999963E-25
 -0.4975000        9.9999953E-25
 -0.4910000        9.9999943E-25
 -0.4845000        9.9999923E-25
 -0.4780000        9.9999913E-25
 -0.4715000        9.9999903E-25
 -0.4650000        9.9999893E-25
 -0.4585000        9.9999884E-25
 -0.4520000        9.9999874E-25
 -0.4455000        9.9999874E-25
 -0.4390000        9.9999874E-25
 -0.4325000        9.9999893E-25
 -0.4260000        9.9999903E-25
 -0.4195000        9.9999923E-25
 -0.4130000        9.9999943E-25
 -0.4065000        9.9999972E-25
 -0.4000000        1.0000001E-24
 -0.3935000        1.0000005E-24
 -0.3870000        1.0000009E-24
 -0.3805000        1.0000012E-24
 -0.3740000        1.0000015E-24
 -0.3675000        1.0000018E-24
 -0.3610000        1.0000020E-24
 -0.3545000        1.0000021E-24
 -0.3480000        1.0000022E-24
 -0.3415000        1.0000022E-24
 -0.3350000        1.0000020E-24
 -0.3285000        1.0000018E-24
 -0.3220000        1.0000017E-24
 -0.3155000        1.0000015E-24
 -0.3090000        1.0000012E-24
 -0.3025000        1.0000008E-24
 -0.2960000        1.0000005E-24
 -0.2895000        1.0000001E-24
 -0.2830000        9.9999972E-25
 -0.2765000        9.9999943E-25
 -0.2700000        9.9999903E-25
 -0.2635000        9.9999874E-25
 -0.2570000        9.9999854E-25
 -0.2505000        9.9999854E-25
 -0.2440000        9.9999854E-25
 -0.2375000        9.9999854E-25
 -0.2310000        9.9999874E-25
 -0.2245000        9.9999884E-25
 -0.2180000        9.9999903E-25
 -0.2115000        9.9999923E-25
 -0.2050000        9.9999953E-25
 -0.1985000        9.9999982E-25
 -0.1920000        1.0000002E-24
 -0.1855000        1.0000005E-24
 -0.1790000        1.0000009E-24
 -0.1725000        1.0000013E-24
 -0.1660000        1.0000016E-24
 -0.1595000        1.0000018E-24
 -0.1530000        1.0000021E-24
 -0.1465000        1.0000023E-24
 -0.1400000        1.0000024E-24
 -0.1335000        1.0000024E-24
 -0.1270000        1.0000024E-24
 -0.1205000        1.0000023E-24
 -0.1140000        1.0000022E-24
 -0.1075000        1.0000020E-24
 -0.1010000        1.0000017E-24
 -9.4499998E-02    1.0000013E-24
 -8.8000000E-02    1.0000010E-24
 -8.1500001E-02    1.0000006E-24
 -7.5000003E-02    1.0000001E-24
 -6.8499997E-02    9.9999972E-25
 -6.1999999E-02    9.9999923E-25
 -5.5500001E-02    9.9999884E-25
 -4.8999999E-02    9.9999834E-25
 -4.2500000E-02    9.9999795E-25
 -3.5999998E-02    9.9999755E-25
 -2.9500000E-02    9.9999726E-25
 -2.3000000E-02    9.9999696E-25
 -1.6500000E-02    9.9999667E-25
 -9.9999998E-03    9.9999657E-25
 -3.5000001E-03    9.9999657E-25
  3.0000000E-03    9.9999667E-25
  9.4999997E-03    9.9999686E-25
  1.6000001E-02    9.9999716E-25
  2.2500001E-02    9.9999746E-25
  2.8999999E-02    9.9999795E-25
  3.5500001E-02    9.9999854E-25
  4.1999999E-02    9.9999913E-25
  4.8500001E-02    9.9999982E-25
  5.5000000E-02    1.0000006E-24
  6.1500002E-02    1.0000014E-24
  6.8000004E-02    1.0000021E-24
  7.4500002E-02    1.0000028E-24
  8.1000000E-02    1.0000034E-24
  8.7499999E-02    1.0000039E-24
  9.3999997E-02    1.0000044E-24
  0.1005000        1.0000047E-24
  0.1070000        1.0000047E-24
  0.1135000        1.0000047E-24
  0.1200000        1.0000044E-24
  0.1265000        1.0000040E-24
  0.1330000        1.0000034E-24
  0.1395000        1.0000028E-24
  0.1460000        1.0000020E-24
  0.1525000        1.0000012E-24
  0.1590000        1.0000003E-24
  0.1655000        9.9999943E-25
  0.1720000        9.9999844E-25
  0.1785000        9.9999755E-25
  0.1850000        9.9999677E-25
  0.1915000        9.9999608E-25
  0.1980000        9.9999558E-25
  0.2045000        9.9999529E-25
  0.2110000        9.9999519E-25
  0.2175000        9.9999509E-25
  0.2240000        9.9999538E-25
  0.2305000        9.9999578E-25
  0.2370000        9.9999637E-25
  0.2435000        9.9999716E-25
  0.2500000        9.9999795E-25
  0.2565000        9.9999884E-25
  0.2630000        9.9999972E-25
  0.2695000        1.0000006E-24
  0.2760000        1.0000016E-24
  0.2825000        1.0000024E-24
  0.2890000        1.0000031E-24
  0.2955000        1.0000036E-24
  0.3020000        1.0000039E-24
  0.3085000        1.0000041E-24
  0.3150000        1.0000041E-24
  0.3215000        1.0000041E-24
  0.3280000        1.0000038E-24
  0.3345000        1.0000034E-24
  0.3410000        1.0000029E-24
  0.3475000        1.0000022E-24
  0.3540000        1.0000015E-24
  0.3605000        1.0000009E-24
  0.3670000        1.0000003E-24
  0.3735000        9.9999972E-25
  0.3800000        9.9999913E-25
  0.3865000        9.9999874E-25
  0.3930000        9.9999844E-25
  0.3995000        9.9999834E-25
  0.4060000        9.9999834E-25
  0.4125000        9.9999854E-25
  0.4190000        9.9999874E-25
  0.4255000        9.9999913E-25
  0.4320000        9.9999953E-25
  0.4385000        1.0000001E-24
  0.4450000        1.0000005E-24
  0.4515000        1.0000010E-24
  0.4580000        1.0000015E-24
  0.4645000        1.0000019E-24
  0.4710000        1.0000021E-24
  0.4775000        1.0000023E-24
  0.4840000        1.0000023E-24
  0.4905000        1.0000021E-24
  0.4970000        1.0000018E-24
  0.5035000        1.0000014E-24
  0.5100000        1.0000010E-24
  0.5165000        1.0000006E-24
  0.5230000        1.0000000E-24
  0.5295000        9.9999953E-25
  0.5360000        9.9999923E-25
  0.5425000        9.9999893E-25
  0.5490000        9.9999884E-25
  0.5555000        9.9999903E-25
  0.5620000        9.9999943E-25
  0.5685000        1.0000001E-24
  0.5750000        1.0000011E-24
  0.5815000        1.0000024E-24
  0.5880000        1.0000038E-24
  0.5945000        1.0000053E-24
  0.6010000        1.0000072E-24
  0.6075000        1.0000092E-24
  0.6140000        1.0000112E-24
  0.6205000        1.0000131E-24
  0.6270000        1.0000152E-24
  0.6335000        1.0000170E-24
  0.6400000        1.0000187E-24
  0.6465000        1.0000199E-24
  0.6530000        1.0000208E-24
  0.6595000        1.0000211E-24
  0.6660000        1.0000207E-24
  0.6725000        1.0000194E-24
  0.6790000        1.0000173E-24
  0.6855000        1.0000140E-24
  0.6920000        1.0000097E-24
  0.6985000        1.0000044E-24
  0.7050000        9.9999844E-25
  0.7115000        9.9999203E-25
  0.7180000        9.9998533E-25
  0.7245000        9.9997862E-25
  0.7310000        9.9997261E-25
  0.7375000        9.9996768E-25
  0.7440000        9.9996393E-25
  0.7505000        9.9996186E-25
  0.7570000        9.9996156E-25
  0.7635000        9.9996353E-25
  0.7700000        9.9996777E-25
  0.7765000        9.9997399E-25
  0.7830000        9.9998247E-25
  0.7895000        9.9999282E-25
  0.7960000        1.0000051E-24
  0.8025000        1.0000186E-24
  0.8090000        1.0000326E-24
  0.8155000        1.0000465E-24
  0.8220000        1.0000594E-24
  0.8285000        1.0000706E-24
  0.8350000        1.0000795E-24
  0.8415000        1.0000851E-24
  0.8480000        1.0000868E-24
  0.8545000        1.0000841E-24
  0.8610000        1.0000764E-24
  0.8675000        1.0000636E-24
  0.8740000        1.0000457E-24
  0.8805000        1.0000232E-24
  0.8870000        9.9999716E-25
  0.8935000        9.9996886E-25
  0.9000000        9.9993938E-25
  0.9065000        9.9991039E-25
  0.9130000        9.9988445E-25
  0.9195000        9.9986246E-25
  0.9260000        9.9984777E-25
  0.9325000        9.9984175E-25
  0.9390000        9.9984550E-25
  0.9455000        9.9985921E-25
  0.9520000        9.9988425E-25
  0.9585000        9.9991956E-25
  0.9650000        9.9996206E-25
  0.9715000        1.0000112E-24
  0.9780000        1.0000641E-24
  0.9845000        1.0001204E-24
  0.9910000        1.0001757E-24
  0.9975000        1.0002262E-24
   1.004000        1.0002706E-24
   1.010500        1.0003042E-24
   1.017000        1.0003228E-24
   1.023500        1.0003240E-24
   1.030000        1.0003077E-24
   1.036500        1.0002702E-24
   1.043000        1.0002103E-24
   1.049500        1.0001203E-24
   1.056000        1.0000010E-24
   1.062500        9.9985378E-25
   1.069000        9.9967974E-25
   1.075500        9.9948016E-25
   1.082000        9.9926184E-25
   1.088500        9.9902765E-25
   1.095000        9.9879109E-25
   1.101500        9.9855847E-25
   1.108000        9.9833966E-25
   1.114500        9.9813712E-25
   1.121000        9.9795667E-25
   1.127500        9.9781497E-25
   1.134000        9.9772051E-25
   1.140500        9.9768570E-25
   1.147000        9.9771873E-25
   1.153500        9.9782612E-25
   1.160000        9.9800469E-25
   1.166500        9.9826265E-25
   1.173000        9.9860354E-25
   1.179500        9.9902597E-25
   1.186000        9.9952591E-25
   1.192500        1.0000826E-24
   1.199000        1.0006917E-24
   1.205500        1.0013251E-24
   1.212000        1.0019662E-24
   1.218500        1.0025686E-24
   1.225000        1.0031186E-24
   1.231500        1.0035729E-24
   1.238000        1.0039173E-24
   1.244500        1.0041262E-24
   1.251000        1.0041766E-24
   1.257500        1.0040581E-24
   1.264000        1.0037554E-24
   1.270500        1.0032715E-24
   1.277000        1.0026061E-24
   1.283500        1.0017806E-24
   1.290000        1.0008044E-24
   1.296500        9.9972066E-25
   1.303000        9.9855729E-25
   1.309500        9.9736799E-25
   1.316000        9.9620195E-25
   1.322500        9.9509577E-25
   1.329000        9.9410772E-25
   1.335500        9.9327725E-25
   1.342000        9.9263078E-25
   1.348500        9.9219345E-25
   1.355000        9.9199141E-25
   1.361500        9.9202789E-25
   1.368000        9.9230606E-25
   1.374500        9.9279170E-25
   1.381000        9.9348669E-25
   1.387500        9.9432998E-25
   1.394000        9.9526508E-25
   1.400500        9.9629947E-25
   1.407000        9.9738564E-25
   1.413500        9.9850947E-25
   1.420000        9.9964306E-25
   1.426500        1.0007681E-24
   1.433000        1.0018355E-24
   1.439500        1.0028068E-24
   1.446000        1.0035974E-24
   1.452500        1.0042135E-24
   1.459000        1.0046426E-24
   1.465500        1.0049695E-24
   1.472000        1.0051324E-24
   1.478500        1.0052002E-24
   1.485000        1.0051971E-24
   1.491500        1.0052082E-24
   1.498000        1.0053986E-24
   1.504500        1.0058028E-24
   1.511000        1.0064722E-24
   1.517500        1.0074948E-24
   1.524000        1.0088533E-24
   1.530500        1.0105578E-24
   1.537000        1.0125507E-24
   1.543500        1.0147357E-24
   1.550000        1.0169874E-24
   1.556500        1.0192912E-24
   1.563000        1.0213645E-24
   1.569500        1.0229922E-24
   1.576000        1.0241424E-24
   1.582500        1.0246692E-24
   1.589000        1.0243881E-24
   1.595500        1.0231462E-24
   1.602000        1.0208451E-24
   1.608500        1.0175457E-24
   1.615000        1.0134126E-24
   1.621500        1.0085635E-24
   1.628000        1.0033601E-24
   1.634500        9.9777504E-25
   1.641000        9.9206861E-25
   1.647500        9.8632107E-25
   1.654000        9.8058339E-25
   1.660500        9.7494254E-25
   1.667000        9.6966635E-25
   1.673500        9.6503208E-25
   1.680000        9.6136605E-25
   1.686500        9.5832933E-25
   1.693000        9.5582450E-25
   1.699500        9.5392640E-25
   1.706000        9.5231989E-25
   1.712500        9.5077490E-25
   1.719000        9.4919195E-25
   1.725500        9.4748644E-25
   1.732000        9.4550304E-25
   1.738500        9.4331583E-25
   1.745000        9.4043264E-25
   1.751500        9.3728863E-25
   1.758000        9.3389683E-25
   1.764500        9.3040553E-25
   1.771000        9.2731733E-25
   1.777500        9.2490214E-25
   1.784000        9.2337885E-25
   1.790500        9.2263278E-25
   1.797000        9.2302652E-25
   1.803500        9.2432666E-25
   1.810000        9.2644860E-25
   1.816500        9.2903912E-25
   1.823000        9.3306290E-25
   1.829500        9.3731881E-25
   1.836000        9.4191422E-25
   1.842500        9.4617811E-25
   1.849000        9.4872741E-25
   1.855500        9.4929243E-25
   1.862000        9.4706124E-25
   1.868500        9.4134772E-25
   1.875000        9.3192172E-25
   1.881500        9.1786195E-25
   1.888000        8.9843457E-25
   1.894500        8.7249012E-25
   1.901000        8.4025549E-25
   1.907500        8.0163700E-25
   1.914000        7.5681180E-25
   1.920500        7.0655984E-25
   1.927000        6.5286262E-25
   1.933500        5.9713053E-25
   1.940000        5.4215984E-25
   1.946500        4.8923975E-25
   1.953000        4.4288283E-25
   1.959500        4.0300010E-25
   1.966000        3.7307863E-25
   1.972500        3.5490374E-25
   1.979000        3.4796645E-25
   1.985500        3.5504911E-25
   1.992000        3.7461257E-25
   1.998500        4.0892789E-25
   2.005000        4.5688319E-25
   2.011500        5.1789571E-25
   2.018000        5.9087378E-25
   2.024500        6.7346648E-25
   2.031000        7.6419051E-25
   2.037500        8.6068314E-25
   2.044000        9.5892561E-25
   2.050500        1.0564524E-24
   2.057000        1.1505447E-24
   2.063500        1.2394409E-24
   2.070000        1.3211967E-24
   2.076500        1.3952847E-24
   2.083000        1.4643165E-24
   2.089500        1.5275133E-24
   2.096000        1.5909495E-24
   2.102500        1.6536212E-24
   2.109000        1.7185461E-24
   2.115500        1.7831737E-24
   2.122000        1.8479635E-24
   2.128500        1.9129765E-24
   2.135000        1.9774879E-24
   2.141500        2.0406599E-24
   2.148000        2.0973739E-24
   2.154500        2.1491389E-24
   2.161000        2.1954216E-24
   2.167500        2.2325748E-24
   2.174000        2.2585240E-24
   2.180500        2.2712787E-24
   2.187000        2.2663165E-24
   2.193500        2.2445779E-24
   2.200000        2.2075357E-24
   2.206500        2.1577604E-24
   2.213000        2.0934323E-24
   2.219500        2.0119323E-24
   2.226000        1.9191996E-24
   2.232500        1.8185017E-24
   2.239000        1.7073267E-24
   2.245500        1.5923705E-24
   2.252000        1.4784269E-24
   2.258500        1.3670790E-24
   2.265000        1.2616559E-24
   2.271500        1.1649504E-24
   2.278000        1.0814748E-24
   2.284500        1.0187500E-24
   2.291000        9.8011432E-25
   2.297500        9.5653516E-25
   2.304000        9.5054515E-25
   2.310500        9.6589529E-25
   2.317000        1.0040550E-24
   2.323500        1.0730890E-24
   2.330000        1.1780870E-24
   2.336500        1.3156661E-24
   2.343000        1.4856830E-24
   2.349500        1.6911342E-24
   2.356000        1.9334143E-24
   2.362500        2.2232495E-24
   2.369000        2.5632183E-24
   2.375500        2.9593602E-24
   2.382000        3.4172255E-24
   2.388500        3.9394120E-24
   2.395000        4.5230693E-24
   2.401500        5.1487512E-24
   2.408000        5.8016381E-24
   2.414500        6.4602017E-24
   2.421000        7.1008928E-24
   2.427500        7.6886912E-24
   2.434000        8.1980729E-24
   2.440500        8.6035758E-24
   2.447000        8.8668226E-24
   2.453500        8.9714295E-24
   2.460000        8.8905129E-24
   2.466500        8.6260323E-24
   2.473000        8.1566167E-24
   2.479500        7.4779005E-24
   2.486000        6.6101767E-24
   2.492500        5.5703634E-24
   2.499000        4.3642996E-24
   2.505500        3.0346069E-24
   2.512000        1.6156651E-24
   2.518500        1.6029596E-25
   2.525000       -1.2835173E-24
   2.531500       -2.6840493E-24
   2.538000       -4.0122961E-24
   2.544500       -5.2183512E-24
   2.551000       -6.2710967E-24
   2.557500       -7.1395288E-24
   2.564000       -7.8225672E-24
   2.570500       -8.2930580E-24
   2.577000       -8.5243292E-24
   2.583500       -8.5169920E-24
   2.590000       -8.2590771E-24
   2.596500       -7.7831431E-24
   2.603000       -7.0021771E-24
   2.609500       -5.9170654E-24
   2.616000       -4.5107638E-24
   2.622500       -2.7983168E-24
   2.629000       -7.7742987E-25
   2.635500        1.4909648E-24
   2.642000        3.9676686E-24
   2.648500        6.6049702E-24
   2.655000        9.3471316E-24
   2.661500        1.2134393E-23
   2.668000        1.4925709E-23
   2.674500        1.7655365E-23
   2.681000        2.0223994E-23
   2.687500        2.2583590E-23
   2.694000        2.4666444E-23
   2.700500        2.6397477E-23
   2.707000        2.7781296E-23
   2.713500        2.8700300E-23
   2.720000        2.9148420E-23
   2.726500        2.9011521E-23
   2.733000        2.8266568E-23
   2.739500        2.6921630E-23
   2.746000        2.4976763E-23
   2.752500        2.2421786E-23
   2.759000        1.9296596E-23
   2.765500        1.5647777E-23
   2.772000        1.1471181E-23
   2.778500        6.8928165E-24
   2.785000        1.9507191E-24
   2.791500       -3.2432421E-24
   2.798000       -8.6122485E-24
   2.804500       -1.4035314E-23
   2.811000       -1.9483348E-23
   2.817500       -2.4910883E-23
   2.824000       -3.0162176E-23
   2.830500       -3.5192196E-23
   2.837000       -3.9828293E-23
   2.843500       -4.4041177E-23
   2.850000       -4.7791649E-23
   2.856500       -5.0874353E-23
   2.863000       -5.3246199E-23
   2.869500       -5.4735493E-23
   2.876000       -5.5218231E-23
   2.882500       -5.4708791E-23
   2.889000       -5.2970438E-23
   2.895500       -4.9921131E-23
   2.902000       -4.5485505E-23