  -3.000000        1.0000000E-24
  -2.993500        1.0000000E-24
  -2.987000        1.0000000E-24
  -2.980500        1.0000000E-24
  -2.974000        1.0000000E-24
  -2.967500        1.0000000E-24
  -2.961000        1.0000000E-24
  -2.954500        1.0000000E-24
  -2.948000        1.0000000E-24
  -2.941500        1.0000000E-24
  -2.935000        1.0000000E-24
  -2.928500        1.0000000E-24
  -2.922000        1.0000001E-24
  -2.915500        1.0000001E-24
  -2.909000        1.0000002E-24
  -2.902500        1.0000003E-24
  -2.896000        1.0000003E-24
  -2.889500        1.0000003E-24
  -2.883000        1.0000003E-24
  -2.876500        1.0000003E-24
  -2.870000        1.0000003E-24
  -2.863500        1.0000003E-24
  -2.857000        1.0000003E-24
  -2.850500        1.0000003E-24
  -2.844000        1.0000003E-24
  -2.837500        1.0000002E-24
  -2.831000        1.0000001E-24
  -2.824500        1.0000000E-24
  -2.818000        9.9999992E-25
  -2.811500        9.9999982E-25
  -2.805000        9.9999972E-25
  -2.798500        9.9999972E-25
  -2.792000        9.9999972E-25
  -2.785500        9.9999972E-25
  -2.779000        9.9999982E-25
  -2.772500        9.9999972E-25
  -2.766000        9.9999982E-25
  -2.759500        9.9999992E-25
  -2.753000        1.0000000E-24
  -2.746500        1.0000000E-24
  -2.740000        1.0000001E-24
  -2.733500        1.0000002E-24
  -2.727000        1.0000004E-24
  -2.720500        1.0000004E-24
  -2.714000        1.0000005E-24
  -2.707500        1.0000005E-24
  -2.701000        1.0000005E-24
  -2.694500        1.0000005E-24
  -2.688000        1.0000004E-24
  -2.681500        1.0000004E-24
  -2.675000        1.0000003E-24
  -2.668500        1.0000002E-24
  -2.662000        1.0000001E-24
  -2.655500        1.0000000E-24
  -2.649000        9.9999992E-25
  -2.642500        9.9999982E-25
  -2.636000        9.9999972E-25
  -2.629500        9.9999972E-25
  -2.623000        9.9999972E-25
  -2.616500        9.9999982E-25
  -2.610000        9.9999982E-25
  -2.603500        9.9999982E-25
  -2.597000        9.9999992E-25
  -2.590500        1.0000000E-24
  -2.584000        1.0000001E-24
  -2.577500        1.0000002E-24
  -2.571000        1.0000003E-24
  -2.564500        1.0000004E-24
  -2.558000        1.0000005E-24
  -2.551500        1.0000006E-24
  -2.545000        1.0000006E-24
  -2.538500        1.0000006E-24
  -2.532000        1.0000006E-24
  -2.525500        1.0000006E-24
  -2.519000        1.0000005E-24
  -2.512500        1.0000003E-24
  -2.506000        1.0000002E-24
  -2.499500        1.0000001E-24
  -2.493000        1.0000000E-24
  -2.486500        9.9999992E-25
  -2.480000        9.9999982E-25
  -2.473500        9.9999972E-25
  -2.467000        9.9999972E-25
  -2.460500        9.9999963E-25
  -2.454000        9.9999963E-25
  -2.447500        9.9999972E-25
  -2.441000        9.9999972E-25
  -2.434500        9.9999982E-25
  -2.428000        9.9999992E-25
  -2.421500        1.0000001E-24
  -2.415000        1.0000002E-24
  -2.408500        1.0000003E-24
  -2.402000        1.0000004E-24
  -2.395500        1.0000005E-24
  -2.389000        1.0000006E-24
  -2.382500        1.0000007E-24
  -2.376000        1.0000007E-24
  -2.369500        1.0000007E-24
  -2.363000        1.0000006E-24
  -2.356500        1.0000006E-24
  -2.350000        1.0000005E-24
  -2.343500        1.0000003E-24
  -2.337000        1.0000001E-24
  -2.330500        1.0000000E-24
  -2.324000        9.9999982E-25
  -2.317500        9.9999972E-25
  -2.311000        9.9999963E-25
  -2.304500        9.9999953E-25
  -2.298000        9.9999943E-25
  -2.291500        9.9999933E-25
  -2.285000        9.9999933E-25
  -2.278500        9.9999923E-25
  -2.272000        9.9999933E-25
  -2.265500        9.9999933E-25
  -2.259000        9.9999943E-25
  -2.252500        9.9999963E-25
  -2.246000        9.9999982E-25
  -2.239500        9.9999992E-25
  -2.233000        1.0000001E-24
  -2.226500        1.0000003E-24
  -2.220000        1.0000004E-24
  -2.213500        1.0000006E-24
  -2.207000        1.0000007E-24
  -2.200500        1.0000007E-24
  -2.194000        1.0000007E-24
  -2.187500        1.0000007E-24
  -2.181000        1.0000006E-24
  -2.174500        1.0000005E-24
  -2.168000        1.0000004E-24
  -2.161500        1.0000003E-24
  -2.155000        1.0000002E-24
  -2.148500        1.0000002E-24
  -2.142000        1.0000001E-24
  -2.135500        1.0000001E-24
  -2.129000        1.0000001E-24
  -2.122500        1.0000001E-24
  -2.116000        1.0000002E-24
  -2.109500        1.0000003E-24
  -2.103000        1.0000004E-24
  -2.096500        1.0000006E-24
  -2.090000        1.0000007E-24
  -2.083500        1.0000009E-24
  -2.077000        1.0000011E-24
  -2.070500        1.0000012E-24
  -2.064000        1.0000013E-24
  -2.057500        1.0000013E-24
  -2.051000        1.0000013E-24
  -2.044500        1.0000011E-24
  -2.038000        1.0000010E-24
  -2.031500        1.0000007E-24
  -2.025000        1.0000004E-24
  -2.018500        1.0000001E-24
  -2.012000        9.9999982E-25
  -2.005500        9.9999943E-25
  -1.999000        9.9999923E-25
  -1.992500        9.9999903E-25
  -1.986000        9.9999884E-25
  -1.979500        9.9999874E-25
  -1.973000        9.9999874E-25
  -1.966500        9.9999884E-25
  -1.960000        9.9999893E-25
  -1.953500        9.9999913E-25
  -1.947000        9.9999943E-25
  -1.940500        9.9999982E-25
  -1.934000        1.0000001E-24
  -1.927500        1.0000005E-24
  -1.921000        1.0000008E-24
  -1.914500        1.0000011E-24
  -1.908000        1.0000013E-24
  -1.901500        1.0000014E-24
  -1.895000        1.0000014E-24
  -1.888500        1.0000013E-24
  -1.882000        1.0000010E-24
  -1.875500        1.0000007E-24
  -1.869000        1.0000004E-24
  -1.862500        1.0000001E-24
  -1.856000        9.9999982E-25
  -1.849500        9.9999953E-25
  -1.843000        9.9999923E-25
  -1.836500        9.9999903E-25
  -1.830000        9.9999884E-25
  -1.823500        9.9999874E-25
  -1.817000        9.9999884E-25
  -1.810500        9.9999903E-25
  -1.804000        9.9999933E-25
  -1.797500        9.9999963E-25
  -1.791000        9.9999982E-25
  -1.784500        1.0000001E-24
  -1.778000        1.0000004E-24
  -1.771500        1.0000006E-24
  -1.765000        1.0000008E-24
  -1.758500        1.0000010E-24
  -1.752000        1.0000012E-24
  -1.745500        1.0000012E-24
  -1.739000        1.0000011E-24
  -1.732500        1.0000008E-24
  -1.726000        1.0000005E-24
  -1.719500        1.0000001E-24
  -1.713000        9.9999972E-25
  -1.706500        9.9999933E-25
  -1.700000        9.9999903E-25
  -1.693500        9.9999864E-25
  -1.687000        9.9999824E-25
  -1.680500        9.9999795E-25
  -1.674000        9.9999775E-25
  -1.667500        9.9999775E-25
  -1.661000        9.9999795E-25
  -1.654500        9.9999815E-25
  -1.648000        9.9999854E-25
  -1.641500        9.9999893E-25
  -1.635000        9.9999943E-25
  -1.628500        9.9999992E-25
  -1.622000        1.0000004E-24
  -1.615500        1.0000008E-24
  -1.609000        1.0000013E-24
  -1.602500        1.0000017E-24
  -1.596000        1.0000021E-24
  -1.589500        1.0000024E-24
  -1.583000        1.0000025E-24
  -1.576500        1.0000024E-24
  -1.570000        1.0000022E-24
  -1.563500        1.0000020E-24
  -1.557000        1.0000017E-24
  -1.550500        1.0000013E-24
  -1.544000        1.0000010E-24
  -1.537500        1.0000006E-24
  -1.531000        1.0000002E-24
  -1.524500        9.9999982E-25
  -1.518000        9.9999943E-25
  -1.511500        9.9999923E-25
  -1.505000        9.9999913E-25
  -1.498500        9.9999913E-25
  -1.492000        9.9999933E-25
  -1.485500        9.9999953E-25
  -1.479000        9.9999982E-25
  -1.472500        1.0000001E-24
  -1.466000        1.0000004E-24
  -1.459500        1.0000007E-24
  -1.453000        1.0000011E-24
  -1.446500        1.0000014E-24
  -1.440000        1.0000018E-24
  -1.433500        1.0000020E-24
  -1.427000        1.0000022E-24
  -1.420500        1.0000022E-24
  -1.414000        1.0000020E-24
  -1.407500        1.0000018E-24
  -1.401000        1.0000014E-24
  -1.394500        1.0000010E-24
  -1.388000        1.0000006E-24
  -1.381500        1.0000002E-24
  -1.375000        9.9999982E-25
  -1.368500        9.9999933E-25
  -1.362000        9.9999893E-25
  -1.355500        9.9999864E-25
  -1.349000        9.9999844E-25
  -1.342500        9.9999824E-25
  -1.336000        9.9999824E-25
  -1.329500        9.9999824E-25
  -1.323000        9.9999844E-25
  -1.316500        9.9999864E-25
  -1.310000        9.9999884E-25
  -1.303500        9.9999913E-25
  -1.297000        9.9999943E-25
  -1.290500        9.9999972E-25
  -1.284000        1.0000000E-24
  -1.277500        1.0000002E-24
  -1.271000        1.0000005E-24
  -1.264500        1.0000006E-24
  -1.258000        1.0000007E-24
  -1.251500        1.0000007E-24
  -1.245000        1.0000006E-24
  -1.238500        1.0000005E-24
  -1.232000        1.0000003E-24
  -1.225500        1.0000001E-24
  -1.219000        1.0000000E-24
  -1.212500        9.9999972E-25
  -1.206000        9.9999953E-25
  -1.199500        9.9999923E-25
  -1.193000        9.9999923E-25
  -1.186500        9.9999913E-25
  -1.180000        9.9999913E-25
  -1.173500        9.9999923E-25
  -1.167000        9.9999943E-25
  -1.160500        9.9999953E-25
  -1.154000        9.9999982E-25
  -1.147500        1.0000001E-24
  -1.141000        1.0000003E-24
  -1.134500        1.0000006E-24
  -1.128000        1.0000008E-24
  -1.121500        1.0000010E-24
  -1.115000        1.0000011E-24
  -1.108500        1.0000012E-24
  -1.102000        1.0000010E-24
  -1.095500        1.0000008E-24
  -1.089000        1.0000006E-24
  -1.082500        1.0000003E-24
  -1.076000        1.0000000E-24
  -1.069500        9.9999972E-25
  -1.063000        9.9999933E-25
  -1.056500        9.9999903E-25
  -1.050000        9.9999884E-25
  -1.043500        9.9999864E-25
  -1.037000        9.9999864E-25
  -1.030500        9.9999874E-25
  -1.024000        9.9999903E-25
  -1.017500        9.9999933E-25
  -1.011000        9.9999972E-25
  -1.004500        1.0000001E-24
 -0.9980000        1.0000006E-24
 -0.9915000        1.0000010E-24
 -0.9850000        1.0000014E-24
 -0.9785000        1.0000018E-24
 -0.9720000        1.0000021E-24
 -0.9655000        1.0000022E-24
 -0.9590000        1.0000023E-24
 -0.9525000        1.0000021E-24
 -0.9460000        1.0000018E-24
 -0.9395000        1.0000015E-24
 -0.9330000        1.0000010E-24
 -0.9265000        1.0000006E-24
 -0.9200000        1.0000001E-24
 -0.9135000        9.9999953E-25
 -0.9070000        9.9999903E-25
 -0.9005000        9.9999864E-25
 -0.8940000        9.9999834E-25
 -0.8875000        9.9999805E-25
 -0.8810000        9.9999795E-25
 -0.8745000        9.9999815E-25
 -0.8680000        9.9999844E-25
 -0.8615000        9.9999884E-25
 -0.8550000        9.9999933E-25
 -0.8485000        9.9999992E-25
 -0.8420000        1.0000004E-24
 -0.8355000        1.0000011E-24
 -0.8290000        1.0000017E-24
 -0.8225000        1.0000022E-24
 -0.8160000        1.0000027E-24
 -0.8095000        1.0000030E-24
 -0.8030000        1.0000031E-24
 -0.7965000        1.0000031E-24
 -0.7900000        1.0000029E-24
 -0.7835000        1.0000025E-24
 -0.7770000        1.0000020E-24
 -0.7705000        1.0000014E-24
 -0.7640000        1.0000005E-24
 -0.7575000        9.9999972E-25
 -0.7510000        9.9999874E-25
 -0.7445000        9.9999785E-25
 -0.7380000        9.9999686E-25
 -0.7315000        9.9999588E-25
 -0.7250000        9.9999499E-25
 -0.7185000        9.9999420E-25
 -0.7120000        9.9999361E-25
 -0.7055000        9.9999312E-25
 -0.6990000        9.9999292E-25
 -0.6925000        9.9999302E-25
 -0.6860000        9.9999341E-25
 -0.6795000        9.9999410E-25
 -0.6730000        9.9999519E-25
 -0.6665000        9.9999657E-25
 -0.6600000        9.9999834E-25
 -0.6535000        1.0000004E-24
 -0.6470000        1.0000030E-24
 -0.6405000        1.0000058E-24
 -0.6340000        1.0000090E-24
 -0.6275000        1.0000123E-24
 -0.6210000        1.0000157E-24
 -0.6145000        1.0000190E-24
 -0.6080000        1.0000219E-24
 -0.6015000        1.0000243E-24
 -0.5950000        1.0000259E-24
 -0.5885000        1.0000262E-24
 -0.5820000        1.0000251E-24
 -0.5755000        1.0000223E-24
 -0.5690000        1.0000174E-24
 -0.5625000        1.0000103E-24
 -0.5560000        1.0000007E-24
 -0.5495000        9.9998878E-25
 -0.5430000        9.9997438E-25
 -0.5365000        9.9995801E-25
 -0.5300000        9.9993997E-25
 -0.5235000        9.9992113E-25
 -0.5170000        9.9990230E-25
 -0.5105000        9.9988465E-25
 -0.5040000        9.9986966E-25
 -0.4975000        9.9985871E-25
 -0.4910000        9.9985359E-25
 -0.4845000        9.9985605E-25
 -0.4780000        9.9986779E-25
 -0.4715000        9.9989027E-25
 -0.4650000        9.9992478E-25
 -0.4585000        9.9997221E-25
 -0.4520000        1.0000328E-24
 -0.4455000        1.0001057E-24
 -0.4390000        1.0001900E-24
 -0.4325000        1.0002831E-24
 -0.4260000        1.0003816E-24
 -0.4195000        1.0004808E-24
 -0.4130000        1.0005754E-24
 -0.4065000        1.0006583E-24
 -0.4000000        1.0007224E-24
 -0.3935000        1.0007595E-24
 -0.3870000        1.0007614E-24
 -0.3805000        1.0007200E-24
 -0.3740000        1.0006280E-24
 -0.3675000        1.0004793E-24
 -0.3610000        1.0002697E-24
 -0.3545000        9.9999795E-25
 -0.3480000        9.9966554E-25
 -0.3415000        9.9927811E-25
 -0.3350000        9.9884552E-25
 -0.3285000        9.9838236E-25
 -0.3220000        9.9790796E-25
 -0.3155000        9.9744677E-25
 -0.3090000        9.9702720E-25
 -0.3025000        9.9668158E-25
 -0.2960000        9.9644502E-25
 -0.2895000        9.9635371E-25
 -0.2830000        9.9644354E-25
 -0.2765000        9.9674794E-25
 -0.2700000        9.9729521E-25
 -0.2635000        9.9810616E-25
 -0.2570000        9.9919144E-25
 -0.2505000        1.0005489E-24
 -0.2440000        1.0021610E-24
 -0.2375000        1.0039929E-24
 -0.2310000        1.0059909E-24
 -0.2245000        1.0080813E-24
 -0.2180000        1.0101705E-24
 -0.2115000        1.0121464E-24
 -0.2050000        1.0138808E-24
 -0.1985000        1.0152327E-24
 -0.1920000        1.0160540E-24
 -0.1855000        1.0161952E-24
 -0.1790000        1.0155142E-24
 -0.1725000        1.0138840E-24
 -0.1660000        1.0112035E-24
 -0.1595000        1.0074069E-24
 -0.1530000        1.0024745E-24
 -0.1465000        9.9644176E-25
 -0.1400000        9.8940867E-25
 -0.1335000        9.8154590E-25
 -0.1270000        9.7309947E-25
 -0.1205000        9.6439173E-25
 -0.1140000        9.5581917E-25
 -0.1075000        9.4784517E-25
 -0.1010000        9.4098898E-25
 -9.4499998E-02    9.3580824E-25
 -8.8000000E-02    9.3287870E-25
 -8.1500001E-02    9.3276698E-25
 -7.5000003E-02    9.3600092E-25
 -6.8499997E-02    9.4303539E-25
 -6.1999999E-02    9.5421621E-25
 -5.5500001E-02    9.6974375E-25
 -4.8999999E-02    9.8963715E-25
 -4.2500000E-02    1.0137008E-24
 -3.5999998E-02    1.0414975E-24
 -2.9500000E-02    1.0723276E-24
 -2.3000000E-02    1.1052188E-24
 -1.6500000E-02    1.1389265E-24
 -9.9999998E-03    1.1719498E-24
 -3.5000001E-03    1.2025609E-24
  3.0000000E-03    1.2288518E-24
  9.4999997E-03    1.2487971E-24
  1.6000001E-02    1.2603337E-24
  2.2500001E-02    1.2614546E-24
  2.8999999E-02    1.2503159E-24
  3.5500001E-02    1.2253531E-24
  4.1999999E-02    1.1854025E-24
  4.8500001E-02    1.1298230E-24
  5.5000000E-02    1.0586118E-24
  6.1500002E-02    9.7250851E-25
  6.8000004E-02    8.7307881E-25
  7.4500002E-02    7.6277298E-25
  8.1000000E-02    6.4495009E-25
  8.7499999E-02    5.2386355E-25
  9.3999997E-02    4.0460166E-25
  0.1005000        2.9297875E-25
  0.1070000        1.9537626E-25
  0.1135000        1.1853230E-25
  0.1200000        6.9282788E-26
  0.1265000        5.4258814E-26
  0.1330000        7.9548715E-26
  0.1395000        1.5033491E-25
  0.1460000        2.7051926E-25
  0.1525000        4.4235296E-25
  0.1590000        6.6608846E-25
  0.1655000        9.3967326E-25
  0.1720000        1.2585055E-24
  0.1785000        1.6152706E-24
  0.1850000        1.9998803E-24
  0.1915000        2.3995277E-24
  0.1980000        2.7988734E-24
  0.2045000        3.1803734E-24
  0.2110000        3.5247504E-24
  0.2175000        3.8116083E-24
  0.2240000        4.0201807E-24
  0.2305000        4.1301953E-24
  0.2370000        4.1228344E-24
  0.2435000        3.9817565E-24
  0.2500000        3.6941425E-24
  0.2565000        3.2517269E-24
  0.2630000        2.6517571E-24
  0.2695000        1.8978380E-24
  0.2760000        1.0006036E-24
  0.2825000       -2.1830838E-26
  0.2890000       -1.1436861E-24
  0.2955000       -2.3316460E-24
  0.3020000       -3.5453247E-24
  0.3085000       -4.7380954E-24
  0.3150000       -5.8582870E-24
  0.3215000       -6.8507387E-24
  0.3280000       -7.6586869E-24
  0.3345000       -8.2259402E-24
  0.3410000       -8.4992813E-24
  0.3475000       -8.4310219E-24
  0.3540000       -7.9816047E-24
  0.3605000       -7.1221668E-24
  0.3670000       -5.8369254E-24
  0.3735000       -4.1252956E-24
  0.3800000       -2.0035898E-24
  0.3865000        4.9379089E-25
  0.3930000        3.3137877E-24
  0.3995000        6.3848224E-24
  0.4060000        9.6177062E-24
  0.4125000        1.2907352E-23
  0.4190000        1.6135304E-23
  0.4255000        1.9173050E-23
  0.4320000        2.1886048E-23
  0.4385000        2.4138371E-23
  0.4450000        2.5797836E-23
  0.4515000        2.6741429E-23
  0.4580000        2.6860859E-23
  0.4645000        2.6067983E-23
  0.4710000        2.4299915E-23
  0.4775000        2.1523551E-23
  0.4840000        1.7739293E-23
  0.4905000        1.2983772E-23
  0.4970000        7.3313601E-24
  0.5035000        8.9437500E-25
  0.5100000       -6.1781764E-24
  0.5165000       -1.3703306E-23
  0.5230000       -2.1468214E-23
  0.5295000       -2.9235813E-23
  0.5360000       -3.6751480E-23
  0.5425000       -4.3750816E-23
  0.5490000       -4.9968122E-23
  0.5555000       -5.5145341E-23
  0.5620000       -5.9041076E-23
  0.5685000       -6.1439308E-23
  0.5750000       -6.2157525E-23
  0.5815000       -6.1053858E-23
  0.5880000       -5.8032887E-23
  0.5945000       -5.3049993E-23
  0.6010000       -4.6113893E-23
  0.6075000       -3.7287398E-23
  0.6140000       -2.6686297E-23
  0.6205000       -1.4476495E-23
  0.6270000       -8.6956532E-25
  0.6335000        1.3883013E-23
  0.6400000        2.9496551E-23
  0.6465000        4.5660449E-23
  0.6530000        6.2045545E-23
  0.6595000        7.8311156E-23
  0.6660000        9.4111327E-23
  0.6725000        1.0909990E-22
  0.6790000        1.2293418E-22
  0.6855000        1.3527688E-22
  0.6920000        1.4579659E-22
  0.6985000        1.5416647E-22
  0.7050000        1.6006195E-22
  0.7115000        1.6315760E-22
  0.7180000        1.6312389E-22
  0.7245000        1.5962473E-22
  0.7310000        1.5231655E-22
  0.7375000        1.4085000E-22
  0.7440000        1.2487517E-22
  0.7505000        1.0405111E-22
  0.7570000        7.8060645E-23
  0.7635000        4.6630792E-23
  0.7700000        9.5589834E-24
  0.7765000       -3.3254880E-23
  0.7830000       -8.1771384E-23
  0.7895000       -1.3577046E-22
  0.7960000       -1.9480785E-22
  0.8025000       -2.5817125E-22
  0.8090000       -3.2483881E-22
  0.8155000       -3.9344267E-22
  0.8220000       -4.6224134E-22
  0.8285000       -5.2910413E-22
  0.8350000       -5.9151128E-22
  0.8415000       -6.4657302E-22
  0.8480000       -6.9107128E-22
  0.8545000       -7.2152556E-22
  0.8610000       -7.3428531E-22
  0.8675000       -7.2564934E-22
  0.8740000       -6.9201171E-22
  0.8805000       -6.3003168E-22
  0.8870000       -5.3682487E-22
  0.8935000       -4.1016970E-22
  0.9000000       -2.4872305E-22
  0.9065000       -5.2236362E-23
  0.9130000        1.7823752E-22
  0.9195000        4.4015758E-22
  0.9260000        7.2933919E-22
  0.9325000        1.0398433E-21
  0.9390000        1.3639205E-21
  0.9455000        1.6920233E-21
  0.9520000        2.0128945E-21
  0.9585000        2.3137419E-21
  0.9650000        2.5805032E-21
  0.9715000        2.7982046E-21
  0.9780000        2.9514119E-21
  0.9845000        3.0247669E-21
  0.9910000        3.0036025E-21
  0.9975000        2.8746190E-21
   1.004000        2.6266034E-21
   1.010500        2.2511686E-21
   1.017000        1.7434853E-21
   1.023500        1.1029718E-21
   1.030000        3.3391599E-22
   1.036500       -5.5401366E-22
   1.043000       -1.5453980E-21
   1.049500       -2.6188716E-21
   1.056000       -3.7471354E-21
   1.062500       -4.8971996E-21
   1.069000       -6.0308805E-21
   1.075500       -7.1055582E-21
   1.082000       -8.0752086E-21
   1.088500       -8.8916859E-21
   1.095000       -9.5062553E-21
   1.101500       -9.8713327E-21
   1.108000       -9.9423935E-21
   1.114500       -9.6800028E-21
   1.121000       -9.0518867E-21
   1.127500       -8.0349917E-21
   1.134000       -6.6174340E-21
   1.140500       -4.8002624E-21
   1.147000       -2.5989423E-21
   1.153500       -4.4472087E-23
   1.160000        2.8159452E-21
   1.166500        5.9187556E-21
   1.173000        9.1844957E-21
   1.179500        1.2518862E-20
   1.186000        1.5814446E-20
   1.192500        1.8953131E-20
   1.199000        2.1809153E-20
   1.205500        2.4252740E-20
   1.212000        2.6154309E-20
   1.218500        2.7389078E-20
   1.225000        2.7842001E-20
   1.231500        2.7412853E-20
   1.238000        2.6021306E-20
   1.244500        2.3611821E-20
   1.251000        2.0158144E-20
   1.257500        1.5667208E-20
   1.264000        1.0182247E-20
   1.270500        3.7849450E-21
   1.277000       -3.4035667E-21
   1.283500       -1.1223008E-20
   1.290000       -1.9475638E-20
   1.296500       -2.7929414E-20
   1.303000       -3.6322651E-20
   1.309500       -4.4370143E-20
   1.316000       -5.1770666E-20
   1.322500       -5.8215737E-20
   1.329000       -6.3399426E-20
   1.335500       -6.7028940E-20
   1.342000       -6.8835786E-20
   1.348500       -6.8587005E-20
   1.355000       -6.6096280E-20
   1.361500       -6.1234404E-20
   1.368000       -5.3938706E-20
   1.374500       -4.4221092E-20
   1.381000       -3.2174234E-20
   1.387500       -1.7975596E-20
   1.394000       -1.8889544E-21
   1.400500        1.5736843E-20
   1.407000        3.4472051E-20
   1.413500        5.3813236E-20
   1.420000        7.3193497E-20
   1.426500        9.1995667E-20
   1.433000        1.0956820E-19
   1.439500        1.2524352E-19
   1.446000        1.3835829E-19
   1.452500        1.4827520E-19
   1.459000        1.5440573E-19
   1.465500        1.5623292E-19
   1.472000        1.5333382E-19
   1.478500        1.4540049E-19
   1.485000        1.3225898E-19
   1.491500        1.1388557E-19
   1.498000        9.0419274E-20
   1.504500        6.2170326E-20
   1.511000        2.9623648E-20
   1.517500       -6.5627755E-21
   1.524000       -4.5565157E-20
   1.530500       -8.6406912E-20
   1.537000       -1.2797740E-19
   1.543500       -1.6905629E-19
   1.550000       -2.0834290E-19
   1.556500       -2.4449050E-19
   1.563000       -2.7614417E-19
   1.569500       -3.0198188E-19
   1.576000       -3.2075735E-19
   1.582500       -3.3134379E-19
   1.589000       -3.3277691E-19
   1.595500       -3.2429616E-19
   1.602000       -3.0538286E-19
   1.608500       -2.7579329E-19
   1.615000       -2.3558621E-19
   1.621500       -1.8514318E-19
   1.628000       -1.2518043E-19
   1.634500       -5.6751757E-20
   1.641000        1.8758374E-20
   1.647500        9.9652103E-20
   1.654000        1.8394575E-19
   1.660500        2.6940787E-19
   1.667000        3.5360694E-19
   1.673500        4.3396852E-19
   1.680000        5.0784004E-19
   1.686500        5.7256294E-19
   1.693000        6.2554903E-19
   1.699500        6.6436112E-19
   1.706000        6.8679426E-19
   1.712500        6.9095544E-19
   1.719000        6.7534117E-19
   1.725500        6.3890784E-19
   1.732000        5.8113496E-19
   1.738500        5.0207718E-19
   1.745000        4.0240383E-19
   1.751500        2.8342413E-19
   1.758000        1.4709562E-19
   1.764500       -3.9847104E-21
   1.771000       -1.6660813E-19
   1.777500       -3.3700088E-19
   1.784000       -5.1088980E-19
   1.790500       -6.8358697E-19
   1.797000       -8.5009140E-19
   1.803500       -1.0052071E-18
   1.810000       -1.1436746E-18
   1.816500       -1.2603140E-18
   1.823000       -1.3501754E-18
   1.829500       -1.4086948E-18
   1.836000       -1.4318493E-18
   1.842500       -1.4163096E-18
   1.849000       -1.3595836E-18
   1.855500       -1.2601477E-18
   1.862000       -1.1175604E-18
   1.868500       -9.3255474E-19
   1.875000       -7.0710485E-19
   1.881500       -4.4446291E-19
   1.888000       -1.4916366E-19
   1.894500        1.7300651E-19
   1.901000        5.1507730E-19
   1.907500        8.6900007E-19
   1.914000        1.2257915E-18
   1.920500        1.5757135E-18
   1.927000        1.9084879E-18
   1.933500        2.2135417E-18
   1.940000        2.4802804E-18
   1.946500        2.6983808E-18
   1.953000        2.8580991E-18
   1.959500        2.9505863E-18
   1.966000        2.9682016E-18
   1.972500        2.9048172E-18
   1.979000        2.7561023E-18
   1.985500        2.5197795E-18
   1.992000        2.1958415E-18
   1.998500        1.7867215E-18
   2.005000        1.2974090E-18
   2.011500        7.3549969E-19
   2.018000        1.1117802E-19
   2.024500       -5.6287526E-19
   2.031000       -1.2716532E-18
   2.037500       -1.9980703E-18
   2.044000       -2.7232895E-18
   2.050500       -3.4271199E-18
   2.057000       -4.0884866E-18
   2.063500       -4.6859567E-18
   2.070000       -5.1983173E-18
   2.076500       -5.6051876E-18
   2.083000       -5.8876553E-18
   2.089500       -6.0289171E-18
   2.096000       -6.0149030E-18
   2.102500       -5.8348733E-18
   2.109000       -5.4819608E-18
   2.115500       -4.9536431E-18
   2.122000       -4.2521232E-18
   2.128500       -3.3846045E-18
   2.135000       -2.3634415E-18
   2.141500       -1.2061533E-18
   2.148000        6.4709325E-20
   2.154500        1.4218504E-18
   2.161000        2.8336712E-18
   2.167500        4.2648684E-18
   2.174000        5.6771779E-18
   2.180500        7.0302568E-18
   2.187000        8.2826885E-18
   2.193500        9.3930801E-18
   2.200000        1.0321240E-17
   2.206500        1.1029401E-17
   2.213000        1.1483454E-17
   2.219500        1.1654156E-17
   2.226000        1.1518287E-17
   2.232500        1.1059700E-17
   2.239000        1.0270247E-17
   2.245500        9.1505275E-18
   2.252000        7.7104367E-18
   2.258500        5.9694829E-18
   2.265000        3.9568462E-18
   2.271500        1.7111612E-18
   2.278000       -7.1997950E-19
   2.284500       -3.2808200E-18
   2.291000       -5.9085143E-18
   2.297500       -8.5344732E-18
   2.304000       -1.1085961E-17
   2.310500       -1.3487904E-17
   2.317000       -1.5664890E-17
   2.323500       -1.7543280E-17
   2.330000       -1.9053417E-17
   2.336500       -2.0131839E-17
   2.343000       -2.0723452E-17
   2.349500       -2.0783585E-17
   2.356000       -2.0279883E-17
   2.362500       -1.9193932E-17
   2.369000       -1.7522605E-17
   2.375500       -1.5279028E-17
   2.382000       -1.2493137E-17
   2.388500       -9.2117993E-18
   2.395000       -5.4984391E-18
   2.401500       -1.4321763E-18
   2.408000        2.8935373E-18
   2.414500        7.3727659E-18
   2.421000        1.1889399E-17
   2.427500        1.6319881E-17
   2.434000        2.0536304E-17
   2.440500        2.4409792E-17
   2.447000        2.7814100E-17
   2.453500        3.0629330E-17
   2.460000        3.2745685E-17
   2.466500        3.4067099E-17
   2.473000        3.4514710E-17
   2.479500        3.4030009E-17
   2.486000        3.2577565E-17
   2.492500        3.0147279E-17
   2.499000        2.6755982E-17
   2.505500        2.2448405E-17
   2.512000        1.7297367E-17
   2.518500        1.1403215E-17
   2.525000        4.8924102E-18
   2.531500       -2.0846488E-18
   2.538000       -9.3566245E-18
   2.544500       -1.6734966E-17
   2.551000       -2.4018319E-17
   2.557500       -3.0997521E-17
   2.564000       -3.7461064E-17
   2.570500       -4.3200900E-17
   2.577000       -4.8018447E-17
   2.583500       -5.1730641E-17
   2.590000       -5.4175843E-17
   2.596500       -5.5219444E-17
   2.603000       -5.4759019E-17
   2.609500       -5.2728823E-17
   2.616000       -4.9103493E-17
   2.622500       -4.3900824E-17
   2.629000       -3.7183486E-17
   2.635500       -2.9059566E-17
   2.642000       -1.9681912E-17
   2.648500       -9.2461918E-18
   2.655000        2.0123187E-18
   2.661500        1.3823190E-17
   2.668000        2.5886482E-17
   2.674500        3.7879469E-17
   2.681000        4.9464319E-17
   2.687500        6.0296576E-17
   2.694000        7.0034213E-17
   2.700500        7.8347080E-17
   2.707000        8.4926534E-17
   2.713500        8.9494854E-17
   2.720000        9.1814441E-17
   2.726500        9.1696227E-17
   2.733000        8.9007327E-17
   2.739500        8.3677478E-17
   2.746000        7.5704192E-17
   2.752500        6.5156269E-17
   2.759000        5.2175665E-17
   2.765500        3.6977481E-17
   2.772000        1.9848010E-17
   2.778500        1.1408086E-18
   2.785000       -1.8729179E-17
   2.791500       -3.9293408E-17
   2.798000       -6.0039317E-17
   2.804500       -8.0421503E-17
   2.811000       -9.9874350E-17
   2.817500       -1.1782578E-16
   2.824000       -1.3371180E-16
   2.830500       -1.4699168E-16
   2.837000       -1.5716311E-16
   2.843500       -1.6377725E-16
   2.850000       -1.6645314E-16
   2.856500       -1.6489096E-16
   2.863000       -1.5888398E-16
   2.869500       -1.4832869E-16
   2.876000       -1.3323286E-16
   2.882500       -1.1372100E-16
   2.889000       -9.0037405E-17
   2.895500       -6.2546044E-17
   2.902000       -3.1727647E-17