  -3.000000        1.0000000E-24
  -2.992500        1.0000000E-24
  -2.985000        1.0000000E-24
  -2.977500        1.0000000E-24
  -2.970000        1.0000000E-24
  -2.962500        1.0000000E-24
  -2.955000        1.0000000E-24
  -2.947500        1.0000000E-24
  -2.940000        1.0000000E-24
  -2.932500        1.0000000E-24
  -2.925000        1.0000000E-24
  -2.917500        1.0000002E-24
  -2.910000        1.0000002E-24
  -2.902500        1.0000002E-24
  -2.895000        1.0000002E-24
  -2.887500        1.0000001E-24
  -2.880000        9.9999992E-25
  -2.872500        9.9999903E-25
  -2.865000        9.9999608E-25
  -2.857500        9.9998799E-25
  -2.850000        9.9996758E-25
  -2.842500        9.9992143E-25
  -2.835000        9.9982825E-25
  -2.827500        9.9966308E-25
  -2.820000        9.9941459E-25
  -2.812500        9.9913424E-25
  -2.805000        9.9903672E-25
  -2.797500        9.9967491E-25
  -2.790000        1.0021990E-24
  -2.782500        1.0086628E-24
  -2.775000        1.0222596E-24
  -2.767500        1.0472303E-24
  -2.760000        1.0880037E-24
  -2.752500        1.1469374E-24
  -2.745000        1.2199036E-24
  -2.737500        1.2890249E-24
  -2.730000        1.3122905E-24
  -2.722500        1.2107189E-24
  -2.715000        8.5532017E-25
  -2.707500        5.8320493E-26
  -2.700000       -1.4242858E-24
  -2.692500       -3.8693265E-24
  -2.685000       -7.5312014E-24
  -2.677500       -1.2544483E-23
  -2.670000       -1.8778099E-23
  -2.662500       -2.5643307E-23
  -2.655000       -3.1870984E-23
  -2.647500       -3.5291422E-23
  -2.640000       -3.2670069E-23
  -2.632500       -1.9671799E-23
  -2.625000        8.9601535E-24
  -2.617500        5.8922552E-23
  -2.610000        1.3549513E-22
  -2.602500        2.4227287E-22
  -2.595000        3.7951391E-22
  -2.587500        5.4221230E-22
  -2.580000        7.1810637E-22
  -2.572500        8.8593356E-22
  -2.565000        1.0143363E-21
  -2.557500        1.0618779E-21
  -2.550000        9.7863565E-22
  -2.542500        7.0976565E-22
  -2.535000        2.0128570E-22
  -2.527500       -5.9192099E-22
  -2.520000       -1.6961969E-21
  -2.512500       -3.1079888E-21
  -2.505000       -4.7826016E-21
  -2.497500       -6.6242833E-21
  -2.490000       -8.4793703E-21
  -2.482500       -1.0134360E-20
  -2.475000       -1.1320690E-20
  -2.467500       -1.1727700E-20
  -2.460000       -1.1024637E-20
  -2.452500       -8.8917425E-21
  -2.445000       -5.0593618E-21
  -2.437500        6.4716634E-22
  -2.430000        8.2603427E-21
  -2.422500        1.7625660E-20
  -2.415000        2.8364569E-20
  -2.407500        3.9851132E-20
  -2.400000        5.1208180E-20
  -2.392500        6.1328017E-20
  -2.385000        6.8921147E-20
  -2.377500        7.2594676E-20
  -2.370000        7.0958926E-20
  -2.362500        6.2758296E-20
  -2.355000        4.7018772E-20
  -2.347500        2.3201744E-20
  -2.340000       -8.6488349E-21
  -2.332500       -4.7780812E-20
  -2.325000       -9.2645056E-20
  -2.317500       -1.4085896E-19
  -2.310000       -1.8923512E-19
  -2.302500       -2.3388545E-19
  -2.295000       -2.7040607E-19
  -2.287500       -2.9414266E-19
  -2.280000       -3.0052927E-19
  -2.272500       -2.8548575E-19
  -2.265000       -2.4585217E-19
  -2.257500       -1.7983040E-19
  -2.250000       -8.7397008E-20
  -2.242500        2.9352821E-20
  -2.235000        1.6597393E-19
  -2.227500        3.1559432E-19
  -2.220000        4.6903074E-19
  -2.212500        6.1512537E-19
  -2.205000        7.4131802E-19
  -2.197500        8.3445039E-19
  -2.190000        8.8177567E-19
  -2.182500        8.7212165E-19
  -2.175000        7.9713023E-19
  -2.167500        6.5247216E-19
  -2.160000        4.3891811E-19
  -2.152500        1.6313431E-19
  -2.145000       -1.6192095E-19
  -2.137500       -5.1711579E-19
  -2.130000       -8.7785670E-19
  -2.122500       -1.2154318E-18
  -2.115000       -1.4989579E-18
  -2.107500       -1.6978493E-18
  -2.100000       -1.7846457E-18
  -2.092500       -1.7379834E-18
  -2.085000       -1.5454399E-18
  -2.077500       -1.2059580E-18
  -2.070000       -7.3155223E-19
  -2.062500       -1.4803568E-19
  -2.055000        5.0543243E-19
  -2.047500        1.1780859E-18
  -2.040000        1.8105668E-18
  -2.032500        2.3390871E-18
  -2.025000        2.7004721E-18
  -2.017500        2.8377229E-18
  -2.010000        2.7056534E-18
  -2.002500        2.2761175E-18
  -1.995000        1.5423561E-18
  -1.987500        5.2205359E-19
  -1.980000       -7.4120904E-19
  -1.972500       -2.1782610E-18
  -1.965000       -3.6964319E-18
  -1.957500       -5.1832775E-18
  -1.950000       -6.5116758E-18
  -1.942500       -7.5459146E-18
  -1.935000       -8.1484040E-18
  -1.927500       -8.1866322E-18
  -1.920000       -7.5401045E-18
  -1.912500       -6.1071543E-18
  -1.905000       -3.8116524E-18
  -1.897500       -6.0982562E-19
  -1.890000        3.5024717E-18
  -1.882500        8.4817007E-18
  -1.875000        1.4227478E-17
  -1.867500        2.0572245E-17
  -1.860000        2.7270022E-17
  -1.852500        3.3985093E-17
  -1.845000        4.0281803E-17
  -1.837500        4.5617644E-17
  -1.830000        4.9342061E-17
  -1.822500        5.0704037E-17
  -1.815000        4.8871730E-17
  -1.807500        4.2967235E-17
  -1.800000        3.2119149E-17
  -1.792500        1.5534440E-17
  -1.785000       -7.4102586E-18
  -1.777500       -3.7059961E-17
  -1.770000       -7.3359512E-17
  -1.762500       -1.1572581E-16
  -1.755000       -1.6292356E-16
  -1.747500       -2.1295721E-16
  -1.740000       -2.6299306E-16
  -1.732500       -3.0932717E-16
  -1.725000       -3.4741527E-16
  -1.717500       -3.7197907E-16
  -1.710000       -3.7720079E-16
  -1.702500       -3.5701443E-16
  -1.695000       -3.0549471E-16
  -1.687500       -2.1733956E-16
  -1.680000       -8.8430888E-17
  -1.672500        8.3548623E-17
  -1.665000        2.9847554E-16
  -1.657500        5.5316397E-16
  -1.650000        8.4081144E-16
  -1.642500        1.1505670E-15
  -1.635000        1.4672783E-15
  -1.627500        1.7714767E-15
  -1.620000        2.0396500E-15
  -1.612500        2.2448480E-15
  -1.605000        2.3576491E-15
  -1.597500        2.3475018E-15
  -1.590000        2.1844279E-15
  -1.582500        1.8410566E-15
  -1.575000        1.2949269E-15
  -1.567500        5.3096626E-16
  -1.560000       -4.5596572E-16
  -1.552500       -1.6586115E-15
  -1.545000       -3.0550871E-15
  -1.537500       -4.6070656E-15
  -1.530000       -6.2585537E-15
  -1.522500       -7.9354392E-15
  -1.515000       -9.5459808E-15
  -1.507500       -1.0982377E-14
  -1.500000       -1.2123529E-14
  -1.492500       -1.2839065E-14
  -1.485000       -1.2994626E-14
  -1.477500       -1.2458376E-14
  -1.470000       -1.1108600E-14
  -1.462500       -8.8421888E-15
  -1.455000       -5.5837505E-15
  -1.447500       -1.2949732E-15
  -1.440000        4.0161639E-15
  -1.432500        1.0286820E-14
  -1.425000        1.7391907E-14
  -1.417500        2.5138456E-14
  -1.410000        3.3262279E-14
  -1.402500        4.1427541E-14
  -1.395000        4.9229745E-14
  -1.387500        5.6202523E-14
  -1.380000        6.1828730E-14
  -1.372500        6.5555871E-14
  -1.365000        6.6816066E-14
  -1.357500        6.5050321E-14
  -1.350000        5.9736728E-14
  -1.342500        5.0422038E-14
  -1.335000        3.6755741E-14
  -1.327500        1.8525422E-14
  -1.320000       -4.3078292E-15
  -1.312500       -3.1575694E-14
  -1.305000       -6.2872301E-14
  -1.297500       -9.7529345E-14
  -1.290000       -1.3459858E-13
  -1.282500       -1.7284386E-13
  -1.275000       -2.1074462E-13
  -1.267500       -2.4651269E-13
  -1.260000       -2.7812374E-13
  -1.252500       -3.0336476E-13
  -1.245000       -3.1989781E-13
  -1.237500       -3.2534026E-13
  -1.230000       -3.1736061E-13
  -1.222500       -2.9378840E-13
  -1.215000       -2.5273531E-13
  -1.207500       -1.9272493E-13
  -1.200000       -1.1282614E-13
  -1.192500       -1.2785353E-14
  -1.185000        1.0684799E-13
  -1.177500        2.4460954E-13
  -1.170000        3.9802813E-13
  -1.162500        5.6356146E-13
  -1.155000        7.3656532E-13
  -1.147500        9.1130413E-13
  -1.140000        1.0810069E-12
  -1.132500        1.2379755E-12
  -1.125000        1.3737460E-12
  -1.117500        1.4793054E-12
  -1.110000        1.5453656E-12
  -1.102500        1.5626864E-12
  -1.095000        1.5224468E-12
  -1.087500        1.4166541E-12
  -1.080000        1.2385805E-12
  -1.072500        9.8321340E-13
  -1.065000        6.4770384E-13
  -1.057500        2.3179546E-13
  -1.050000       -2.6178547E-13
  -1.042500       -8.2700079E-13
  -1.035000       -1.4542497E-12
  -1.027500       -2.1302194E-12
  -1.020000       -2.8378571E-12
  -1.012500       -3.5564748E-12
  -1.005000       -4.2620074E-12
 -0.9975000       -4.9274278E-12
 -0.9900000       -5.5233296E-12
 -0.9825000       -6.0186691E-12
 -0.9750000       -6.3816652E-12
 -0.9675000       -6.5808422E-12
 -0.9600000       -6.5861930E-12
 -0.9525000       -6.3704315E-12
 -0.9450000       -5.9103113E-12
 -0.9375000       -5.1879499E-12
 -0.9300000       -4.1921358E-12
 -0.9225000       -2.9195463E-12
 -0.9150000       -1.3758375E-12
 -0.9075000        4.2345641E-13
 -0.9000000        2.4522637E-12
 -0.8925000        4.6736096E-12
 -0.8850000        7.0395864E-12
 -0.8775000        9.4917026E-12
 -0.8700000        1.1961640E-11
 -0.8625000        1.4372429E-11
 -0.8550000        1.6640056E-11
 -0.8475000        1.8675487E-11
 -0.8400000        2.0387083E-11
 -0.8325000        2.1683358E-11
 -0.8250000        2.2476035E-11
 -0.8175000        2.2683294E-11
 -0.8100000        2.2233165E-11
 -0.8025000        2.1066910E-11
 -0.7950000        1.9142323E-11
 -0.7875000        1.6436789E-11
 -0.7800000        1.2950003E-11
 -0.7725000        8.7062050E-12
 -0.7650000        3.7558125E-12
 -0.7575000       -1.8236606E-12
 -0.7500000       -7.9274989E-12
 -0.7425000       -1.4424572E-11
 -0.7350000       -2.1159064E-11
 -0.7275000       -2.7953185E-11
 -0.7200000       -3.4610832E-11
 -0.7125000       -4.0922203E-11
 -0.7050000       -4.6669245E-11
 -0.6975000       -5.1631855E-11
 -0.6900000       -5.5594671E-11
 -0.6825000       -5.8354307E-11
 -0.6750000       -5.9726765E-11
 -0.6675000       -5.9554826E-11
 -0.6600000       -5.7715221E-11
 -0.6525000       -5.4125215E-11
 -0.6450000       -4.8748412E-11
 -0.6375000       -4.1599515E-11
 -0.6300000       -3.2747811E-11
 -0.6225000       -2.2319129E-11
 -0.6150000       -1.0496111E-11
 -0.6075000        2.4832898E-12
 -0.6000000        1.6329249E-11
 -0.5925000        3.0705400E-11
 -0.5850000        4.5236054E-11
 -0.5775000        5.9515191E-11
 -0.5700000        7.3117006E-11
 -0.5625000        8.5607854E-11
 -0.5550000        9.6559261E-11
 -0.5475000        1.0556150E-10
 -0.5400000        1.1223761E-10
 -0.5325000        1.1625716E-10
 -0.5250000        1.1734941E-10
 -0.5175000        1.1531541E-10
 -0.5100000        1.1003846E-10
 -0.5025000        1.0149277E-10
 -0.4950000        8.9749430E-11
 -0.4875000        7.4979932E-11
 -0.4800000        5.7456505E-11
 -0.4725000        3.7549335E-11
 -0.4650000        1.5720468E-11
 -0.4575000       -7.4855365E-12
 -0.4500000       -3.1454117E-11
 -0.4425000       -5.5516123E-11
 -0.4350000       -7.8965806E-11
 -0.4275000       -1.0108091E-10
 -0.4200000       -1.2114444E-10
 -0.4125000       -1.3846725E-10
 -0.4050000       -1.5241106E-10
 -0.3975000       -1.6241089E-10
 -0.3900000       -1.6799651E-10
 -0.3825000       -1.6881176E-10
 -0.3750000       -1.6463128E-10
 -0.3675000       -1.5537395E-10
 -0.3600000       -1.4111247E-10
 -0.3525000       -1.2207836E-10
 -0.3450000       -9.8662488E-11
 -0.3375000       -7.1410280E-11
 -0.3300000       -4.1012065E-11
 -0.3225000       -8.2883735E-12
 -0.3150000        2.5829575E-11
 -0.3075000        6.0323690E-11
 -0.3000000        9.4116624E-11
 -0.2925000        1.2610246E-10
 -0.2850000        1.5517966E-10
 -0.2775000        1.8028531E-10
 -0.2700000        2.0042963E-10
 -0.2625000        2.1472971E-10
 -0.2550000        2.2244130E-10
 -0.2475000        2.2298778E-10
 -0.2400000        2.1598512E-10
 -0.2325000        2.0126177E-10
 -0.2250000        1.7887319E-10
 -0.2175000        1.4910964E-10
 -0.2100000        1.1249746E-10
 -0.2025000        6.9792977E-11
 -0.1950000        2.1969360E-11
 -0.1875000       -2.9803587E-11
 -0.1800000       -8.4186297E-11
 -0.1725000       -1.3970233E-10
 -0.1650000       -1.9477650E-10
 -0.1575000       -2.4777722E-10
 -0.1500000       -2.9706185E-10
 -0.1425000       -3.4102388E-10
 -0.1350000       -3.7814032E-10
 -0.1275000       -4.0701828E-10
 -0.1200000       -4.2643833E-10
 -0.1125000       -4.3539480E-10
 -0.1050000       -4.3312998E-10
 -9.7499996E-02   -4.1916226E-10
 -9.0000004E-02   -3.9330647E-10
 -8.2500003E-02   -3.5568623E-10
 -7.5000003E-02   -3.0673689E-10
 -6.7500003E-02   -2.4719968E-10
 -5.9999999E-02   -1.7810647E-10
 -5.2499998E-02   -1.0075556E-10
 -4.5000002E-02   -1.6679286E-11
 -3.7500001E-02    7.2396027E-11
 -2.9999999E-02    1.6459634E-10
 -2.2500001E-02    2.5795119E-10
 -1.5000000E-02    3.5044834E-10
 -7.4999998E-03    4.4009016E-10
  0.0000000E+00    5.2494997E-10
  7.4999998E-03    6.0322597E-10
  1.5000000E-02    6.7329214E-10
  2.2500001E-02    7.3374262E-10
  2.9999999E-02    7.8342949E-10
  3.7500001E-02    8.2149176E-10
  4.5000002E-02    8.4737456E-10
  5.2499998E-02    8.6083751E-10
  5.9999999E-02    8.6195218E-10
  6.7500003E-02    8.5108776E-10
  7.5000003E-02    8.2888646E-10
  8.2500003E-02    7.9622714E-10
  9.0000004E-02    7.5418027E-10
  9.7499996E-02    7.0395484E-10
  0.1050000        6.4683819E-10
  0.1125000        5.8413180E-10
  0.1200000        5.1708482E-10
  0.1275000        4.4682780E-10
  0.1350000        3.7430881E-10
  0.1425000        3.0023534E-10
  0.1500000        2.2502331E-10
  0.1575000        1.4875658E-10
  0.1650000        7.1158260E-11
  0.1725000       -8.4236819E-12
  0.1800000       -9.1015584E-11
  0.1875000       -1.7800064E-10
  0.1950000       -2.7108440E-10
  0.2025000       -3.7224329E-10
  0.2100000       -4.8365634E-10
  0.2175000       -6.0762145E-10
  0.2250000       -7.4645767E-10
  0.2325000       -9.0239566E-10
  0.2400000       -1.0774588E-09
  0.2475000       -1.2733378E-09
  0.2550000       -1.4912634E-09
  0.2625000       -1.7318792E-09
  0.2700000       -1.9951185E-09
  0.2775000       -2.2800926E-09
  0.2850000       -2.5849878E-09
  0.2925000       -2.9069838E-09
  0.3000000       -3.2421890E-09
  0.3075000       -3.5856020E-09
  0.3150000       -3.9310977E-09
  0.3225000       -4.2714450E-09
  0.3300000       -4.5983555E-09
  0.3375000       -4.9025632E-09
  0.3450000       -5.1739395E-09
  0.3525000       -5.4016405E-09
  0.3600000       -5.5742864E-09
  0.3675000       -5.6801692E-09
  0.3750000       -5.7074918E-09
  0.3825000       -5.6446305E-09
  0.3900000       -5.4804130E-09
  0.3975000       -5.2044178E-09
  0.4050000       -4.8072812E-09
  0.4125000       -4.2810071E-09
  0.4200000       -3.6192755E-09
  0.4275000       -2.8177407E-09
  0.4350000       -1.8743149E-09
  0.4425000       -7.8942641E-10
  0.4500000        4.3375120E-10
  0.4575000        1.7891078E-09
  0.4650000        3.2674481E-09
  0.4725000        4.8563944E-09
  0.4800000        6.5403434E-09
  0.4875000        8.3004803E-09
  0.4950000        1.0114856E-08
  0.5025000        1.1958537E-08
  0.5100000        1.3803812E-08
  0.5175000        1.5620468E-08
  0.5250000        1.7376138E-08
  0.5325000        1.9036699E-08
  0.5400000        2.0566747E-08
  0.5475000        2.1930104E-08
  0.5550000        2.3090385E-08
  0.5625000        2.4011596E-08
  0.5700000        2.4658775E-08
  0.5775000        2.4998620E-08
  0.5850000        2.5000162E-08
  0.5925000        2.4635399E-08
  0.6000000        2.3879933E-08
  0.6075000        2.2713564E-08
  0.6150000        2.1120854E-08
  0.6225000        1.9091619E-08
  0.6300000        1.6621359E-08
  0.6375000        1.3711625E-08
  0.6450000        1.0370277E-08
  0.6525000        6.6116717E-09
  0.6600000        2.4567315E-09
  0.6675000       -2.0670730E-09
  0.6750000       -6.9258475E-09
  0.6825000       -1.2079499E-08
  0.6900000       -1.7482053E-08
  0.6975000       -2.3082061E-08
  0.7050000       -2.8823077E-08
  0.7125000       -3.4644209E-08
  0.7200000       -4.0480717E-08
  0.7275000       -4.6264628E-08
  0.7350000       -5.1925394E-08
  0.7425000       -5.7390519E-08
  0.7500000       -6.2586174E-08
  0.7575000       -6.7437760E-08
  0.7650000       -7.1870417E-08
  0.7725000       -7.5809432E-08
  0.7800000       -7.9180538E-08
  0.7875000       -8.1910152E-08
  0.7950000       -8.3925386E-08
  0.8025000       -8.5154035E-08
  0.8100000       -8.5524320E-08
  0.8175000       -8.4964569E-08
  0.8250000       -8.3402718E-08
  0.8325000       -8.0765638E-08
  0.8400000       -7.6978445E-08
  0.8475000       -7.1963605E-08
  0.8550000       -6.5640009E-08
  0.8625000       -5.7921994E-08
  0.8700000       -4.8718235E-08
  0.8775000       -3.7930732E-08
  0.8850000       -2.5453783E-08
  0.8925000       -1.1172962E-08
  0.9000000        5.0357798E-09
  0.9075000        2.3306930E-08
  0.9150000        4.3786109E-08
  0.9225000        6.6630605E-08
  0.9300000        9.2009770E-08
  0.9375000        1.2010518E-07
  0.9450000        1.5111074E-07
  0.9525000        1.8523239E-07
  0.9600000        2.2268794E-07
  0.9675000        2.6370643E-07
  0.9750000        3.0852752E-07
  0.9825000        3.5740081E-07
  0.9900000        4.1058482E-07
  0.9975000        4.6834634E-07
   1.005000        5.3095943E-07
   1.012500        5.9870433E-07
   1.020000        6.7186687E-07
   1.027500        7.5073791E-07
   1.035000        8.3561252E-07
   1.042500        9.2679016E-07
   1.050000        1.0245741E-06
   1.057500        1.1292721E-06
   1.065000        1.2411966E-06
   1.072500        1.3606667E-06
   1.080000        1.4880081E-06
   1.087500        1.6235556E-06
   1.095000        1.7676550E-06
   1.102500        1.9206655E-06
   1.110000        2.0829627E-06
   1.117500        2.2549414E-06
   1.125000        2.4370188E-06
   1.132500        2.6296393E-06
   1.140000        2.8332763E-06
   1.147500        3.0484384E-06
   1.155000        3.2756720E-06
   1.162500        3.5155660E-06
   1.170000        3.7687553E-06
   1.177500        4.0359255E-06
   1.185000        4.3178170E-06
   1.192500        4.6152272E-06
   1.200000        4.9290165E-06
   1.207500        5.2601076E-06
   1.215000        5.6094923E-06
   1.222500        5.9782333E-06
   1.230000        6.3674629E-06
   1.237500        6.7783908E-06
   1.245000        7.2123012E-06
   1.252500        7.6705583E-06
   1.260000        8.1546013E-06
   1.267500        8.6659538E-06
   1.275000        9.2062191E-06
   1.282500        9.7770799E-06
   1.290000        1.0380308E-05
   1.297500        1.1017753E-05
   1.305000        1.1691357E-05
   1.312500        1.2403143E-05
   1.320000        1.3155225E-05
   1.327500        1.3949812E-05
   1.335000        1.4789201E-05
   1.342500        1.5675792E-05
   1.350000        1.6612079E-05
   1.357500        1.7600671E-05
   1.365000        1.8644279E-05
   1.372500        1.9745732E-05
   1.380000        2.0907983E-05
   1.387500        2.2134109E-05
   1.395000        2.3427330E-05
   1.402500        2.4791003E-05
   1.410000        2.6228641E-05
   1.417500        2.7743912E-05
   1.425000        2.9340659E-05
   1.432500        3.1022901E-05
   1.440000        3.2794840E-05
   1.447500        3.4660883E-05
   1.455000        3.6625635E-05
   1.462500        3.8693932E-05
   1.470000        4.0870815E-05
   1.477500        4.3161570E-05
   1.485000        4.5571720E-05
   1.492500        4.8107046E-05
   1.500000        5.0773579E-05
   1.507500        5.3577620E-05
   1.515000        5.6525747E-05
   1.522500        5.9624821E-05
   1.530000        6.2881983E-05
   1.537500        6.6304681E-05
   1.545000        6.9900663E-05
   1.552500        7.3677962E-05
   1.560000        7.7644952E-05
   1.567500        8.1810336E-05
   1.575000        8.6183107E-05
   1.582500        9.0772635E-05
   1.590000        9.5588606E-05
   1.597500        1.0064107E-04
   1.605000        1.0594045E-04
   1.612500        1.1149751E-04
   1.620000        1.1732341E-04
   1.627500        1.2342972E-04
   1.635000        1.2982839E-04
   1.642500        1.3653179E-04
   1.650000        1.4355271E-04
   1.657500        1.5090441E-04
   1.665000        1.5860060E-04
   1.672500        1.6665546E-04
   1.680000        1.7508365E-04
   1.687500        1.8390038E-04
   1.695000        1.9312135E-04
   1.702500        2.0276279E-04
   1.710000        2.1284157E-04
   1.717500        2.2337503E-04
   1.725000        2.3438119E-04
   1.732500        2.4587868E-04
   1.740000        2.5788668E-04
   1.747500        2.7042514E-04
   1.755000        2.8351456E-04
   1.762500        2.9717622E-04
   1.770000        3.1143206E-04
   1.777500        3.2630467E-04
   1.785000        3.4181747E-04
   1.792500        3.5799449E-04
   1.800000        3.7486063E-04
   1.807500        3.9244143E-04
   1.815000        4.1076326E-04
   1.822500        4.2985324E-04
   1.830000        4.4973925E-04
   1.837500        4.7044997E-04
   1.845000        4.9201492E-04
   1.852500        5.1446428E-04
   1.860000        5.3782918E-04
   1.867500        5.6214147E-04
   1.875000        5.8743387E-04
   1.882500        6.1373977E-04
   1.890000        6.4109359E-04
   1.897500        6.6953042E-04
   1.905000        6.9908629E-04
   1.912500        7.2979787E-04
   1.920000        7.6170289E-04
   1.927500        7.9483975E-04
   1.935000        8.2924787E-04
   1.942500        8.6496741E-04
   1.950000        9.0203941E-04
   1.957500        9.4050576E-04
   1.965000        9.8040933E-04
   1.972500        1.0217937E-03
   1.980000        1.0647033E-03
   1.987500        1.1091838E-03
   1.995000        1.1552812E-03
   2.002500        1.2030427E-03
   2.010000        1.2525164E-03
   2.017500        1.3037513E-03
   2.025000        1.3567969E-03
   2.032500        1.4117041E-03
   2.040000        1.4685241E-03
   2.047500        1.5273092E-03
   2.055000        1.5881124E-03
   2.062500        1.6509878E-03
   2.070000        1.7159898E-03
   2.077500        1.7831736E-03
   2.085000        1.8525956E-03
   2.092500        1.9243123E-03
   2.100000        1.9983810E-03
   2.107500        2.0748603E-03
   2.115000        2.1538083E-03
   2.122500        2.2352843E-03
   2.130000        2.3193480E-03
   2.137500        2.4060595E-03
   2.145000        2.4954795E-03
   2.152500        2.5876691E-03
   2.160000        2.6826891E-03
   2.167500        2.7806014E-03
   2.175000        2.8814673E-03
   2.182500        2.9853492E-03
   2.190000        3.0923090E-03
   2.197500        3.2024081E-03
   2.205000        3.3157091E-03
   2.212500        3.4322736E-03
   2.220000        3.5521640E-03
   2.227500        3.6754410E-03
   2.235000        3.8021663E-03
   2.242500        3.9324001E-03
   2.250000        4.0662042E-03
   2.257500        4.2036371E-03
   2.265000        4.3447586E-03
   2.272500        4.4896272E-03
   2.280000        4.6383012E-03
   2.287500        4.7908369E-03
   2.295000        4.9472908E-03
   2.302500        5.1077176E-03
   2.310000        5.2721710E-03
   2.317500        5.4407036E-03
   2.325000        5.6133661E-03
   2.332500        5.7902089E-03
   2.340000        5.9712795E-03
   2.347500        6.1566248E-03
   2.355000        6.3462886E-03
   2.362500        6.5403138E-03
   2.370000        6.7387410E-03
   2.377500        6.9416082E-03
   2.385000        7.1489518E-03
   2.392500        7.3608053E-03
   2.400000        7.5771990E-03
   2.407500        7.7981614E-03
   2.415000        8.0237193E-03
   2.422500        8.2538938E-03
   2.430000        8.4887035E-03
   2.437500        8.7281661E-03
   2.445000        8.9722937E-03
   2.452500        9.2210956E-03
   2.460000        9.4745765E-03
   2.467500        9.7327372E-03
   2.475000        9.9955779E-03
   2.482500        1.0263089E-02
   2.490000        1.0535263E-02
   2.497500        1.0812081E-02
   2.505000        1.1093527E-02
   2.512500        1.1379573E-02
   2.520000        1.1670193E-02
   2.527500        1.1965350E-02
   2.535000        1.2265007E-02
   2.542500        1.2569117E-02
   2.550000        1.2877632E-02
   2.557500        1.3190498E-02
   2.565000        1.3507651E-02
   2.572500        1.3829025E-02
   2.580000        1.4154548E-02
   2.587500        1.4484142E-02
   2.595000        1.4817721E-02
   2.602500        1.5155195E-02
   2.610000        1.5496464E-02
   2.617500        1.5841428E-02
   2.625000        1.6189972E-02
   2.632500        1.6541980E-02
   2.640000        1.6897328E-02
   2.647500        1.7255884E-02
   2.655000        1.7617512E-02
   2.662500        1.7982064E-02
   2.670000        1.8349390E-02
   2.677500        1.8719329E-02
   2.685000        1.9091716E-02
   2.692500        1.9466376E-02
   2.700000        1.9843128E-02
   2.707500        2.0221785E-02
   2.715000        2.0602148E-02
   2.722500        2.0984014E-02
   2.730000        2.1367172E-02
   2.737500        2.1751406E-02
   2.745000        2.2136487E-02
   2.752500        2.2522183E-02
   2.760000        2.2908252E-02
   2.767500        2.3294447E-02
   2.775000        2.3680510E-02
   2.782500        2.4066180E-02
   2.790000        2.4451185E-02
   2.797500        2.4835249E-02
   2.805000        2.5218088E-02
   2.812500        2.5599407E-02
   2.820000        2.5978914E-02
   2.827500        2.6356300E-02
   2.835000        2.6731255E-02
   2.842500        2.7103459E-02
   2.850000        2.7472589E-02
   2.857500        2.7838314E-02
   2.865000        2.8200299E-02
   2.872500        2.8558198E-02
   2.880000        2.8911667E-02
   2.887500        2.9260350E-02
   2.895000        2.9603895E-02
   2.902500        2.9941933E-02
   2.910000        3.0274099E-02
   2.917500        3.0600021E-02
   2.925000        3.0919323E-02
   2.932500        3.1231629E-02
   2.940000        3.1536549E-02
   2.947500        3.1833701E-02
   2.955000        3.2122694E-02
   2.962500        3.2403138E-02
   2.970000        3.2674637E-02
   2.977500        3.2936800E-02
   2.985000        3.3189230E-02
   2.992500        3.3431526E-02
   3.000000        3.3663291E-02
   3.007500        3.3884130E-02
   3.015000        3.4093641E-02
   3.022500        3.4291424E-02
   3.030000        3.4477081E-02
   3.037500        3.4650225E-02
   3.045000        3.4810457E-02
   3.052500        3.4957387E-02
   3.060000        3.5090629E-02
   3.067500        3.5209801E-02
   3.075000        3.5314515E-02
   3.082500        3.5404403E-02
   3.090000        3.5479091E-02
   3.097500        3.5538215E-02
   3.105000        3.5581414E-02
   3.112500        3.5608336E-02
   3.120000        3.5618633E-02
   3.127500        3.5611968E-02
   3.135000        3.5588011E-02
   3.142500        3.5546433E-02
   3.150000        3.5486929E-02
   3.157500        3.5409193E-02
   3.165000        3.5312932E-02
   3.172500        3.5197861E-02
   3.180000        3.5063706E-02
   3.187500        3.4910209E-02
   3.195000        3.4737118E-02
   3.202500        3.4544200E-02
   3.210000        3.4331229E-02
   3.217500        3.4097999E-02
   3.225000        3.3844311E-02
   3.232500        3.3569984E-02
   3.240000        3.3274852E-02
   3.247500        3.2958768E-02
   3.255000        3.2621592E-02
   3.262500        3.2263208E-02
   3.270000        3.1883512E-02
   3.277500        3.1482417E-02
   3.285000        3.1059857E-02
   3.292500        3.0615781E-02
   3.300000        3.0150158E-02
   3.307500        2.9662972E-02
   3.315000        2.9154234E-02
   3.322500        2.8623963E-02
   3.330000        2.8072203E-02
   3.337500        2.7499018E-02
   3.345000        2.6904492E-02
   3.352500        2.6288727E-02
   3.360000        2.5651848E-02
   3.367500        2.4993997E-02
   3.375000        2.4315339E-02
   3.382500        2.3616059E-02
   3.390000        2.2896362E-02
   3.397500        2.2156477E-02
   3.405000        2.1396650E-02
   3.412500        2.0617152E-02
   3.420000        1.9818272E-02
   3.427500        1.9000322E-02
   3.435000        1.8163634E-02
   3.442500        1.7308565E-02
   3.450000        1.6435485E-02
   3.457500        1.5544794E-02
   3.465000        1.4636907E-02
   3.472500        1.3712259E-02
   3.480000        1.2771308E-02
   3.487500        1.1814533E-02
   3.495000        1.0842428E-02
   3.502500        9.8555088E-03
   3.510000        8.8543100E-03
   3.517500        7.8393873E-03
   3.525000        6.8113096E-03
   3.532500        5.7706670E-03
   3.540000        4.7180667E-03
   3.547500        3.6541319E-03
   3.555000        2.5795030E-03
   3.562500        1.4948364E-03
   3.570000        4.0080398E-04
   3.577500       -7.0190738E-04
   3.585000       -1.8125962E-03
   3.592500       -2.9305471E-03
   3.600000       -4.0550320E-03
   3.607500       -5.1853098E-03
   3.615000       -6.3206274E-03
   3.622500       -7.4602207E-03
   3.630000       -8.6033158E-03
   3.637500       -9.7491285E-03
   3.645000       -1.0896867E-02
   3.652500       -1.2045731E-02
   3.660000       -1.3194911E-02
   3.667500       -1.4343594E-02
   3.675000       -1.5490960E-02
   3.682500       -1.6636187E-02
   3.690000       -1.7778445E-02
   3.697500       -1.8916903E-02
   3.705000       -2.0050727E-02
   3.712500       -2.1179084E-02
   3.720000       -2.2301137E-02
   3.727500       -2.3416055E-02
   3.735000       -2.4523001E-02
   3.742500       -2.5621146E-02
   3.750000       -2.6709659E-02
   3.757500       -2.7787721E-02
   3.765000       -2.8854506E-02
   3.772500       -2.9909207E-02
   3.780000       -3.0951016E-02
   3.787500       -3.1979129E-02
   3.795000       -3.2992762E-02
   3.802500       -3.3991124E-02
   3.810000       -3.4973457E-02