  -10.00000        1.0000000E-24
  -9.950000        1.0000000E-24
  -9.900000        1.0000000E-24
  -9.850000        1.0000000E-24
  -9.800000        1.0000001E-24
  -9.750000        1.0000001E-24
  -9.700000        1.0000001E-24
  -9.650000        1.0000001E-24
  -9.600000        1.0000001E-24
  -9.550000        1.0000001E-24
  -9.500000        1.0000001E-24
  -9.450000        1.0000000E-24
  -9.400000        1.0000000E-24
  -9.350000        1.0000000E-24
  -9.300000        1.0000000E-24
  -9.250000        1.0000000E-24
  -9.200000        1.0000000E-24
  -9.150000        1.0000000E-24
  -9.100000        1.0000001E-24
  -9.050000        1.0000002E-24
  -9.000000        1.0000002E-24
  -8.950000        1.0000002E-24
  -8.900000        1.0000003E-24
  -8.850000        1.0000002E-24
  -8.800000        1.0000002E-24
  -8.750000        1.0000001E-24
  -8.700000        1.0000001E-24
  -8.650000        1.0000000E-24
  -8.600000        1.0000001E-24
  -8.550000        1.0000001E-24
  -8.500000        1.0000001E-24
  -8.450000        1.0000001E-24
  -8.400000        1.0000002E-24
  -8.350000        1.0000002E-24
  -8.300000        1.0000002E-24
  -8.250000        1.0000002E-24
  -8.200000        1.0000002E-24
  -8.150000        1.0000001E-24
  -8.100000        1.0000001E-24
  -8.050000        1.0000001E-24
  -8.000000        1.0000001E-24
  -7.950000        1.0000002E-24
  -7.900000        1.0000002E-24
  -7.850000        1.0000003E-24
  -7.800000        1.0000003E-24
  -7.750000        1.0000004E-24
  -7.700000        1.0000004E-24
  -7.650000        1.0000004E-24
  -7.600000        1.0000005E-24
  -7.550000        1.0000004E-24
  -7.500000        1.0000002E-24
  -7.450000        9.9999953E-25
  -7.400000        9.9999824E-25
  -7.350000        9.9999617E-25
  -7.300000        9.9999410E-25
  -7.250000        9.9999371E-25
  -7.200000        9.9999785E-25
  -7.150000        1.0000100E-24
  -7.100000        1.0000321E-24
  -7.050000        1.0000608E-24
  -7.000000        1.0000833E-24
  -6.950000        1.0000748E-24
  -6.900000        1.0000013E-24
  -6.850000        9.9983367E-25
  -6.800000        9.9957394E-25
  -6.750000        9.9928955E-25
  -6.700000        9.9914016E-25
  -6.650000        9.9937189E-25
  -6.600000        1.0002477E-24
  -6.550000        1.0018969E-24
  -6.500000        1.0041031E-24
  -6.450000        1.0061054E-24
  -6.400000        1.0065534E-24
  -6.350000        1.0037771E-24
  -6.300000        9.9648387E-25
  -6.250000        9.8481869E-25
  -6.200000        9.7144937E-25
  -6.150000        9.6204930E-25
  -6.100000        9.6441904E-25
  -6.050000        9.8572982E-25
  -6.000000        1.0281271E-24
  -5.950000        1.0841190E-24
  -5.900000        1.1343777E-24
  -5.850000        1.1510306E-24
  -5.800000        1.1083456E-24
  -5.750000        9.9940768E-25
  -5.700000        8.5242426E-25
  -5.650000        7.3562497E-25
  -5.600000        7.3861934E-25
  -5.550000        9.2411446E-25
  -5.500000        1.2588817E-24
  -5.450000        1.5542593E-24
  -5.400000        1.4656617E-24
  -5.350000        6.0344028E-25
  -5.300000       -1.2210463E-24
  -5.250000       -3.6575694E-24
  -5.200000       -5.5263737E-24
  -5.150000       -4.8018239E-24
  -5.100000        8.8085836E-25
  -5.050000        1.3056292E-23
  -5.000000        3.0735251E-23
  -4.950000        4.8739317E-23
  -4.900000        5.7036373E-23
  -4.850000        4.2244293E-23
  -4.800000       -7.8297017E-24
  -4.750000       -9.6733848E-23
  -4.700000       -2.1075219E-22
  -4.650000       -3.1273612E-22
  -4.600000       -3.4329177E-22
  -4.550000       -2.3389680E-22
  -4.500000        6.6329747E-23
  -4.450000        5.5405122E-22
  -4.400000        1.1364506E-21
  -4.350000        1.6148888E-21
  -4.300000        1.7071778E-21
  -4.250000        1.1222029E-21
  -4.200000       -3.1535125E-22
  -4.150000       -2.5167451E-21
  -4.100000       -5.0101986E-21
  -4.050000       -6.9210517E-21
  -4.000000       -7.1160587E-21
  -3.950000       -4.5401323E-21
  -3.900000        1.2952371E-21
  -3.850000        9.8005571E-21
  -3.800000        1.8980179E-20
  -3.750000        2.5521790E-20
  -3.700000        2.5479026E-20
  -3.650000        1.5559304E-20
  -3.600000       -5.2201058E-21
  -3.550000       -3.4014090E-20
  -3.500000       -6.3460670E-20
  -3.450000       -8.2494089E-20
  -3.400000       -7.9025889E-20
  -3.350000       -4.4260628E-20
  -3.300000        2.2361279E-20
  -3.250000        1.0930549E-19
  -3.200000        1.9219589E-19
  -3.150000        2.3782479E-19
  -3.100000        2.1335950E-19
  -3.050000        9.9281868E-20
  -3.000000       -9.7511773E-20
  -2.950000       -3.3557019E-19
  -2.900000       -5.4095337E-19
  -2.850000       -6.2283247E-19
  -2.800000       -5.0192451E-19
  -2.750000       -1.4571209E-19
  -2.700000        4.0067572E-19
  -2.650000        1.0016999E-18
  -2.600000        1.4487965E-18
  -2.550000        1.5127703E-18
  -2.500000        1.0242417E-18
  -2.450000       -3.8406439E-20
  -2.400000       -1.4848231E-18
  -2.350000       -2.9059845E-18
  -2.300000       -3.7490886E-18
  -2.250000       -3.4755553E-18
  -2.200000       -1.7721848E-18
  -2.150000        1.2458929E-18
  -2.100000        4.9210323E-18
  -2.050000        8.1034856E-18
  -2.000000        9.4068146E-18
  -1.950000        7.6453004E-18
  -1.900000        2.3532387E-18
  -1.850000       -5.7803447E-18
  -1.800000       -1.4754718E-17
  -1.750000       -2.1534799E-17
  -1.700000       -2.2811453E-17
  -1.650000       -1.6130343E-17
  -1.600000       -1.0987989E-18
  -1.550000        1.9747837E-17
  -1.500000        4.0855417E-17
  -1.450000        5.4632672E-17
  -1.400000        5.3509652E-17
  -1.350000        3.2686207E-17
  -1.300000       -7.1941627E-18
  -1.250000       -5.8434030E-17
  -1.200000       -1.0666342E-16
  -1.150000       -1.3372750E-16
  -1.100000       -1.2286583E-16
  -1.050000       -6.5085542E-17
  -1.000000        3.5139281E-17
 -0.9500000        1.5705772E-16
 -0.9000000        2.6561370E-16
 -0.8500000        3.1900441E-16
 -0.8000000        2.8093460E-16
 -0.7500000        1.3477960E-16
 -0.7000000       -1.0462343E-16
 -0.6500000       -3.8629954E-16
 -0.6000000       -6.2928423E-16
 -0.5500000       -7.4070861E-16
 -0.5000000       -6.4321755E-16
 -0.4500000       -3.0522753E-16
 -0.4000000        2.3525702E-16
 -0.3500000        8.6299523E-16
 -0.3000000        1.4010749E-15
 -0.2500000        1.6509888E-15
 -0.2000000        1.4507914E-15
 -0.1500000        7.3726759E-16
 -0.1000000       -4.0698890E-16
 -5.0000001E-02   -1.7407666E-15
  0.0000000E+00   -2.8987401E-15
  5.0000001E-02   -3.4744015E-15
  0.1000000       -3.1372807E-15
  0.1500000       -1.7558290E-15
  0.2000000        5.1148852E-16
  0.2500000        3.1933936E-15
  0.3000000        5.5749735E-15
  0.3500000        6.8592398E-15
  0.4000000        6.3926106E-15
  0.4500000        3.8993251E-15
  0.5000000       -3.4563404E-16
  0.5500000       -5.4724507E-15
  0.6000000       -1.0144023E-14
  0.6500000       -1.2854675E-14
  0.7000000       -1.2347134E-14
  0.7500000       -8.0472365E-15
  0.8000000       -3.8869373E-16
  0.8500000        9.0939100E-15
  0.9000000        1.7981776E-14
  0.9500000        2.3499657E-14
   1.000000        2.3263455E-14
   1.050000        1.6071932E-14
   1.100000        2.5172875E-15
   1.150000       -1.4803412E-14
   1.200000       -3.1621332E-14
   1.250000       -4.2888798E-14
   1.300000       -4.4087103E-14
   1.350000       -3.2654177E-14
   1.400000       -9.1428889E-15
   1.450000        2.2279858E-14
   1.500000        5.4271627E-14
   1.550000        7.7755863E-14
   1.600000        8.4157711E-14
   1.650000        6.7957670E-14
   1.700000        2.8900341E-14
   1.750000       -2.6838679E-14
   1.800000       -8.7069695E-14
   1.850000       -1.3579192E-13
   1.900000       -1.5692155E-13
   1.950000       -1.3880153E-13
   2.000000       -7.8380106E-14
   2.050000        1.6184347E-14
   2.100000        1.2554209E-13
   2.150000        2.2231624E-13
   2.200000        2.7715441E-13
   2.250000        2.6654487E-13
   2.300000        1.8055224E-13
   2.350000        2.8280594E-14
   2.400000       -1.6092574E-13
   2.450000       -3.4172727E-13
   2.500000       -4.6236029E-13
   2.550000       -4.7788471E-13
   2.600000       -3.6409051E-13
   2.650000       -1.2826669E-13
   2.700000        1.8681969E-13
   2.750000        5.0816924E-13
   2.800000        7.4730792E-13
   2.850000        8.2219583E-13
   2.900000        6.8144421E-13
   2.950000        3.2442457E-13
   3.000000       -1.8917897E-13
   3.050000       -7.4502264E-13
   3.100000       -1.1961400E-12
   3.150000       -1.3981069E-12
   3.200000       -1.2497694E-12
   3.250000       -7.2904925E-13
   3.300000        8.7093459E-14
   3.350000        1.0268688E-12
   3.400000        1.8549546E-12
   3.450000        2.3266569E-12
   3.500000        2.2535791E-12
   3.550000        1.5643849E-12
   3.600000        3.4299923E-13
   3.650000       -1.1698462E-12
   3.700000       -2.6177550E-12
   3.750000       -3.6075583E-12
   3.800000       -3.8098196E-12
   3.850000       -3.0565106E-12
   3.900000       -1.4087686E-12
   3.950000        8.2786230E-13
   4.000000        3.1519058E-12
   4.050000        4.9733919E-12
   4.100000        5.7587854E-12
   4.150000        5.1790334E-12
   4.200000        3.2212915E-12
   4.250000        2.3000547E-13
   4.300000       -3.1419507E-12
   4.350000       -6.0693707E-12
   4.400000       -7.7516387E-12
   4.450000       -7.6249172E-12
   4.500000       -5.5350893E-12
   4.550000       -1.8216242E-12
   4.600000        2.7189839E-12
   4.650000        6.9929826E-12
   4.700000        9.8629976E-12
   4.750000        1.0438783E-11
   4.800000        8.3331814E-12
   4.850000        3.8136530E-12
   4.900000       -2.1998204E-12
   4.950000       -8.3046209E-12
   5.000000       -1.2925678E-11
   5.050000       -1.4700186E-11
   5.100000       -1.2846291E-11
   5.150000       -7.4211392E-12
   5.200000        6.0695253E-13
   5.250000        9.5075944E-12
   5.300000        1.7142192E-11
   5.350000        2.1453844E-11
   5.400000        2.0984955E-11
   5.450000        1.5297704E-11
   5.500000        5.1852489E-12
   5.550000       -7.3975539E-12
   5.600000       -1.9693254E-11
   5.650000       -2.8730622E-11
   5.700000       -3.2021823E-11
   5.750000       -2.8209133E-11
   5.800000       -1.7499762E-11
   5.850000       -1.7633724E-12
   5.900000        1.5763254E-11
   5.950000        3.1130012E-11
   6.000000        4.0560787E-11
   6.050000        4.1380212E-11
   6.100000        3.2757009E-11
   6.150000        1.6064155E-11
   6.200000       -5.2694932E-12
   6.250000       -2.6427908E-11
   6.300000       -4.2280544E-11
   6.350000       -4.8629770E-11
   6.400000       -4.3336796E-11
   6.450000       -2.7030368E-11
   6.500000       -3.1783107E-12
   6.550000        2.2557872E-11
   6.600000        4.3589774E-11
   6.650000        5.4024760E-11
   6.700000        5.0260185E-11
   6.750000        3.2132838E-11
   6.800000        3.2807407E-12
   6.850000       -2.9454852E-11
   6.900000       -5.7525425E-11
   6.950000       -7.2765648E-11
   7.000000       -6.9587947E-11
   7.050000       -4.6714774E-11
   7.100000       -7.9480103E-12
   7.150000        3.8319948E-11
   7.200000        8.0845546E-11
   7.250000        1.0818532E-10
   7.300000        1.1164839E-10
   7.350000        8.7803993E-11
   7.400000        3.9847788E-11
   7.450000       -2.2630082E-11
   7.500000       -8.5551378E-11
   7.550000       -1.3357246E-10
   7.600000       -1.5388983E-10
   7.650000       -1.3968354E-10
   7.700000       -9.2274265E-11
   7.750000       -2.1338226E-11
   7.800000        5.7015590E-11
   7.850000        1.2395387E-10
   7.900000        1.6256843E-10
   7.950000        1.6231737E-10
   8.000000        1.2208665E-10
   8.050000        5.0986399E-11
   8.100000       -3.3466261E-11
   8.150000       -1.0946252E-10
   8.200000       -1.5637808E-10
   8.250000       -1.6026012E-10
   8.300000       -1.1789096E-10
   8.350000       -3.8282277E-11
   8.400000        5.8942448E-11
   8.450000        1.4804082E-10
   8.500000        2.0352223E-10
   8.550000        2.0685667E-10
   8.600000        1.5180943E-10
   8.650000        4.6949826E-11
   8.700000       -8.5472678E-11
   8.750000       -2.1420703E-10
   8.800000       -3.0625094E-10
   8.850000       -3.3499165E-10
   8.900000       -2.8725081E-10
   8.950000       -1.6742682E-10
   9.000000        2.4350003E-12
   9.050000        1.8686203E-10
   9.100000        3.4463971E-10
   9.150000        4.3826243E-10
   9.200000        4.4295639E-10
   9.250000        3.5310183E-10
   9.300000        1.8442617E-10
   9.350000       -2.8712380E-11
   9.400000       -2.4049485E-10
   9.450000       -4.0374851E-10
   9.500000       -4.8074206E-10
   9.550000       -4.5219087E-10
   9.600000       -3.2233352E-10
   9.650000       -1.1877900E-10
   9.700000        1.1301791E-10
   9.750000        3.1957489E-10
   9.800000        4.5140608E-10
   9.850000        4.7459453E-10
   9.900000        3.7926579E-10
   9.950000        1.8291588E-10
   10.00000       -7.2373690E-11
   10.05000       -3.2846961E-10
   10.10000       -5.2379817E-10
   10.15000       -6.0737337E-10
   10.20000       -5.5113591E-10
   10.25000       -3.5772013E-10
   10.30000       -6.1645113E-11
   10.35000        2.7670169E-10
   10.40000        5.8332400E-10
   10.45000        7.8668377E-10
   10.50000        8.3412727E-10
   10.55000        7.0493122E-10
   10.60000        4.1677595E-10
   10.65000        2.3771960E-11
   10.70000       -3.9399051E-10
   10.75000       -7.4742629E-10
   10.80000       -9.5837915E-10
   10.85000       -9.7797859E-10
   10.90000       -7.9902396E-10
   10.95000       -4.5915241E-10
   11.00000       -3.3567850E-11
   11.05000        3.8144540E-10
   11.10000        6.9070338E-10
   11.15000        8.2290064E-10
   11.20000        7.4848011E-10
   11.25000        4.8802135E-10
   11.30000        1.0869683E-10
   11.35000       -2.9080316E-10
   11.40000       -6.0358035E-10
   11.45000       -7.4057016E-10
   11.50000       -6.5289674E-10
   11.55000       -3.4480316E-10
   11.60000        1.2640985E-10
   11.65000        6.6381728E-10
   11.70000        1.1546536E-09
   11.75000        1.4986674E-09
   11.80000        1.6339071E-09
   11.85000        1.5532505E-09
   11.90000        1.3071882E-09
   11.95000        9.9182240E-10
   12.00000        7.2485662E-10
   12.05000        6.1555400E-10
   12.10000        7.3635592E-10
   12.15000        1.1035930E-09
   12.20000        1.6724968E-09
   12.25000        2.3480808E-09
   12.30000        3.0093310E-09
   12.35000        3.5406087E-09
   12.40000        3.8621844E-09
   12.45000        3.9519317E-09
   12.50000        3.8524104E-09
   12.55000        3.6613306E-09
   12.60000        3.5077132E-09
   12.65000        3.5198064E-09
   12.70000        3.7930263E-09
   12.75000        4.3662158E-09
   12.80000        5.2123967E-09
   12.85000        6.2464505E-09
   12.90000        7.3477917E-09
   12.95000        8.3922389E-09
   13.00000        9.2849595E-09
   13.05000        9.9861381E-09
   13.10000        1.0522930E-08
   13.15000        1.0984828E-08
   13.20000        1.1503749E-08
   13.25000        1.2223969E-08
   13.30000        1.3269447E-08
   13.35000        1.4716524E-08
   13.40000        1.6578472E-08
   13.45000        1.8805252E-08
   13.50000        2.1298092E-08
   13.55000        2.3934977E-08
   13.60000        2.6600775E-08
   13.65000        2.9214972E-08
   13.70000        3.1750957E-08
   13.75000        3.4243111E-08
   13.80000        3.6780907E-08
   13.85000        3.9492122E-08
   13.90000        4.2519417E-08
   13.95000        4.5995478E-08
   14.00000        5.0021686E-08
   14.05000        5.4654137E-08
   14.10000        5.9898973E-08
   14.15000        6.5717160E-08
   14.20000        7.2037281E-08
   14.25000        7.8773802E-08
   14.30000        8.5847716E-08
   14.35000        9.3206381E-08
   14.40000        1.0083962E-07
   14.45000        1.0878958E-07
   14.50000        1.1715253E-07
   14.55000        1.2607184E-07
   14.60000        1.3572244E-07
   14.65000        1.4628888E-07
   14.70000        1.5793994E-07
   14.75000        1.7080484E-07
   14.80000        1.8495558E-07
   14.85000        2.0039990E-07
   14.90000        2.1708772E-07
   14.95000        2.3493062E-07
   15.00000        2.5383176E-07
   15.05000        2.7371991E-07
   15.10000        2.9458059E-07
   15.15000        3.1647664E-07
   15.20000        3.3955331E-07
   15.25000        3.6402525E-07
   15.30000        3.9014853E-07
   15.35000        4.1818367E-07
   15.40000        4.4835812E-07
   15.45000        4.8083785E-07
   15.50000        5.1571470E-07
   15.55000        5.5301246E-07
   15.60000        5.9271008E-07
   15.65000        6.3477609E-07
   15.70000        6.7920467E-07
   15.75000        7.2604485E-07
   15.80000        7.7541478E-07
   15.85000        8.2749978E-07
   15.90000        8.8253353E-07
   15.95000        9.4077080E-07
   16.00000        1.0024581E-06
   16.05000        1.0678117E-06
   16.10000        1.1370071E-06
   16.15000        1.2101841E-06
   16.20000        1.2874617E-06
   16.25000        1.3689588E-06
   16.30000        1.4548120E-06
   16.35000        1.5451866E-06
   16.40000        1.6402744E-06
   16.45000        1.7402817E-06
   16.50000        1.8454126E-06
   16.55000        1.9558520E-06
   16.60000        2.0717575E-06
   16.65000        2.1932628E-06
   16.70000        2.3204932E-06
   16.75000        2.4535893E-06
   16.80000        2.5927316E-06
   16.85000        2.7381564E-06
   16.90000        2.8901579E-06
   16.95000        3.0490723E-06
   17.00000        3.2152493E-06
   17.05000        3.3890137E-06
   17.10000        3.5706298E-06
   17.15000        3.7602808E-06
   17.20000        3.9580650E-06
   17.25000        4.1640160E-06
   17.30000        4.3781415E-06
   17.35000        4.6004661E-06
   17.40000        4.8310753E-06
   17.45000        5.0701437E-06
   17.50000        5.3179356E-06
   17.55000        5.5747846E-06
   17.60000        5.8410528E-06
   17.65000        6.1170804E-06
   17.70000        6.4031383E-06
   17.75000        6.6993980E-06
   17.80000        7.0059268E-06
   17.85000        7.3227056E-06
   17.90000        7.6496690E-06
   17.95000        7.9867514E-06
   18.00000        8.3339310E-06
   18.05000        8.6912532E-06
   18.10000        9.0588346E-06
   18.15000        9.4368397E-06
   18.20000        9.8254441E-06
   18.25000        1.0224784E-05
   18.30000        1.0634932E-05
   18.35000        1.1055865E-05
   18.40000        1.1487476E-05
   18.45000        1.1929595E-05
   18.50000        1.2382027E-05
   18.55000        1.2844590E-05
   18.60000        1.3317141E-05
   18.65000        1.3799578E-05
   18.70000        1.4291838E-05
   18.75000        1.4793851E-05
   18.80000        1.5305513E-05
   18.85000        1.5826656E-05
   18.90000        1.6357013E-05
   18.95000        1.6896242E-05
   19.00000        1.7443930E-05
   19.05000        1.7999646E-05
   19.10000        1.8562958E-05
   19.15000        1.9133475E-05
   19.20000        1.9710855E-05
   19.25000        2.0294783E-05
   19.30000        2.0884960E-05
   19.35000        2.1481052E-05
   19.40000        2.2082670E-05
   19.45000        2.2689339E-05
   19.50000        2.3300501E-05
   19.55000        2.3915525E-05
   19.60000        2.4533731E-05
   19.65000        2.5154422E-05
   19.70000        2.5776915E-05
   19.75000        2.6400548E-05
   19.80000        2.7024675E-05
   19.85000        2.7648663E-05
   19.90000        2.8271872E-05
   19.95000        2.8893633E-05
   20.00000        2.9513258E-05
   20.05000        3.0130024E-05
   20.10000        3.0743209E-05
   20.15000        3.1352090E-05
   20.20000        3.1955973E-05
   20.25000        3.2554191E-05
   20.30000        3.3146083E-05
   20.35000        3.3730998E-05
   20.40000        3.4308217E-05
   20.45000        3.4876986E-05
   20.50000        3.5436453E-05
   20.55000        3.5985689E-05
   20.60000        3.6523732E-05
   20.65000        3.7049609E-05
   20.70000        3.7562397E-05
   20.75000        3.8061284E-05
   20.80000        3.8545579E-05
   20.85000        3.9014718E-05
   20.90000        3.9468243E-05
   20.95000        3.9905750E-05
   21.00000        4.0326820E-05
   21.05000        4.0730974E-05
   21.10000        4.1117612E-05
   21.15000        4.1486022E-05
   21.20000        4.1835388E-05
   21.25000        4.2164862E-05
   21.30000        4.2473606E-05
   21.35000        4.2760879E-05
   21.40000        4.3026077E-05
   21.45000        4.3268767E-05
   21.50000        4.3488653E-05
   21.55000        4.3685566E-05
   21.60000        4.3859378E-05
   21.65000        4.4009965E-05
   21.70000        4.4137156E-05
   21.75000        4.4240718E-05
   21.80000        4.4320357E-05
   21.85000        4.4375760E-05
   21.90000        4.4406610E-05
   21.95000        4.4412664E-05
   22.00000        4.4393742E-05
   22.05000        4.4349770E-05
   22.10000        4.4280754E-05
   22.15000        4.4186756E-05
   22.20000        4.4067878E-05
   22.25000        4.3924232E-05
   22.30000        4.3755936E-05
   22.35000        4.3563126E-05
   22.40000        4.3345965E-05
   22.45000        4.3104672E-05
   22.50000        4.2839525E-05
   22.55000        4.2550881E-05
   22.60000        4.2239149E-05
   22.65000        4.1904776E-05
   22.70000        4.1548210E-05
   22.75000        4.1169886E-05
   22.80000        4.0770192E-05
   22.85000        4.0349511E-05
   22.90000        3.9908195E-05
   22.95000        3.9446619E-05
   23.00000        3.8965201E-05
   23.05000        3.8464441E-05
   23.10000        3.7944890E-05
   23.15000        3.7407186E-05
   23.20000        3.6852005E-05
   23.25000        3.6280038E-05
   23.30000        3.5691988E-05
   23.35000        3.5088520E-05
   23.40000        3.4470278E-05
   23.45000        3.3837903E-05
   23.50000        3.3192016E-05
   23.55000        3.2533244E-05
   23.60000        3.1862226E-05
   23.65000        3.1179610E-05
   23.70000        3.0486026E-05
   23.75000        2.9782095E-05
   23.80000        2.9068406E-05
   23.85000        2.8345510E-05
   23.90000        2.7613942E-05
   23.95000        2.6874228E-05
   24.00000        2.6126922E-05
   24.05000        2.5372618E-05
   24.10000        2.4611974E-05
   24.15000        2.3845701E-05
   24.20000        2.3074537E-05
   24.25000        2.2299209E-05
   24.30000        2.1520380E-05
   24.35000        2.0738615E-05
   24.40000        1.9954357E-05
   24.45000        1.9167916E-05
   24.50000        1.8379509E-05
   24.55000        1.7589307E-05
   24.60000        1.6797494E-05
   24.65000        1.6004318E-05
   24.70000        1.5210137E-05
   24.75000        1.4415416E-05
   24.80000        1.3620717E-05
   24.85000        1.2826644E-05
   24.90000        1.2033785E-05
   24.95000        1.1242648E-05
   25.00000        1.0453623E-05
   25.05000        9.6669573E-06
   25.10000        8.8827665E-06
   25.15000        8.1010712E-06
   25.20000        7.3218353E-06
   25.25000        6.5450281E-06
   25.30000        5.7706552E-06
   25.35000        4.9987875E-06
   25.40000        4.2295651E-06
   25.45000        3.4631869E-06
   25.50000        2.6998903E-06
   25.55000        1.9399274E-06
   25.60000        1.1835459E-06
   25.65000        4.3097293E-07
   25.70000       -3.1759512E-07
   25.75000       -1.0619983E-06
   25.80000       -1.8021192E-06
   25.85000       -2.5378865E-06
   25.90000       -3.2692765E-06
   25.95000       -3.9963084E-06
   26.00000       -4.7190342E-06
   26.05000       -5.4375182E-06
   26.10000       -6.1518126E-06
   26.15000       -6.8619315E-06
   26.20000       -7.5678299E-06
   26.25000       -8.2693987E-06
   26.30000       -8.9664654E-06
   26.35000       -9.6588119E-06
   26.40000       -1.0346205E-05
   26.45000       -1.1028418E-05
   26.50000       -1.1705252E-05
   26.55000       -1.2376542E-05
   26.60000       -1.3042155E-05
   26.65000       -1.3701975E-05
   26.70000       -1.4355884E-05
   26.75000       -1.5003748E-05
   26.80000       -1.5645413E-05
   26.85000       -1.6280706E-05
   26.90000       -1.6909446E-05
   26.95000       -1.7531447E-05
   27.00000       -1.8146540E-05
   27.05000       -1.8754556E-05
   27.10000       -1.9355310E-05
   27.15000       -1.9948588E-05
   27.20000       -2.0534120E-05
   27.25000       -2.1111564E-05
   27.30000       -2.1680506E-05
   27.35000       -2.2240480E-05
   27.40000       -2.2790984E-05
   27.45000       -2.3331531E-05
   27.50000       -2.3861674E-05
   27.55000       -2.4381028E-05
   27.60000       -2.4889287E-05
   27.65000       -2.5386202E-05
   27.70000       -2.5871561E-05
   27.75000       -2.6345158E-05
   27.80000       -2.6806749E-05
   27.85000       -2.7256026E-05
   27.90000       -2.7692598E-05
   27.95000       -2.8115999E-05
   28.00000       -2.8525690E-05
   28.05000       -2.8921097E-05
   28.10000       -2.9301640E-05
   28.15000       -2.9666769E-05
   28.20000       -3.0015995E-05
   28.25000       -3.0348905E-05
   28.30000       -3.0665149E-05
   28.35000       -3.0964453E-05
   28.40000       -3.1246556E-05
   28.45000       -3.1511208E-05
   28.50000       -3.1758133E-05
   28.55000       -3.1987023E-05
   28.60000       -3.2197520E-05
   28.65000       -3.2389249E-05
   28.70000       -3.2561828E-05
   28.75000       -3.2714899E-05
   28.80000       -3.2848151E-05
   28.85000       -3.2961325E-05
   28.90000       -3.3054221E-05
   28.95000       -3.3126660E-05
   29.00000       -3.3178498E-05
   29.05000       -3.3209581E-05
   29.10000       -3.3219763E-05
   29.15000       -3.3208889E-05
   29.20000       -3.3176835E-05
   29.25000       -3.3123499E-05
   29.30000       -3.3048840E-05
   29.35000       -3.2952888E-05
   29.40000       -3.2835720E-05
   29.45000       -3.2697473E-05
   29.50000       -3.2538297E-05
   29.55000       -3.2358352E-05
   29.60000       -3.2157786E-05
   29.65000       -3.1936754E-05
   29.70000       -3.1695410E-05
   29.75000       -3.1433956E-05
   29.80000       -3.1152646E-05
   29.85000       -3.0851796E-05
   29.90000       -3.0531799E-05
   29.95000       -3.0193100E-05
   30.00000       -2.9836179E-05
   30.05000       -2.9461522E-05
   30.10000       -2.9069608E-05
   30.15000       -2.8660905E-05
   30.20000       -2.8235883E-05
   30.25000       -2.7795033E-05
   30.30000       -2.7338901E-05
   30.35000       -2.6868107E-05
   30.40000       -2.6383352E-05
   30.45000       -2.5885422E-05
   30.50000       -2.5375160E-05
   30.55000       -2.4853442E-05
   30.60000       -2.4321136E-05
   30.65000       -2.3779081E-05
   30.70000       -2.3228067E-05
   30.75000       -2.2668833E-05
   30.80000       -2.2102089E-05
   30.85000       -2.1528529E-05
   30.90000       -2.0948879E-05
   30.95000       -2.0363916E-05
   31.00000       -1.9774501E-05
   31.05000       -1.9181580E-05
   31.10000       -1.8586194E-05
   31.15000       -1.7989445E-05
   31.20000       -1.7392465E-05
   31.25000       -1.6796375E-05
   31.30000       -1.6202246E-05
   31.35000       -1.5611069E-05
   31.40000       -1.5023737E-05
   31.45000       -1.4441062E-05
   31.50000       -1.3863800E-05
   31.55000       -1.3292687E-05
   31.60000       -1.2728486E-05
   31.65000       -1.2172018E-05
   31.70000       -1.1624184E-05
   31.75000       -1.1085950E-05
   31.80000       -1.0558327E-05
   31.85000       -1.0042326E-05
   31.90000       -9.5389169E-06
   31.95000       -9.0489957E-06
   32.00000       -8.5733673E-06
   32.05000       -8.1127500E-06
   32.10000       -7.6677943E-06
   32.15000       -7.2391140E-06
   32.20000       -6.8273157E-06
   32.25000       -6.4330143E-06
   32.30000       -6.0568386E-06
   32.35000       -5.6994177E-06
   32.40000       -5.3613603E-06
   32.45000       -5.0432336E-06
   32.50000       -4.7455442E-06
   32.55000       -4.4687358E-06
   32.60000       -4.2131960E-06
   32.65000       -3.9792749E-06
   32.70000       -3.7673012E-06
   32.75000       -3.5775970E-06
   32.80000       -3.4104814E-06
   32.85000       -3.2662601E-06
   32.90000       -3.1452075E-06
   32.95000       -3.0475437E-06
   33.00000       -2.9734151E-06
   33.05000       -2.9228850E-06
   33.10000       -2.8959378E-06
   33.15000       -2.8924965E-06
   33.20000       -2.9124503E-06
   33.25000       -2.9556834E-06
   33.30000       -3.0220988E-06
   33.35000       -3.1116265E-06
   33.40000       -3.2242165E-06
   33.45000       -3.3598149E-06
   33.50000       -3.5183268E-06
   33.55000       -3.6995880E-06
   33.60000       -3.9033375E-06
   33.65000       -4.1292124E-06
   33.70000       -4.3767659E-06
   33.75000       -4.6455034E-06
   33.80000       -4.9349251E-06
   33.85000       -5.2445721E-06
   33.90000       -5.5740488E-06
   33.95000       -5.9230238E-06
   34.00000       -6.2911995E-06
   34.05000       -6.6782682E-06
   34.10000       -7.0838564E-06
   34.15000       -7.5074913E-06
   34.20000       -7.9485872E-06
   34.25000       -8.4064668E-06
   34.30000       -8.8804118E-06
   34.35000       -9.3697245E-06
   34.40000       -9.8737819E-06
   34.45000       -1.0392069E-05
   34.50000       -1.0924171E-05
   34.55000       -1.1469727E-05
   34.60000       -1.2028374E-05
   34.65000       -1.2599678E-05
   34.70000       -1.3183097E-05
   34.75000       -1.3777972E-05
   34.80000       -1.4383567E-05
   34.85000       -1.4999131E-05
   34.90000       -1.5623968E-05
   34.95000       -1.6257489E-05
   35.00000       -1.6899234E-05
   35.05000       -1.7548839E-05
   35.10000       -1.8205985E-05
   35.15000       -1.8870336E-05
   35.20000       -1.9541469E-05
   35.25000       -2.0218862E-05
   35.30000       -2.0901907E-05
   35.35000       -2.1589962E-05
   35.40000       -2.2282407E-05