  -10.00000        1.0000000E-24
  -9.950000        1.0000000E-24
  -9.900000        1.0000000E-24
  -9.850000        1.0000000E-24
  -9.800000        1.0000001E-24
  -9.750000        1.0000002E-24
  -9.700000        1.0000002E-24
  -9.650000        1.0000002E-24
  -9.600000        1.0000001E-24
  -9.550000        1.0000000E-24
  -9.500000        9.9999953E-25
  -9.450000        9.9999637E-25
  -9.400000        9.9997892E-25
  -9.350000        9.9989914E-25
  -9.300000        9.9962630E-25
  -9.250000        9.9893230E-25
  -9.200000        9.9768885E-25
  -9.150000        9.9650635E-25
  -9.100000        9.9768954E-25
  -9.050000        1.0052431E-24
  -9.000000        1.0210981E-24
  -8.950000        1.0348172E-24
  -8.900000        1.0095154E-24
  -8.850000        8.8001151E-25
  -8.800000        5.9504843E-25
  -8.750000        2.3474233E-25
  -8.700000        1.8768346E-25
  -8.650000        1.2615335E-24
  -8.600000        4.4614427E-24
  -8.550000        1.0125288E-23
  -8.500000        1.6347247E-23
  -8.450000        1.7296864E-23
  -8.400000        3.0301212E-24
  -8.350000       -3.6896580E-23
  -8.300000       -1.0429574E-22
  -8.250000       -1.7890565E-22
  -8.200000       -2.0710822E-22
  -8.150000       -1.0489093E-22
  -8.100000        2.1128707E-22
  -8.050000        7.5990549E-22
  -8.000000        1.4104416E-21
  -7.950000        1.8229096E-21
  -7.900000        1.4763821E-21
  -7.850000       -1.5291667E-22
  -7.800000       -3.2553774E-21
  -7.750000       -7.2852551E-21
  -7.700000       -1.0698986E-20
  -7.650000       -1.1106029E-20
  -7.600000       -6.0341998E-21
  -7.550000        5.7385287E-21
  -7.500000        2.2720918E-20
  -7.450000        3.9907193E-20
  -7.400000        4.9502511E-20
  -7.350000        4.3593488E-20
  -7.300000        1.8187685E-20
  -7.250000       -2.3171620E-20
  -7.200000       -6.8757140E-20
  -7.150000       -1.0297401E-19
  -7.100000       -1.1533143E-19
  -7.050000       -1.1012566E-19
  -7.000000       -1.0959415E-19
  -6.950000       -1.4293143E-19
  -6.900000       -2.1849971E-19
  -6.850000       -2.8726651E-19
  -6.800000       -2.1881722E-19
  -6.750000        1.7989109E-19
  -6.700000        1.0777793E-18
  -6.650000        2.4652032E-18
  -6.600000        3.9770782E-18
  -6.550000        4.7891239E-18
  -6.500000        3.7115817E-18
  -6.450000       -4.1983345E-19
  -6.400000       -8.0558806E-18
  -6.350000       -1.8116933E-17
  -6.300000       -2.7402876E-17
  -6.250000       -3.0701629E-17
  -6.200000       -2.2007986E-17
  -6.150000        3.0469359E-18
  -6.100000        4.4004847E-17
  -6.050000        9.2723274E-17
  -6.000000        1.3242252E-16
  -5.950000        1.4018520E-16
  -5.900000        9.3684365E-17
  -5.850000       -1.8626915E-17
  -5.800000       -1.8661511E-16
  -5.750000       -3.7132474E-16
  -5.700000       -5.0661004E-16
  -5.650000       -5.1312345E-16
  -5.600000       -3.2457291E-16
  -5.550000        7.9142689E-17
  -5.500000        6.4263098E-16
  -5.450000        1.2233082E-15
  -5.400000        1.6096141E-15
  -5.350000        1.5742441E-15
  -5.300000        9.5530684E-16
  -5.250000       -2.5574336E-16
  -5.200000       -1.8513533E-15
  -5.150000       -3.4041877E-15
  -5.100000       -4.3454844E-15
  -5.050000       -4.1245134E-15
  -5.000000       -2.4164342E-15
  -4.950000        6.8376920E-16
  -4.900000        4.5586758E-15
  -4.850000        8.1244766E-15
  -4.800000        1.0073955E-14
  -4.750000        9.2729677E-15
  -4.700000        5.2097714E-15
  -4.650000       -1.6518794E-15
  -4.600000       -9.7707427E-15
  -4.550000       -1.6781371E-14
  -4.500000       -2.0103646E-14
  -4.450000       -1.7779394E-14
  -4.400000       -9.2918633E-15
  -4.350000        3.9288954E-15
  -4.300000        1.8567240E-14
  -4.250000        3.0154464E-14
  -4.200000        3.4357394E-14
  -4.150000        2.8481856E-14
  -4.100000        1.2700681E-14
  -4.050000       -9.4843024E-15
  -4.000000       -3.1857004E-14
  -3.950000       -4.7159169E-14
  -3.900000       -4.9413795E-14
  -3.850000       -3.6182998E-14
  -3.800000       -9.9394692E-15
  -3.750000        2.2088558E-14
  -3.700000        4.9789027E-14
  -3.650000        6.3345047E-14
  -3.600000        5.6762097E-14
  -3.550000        3.0500220E-14
  -3.500000       -7.8961326E-15
  -3.450000       -4.5701514E-14
  -3.400000       -6.9104099E-14
  -3.350000       -6.8263503E-14
  -3.300000       -4.1542958E-14
  -3.250000        2.8374077E-15
  -3.200000        4.8758896E-14
  -3.150000        7.7564555E-14
  -3.100000        7.5241212E-14
  -3.050000        3.8858971E-14
  -3.000000       -2.0441326E-14
  -2.950000       -7.9720566E-14
  -2.900000       -1.1180087E-13
  -2.850000       -9.6021369E-14
  -2.800000       -2.8417474E-14
  -2.750000        7.2949825E-14
  -2.700000        1.7068527E-13
  -2.650000        2.1936423E-13
  -2.600000        1.8271853E-13
  -2.550000        5.1055101E-14
  -2.500000       -1.4802713E-13
  -2.450000       -3.5139036E-13
  -2.400000       -4.7669648E-13
  -2.350000       -4.5022485E-13
  -2.300000       -2.3795552E-13
  -2.250000        1.3130346E-13
  -2.200000        5.6133787E-13
  -2.150000        9.0832891E-13
  -2.100000        1.0229592E-12
  -2.050000        8.0403273E-13
  -2.000000        2.4635304E-13
  -1.950000       -5.3578919E-13
  -1.900000       -1.3230317E-12
  -1.850000       -1.8457694E-12
  -1.800000       -1.8679190E-12
  -1.750000       -1.2756711E-12
  -1.700000       -1.4105164E-13
  -1.650000        1.2665777E-12
  -1.600000        2.5346121E-12
  -1.550000        3.2200395E-12
  -1.500000        2.9927009E-12
  -1.450000        1.7654167E-12
  -1.400000       -2.3535891E-13
  -1.350000       -2.4919862E-12
  -1.300000       -4.3186739E-12
  -1.250000       -5.0598189E-12
  -1.200000       -4.3092075E-12
  -1.150000       -2.0804673E-12
  -1.100000        1.1347989E-12
  -1.050000        4.4566343E-12
  -1.000000        6.8455779E-12
 -0.9500000        7.4151215E-12
 -0.9000000        5.7371217E-12
 -0.8500000        2.0398405E-12
 -0.8000000       -2.7795340E-12
 -0.7500000       -7.3554643E-12
 -0.7000000       -1.0229366E-11
 -0.6500000       -1.0299985E-11
 -0.6000000       -7.2131411E-12
 -0.5500000       -1.5590502E-12
 -0.5000000        5.2073714E-12
 -0.4500000        1.1128160E-11
 -0.4000000        1.4300902E-11
 -0.3500000        1.3477441E-11
 -0.3000000        8.5171384E-12
 -0.2500000        5.3712303E-13
 -0.2000000       -8.3166642E-12
 -0.1500000       -1.5440546E-11
 -0.1000000       -1.8537274E-11
 -5.0000001E-02   -1.6349987E-11
   0.000000       -9.1331760E-12
  5.0000001E-02    1.3082458E-12
  0.1000000        1.2057882E-11
  0.1500000        1.9903725E-11
  0.2000000        2.2303472E-11
  0.2500000        1.8208390E-11
  0.3000000        8.4788808E-12
  0.3500000       -4.2644204E-12
  0.4000000       -1.6343026E-11
  0.4500000       -2.4090596E-11
  0.5000000       -2.4978117E-11
  0.5500000       -1.8446382E-11
  0.6000000       -6.1707119E-12
  0.6500000        8.3534438E-12
  0.7000000        2.0807380E-11
  0.7500000        2.7344299E-11
  0.8000000        2.5791497E-11
  0.8500000        1.6380558E-11
  0.9000000        1.7590304E-12
  0.9500000       -1.3746474E-11
   1.000000       -2.5411565E-11
   1.050000       -2.9557235E-11
   1.100000       -2.4709235E-11
   1.150000       -1.2104466E-11
   1.200000        4.6291452E-12
   1.250000        2.0536430E-11
   1.300000        3.0823673E-11
   1.350000        3.2314030E-11
   1.400000        2.4415850E-11
   1.450000        9.2997641E-12
   1.500000       -8.7706726E-12
   1.550000       -2.4740937E-11
   1.600000       -3.4284891E-11
   1.650000       -3.5059348E-11
   1.700000       -2.7302471E-11
   1.750000       -1.3604095E-11
   1.800000        2.0481882E-12
   1.850000        1.5604195E-11
   1.900000        2.4203769E-11
   1.950000        2.6922813E-11
   2.000000        2.4776799E-11
   2.050000        2.0017623E-11
   2.100000        1.5019709E-11
   2.150000        1.1205441E-11
   2.200000        8.4490340E-12
   2.250000        5.2196043E-12
   2.300000       -5.6272543E-13
   2.350000       -1.0277738E-11
   2.400000       -2.3474831E-11
   2.450000       -3.7380953E-11
   2.500000       -4.7372880E-11
   2.550000       -4.8397612E-11
   2.600000       -3.6945797E-11
   2.650000       -1.2904048E-11
   2.700000        1.9453815E-11
   2.750000        5.1880250E-11
   2.800000        7.4094265E-11
   2.850000        7.6846120E-11
   2.900000        5.5245683E-11
   2.950000        1.1266111E-11
   3.000000       -4.5554817E-11
   3.050000       -9.9742908E-11
   3.100000       -1.3368832E-10
   3.150000       -1.3274307E-10
   3.200000       -9.0210159E-11
   3.250000       -1.0672555E-11
   3.300000        8.9570767E-11
   3.350000        1.8545866E-10
   3.400000        2.4904431E-10
   3.450000        2.5690947E-10
   3.500000        1.9714051E-10
   3.550000        7.3836000E-11
   3.600000       -9.2345236E-11
   3.650000       -2.6806524E-10
   3.700000       -4.1485348E-10
   3.750000       -4.9845633E-10
   3.800000       -4.9749682E-10
   3.850000       -4.0900244E-10
   3.900000       -2.4911939E-10
   3.950000       -4.8614630E-11
   4.000000        1.5576793E-10
   4.050000        3.3180422E-10
   4.100000        4.6122861E-10
   4.150000        5.4539684E-10
   4.200000        6.0544758E-10
   4.250000        6.7675948E-10
   4.300000        7.9914458E-10
   4.350000        1.0054896E-09
   4.400000        1.3120850E-09
   4.450000        1.7134781E-09
   4.500000        2.1834303E-09
   4.550000        2.6818137E-09
   4.600000        3.1655309E-09
   4.650000        3.6003269E-09
   4.700000        3.9700243E-09
   4.750000        4.2804480E-09
   4.800000        4.5568562E-09
   4.850000        4.8356474E-09
   4.900000        5.1529190E-09
   4.950000        5.5334586E-09
   5.000000        5.9837584E-09
   5.050000        6.4914429E-09
   5.100000        7.0315846E-09
   5.150000        7.5781665E-09
   5.200000        8.1172118E-09
   5.250000        8.6573362E-09
   5.300000        9.2340287E-09
   5.350000        9.9056807E-09
   5.400000        1.0741840E-08
   5.450000        1.1806642E-08
   5.500000        1.3142054E-08
   5.550000        1.4756062E-08
   5.600000        1.6619733E-08
   5.650000        1.8674788E-08
   5.700000        2.0850308E-08
   5.750000        2.3084421E-08
   5.800000        2.5345114E-08
   5.850000        2.7644212E-08
   5.900000        3.0040251E-08
   5.950000        3.2628872E-08
   6.000000        3.5522934E-08
   6.050000        3.8827451E-08
   6.100000        4.2616296E-08
   6.150000        4.6917208E-08
   6.200000        5.1709620E-08
   6.250000        5.6936301E-08
   6.300000        6.2525970E-08
   6.350000        6.8420775E-08
   6.400000        7.4601076E-08
   6.450000        8.1100588E-08
   6.500000        8.8007411E-08
   6.550000        9.5450524E-08
   6.600000        1.0357554E-07
   6.650000        1.1251634E-07
   6.700000        1.2237111E-07
   6.750000        1.3318947E-07
   6.800000        1.4497500E-07
   6.850000        1.5770230E-07
   6.900000        1.7134413E-07
   6.950000        1.8590069E-07
   7.000000        2.0142234E-07
   7.050000        2.1801883E-07
   7.100000        2.3585216E-07
   7.150000        2.5511449E-07
   7.200000        2.7599771E-07
   7.250000        2.9866342E-07
   7.300000        3.2322225E-07
   7.350000        3.4972939E-07
   7.400000        3.7819757E-07
   7.450000        4.0862469E-07
   7.500000        4.4102742E-07
   7.550000        4.7547138E-07
   7.600000        5.1208877E-07
   7.650000        5.5107773E-07
   7.700000        5.9268422E-07
   7.750000        6.3717181E-07
   7.800000        6.8478886E-07
   7.850000        7.3574455E-07
   7.900000        7.9020009E-07
   7.950000        8.4828088E-07
   8.000000        9.1010304E-07
   8.050000        9.7580835E-07
   8.100000        1.0455938E-06
   8.150000        1.1197268E-06
   8.200000        1.1985387E-06
   8.250000        1.2823974E-06
   8.300000        1.3716674E-06
   8.350000        1.4666691E-06
   8.400000        1.5676513E-06
   8.450000        1.6747853E-06
   8.500000        1.7881875E-06
   8.550000        1.9079623E-06
   8.600000        2.0342541E-06
   8.650000        2.1672945E-06
   8.700000        2.3074278E-06
   8.750000        2.4551077E-06
   8.800000        2.6108653E-06
   8.850000        2.7752567E-06
   8.900000        2.9488060E-06
   8.950000        3.1319614E-06
   9.000000        3.3250758E-06
   9.050000        3.5284188E-06
   9.100000        3.7422146E-06
   9.150000        3.9666952E-06
   9.200000        4.2021493E-06
   9.250000        4.4489525E-06
   9.300000        4.7075714E-06
   9.350000        4.9785394E-06
   9.400000        5.2624132E-06
   9.450000        5.5597243E-06
   9.500000        5.8709466E-06
   9.550000        6.1964820E-06
   9.600000        6.5366735E-06
   9.650000        6.8918398E-06
   9.700000        7.2623143E-06
   9.750000        7.6484766E-06
   9.800000        8.0507671E-06
   9.850000        8.4696767E-06
   9.900000        8.9057130E-06
   9.950000        9.3593617E-06
   10.00000        9.8310593E-06
   10.05000        1.0321171E-05
   10.10000        1.0830006E-05
   10.15000        1.1357843E-05
   10.20000        1.1904969E-05
   10.25000        1.2471704E-05
   10.30000        1.3058416E-05
   10.35000        1.3665503E-05
   10.40000        1.4293364E-05
   10.45000        1.4942349E-05
   10.50000        1.5612735E-05
   10.55000        1.6304699E-05
   10.60000        1.7018338E-05
   10.65000        1.7753708E-05
   10.70000        1.8510878E-05
   10.75000        1.9289959E-05
   10.80000        2.0091133E-05
   10.85000        2.0914627E-05
   10.90000        2.1760674E-05
   10.95000        2.2629427E-05
   11.00000        2.3520910E-05
   11.05000        2.4434978E-05
   11.10000        2.5371311E-05
   11.15000        2.6329482E-05
   11.20000        2.7309015E-05
   11.25000        2.8309489E-05
   11.30000        2.9330593E-05
   11.35000        3.0372152E-05
   11.40000        3.1434105E-05
   11.45000        3.2516404E-05
   11.50000        3.3618930E-05
   11.55000        3.4741377E-05
   11.60000        3.5883171E-05
   11.65000        3.7043501E-05
   11.70000        3.8221333E-05
   11.75000        3.9415543E-05
   11.80000        4.0625044E-05
   11.85000        4.1848874E-05
   11.90000        4.3086286E-05
   11.95000        4.4336706E-05
   12.00000        4.5599681E-05
   12.05000        4.6874728E-05
   12.10000        4.8161193E-05
   12.15000        4.9458140E-05
   12.20000        5.0764302E-05
   12.25000        5.2078110E-05
   12.30000        5.3397802E-05
   12.35000        5.4721582E-05
   12.40000        5.6047800E-05
   12.45000        5.7375069E-05
   12.50000        5.8702335E-05
   12.55000        6.0028782E-05
   12.60000        6.1353749E-05
   12.65000        6.2676489E-05
   12.70000        6.3996005E-05
   12.75000        6.5310916E-05
   12.80000        6.6619388E-05
   12.85000        6.7919245E-05
   12.90000        6.9208130E-05
   12.95000        7.0483729E-05
   13.00000        7.1744005E-05
   13.05000        7.2987379E-05
   13.10000        7.4212723E-05
   13.15000        7.5419310E-05
   13.20000        7.6606557E-05
   13.25000        7.7773831E-05
   13.30000        7.8920173E-05
   13.35000        8.0044170E-05
   13.40000        8.1143924E-05
   13.45000        8.2217215E-05
   13.50000        8.3261701E-05
   13.55000        8.4275176E-05
   13.60000        8.5255801E-05
   13.65000        8.6202228E-05
   13.70000        8.7113563E-05
   13.75000        8.7989254E-05
   13.80000        8.8828856E-05
   13.85000        8.9631823E-05
   13.90000        9.0397363E-05
   13.95000        9.1124391E-05
   14.00000        9.1811598E-05
   14.05000        9.2457594E-05
   14.10000        9.3061120E-05
   14.15000        9.3621151E-05
   14.20000        9.4136987E-05
   14.25000        9.4608156E-05
   14.30000        9.5034338E-05
   14.35000        9.5415227E-05
   14.40000        9.5750365E-05
   14.45000        9.6039199E-05
   14.50000        9.6281088E-05
   14.55000        9.6475473E-05
   14.60000        9.6622003E-05
   14.65000        9.6720651E-05
   14.70000        9.6771728E-05
   14.75000        9.6775781E-05
   14.80000        9.6733449E-05
   14.85000        9.6645264E-05
   14.90000        9.6511569E-05
   14.95000        9.6332471E-05
   15.00000        9.6107913E-05
   15.05000        9.5837844E-05
   15.10000        9.5522417E-05
   15.15000        9.5162119E-05
   15.20000        9.4757808E-05
   15.25000        9.4310672E-05
   15.30000        9.3822055E-05
   15.35000        9.3293274E-05
   15.40000        9.2725473E-05
   15.45000        9.2119590E-05
   15.50000        9.1476380E-05
   15.55000        9.0796537E-05
   15.60000        9.0080888E-05
   15.65000        8.9330511E-05
   15.70000        8.8546767E-05
   15.75000        8.7731227E-05
   15.80000        8.6885571E-05
   15.85000        8.6011423E-05
   15.90000        8.5110223E-05
   15.95000        8.4183208E-05
   16.00000        8.3231484E-05
   16.05000        8.2256134E-05
   16.10000        8.1258426E-05
   16.15000        8.0239835E-05
   16.20000        7.9202102E-05
   16.25000        7.8147088E-05
   16.30000        7.7076693E-05
   16.35000        7.5992626E-05
   16.40000        7.4896350E-05
   16.45000        7.3789080E-05
   16.50000        7.2671835E-05
   16.55000        7.1545663E-05
   16.60000        7.0411748E-05
   16.65000        6.9271526E-05
   16.70000        6.8126661E-05
   16.75000        6.6978937E-05
   16.80000        6.5830100E-05
   16.85000        6.4681713E-05
   16.90000        6.3535037E-05
   16.95000        6.2391104E-05
   17.00000        6.1250772E-05
   17.05000        6.0114944E-05
   17.10000        5.8984639E-05
   17.15000        5.7861096E-05
   17.20000        5.6745721E-05
   17.25000        5.5639925E-05
   17.30000        5.4544973E-05
   17.35000        5.3461856E-05
   17.40000        5.2391239E-05
   17.45000        5.1333551E-05
   17.50000        5.0289142E-05
   17.55000        4.9258477E-05
   17.60000        4.8242266E-05
   17.65000        4.7241483E-05
   17.70000        4.6257261E-05
   17.75000        4.5290715E-05
   17.80000        4.4342727E-05
   17.85000        4.3413809E-05
   17.90000        4.2504093E-05
   17.95000        4.1613450E-05
   18.00000        4.0741717E-05
   18.05000        3.9888895E-05
   18.10000        3.9055300E-05
   18.15000        3.8241556E-05
   18.20000        3.7448470E-05
   18.25000        3.6676789E-05
   18.30000        3.5926972E-05
   18.35000        3.5199046E-05
   18.40000        3.4492612E-05
   18.45000        3.3807006E-05
   18.50000        3.3141550E-05
   18.55000        3.2495798E-05
   18.60000        3.1869688E-05
   18.65000        3.1263535E-05
   18.70000        3.0677897E-05
   18.75000        3.0113300E-05
   18.80000        2.9569990E-05
   18.85000        2.9047787E-05
   18.90000        2.8546099E-05
   18.95000        2.8064062E-05
   19.00000        2.7600805E-05
   19.05000        2.7155686E-05
   19.10000        2.6728432E-05
   19.15000        2.6319125E-05
   19.20000        2.5928035E-05
   19.25000        2.5555379E-05
   19.30000        2.5201087E-05
   19.35000        2.4864697E-05
   19.40000        2.4545376E-05
   19.45000        2.4242110E-05
   19.50000        2.3953959E-05
   19.55000        2.3680261E-05
   19.60000        2.3420758E-05
   19.65000        2.3175529E-05
   19.70000        2.2944811E-05
   19.75000        2.2728751E-05
   19.80000        2.2527205E-05
   19.85000        2.2339642E-05
   19.90000        2.2165223E-05
   19.95000        2.2002991E-05
   20.00000        2.1852107E-05
   20.05000        2.1712038E-05
   20.10000        2.1582608E-05
   20.15000        2.1463900E-05
   20.20000        2.1356051E-05
   20.25000        2.1259017E-05
   20.30000        2.1172411E-05
   20.35000        2.1095495E-05
   20.40000        2.1027314E-05
   20.45000        2.0966934E-05
   20.50000        2.0913700E-05
   20.55000        2.0867385E-05
   20.60000        2.0828187E-05
   20.65000        2.0796555E-05
   20.70000        2.0772914E-05
   20.75000        2.0757381E-05
   20.80000        2.0749609E-05
   20.85000        2.0748777E-05
   20.90000        2.0753794E-05
   20.95000        2.0763577E-05
   21.00000        2.0777361E-05
   21.05000        2.0794876E-05
   21.10000        2.0816355E-05
   21.15000        2.0842346E-05
   21.20000        2.0873440E-05
   21.25000        2.0909947E-05
   21.30000        2.0951718E-05
   21.35000        2.0998144E-05
   21.40000        2.1048299E-05
   21.45000        2.1101245E-05
   21.50000        2.1156304E-05
   21.55000        2.1213255E-05
   21.60000        2.1272337E-05
   21.65000        2.1334094E-05
   21.70000        2.1399104E-05
   21.75000        2.1467709E-05
   21.80000        2.1539832E-05
   21.85000        2.1614978E-05
   21.90000        2.1692385E-05
   21.95000        2.1771286E-05
   22.00000        2.1851163E-05
   22.05000        2.1931895E-05
   22.10000        2.2013784E-05
   22.15000        2.2097378E-05
   22.20000        2.2183231E-05
   22.25000        2.2271652E-05
   22.30000        2.2362556E-05
   22.35000        2.2455473E-05
   22.40000        2.2549712E-05
   22.45000        2.2644595E-05
   22.50000        2.2739716E-05
   22.55000        2.2835069E-05
   22.60000        2.2931057E-05
   22.65000        2.3028324E-05
   22.70000        2.3127515E-05
   22.75000        2.3229009E-05
   22.80000        2.3332788E-05
   22.85000        2.3438413E-05
   22.90000        2.3545183E-05
   22.95000        2.3652372E-05
   23.00000        2.3759496E-05
   23.05000        2.3866474E-05
   23.10000        2.3973671E-05
   23.15000        2.4081750E-05
   23.20000        2.4191460E-05
   23.25000        2.4303361E-05
   23.30000        2.4417637E-05
   23.35000        2.4534042E-05
   23.40000        2.4651979E-05
   23.45000        2.4770727E-05
   23.50000        2.4889676E-05
   23.55000        2.5008543E-05
   23.60000        2.5127458E-05
   23.65000        2.5246898E-05
   23.70000        2.5367519E-05
   23.75000        2.5489908E-05
   23.80000        2.5614387E-05
   23.85000        2.5740886E-05
   23.90000        2.5868991E-05
   23.95000        2.5998097E-05
   24.00000        2.6127629E-05
   24.05000        2.6257259E-05
   24.10000        2.6387035E-05
   24.15000        2.6517362E-05
   24.20000        2.6648855E-05
   24.25000        2.6782121E-05
   24.30000        2.6917522E-05
   24.35000        2.7055021E-05
   24.40000        2.7194184E-05
   24.45000        2.7334296E-05
   24.50000        2.7474609E-05
   24.55000        2.7614587E-05
   24.60000        2.7754097E-05
   24.65000        2.7893440E-05
   24.70000        2.8033242E-05
   24.75000        2.8174232E-05
   24.80000        2.8316943E-05
   24.85000        2.8461522E-05
   24.90000        2.8607656E-05
   24.95000        2.8754670E-05
   25.00000        2.8901763E-05
   25.05000        2.9048277E-05
   25.10000        2.9193960E-05
   25.15000        2.9339029E-05
   25.20000        2.9484087E-05
   25.25000        2.9629888E-05
   25.30000        2.9777000E-05
   25.35000        2.9925581E-05
   25.40000        3.0075251E-05
   25.45000        3.0225186E-05
   25.50000        3.0374385E-05
   25.55000        3.0522016E-05
   25.60000        3.0667703E-05
   25.65000        3.0811669E-05
   25.70000        3.0954652E-05
   25.75000        3.1097639E-05
   25.80000        3.1241481E-05
   25.85000        3.1386586E-05
   25.90000        3.1532734E-05
   25.95000        3.1679152E-05
   26.00000        3.1824784E-05
   26.05000        3.1968659E-05
   26.10000        3.2110231E-05
   26.15000        3.2249562E-05
   26.20000        3.2387274E-05
   26.25000        3.2524273E-05
   26.30000        3.2661359E-05
   26.35000        3.2798911E-05
   26.40000        3.2936689E-05
   26.45000        3.3073949E-05
   26.50000        3.3209693E-05
   26.55000        3.3343091E-05
   26.60000        3.3473807E-05
   26.65000        3.3602173E-05
   26.70000        3.3729066E-05
   26.75000        3.3855595E-05
   26.80000        3.3982658E-05
   26.85000        3.4110581E-05
   26.90000        3.4238965E-05
   26.95000        3.4366793E-05
   27.00000        3.4492790E-05
   27.05000        3.4615899E-05
   27.10000        3.4735669E-05
   27.15000        3.4852426E-05
   27.20000        3.4967157E-05
   27.25000        3.5081135E-05
   27.30000        3.5195448E-05
   27.35000        3.5310608E-05
   27.40000        3.5426379E-05
   27.45000        3.5541885E-05
   27.50000        3.5655987E-05
   27.55000        3.5767753E-05
   27.60000        3.5876838E-05
   27.65000        3.5983619E-05
   27.70000        3.6089074E-05
   27.75000        3.6194360E-05
   27.80000        3.6300367E-05
   27.85000        3.6407317E-05
   27.90000        3.6514662E-05
   27.95000        3.6621266E-05
   28.00000        3.6725829E-05
   28.05000        3.6827398E-05
   28.10000        3.6925740E-05
   28.15000        3.7021462E-05
   28.20000        3.7115806E-05
   28.25000        3.7210189E-05
   28.30000        3.7305701E-05
   28.35000        3.7402697E-05
   28.40000        3.7500657E-05
   28.45000        3.7598402E-05
   28.50000        3.7694521E-05
   28.55000        3.7787886E-05
   28.60000        3.7878050E-05
   28.65000        3.7965354E-05
   28.70000        3.8050752E-05
   28.75000        3.8135404E-05
   28.80000        3.8220183E-05
   28.85000        3.8305327E-05
   28.90000        3.8390332E-05
   28.95000        3.8474154E-05
   29.00000        3.8555601E-05
   29.05000        3.8633767E-05
   29.10000        3.8708371E-05
   29.15000        3.8779806E-05
   29.20000        3.8848935E-05
   29.25000        3.8916711E-05
   29.30000        3.8983744E-05
   29.35000        3.9050039E-05
   29.40000        3.9114933E-05
   29.45000        3.9177339E-05
   29.50000        3.9236093E-05
   29.55000        3.9290378E-05
   29.60000        3.9339957E-05
   29.65000        3.9385177E-05
   29.70000        3.9426755E-05
   29.75000        3.9465423E-05
   29.80000        3.9501545E-05
   29.85000        3.9534902E-05
   29.90000        3.9564711E-05
   29.95000        3.9589864E-05
   30.00000        3.9609258E-05
   30.05000        3.9622144E-05
   30.10000        3.9628296E-05
   30.15000        3.9628012E-05
   30.20000        3.9621857E-05
   30.25000        3.9610379E-05
   30.30000        3.9593779E-05
   30.35000        3.9571791E-05
   30.40000        3.9543676E-05
   30.45000        3.9508461E-05
   30.50000        3.9465194E-05
   30.55000        3.9413218E-05
   30.60000        3.9352264E-05
   30.65000        3.9282415E-05
   30.70000        3.9203915E-05
   30.75000        3.9116960E-05
   30.80000        3.9021459E-05
   30.85000        3.8916995E-05
   30.90000        3.8802882E-05
   30.95000        3.8678343E-05
   31.00000        3.8542690E-05
   31.05000        3.8395508E-05
   31.10000        3.8236645E-05
   31.15000        3.8066170E-05
   31.20000        3.7884180E-05
   31.25000        3.7690657E-05
   31.30000        3.7485348E-05
   31.35000        3.7267757E-05
   31.40000        3.7037244E-05
   31.45000        3.6793157E-05
   31.50000        3.6534977E-05
   31.55000        3.6262380E-05
   31.60000        3.5975219E-05
   31.65000        3.5673474E-05
   31.70000        3.5357119E-05
   31.75000        3.5026053E-05
   31.80000        3.4680070E-05
   31.85000        3.4318862E-05
   31.90000        3.3942117E-05
   31.95000        3.3549557E-05
   32.00000        3.3140968E-05
   32.05000        3.2716194E-05
   32.10000        3.2275075E-05
   32.15000        3.1817421E-05
   32.20000        3.1342995E-05
   32.25000        3.0851541E-05
   32.30000        3.0342877E-05
   32.35000        2.9816954E-05
   32.40000        2.9273904E-05
   32.45000        2.8713999E-05
   32.50000        2.8137574E-05
   32.55000        2.7544884E-05
   32.60000        2.6935995E-05
   32.65000        2.6310752E-05
   32.70000        2.5668829E-05
   32.75000        2.5009867E-05
   32.80000        2.4333658E-05
   32.85000        2.3640279E-05
   32.90000        2.2930146E-05
   32.95000        2.2203945E-05
   33.00000        2.1462474E-05
   33.05000        2.0706446E-05
   33.10000        1.9936318E-05
   33.15000        1.9152259E-05
   33.20000        1.8354211E-05
   33.25000        1.7542059E-05
   33.30000        1.6715847E-05
   33.35000        1.5875907E-05
   33.40000        1.5022918E-05
   33.45000        1.4157814E-05
   33.50000        1.3281608E-05
   33.55000        1.2395204E-05
   33.60000        1.1499267E-05
   33.65000        1.0594209E-05
   33.70000        9.6802905E-06
   33.75000        8.7577973E-06
   33.80000        7.8272087E-06
   33.85000        6.8893014E-06
   33.90000        5.9451208E-06
   33.95000        4.9958530E-06
   34.00000        4.0426485E-06
   34.05000        3.0864637E-06
   34.10000        2.1280039E-06
   34.15000        1.1677824E-06
   34.20000        2.0627444E-07
   34.25000       -7.5590322E-07
   34.30000       -1.7178647E-06
   34.35000       -2.6784408E-06
   34.40000       -3.6362837E-06
   34.45000       -4.5900510E-06
   34.50000       -5.5385899E-06
   34.55000       -6.4810406E-06
   34.60000       -7.4168120E-06
   34.65000       -8.3454361E-06
   34.70000       -9.2663595E-06
   34.75000       -1.0178765E-05
   34.80000       -1.1081502E-05
   34.85000       -1.1973149E-05
   34.90000       -1.2852217E-05
   34.95000       -1.3717373E-05
   35.00000       -1.4567624E-05
   35.05000       -1.5402364E-05
   35.10000       -1.6221256E-05
   35.15000       -1.7024011E-05
   35.20000       -1.7810138E-05
   35.25000       -1.8578789E-05
   35.30000       -1.9328745E-05
   35.35000       -2.0058593E-05
   35.40000       -2.0766971E-05