  -10.00000        1.0000000E-24
  -9.950000        1.0000000E-24
  -9.900000        1.0000000E-24
  -9.850000        1.0000000E-24
  -9.800000        1.0000000E-24
  -9.750000        1.0000001E-24
  -9.700000        1.0000001E-24
  -9.650000        1.0000001E-24
  -9.600000        1.0000001E-24
  -9.550000        1.0000000E-24
  -9.500000        9.9999943E-25
  -9.450000        9.9999627E-25
  -9.400000        9.9997872E-25
  -9.350000        9.9989895E-25
  -9.300000        9.9962600E-25
  -9.250000        9.9893210E-25
  -9.200000        9.9768876E-25
  -9.150000        9.9650635E-25
  -9.100000        9.9768954E-25
  -9.050000        1.0052432E-24
  -9.000000        1.0210981E-24
  -8.950000        1.0348173E-24
  -8.900000        1.0095166E-24
  -8.850000        8.8001654E-25
  -8.800000        5.9505928E-25
  -8.750000        2.3475554E-25
  -8.700000        1.8768142E-25
  -8.650000        1.2614771E-24
  -8.600000        4.4612794E-24
  -8.550000        1.0124994E-23
  -8.500000        1.6346913E-23
  -8.450000        1.7296799E-23
  -8.400000        3.0309095E-24
  -8.350000       -3.6894248E-23
  -8.300000       -1.0429157E-22
  -8.250000       -1.7890068E-22
  -8.200000       -2.0710570E-22
  -8.150000       -1.0489663E-22
  -8.100000        2.1126647E-22
  -8.050000        7.5986652E-22
  -8.000000        1.4103907E-21
  -7.950000        1.8228694E-21
  -7.900000        1.4763935E-21
  -7.850000       -1.5280484E-22
  -7.800000       -3.2551322E-21
  -7.750000       -7.2848965E-21
  -7.700000       -1.0698622E-20
  -7.650000       -1.1105866E-20
  -7.600000       -6.0345035E-21
  -7.550000        5.7375404E-21
  -7.500000        2.2719230E-20
  -7.450000        3.9905141E-20
  -7.400000        4.9500814E-20
  -7.350000        4.3593139E-20
  -7.300000        1.8189600E-20
  -7.250000       -2.3167078E-20
  -7.200000       -6.8750535E-20
  -7.150000       -1.0296689E-19
  -7.100000       -1.1532584E-19
  -7.050000       -1.1012319E-19
  -7.000000       -1.0959511E-19
  -6.950000       -1.4293463E-19
  -6.900000       -2.1850387E-19
  -6.850000       -2.8727308E-19
  -6.800000       -2.1883347E-19
  -6.750000        1.7985118E-19
  -6.700000        1.0776999E-18
  -6.650000        2.4650791E-18
  -6.600000        3.9769330E-18
  -6.550000        4.7890267E-18
  -6.500000        3.7116521E-18
  -6.450000       -4.1945414E-19
  -6.400000       -8.0550906E-18
  -6.350000       -1.8115768E-17
  -6.300000       -2.7401604E-17
  -6.250000       -3.0700805E-17
  -6.200000       -2.2008388E-17
  -6.150000        3.0445309E-18
  -6.100000        4.4000060E-17
  -6.050000        9.2716577E-17
  -6.000000        1.3241560E-16
  -5.950000        1.4018095E-16
  -5.900000        9.3686390E-17
  -5.850000       -1.8615509E-17
  -5.800000       -1.8659335E-16
  -5.750000       -3.7129544E-16
  -5.700000       -5.0658081E-16
  -5.650000       -5.1310614E-16
  -5.600000       -3.2458075E-16
  -5.550000        7.9099490E-17
  -5.500000        6.4255099E-16
  -5.450000        1.2232038E-15
  -5.400000        1.6095125E-15
  -5.350000        1.5741847E-15
  -5.300000        9.5533066E-16
  -5.250000       -2.5560850E-16
  -5.200000       -1.8511083E-15
  -5.150000       -3.4038739E-15
  -5.100000       -4.3451846E-15
  -5.050000       -4.1243381E-15
  -5.000000       -2.4164910E-15
  -4.950000        6.8341509E-16
  -4.900000        4.5580380E-15
  -4.850000        8.1236711E-15
  -4.800000        1.0073195E-14
  -4.750000        9.2725205E-15
  -4.700000        5.2098824E-15
  -4.650000       -1.6510805E-15
  -4.600000       -9.7693172E-15
  -4.550000       -1.6779602E-14
  -4.500000       -2.0102008E-14
  -4.450000       -1.7778442E-14
  -4.400000       -9.2920675E-15
  -4.350000        3.9273288E-15
  -4.300000        1.8564501E-14
  -4.250000        3.0151158E-14
  -4.200000        3.4354433E-14
  -4.150000        2.8480219E-14
  -4.100000        1.2701115E-14
  -4.050000       -9.4815936E-15
  -4.000000       -3.1852501E-14
  -3.950000       -4.7154009E-14
  -3.900000       -4.9409502E-14
  -3.850000       -3.6181023E-14
  -3.800000       -9.9407092E-15
  -3.750000        2.2084173E-14
  -3.700000        4.9782620E-14
  -3.650000        6.3338569E-14
  -3.600000        5.6757733E-14
  -3.550000        3.0499620E-14
  -3.500000       -7.8924853E-15
  -3.450000       -4.5694659E-14
  -3.400000       -6.9096401E-14
  -3.350000       -6.8257920E-14
  -3.300000       -4.1541996E-14
  -3.250000        2.8327827E-15
  -3.200000        4.8749890E-14
  -3.150000        7.7554384E-14
  -3.100000        7.5234198E-14
  -3.050000        3.8858961E-14
  -3.000000       -2.0432695E-14
  -2.950000       -7.9704960E-14
  -2.900000       -1.1178332E-13
  -2.850000       -9.6008996E-14
  -2.800000       -2.8416985E-14
  -2.750000        7.2934971E-14
  -2.700000        1.7065707E-13
  -2.650000        2.1933064E-13
  -2.600000        1.8269193E-13
  -2.550000        5.1048226E-14
  -2.500000       -1.4800601E-13
  -2.450000       -3.5134168E-13
  -2.400000       -4.7663186E-13
  -2.350000       -4.5016486E-13
  -2.300000       -2.3792494E-13
  -2.250000        1.3128441E-13
  -2.200000        5.6126225E-13
  -2.150000        9.0820851E-13
  -2.100000        1.0228254E-12
  -2.050000        8.0393016E-13
  -2.000000        2.4632621E-13
  -1.950000       -5.3571080E-13
  -1.900000       -1.3228479E-12
  -1.850000       -1.8455155E-12
  -1.800000       -1.8676614E-12
  -1.750000       -1.2754926E-12
  -1.700000       -1.4102731E-13
  -1.650000        1.2664077E-12
  -1.600000        2.5342621E-12
  -1.550000        3.2195822E-12
  -1.500000        2.9922575E-12
  -1.450000        1.7651239E-12
  -1.400000       -2.3538821E-13
  -1.350000       -2.4917019E-12
  -1.300000       -4.3181136E-12
  -1.250000       -5.0591107E-12
  -1.200000       -4.3085431E-12
  -1.150000       -2.0800508E-12
  -1.100000        1.1348134E-12
  -1.050000        4.4561954E-12
  -1.000000        6.8447687E-12
 -0.9500000        7.4141466E-12
 -0.9000000        5.7362613E-12
 -0.8500000        2.0393734E-12
 -0.8000000       -2.7794221E-12
 -0.7500000       -7.3547462E-12
 -0.7000000       -1.0228201E-11
 -0.6500000       -1.0298692E-11
 -0.6000000       -7.2121150E-12
 -0.5500000       -1.5586522E-12
 -0.5000000        5.2069382E-12
 -0.4500000        1.1126927E-11
 -0.4000000        1.4299149E-11
 -0.3500000        1.3475645E-11
 -0.3000000        8.5158460E-12
 -0.2500000        5.3679175E-13
 -0.2000000       -8.3158151E-12
 -0.1500000       -1.5438621E-11
 -0.1000000       -1.8534707E-11
 -5.0000001E-02   -1.6347432E-11
  0.0000000E+00   -9.1313467E-12
  5.0000001E-02    1.3087765E-12
  0.1000000        1.2056864E-11
  0.1500000        1.9901313E-11
  0.2000000        2.2300219E-11
  0.2500000        1.8205099E-11
  0.3000000        8.4764001E-12
  0.3500000       -4.2654361E-12
  0.4000000       -1.6342297E-11
  0.4500000       -2.4088306E-11
  0.5000000       -2.4974864E-11
  0.5500000       -1.8443016E-11
  0.6000000       -6.1680834E-12
  0.6500000        8.3547015E-12
  0.7000000        2.0807037E-11
  0.7500000        2.7342567E-11
  0.8000000        2.5788972E-11
  0.8500000        1.6378017E-11
  0.9000000        1.7572021E-12
  0.9500000       -1.3747120E-11
   1.000000       -2.5410948E-11
   1.050000       -2.9555657E-11
   1.100000       -2.4707271E-11
   1.150000       -1.2102768E-11
   1.200000        4.6300437E-12
   1.250000        2.0536264E-11
   1.300000        3.0822494E-11
   1.350000        3.2312146E-11
   1.400000        2.4413712E-11
   1.450000        9.2978082E-12
   1.500000       -8.7721349E-12
   1.550000       -2.4741759E-11
   1.600000       -3.4285040E-11
   1.650000       -3.5058820E-11
   1.700000       -2.7301203E-11
   1.750000       -1.3601934E-11
   1.800000        2.0514135E-12
   1.850000        1.5608511E-11
   1.900000        2.4208880E-11
   1.950000        2.6927975E-11
   2.000000        2.4780828E-11
   2.050000        2.0019087E-11
   2.100000        1.5017302E-11
   2.150000        1.1198461E-11
   2.200000        8.4377921E-12
   2.250000        5.2056033E-12
   2.300000       -5.7685454E-13
   2.350000       -1.0288755E-11
   2.400000       -2.3479623E-11
   2.450000       -3.7377393E-11
   2.500000       -4.7360577E-11
   2.550000       -4.8378246E-11
   2.600000       -3.6923003E-11
   2.650000       -1.2882731E-11
   2.700000        1.9468687E-11
   2.750000        5.1884899E-11
   2.800000        7.4087181E-11
   2.850000        7.6828675E-11
   2.900000        5.5221883E-11
   2.950000        1.1241716E-11
   3.000000       -4.5573781E-11
   3.050000       -9.9751665E-11
   3.100000       -1.3368477E-10
   3.150000       -1.3272838E-10
   3.200000       -9.0188641E-11
   3.250000       -1.0650515E-11
   3.300000        8.9586741E-11
   3.350000        1.8546345E-10
   3.400000        2.4903590E-10
   3.450000        2.5688965E-10
   3.500000        1.9711456E-10
   3.550000        7.3811492E-11
   3.600000       -9.2360349E-11
   3.650000       -2.6806490E-10
   3.700000       -4.1483519E-10
   3.750000       -4.9842208E-10
   3.800000       -4.9745280E-10
   3.850000       -4.0895812E-10
   3.900000       -2.4908539E-10
   3.950000       -4.8600391E-11
   4.000000        1.5575609E-10
   4.050000        3.3176450E-10
   4.100000        4.6116386E-10
   4.150000        5.4531391E-10
   4.200000        6.0535577E-10
   4.250000        6.7666922E-10
   4.300000        7.9906498E-10
   4.350000        1.0054266E-09
   4.400000        1.3120411E-09
   4.450000        1.7134515E-09
   4.500000        2.1834148E-09
   4.550000        2.6818001E-09
   4.600000        3.1655103E-09
   4.650000        3.6002903E-09
   4.700000        3.9699657E-09
   4.750000        4.2803667E-09
   4.800000        4.5567545E-09
   4.850000        4.8355346E-09
   4.900000        5.1528057E-09
   4.950000        5.5333569E-09
   5.000000        5.9836762E-09
   5.050000        6.4913830E-09
   5.100000        7.0315416E-09
   5.150000        7.5781257E-09
   5.200000        8.1171549E-09
   5.250000        8.6572420E-09
   5.300000        9.2338794E-09
   5.350000        9.9054693E-09
   5.400000        1.0741570E-08
   5.450000        1.1806326E-08
   5.500000        1.3141715E-08
   5.550000        1.4755726E-08
   5.600000        1.6619415E-08
   5.650000        1.8674493E-08
   5.700000        2.0850029E-08
   5.750000        2.3084130E-08
   5.800000        2.5344780E-08
   5.850000        2.7643798E-08
   5.900000        3.0039736E-08
   5.950000        3.2628254E-08
   6.000000        3.5522227E-08
   6.050000        3.8826681E-08
   6.100000        4.2615493E-08
   6.150000        4.6916405E-08
   6.200000        5.1708824E-08
   6.250000        5.6935498E-08
   6.300000        6.2525125E-08
   6.350000        6.8419830E-08
   6.400000        7.4599988E-08
   6.450000        8.1099316E-08
   6.500000        8.8005940E-08
   6.550000        9.5448875E-08
   6.600000        1.0357372E-07
   6.650000        1.1251441E-07
   6.700000        1.2236910E-07
   6.750000        1.3318741E-07
   6.800000        1.4497286E-07
   6.850000        1.5770001E-07
   6.900000        1.7134163E-07
   6.950000        1.8589790E-07
   7.000000        2.0141923E-07
   7.050000        2.1801539E-07
   7.100000        2.3584840E-07
   7.150000        2.5511048E-07
   7.200000        2.7599353E-07
   7.250000        2.9865907E-07
   7.300000        3.2321771E-07
   7.350000        3.4972462E-07
   7.400000        3.7819248E-07
   7.450000        4.0861912E-07
   7.500000        4.4102126E-07
   7.550000        4.7546456E-07
   7.600000        5.1208133E-07
   7.650000        5.5106972E-07
   7.700000        5.9267586E-07
   7.750000        6.3716317E-07
   7.800000        6.8478005E-07
   7.850000        7.3573528E-07
   7.900000        7.9019026E-07
   7.950000        8.4827013E-07
   8.000000        9.1009116E-07
   8.050000        9.7579516E-07
   8.100000        1.0455793E-06
   8.150000        1.1197112E-06
   8.200000        1.1985221E-06
   8.250000        1.2823800E-06
   8.300000        1.3716495E-06
   8.350000        1.4666510E-06
   8.400000        1.5676328E-06
   8.450000        1.6747662E-06
   8.500000        1.7881673E-06
   8.550000        1.9079403E-06
   8.600000        2.0342297E-06
   8.650000        2.1672677E-06
   8.700000        2.3073985E-06
   8.750000        2.4550764E-06
   8.800000        2.6108328E-06
   8.850000        2.7752237E-06
   8.900000        2.9487733E-06
   8.950000        3.1319287E-06
   9.000000        3.3250424E-06
   9.050000        3.5283836E-06
   9.100000        3.7421764E-06
   9.150000        3.9666534E-06
   9.200000        4.2021024E-06
   9.250000        4.4489011E-06
   9.300000        4.7075164E-06
   9.350000        4.9784821E-06
   9.400000        5.2623545E-06
   9.450000        5.5596652E-06
   9.500000        5.8708870E-06
   9.550000        6.1964206E-06
   9.600000        6.5366089E-06
   9.650000        6.8917707E-06
   9.700000        7.2622397E-06
   9.750000        7.6483966E-06
   9.800000        8.0506834E-06
   9.850000        8.4695903E-06
   9.900000        8.9056239E-06
   9.950000        9.3592716E-06
   10.00000        9.8309674E-06
   10.05000        1.0321077E-05
   10.10000        1.0829907E-05
   10.15000        1.1357740E-05
   10.20000        1.1904859E-05
   10.25000        1.2471589E-05
   10.30000        1.3058296E-05
   10.35000        1.3665380E-05
   10.40000        1.4293239E-05
   10.45000        1.4942225E-05
   10.50000        1.5612610E-05
   10.55000        1.6304572E-05
   10.60000        1.7018207E-05
   10.65000        1.7753573E-05
   10.70000        1.8510736E-05
   10.75000        1.9289811E-05
   10.80000        2.0090980E-05
   10.85000        2.0914469E-05
   10.90000        2.1760508E-05
   10.95000        2.2629252E-05
   11.00000        2.3520730E-05
   11.05000        2.4434788E-05
   11.10000        2.5371117E-05
   11.15000        2.6329282E-05
   11.20000        2.7308812E-05
   11.25000        2.8309283E-05
   11.30000        2.9330378E-05
   11.35000        3.0371935E-05
   11.40000        3.1433876E-05
   11.45000        3.2516171E-05
   11.50000        3.3618689E-05
   11.55000        3.4741126E-05
   11.60000        3.5882920E-05
   11.65000        3.7043243E-05
   11.70000        3.8221071E-05
   11.75000        3.9415285E-05
   11.80000        4.0624778E-05
   11.85000        4.1848609E-05
   11.90000        4.3086013E-05
   11.95000        4.4336430E-05
   12.00000        4.5599398E-05
   12.05000        4.6874437E-05
   12.10000        4.8160899E-05
   12.15000        4.9457845E-05
   12.20000        5.0764011E-05
   12.25000        5.2077827E-05
   12.30000        5.3397525E-05
   12.35000        5.4721313E-05
   12.40000        5.6047535E-05
   12.45000        5.7374808E-05
   12.50000        5.8702059E-05
   12.55000        6.0028491E-05
   12.60000        6.1353436E-05
   12.65000        6.2676161E-05
   12.70000        6.3995678E-05
   12.75000        6.5310589E-05
   12.80000        6.6619075E-05
   12.85000        6.7918954E-05
   12.90000        6.9207847E-05
   12.95000        7.0483438E-05
   13.00000        7.1743707E-05
   13.05000        7.2987059E-05
   13.10000        7.4212388E-05
   13.15000        7.5418960E-05
   13.20000        7.6606208E-05
   13.25000        7.7773497E-05
   13.30000        7.8919875E-05
   13.35000        8.0043901E-05
   13.40000        8.1143706E-05
   13.45000        8.2217033E-05
   13.50000        8.3261533E-05
   13.55000        8.4275001E-05
   13.60000        8.5255590E-05
   13.65000        8.6201981E-05
   13.70000        8.7113280E-05
   13.75000        8.7988963E-05
   13.80000        8.8828579E-05
   13.85000        8.9631591E-05
   13.90000        9.0397189E-05
   13.95000        9.1124275E-05
   14.00000        9.1811526E-05
   14.05000        9.2457536E-05
   14.10000        9.3061048E-05
   14.15000        9.3621064E-05
   14.20000        9.4136871E-05
   14.25000        9.4608033E-05
   14.30000        9.5034229E-05
   14.35000        9.5415147E-05
   14.40000        9.5750336E-05
   14.45000        9.6039228E-05
   14.50000        9.6281154E-05
   14.55000        9.6475560E-05
   14.60000        9.6622069E-05
   14.65000        9.6720687E-05
   14.70000        9.6771713E-05
   14.75000        9.6775722E-05
   14.80000        9.6733354E-05
   14.85000        9.6645163E-05
   14.90000        9.6511489E-05
   14.95000        9.6332427E-05
   15.00000        9.6107899E-05
   15.05000        9.5837851E-05
   15.10000        9.5522417E-05
   15.15000        9.5162090E-05
   15.20000        9.4757735E-05
   15.25000        9.4310548E-05
   15.30000        9.3821902E-05
   15.35000        9.3293114E-05
   15.40000        9.2725357E-05
   15.45000        9.2119539E-05
   15.50000        9.1476395E-05
   15.55000        9.0796617E-05
   15.60000        9.0081026E-05
   15.65000        8.9330671E-05
   15.70000        8.8546905E-05
   15.75000        8.7731336E-05
   15.80000        8.6885644E-05
   15.85000        8.6011460E-05
   15.90000        8.5110245E-05
   15.95000        8.4183237E-05
   16.00000        8.3231535E-05
   16.05000        8.2256229E-05
   16.10000        8.1258557E-05
   16.15000        8.0240003E-05
   16.20000        7.9202269E-05
   16.25000        7.8147263E-05
   16.30000        7.7076860E-05
   16.35000        7.5992786E-05
   16.40000        7.4896525E-05
   16.45000        7.3789270E-05
   16.50000        7.2672046E-05
   16.55000        7.1545895E-05
   16.60000        7.0411996E-05
   16.65000        6.9271780E-05
   16.70000        6.8126901E-05
   16.75000        6.6979163E-05
   16.80000        6.5830318E-05
   16.85000        6.4681924E-05
   16.90000        6.3535263E-05
   16.95000        6.2391344E-05
   17.00000        6.1251041E-05
   17.05000        6.0115231E-05
   17.10000        5.8984944E-05
   17.15000        5.7861420E-05
   17.20000        5.6746048E-05
   17.25000        5.5640248E-05
   17.30000        5.4545293E-05
   17.35000        5.3462158E-05
   17.40000        5.2391519E-05
   17.45000        5.1333798E-05
   17.50000        5.0289356E-05
   17.55000        4.9258666E-05
   17.60000        4.8242433E-05
   17.65000        4.7241643E-05
   17.70000        4.6257443E-05
   17.75000        4.5290930E-05
   17.80000        4.4342989E-05
   17.85000        4.3414111E-05
   17.90000        4.2504413E-05
   17.95000        4.1613763E-05
   18.00000        4.0741979E-05
   18.05000        3.9889066E-05
   18.10000        3.9055354E-05
   18.15000        3.8241498E-05
   18.20000        3.7448317E-05
   18.25000        3.6676582E-05
   18.30000        3.5926754E-05
   18.35000        3.5198853E-05
   18.40000        3.4492467E-05
   18.45000        3.3806908E-05
   18.50000        3.3141470E-05
   18.55000        3.2495693E-05
   18.60000        3.1869524E-05
   18.65000        3.1263306E-05
   18.70000        3.0677606E-05
   18.75000        3.0112980E-05
   18.80000        2.9569694E-05
   18.85000        2.9047571E-05
   18.90000        2.8545997E-05
   18.95000        2.8064094E-05
   19.00000        2.7600954E-05
   19.05000        2.7155909E-05
   19.10000        2.6728676E-05
   19.15000        2.6319341E-05
   19.20000        2.5928193E-05
   19.25000        2.5555477E-05
   19.30000        2.5201150E-05
   19.35000        2.4864761E-05
   19.40000        2.4545483E-05
   19.45000        2.4242285E-05
   19.50000        2.3954193E-05
   19.55000        2.3680523E-05
   19.60000        2.3420989E-05
   19.65000        2.3175666E-05
   19.70000        2.2944801E-05
   19.75000        2.2728573E-05
   19.80000        2.2526869E-05
   19.85000        2.2339198E-05
   19.90000        2.2164742E-05
   19.95000        2.2002550E-05
   20.00000        2.1851773E-05
   20.05000        2.1711840E-05
   20.10000        2.1582542E-05
   20.15000        2.1463933E-05
   20.20000        2.1356132E-05
   20.25000        2.1259097E-05
   20.30000        2.1172460E-05
   20.35000        2.1095513E-05
   20.40000        2.1027325E-05
   20.45000        2.0966982E-05
   20.50000        2.0913825E-05
   20.55000        2.0867616E-05
   20.60000        2.0828520E-05
   20.65000        2.0796957E-05
   20.70000        2.0773321E-05
   20.75000        2.0757727E-05
   20.80000        2.0749832E-05
   20.85000        2.0748845E-05
   20.90000        2.0753701E-05
   20.95000        2.0763362E-05
   21.00000        2.0777083E-05
   21.05000        2.0794605E-05
   21.10000        2.0816149E-05
   21.15000        2.0842248E-05
   21.20000        2.0873453E-05
   21.25000        2.0910044E-05
   21.30000        2.0951857E-05
   21.35000        2.0998268E-05
   21.40000        2.1048367E-05
   21.45000        2.1101241E-05
   21.50000        2.1156247E-05
   21.55000        2.1213196E-05
   21.60000        2.1272341E-05
   21.65000        2.1334225E-05
   21.70000        2.1399399E-05
   21.75000        2.1468162E-05
   21.80000        2.1540391E-05
   21.85000        2.1615551E-05
   21.90000        2.1692860E-05
   21.95000        2.1771559E-05
   22.00000        2.1851163E-05
   22.05000        2.1931619E-05
   22.10000        2.2013290E-05
   22.15000        2.2096780E-05
   22.20000        2.2182663E-05
   22.25000        2.2271241E-05
   22.30000        2.2362387E-05
   22.35000        2.2455566E-05
   22.40000        2.2550017E-05
   22.45000        2.2645014E-05
   22.50000        2.2740127E-05
   22.55000        2.2835369E-05
   22.60000        2.2931190E-05
   22.65000        2.3028291E-05
   22.70000        2.3127370E-05
   22.75000        2.3228833E-05
   22.80000        2.3332661E-05
   22.85000        2.3438382E-05
   22.90000        2.3545246E-05
   22.95000        2.3652485E-05
   23.00000        2.3759581E-05
   23.05000        2.3866462E-05
   23.10000        2.3973509E-05
   23.15000        2.4081435E-05
   23.20000        2.4191026E-05
   23.25000        2.4302872E-05
   23.30000        2.4417164E-05
   23.35000        2.4533641E-05
   23.40000        2.4651681E-05
   23.45000        2.4770530E-05
   23.50000        2.4889563E-05
   23.55000        2.5008490E-05
   23.60000        2.5127450E-05
   23.65000        2.5246942E-05
   23.70000        2.5367624E-05
   23.75000        2.5490081E-05
   23.80000        2.5614607E-05
   23.85000        2.5741101E-05
   23.90000        2.5869127E-05
   23.95000        2.5998072E-05
   24.00000        2.6127387E-05
   24.05000        2.6256801E-05
   24.10000        2.6386428E-05
   24.15000        2.6516735E-05
   24.20000        2.6648366E-05
   24.25000        2.6781909E-05
   24.30000        2.6917658E-05
   24.35000        2.7055486E-05
   24.40000        2.7194854E-05
   24.45000        2.7334976E-05
   24.50000        2.7475080E-05
   24.55000        2.7614675E-05
   24.60000        2.7753713E-05
   24.65000        2.7892620E-05
   24.70000        2.8032135E-05
   24.75000        2.8173052E-05
   24.80000        2.8315928E-05
   24.85000        2.8460872E-05
   24.90000        2.8607486E-05
   24.95000        2.8754985E-05
   25.00000        2.8902470E-05
   25.05000        2.9049219E-05
   25.10000        2.9194953E-05
   25.15000        2.9339899E-05
   25.20000        2.9484709E-05
   25.25000        2.9630181E-05
   25.30000        2.9776949E-05
   25.35000        2.9925219E-05
   25.40000        3.0074647E-05
   25.45000        3.0224441E-05
   25.50000        3.0373612E-05
   25.55000        3.0521325E-05
   25.60000        3.0667179E-05
   25.65000        3.0811352E-05
   25.70000        3.0954536E-05
   25.75000        3.1097654E-05
   25.80000        3.1241521E-05
   25.85000        3.1386531E-05
   25.90000        3.1532509E-05
   25.95000        3.1678734E-05
   26.00000        3.1824227E-05
   26.05000        3.1968091E-05
   26.10000        3.2109805E-05
   26.15000        3.2249402E-05
   26.20000        3.2387419E-05
   26.25000        3.2524633E-05
   26.30000        3.2661737E-05
   26.35000        3.2799042E-05
   26.40000        3.2936343E-05
   26.45000        3.3072996E-05
   26.50000        3.3208176E-05
   26.55000        3.3341235E-05
   26.60000        3.3471973E-05
   26.65000        3.3600747E-05
   26.70000        3.3728342E-05
   26.75000        3.3855678E-05
   26.80000        3.3983411E-05
   26.85000        3.4111665E-05
   26.90000        3.4239940E-05
   26.95000        3.4367244E-05
   27.00000        3.4492477E-05
   27.05000        3.4614823E-05
   27.10000        3.4734068E-05
   27.15000        3.4850695E-05
   27.20000        3.4965713E-05
   27.25000        3.5080284E-05
   27.30000        3.5195299E-05
   27.35000        3.5311037E-05
   27.40000        3.5427085E-05
   27.45000        3.5542515E-05
   27.50000        3.5656260E-05
   27.55000        3.5767545E-05
   27.60000        3.5876215E-05
   27.65000        3.5982801E-05
   27.70000        3.6088320E-05
   27.75000        3.6193866E-05
   27.80000        3.6300175E-05
   27.85000        3.6407317E-05
   27.90000        3.6514633E-05
   27.95000        3.6621001E-05
   28.00000        3.6725214E-05
   28.05000        3.6826499E-05
   28.10000        3.6924779E-05
   28.15000        3.7020753E-05
   28.20000        3.7115627E-05
   28.25000        3.7210666E-05
   28.30000        3.7306749E-05
   28.35000        3.7404010E-05
   28.40000        3.7501817E-05
   28.45000        3.7599024E-05
   28.50000        3.7694368E-05
   28.55000        3.7786958E-05
   28.60000        3.7876573E-05
   28.65000        3.7963688E-05
   28.70000        3.8049267E-05
   28.75000        3.8134338E-05
   28.80000        3.8219561E-05
   28.85000        3.8304977E-05
   28.90000        3.8389961E-05
   28.95000        3.8473485E-05
   29.00000        3.8554484E-05
   29.05000        3.8632268E-05
   29.10000        3.8706745E-05
   29.15000        3.8778402E-05
   29.20000        3.8848073E-05
   29.25000        3.8916543E-05
   29.30000        3.8984199E-05
   29.35000        3.9050836E-05
   29.40000        3.9115697E-05
   29.45000        3.9177721E-05
   29.50000        3.9235911E-05
   29.55000        3.9289676E-05
   29.60000        3.9338960E-05
   29.65000        3.9384224E-05
   29.70000        3.9426137E-05
   29.75000        3.9465278E-05
   29.80000        3.9501807E-05
   29.85000        3.9535342E-05
   29.90000        3.9565042E-05
   29.95000        3.9589850E-05
   30.00000        3.9608825E-05
   30.05000        3.9621402E-05
   30.10000        3.9627488E-05
   30.15000        3.9627386E-05
   30.20000        3.9621576E-05
   30.25000        3.9610404E-05
   30.30000        3.9593895E-05
   30.35000        3.9571674E-05
   30.40000        3.9543036E-05
   30.45000        3.9507169E-05
   30.50000        3.9463375E-05
   30.55000        3.9411218E-05
   30.60000        3.9350558E-05
   30.65000        3.9281444E-05
   30.70000        3.9203922E-05
   30.75000        3.9117898E-05
   30.80000        3.9023013E-05
   30.85000        3.8918675E-05
   30.90000        3.8804210E-05
   30.95000        3.8678994E-05
   31.00000        3.8542610E-05
   31.05000        3.8394883E-05
   31.10000        3.8235819E-05
   31.15000        3.8065471E-05
   31.20000        3.7883783E-05
   31.25000        3.7690501E-05
   31.30000        3.7485181E-05
   31.35000        3.7267244E-05
   31.40000        3.7036152E-05
   31.45000        3.6791480E-05
   31.50000        3.6532998E-05
   31.55000        3.6260590E-05
   31.60000        3.5974179E-05
   31.65000        3.5673580E-05
   31.70000        3.5358447E-05
   31.75000        3.5028301E-05
   31.80000        3.4682605E-05
   31.85000        3.4320950E-05
   31.90000        3.3943135E-05
   31.95000        3.3549204E-05
   32.00000        3.3139382E-05
   32.05000        3.2713899E-05
   32.10000        3.2272816E-05
   32.15000        3.1815915E-05
   32.20000        3.1342690E-05
   32.25000        3.0852494E-05
   32.30000        3.0344736E-05
   32.35000        2.9819097E-05
   32.40000        2.9275659E-05
   32.45000        2.8714869E-05
   32.50000        2.8137378E-05
   32.55000        2.7543787E-05
   32.60000        2.6934422E-05
   32.65000        2.6309202E-05
   32.70000        2.5667703E-05
   32.75000        2.5009331E-05
   32.80000        2.4333616E-05
   32.85000        2.3640443E-05
   32.90000        2.2930186E-05
   32.95000        2.2203629E-05
   33.00000        2.1461774E-05
   33.05000        2.0705529E-05
   33.10000        1.9935478E-05
   33.15000        1.9151777E-05
   33.20000        1.8354220E-05
   33.25000        1.7542478E-05
   33.30000        1.6716387E-05
   33.35000        1.5876185E-05
   33.40000        1.5022592E-05
   33.45000        1.4156723E-05
   33.50000        1.3279839E-05
   33.55000        1.2393073E-05
   33.60000        1.1497211E-05
   33.65000        1.0592632E-05
   33.70000        9.6794201E-06
   33.75000        8.7576036E-06
   33.80000        7.8274252E-06
   33.85000        6.8895247E-06
   33.90000        5.9449649E-06
   33.95000        4.9951004E-06
   34.00000        4.0413315E-06
   34.05000        3.0848582E-06
   34.10000        2.1265278E-06
   34.15000        1.1668408E-06
   34.20000        2.0610536E-07
   34.25000       -7.5532341E-07
   34.30000       -1.7168214E-06
   34.35000       -2.6773848E-06
   34.40000       -3.6356728E-06
   34.45000       -4.5901866E-06
   34.50000       -5.5395076E-06
   34.55000       -6.4824935E-06
   34.60000       -7.4183531E-06
   34.65000       -8.3465729E-06
   34.70000       -9.2667224E-06
   34.75000       -1.0178234E-05
   34.80000       -1.1080238E-05
   34.85000       -1.1971540E-05
   34.90000       -1.2850733E-05
   34.95000       -1.3716411E-05
   35.00000       -1.4567382E-05
   35.05000       -1.5402795E-05
   35.10000       -1.6222124E-05
   35.15000       -1.7025010E-05
   35.20000       -1.7811035E-05
   35.25000       -1.8579527E-05
   35.30000       -1.9329464E-05
   35.35000       -2.0059544E-05
   35.40000       -2.0768388E-05