  -7.500000        1.0000000E-24
  -7.493500        1.0000000E-24
  -7.487000        1.0000000E-24
  -7.480500        1.0000000E-24
  -7.474000        1.0000000E-24
  -7.467500        1.0000000E-24
  -7.461000        1.0000000E-24
  -7.454500        1.0000000E-24
  -7.448000        1.0000000E-24
  -7.441500        1.0000000E-24
  -7.435000        1.0000000E-24
  -7.428500        1.0000000E-24
  -7.422000        1.0000000E-24
  -7.415500        1.0000000E-24
  -7.409000        1.0000000E-24
  -7.402500        1.0000000E-24
  -7.396000        1.0000000E-24
  -7.389500        1.0000000E-24
  -7.383000        1.0000000E-24
  -7.376500        1.0000000E-24
  -7.370000        1.0000000E-24
  -7.363500        1.0000000E-24
  -7.357000        1.0000000E-24
  -7.350500        1.0000000E-24
  -7.344000        1.0000000E-24
  -7.337500        1.0000000E-24
  -7.331000        1.0000000E-24
  -7.324500        1.0000000E-24
  -7.318000        1.0000000E-24
  -7.311500        1.0000000E-24
  -7.305000        1.0000000E-24
  -7.298500        1.0000000E-24
  -7.292000        1.0000000E-24
  -7.285500        1.0000000E-24
  -7.279000        1.0000000E-24
  -7.272500        1.0000000E-24
  -7.266000        1.0000000E-24
  -7.259500        1.0000000E-24
  -7.253000        1.0000000E-24
  -7.246500        1.0000000E-24
  -7.240000        1.0000000E-24
  -7.233500        1.0000000E-24
  -7.227000        1.0000000E-24
  -7.220500        1.0000000E-24
  -7.214000        1.0000000E-24
  -7.207500        1.0000000E-24
  -7.201000        1.0000000E-24
  -7.194500        1.0000000E-24
  -7.188000        1.0000000E-24
  -7.181500        1.0000000E-24
  -7.175000        1.0000000E-24
  -7.168500        1.0000000E-24
  -7.162000        1.0000000E-24
  -7.155500        1.0000000E-24
  -7.149000        1.0000000E-24
  -7.142500        1.0000000E-24
  -7.136000        1.0000000E-24
  -7.129500        1.0000000E-24
  -7.123000        1.0000000E-24
  -7.116500        1.0000000E-24
  -7.110000        1.0000000E-24
  -7.103500        1.0000000E-24
  -7.097000        1.0000000E-24
  -7.090500        1.0000000E-24
  -7.084000        1.0000000E-24
  -7.077500        1.0000000E-24
  -7.071000        1.0000000E-24
  -7.064500        1.0000000E-24
  -7.058000        1.0000000E-24
  -7.051500        1.0000000E-24
  -7.045000        1.0000000E-24
  -7.038500        1.0000000E-24
  -7.032000        1.0000000E-24
  -7.025500        1.0000000E-24
  -7.019000        1.0000000E-24
  -7.012500        1.0000000E-24
  -7.006000        1.0000000E-24
  -6.999500        1.0000000E-24
  -6.993000        1.0000000E-24
  -6.986500        1.0000000E-24
  -6.980000        1.0000000E-24
  -6.973500        1.0000000E-24
  -6.967000        1.0000000E-24
  -6.960500        1.0000000E-24
  -6.954000        1.0000000E-24
  -6.947500        1.0000000E-24
  -6.941000        1.0000000E-24
  -6.934500        1.0000000E-24
  -6.928000        1.0000000E-24
  -6.921500        1.0000000E-24
  -6.915000        1.0000000E-24
  -6.908500        1.0000000E-24
  -6.902000        1.0000000E-24
  -6.895500        1.0000000E-24
  -6.889000        1.0000000E-24
  -6.882500        1.0000000E-24
  -6.876000        1.0000000E-24
  -6.869500        1.0000000E-24
  -6.863000        1.0000000E-24
  -6.856500        1.0000000E-24
  -6.850000        1.0000000E-24
  -6.843500        1.0000000E-24
  -6.837000        1.0000000E-24
  -6.830500        1.0000000E-24
  -6.824000        1.0000000E-24
  -6.817500        1.0000000E-24
  -6.811000        1.0000000E-24
  -6.804500        1.0000000E-24
  -6.798000        1.0000000E-24
  -6.791500        1.0000000E-24
  -6.785000        1.0000000E-24
  -6.778500        1.0000000E-24
  -6.772000        1.0000000E-24
  -6.765500        1.0000000E-24
  -6.759000        1.0000000E-24
  -6.752500        1.0000000E-24
  -6.746000        1.0000000E-24
  -6.739500        1.0000000E-24
  -6.733000        1.0000000E-24
  -6.726500        1.0000000E-24
  -6.720000        1.0000000E-24
  -6.713500        1.0000000E-24
  -6.707000        1.0000000E-24
  -6.700500        1.0000000E-24
  -6.694000        1.0000000E-24
  -6.687500        1.0000000E-24
  -6.681000        1.0000000E-24
  -6.674500        1.0000000E-24
  -6.668000        1.0000000E-24
  -6.661500        1.0000000E-24
  -6.655000        1.0000000E-24
  -6.648500        1.0000000E-24
  -6.642000        1.0000000E-24
  -6.635500        1.0000000E-24
  -6.629000        1.0000000E-24
  -6.622500        1.0000000E-24
  -6.616000        1.0000000E-24
  -6.609500        1.0000000E-24
  -6.603000        1.0000000E-24
  -6.596500        1.0000000E-24
  -6.590000        1.0000000E-24
  -6.583500        1.0000000E-24
  -6.577000        1.0000000E-24
  -6.570500        1.0000000E-24
  -6.564000        1.0000000E-24
  -6.557500        1.0000000E-24
  -6.551000        1.0000000E-24
  -6.544500        1.0000000E-24
  -6.538000        1.0000000E-24
  -6.531500        1.0000000E-24
  -6.525000        1.0000000E-24
  -6.518500        1.0000000E-24
  -6.512000        1.0000000E-24
  -6.505500        1.0000000E-24
  -6.499000        1.0000000E-24
  -6.492500        1.0000000E-24
  -6.486000        1.0000000E-24
  -6.479500        1.0000000E-24
  -6.473000        1.0000000E-24
  -6.466500        1.0000000E-24
  -6.460000        1.0000000E-24
  -6.453500        1.0000000E-24
  -6.447000        1.0000000E-24
  -6.440500        1.0000000E-24
  -6.434000        1.0000000E-24
  -6.427500        1.0000000E-24
  -6.421000        1.0000000E-24
  -6.414500        1.0000000E-24
  -6.408000        1.0000000E-24
  -6.401500        1.0000000E-24
  -6.395000        1.0000000E-24
  -6.388500        1.0000000E-24
  -6.382000        1.0000000E-24
  -6.375500        1.0000000E-24
  -6.369000        1.0000000E-24
  -6.362500        1.0000000E-24
  -6.356000        1.0000000E-24
  -6.349500        1.0000000E-24
  -6.343000        1.0000000E-24
  -6.336500        1.0000000E-24
  -6.330000        1.0000000E-24
  -6.323500        1.0000000E-24
  -6.317000        1.0000000E-24
  -6.310500        1.0000000E-24
  -6.304000        1.0000000E-24
  -6.297500        1.0000000E-24
  -6.291000        1.0000000E-24
  -6.284500        1.0000000E-24
  -6.278000        1.0000000E-24
  -6.271500        1.0000000E-24
  -6.265000        1.0000000E-24
  -6.258500        1.0000000E-24
  -6.252000        1.0000000E-24
  -6.245500        1.0000000E-24
  -6.239000        1.0000000E-24
  -6.232500        1.0000000E-24
  -6.226000        1.0000000E-24
  -6.219500        1.0000000E-24
  -6.213000        1.0000000E-24
  -6.206500        1.0000000E-24
  -6.200000        1.0000000E-24
  -6.193500        1.0000000E-24
  -6.187000        1.0000000E-24
  -6.180500        1.0000000E-24
  -6.174000        1.0000000E-24
  -6.167500        1.0000000E-24
  -6.161000        1.0000000E-24
  -6.154500        1.0000000E-24
  -6.148000        1.0000000E-24
  -6.141500        1.0000000E-24
  -6.135000        1.0000000E-24
  -6.128500        1.0000000E-24
  -6.122000        1.0000000E-24
  -6.115500        1.0000000E-24
  -6.109000        1.0000000E-24
  -6.102500        1.0000000E-24
  -6.096000        1.0000000E-24
  -6.089500        1.0000000E-24
  -6.083000        1.0000000E-24
  -6.076500        1.0000000E-24
  -6.070000        1.0000000E-24
  -6.063500        1.0000000E-24
  -6.057000        1.0000000E-24
  -6.050500        1.0000000E-24
  -6.044000        1.0000000E-24
  -6.037500        1.0000000E-24
  -6.031000        1.0000000E-24
  -6.024500        1.0000000E-24
  -6.018000        1.0000000E-24
  -6.011500        1.0000000E-24
  -6.005000        1.0000000E-24
  -5.998500        1.0000000E-24
  -5.992000        1.0000000E-24
  -5.985500        1.0000000E-24
  -5.979000        1.0000000E-24
  -5.972500        1.0000000E-24
  -5.966000        1.0000000E-24
  -5.959500        1.0000000E-24
  -5.953000        1.0000000E-24
  -5.946500        1.0000000E-24
  -5.940000        1.0000000E-24
  -5.933500        1.0000000E-24
  -5.927000        1.0000000E-24
  -5.920500        1.0000000E-24
  -5.914000        1.0000000E-24
  -5.907500        1.0000000E-24
  -5.901000        1.0000000E-24
  -5.894500        1.0000000E-24
  -5.888000        1.0000000E-24
  -5.881500        1.0000000E-24
  -5.875000        1.0000000E-24
  -5.868500        1.0000000E-24
  -5.862000        1.0000000E-24
  -5.855500        1.0000000E-24
  -5.849000        1.0000000E-24
  -5.842500        1.0000000E-24
  -5.836000        1.0000000E-24
  -5.829500        1.0000000E-24
  -5.823000        1.0000000E-24
  -5.816500        1.0000000E-24
  -5.810000        1.0000000E-24
  -5.803500        1.0000000E-24
  -5.797000        1.0000000E-24
  -5.790500        1.0000000E-24
  -5.784000        1.0000000E-24
  -5.777500        1.0000000E-24
  -5.771000        1.0000000E-24
  -5.764500        1.0000000E-24
  -5.758000        1.0000000E-24
  -5.751500        1.0000000E-24
  -5.745000        1.0000000E-24
  -5.738500        1.0000000E-24
  -5.732000        1.0000000E-24
  -5.725500        1.0000000E-24
  -5.719000        1.0000000E-24
  -5.712500        1.0000000E-24
  -5.706000        1.0000001E-24
  -5.699500        1.0000002E-24
  -5.693000        1.0000002E-24
  -5.686500        1.0000002E-24
  -5.680000        1.0000002E-24
  -5.673500        1.0000002E-24
  -5.667000        1.0000002E-24
  -5.660500        1.0000002E-24
  -5.654000        1.0000002E-24
  -5.647500        1.0000002E-24
  -5.641000        1.0000002E-24
  -5.634500        1.0000002E-24
  -5.628000        1.0000002E-24
  -5.621500        1.0000002E-24
  -5.615000        1.0000002E-24
  -5.608500        1.0000002E-24
  -5.602000        1.0000002E-24
  -5.595500        1.0000002E-24
  -5.589000        1.0000002E-24
  -5.582500        1.0000002E-24
  -5.576000        1.0000002E-24
  -5.569500        1.0000002E-24
  -5.563000        1.0000002E-24
  -5.556500        1.0000002E-24
  -5.550000        1.0000002E-24
  -5.543500        1.0000002E-24
  -5.537000        1.0000002E-24
  -5.530500        1.0000002E-24
  -5.524000        1.0000002E-24
  -5.517500        1.0000002E-24
  -5.511000        1.0000002E-24
  -5.504500        1.0000002E-24
  -5.498000        1.0000002E-24
  -5.491500        1.0000002E-24
  -5.485000        1.0000002E-24
  -5.478500        1.0000002E-24
  -5.472000        1.0000002E-24
  -5.465500        1.0000002E-24
  -5.459000        1.0000002E-24
  -5.452500        1.0000002E-24
  -5.446000        1.0000002E-24
  -5.439500        1.0000002E-24
  -5.433000        1.0000002E-24
  -5.426500        1.0000002E-24
  -5.420000        1.0000002E-24
  -5.413500        1.0000002E-24
  -5.407000        1.0000002E-24
  -5.400500        1.0000002E-24
  -5.394000        1.0000002E-24
  -5.387500        1.0000002E-24
  -5.381000        1.0000002E-24
  -5.374500        1.0000002E-24
  -5.368000        1.0000002E-24
  -5.361500        1.0000002E-24
  -5.355000        1.0000002E-24
  -5.348500        1.0000002E-24
  -5.342000        1.0000002E-24
  -5.335500        1.0000002E-24
  -5.329000        1.0000002E-24
  -5.322500        1.0000002E-24
  -5.316000        1.0000002E-24
  -5.309500        1.0000002E-24
  -5.303000        1.0000002E-24
  -5.296500        1.0000002E-24
  -5.290000        1.0000002E-24
  -5.283500        1.0000002E-24
  -5.277000        1.0000002E-24
  -5.270500        1.0000002E-24
  -5.264000        1.0000002E-24
  -5.257500        1.0000002E-24
  -5.251000        1.0000002E-24
  -5.244500        1.0000002E-24
  -5.238000        1.0000002E-24
  -5.231500        1.0000002E-24
  -5.225000        1.0000002E-24
  -5.218500        1.0000002E-24
  -5.212000        1.0000002E-24
  -5.205500        1.0000002E-24
  -5.199000        1.0000002E-24
  -5.192500        1.0000002E-24
  -5.186000        1.0000002E-24
  -5.179500        1.0000002E-24
  -5.173000        1.0000002E-24
  -5.166500        1.0000002E-24
  -5.160000        1.0000002E-24
  -5.153500        1.0000002E-24
  -5.147000        1.0000002E-24
  -5.140500        1.0000002E-24
  -5.134000        1.0000002E-24
  -5.127500        1.0000002E-24
  -5.121000        1.0000002E-24
  -5.114500        1.0000002E-24
  -5.108000        1.0000002E-24
  -5.101500        1.0000002E-24
  -5.095000        1.0000002E-24
  -5.088500        1.0000002E-24
  -5.082000        1.0000002E-24
  -5.075500        1.0000002E-24
  -5.069000        1.0000002E-24
  -5.062500        1.0000002E-24
  -5.056000        1.0000002E-24
  -5.049500        1.0000002E-24
  -5.043000        1.0000002E-24
  -5.036500        1.0000002E-24
  -5.030000        1.0000002E-24
  -5.023500        1.0000002E-24
  -5.017000        1.0000002E-24
  -5.010500        1.0000002E-24
  -5.004000        1.0000002E-24
  -4.997500        1.0000002E-24
  -4.991000        1.0000002E-24
  -4.984500        1.0000002E-24
  -4.978000        1.0000002E-24
  -4.971500        1.0000002E-24
  -4.965000        1.0000002E-24
  -4.958500        1.0000002E-24
  -4.952000        1.0000002E-24
  -4.945500        1.0000002E-24
  -4.939000        1.0000002E-24
  -4.932500        1.0000002E-24
  -4.926000        1.0000002E-24
  -4.919500        1.0000002E-24
  -4.913000        1.0000002E-24
  -4.906500        1.0000002E-24
  -4.900000        1.0000002E-24
  -4.893500        1.0000002E-24
  -4.887000        1.0000002E-24
  -4.880500        1.0000002E-24
  -4.874000        1.0000002E-24
  -4.867500        1.0000002E-24
  -4.861000        1.0000002E-24
  -4.854500        1.0000002E-24
  -4.848000        1.0000002E-24
  -4.841500        1.0000002E-24
  -4.835000        1.0000002E-24
  -4.828500        1.0000002E-24
  -4.822000        1.0000002E-24
  -4.815500        1.0000002E-24
  -4.809000        1.0000002E-24
  -4.802500        1.0000002E-24
  -4.796000        1.0000002E-24
  -4.789500        1.0000002E-24
  -4.783000        1.0000002E-24
  -4.776500        1.0000002E-24
  -4.770000        1.0000002E-24
  -4.763500        1.0000002E-24
  -4.757000        1.0000002E-24
  -4.750500        1.0000002E-24
  -4.744000        1.0000002E-24
  -4.737500        1.0000002E-24
  -4.731000        1.0000002E-24
  -4.724500        1.0000002E-24
  -4.718000        1.0000002E-24
  -4.711500        1.0000002E-24
  -4.705000        1.0000002E-24
  -4.698500        1.0000002E-24
  -4.692000        1.0000002E-24
  -4.685500        1.0000002E-24
  -4.679000        1.0000002E-24
  -4.672500        1.0000002E-24
  -4.666000        1.0000002E-24
  -4.659500        1.0000002E-24
  -4.653000        1.0000002E-24
  -4.646500        1.0000002E-24
  -4.640000        1.0000002E-24
  -4.633500        1.0000002E-24
  -4.627000        1.0000002E-24
  -4.620500        1.0000002E-24
  -4.614000        1.0000002E-24
  -4.607500        1.0000002E-24
  -4.601000        1.0000002E-24
  -4.594500        1.0000002E-24
  -4.588000        1.0000002E-24
  -4.581500        1.0000002E-24
  -4.575000        1.0000002E-24
  -4.568500        1.0000002E-24
  -4.562000        1.0000002E-24
  -4.555500        1.0000002E-24
  -4.549000        1.0000002E-24
  -4.542500        1.0000002E-24
  -4.536000        1.0000002E-24
  -4.529500        1.0000002E-24
  -4.523000        1.0000002E-24
  -4.516500        1.0000002E-24
  -4.510000        1.0000002E-24
  -4.503500        1.0000002E-24
  -4.497000        1.0000002E-24
  -4.490500        1.0000002E-24
  -4.484000        1.0000002E-24
  -4.477500        1.0000002E-24
  -4.471000        1.0000002E-24
  -4.464500        1.0000002E-24
  -4.458000        1.0000002E-24
  -4.451500        1.0000002E-24
  -4.445000        1.0000002E-24
  -4.438500        1.0000002E-24
  -4.432000        1.0000002E-24
  -4.425500        1.0000002E-24
  -4.419000        1.0000002E-24
  -4.412500        1.0000002E-24
  -4.406000        1.0000002E-24
  -4.399500        1.0000002E-24
  -4.393000        1.0000003E-24
  -4.386500        1.0000004E-24
  -4.380000        1.0000005E-24
  -4.373500        1.0000006E-24
  -4.367000        1.0000007E-24
  -4.360500        1.0000008E-24
  -4.354000        1.0000009E-24
  -4.347500        1.0000010E-24
  -4.341000        1.0000011E-24
  -4.334500        1.0000012E-24
  -4.328000        1.0000013E-24
  -4.321500        1.0000014E-24
  -4.315000        1.0000015E-24
  -4.308500        1.0000016E-24
  -4.302000        1.0000017E-24
  -4.295500        1.0000018E-24
  -4.289000        1.0000019E-24
  -4.282500        1.0000020E-24
  -4.276000        1.0000021E-24
  -4.269500        1.0000022E-24
  -4.263000        1.0000023E-24
  -4.256500        1.0000024E-24
  -4.250000        1.0000024E-24
  -4.243500        1.0000024E-24
  -4.237000        1.0000024E-24
  -4.230500        1.0000024E-24
  -4.224000        1.0000023E-24
  -4.217500        1.0000022E-24
  -4.211000        1.0000021E-24
  -4.204500        1.0000019E-24
  -4.198000        1.0000017E-24
  -4.191500        1.0000014E-24
  -4.185000        1.0000011E-24
  -4.178500        1.0000007E-24
  -4.172000        1.0000003E-24
  -4.165500        9.9999982E-25
  -4.159000        9.9999933E-25
  -4.152500        9.9999874E-25
  -4.146000        9.9999805E-25
  -4.139500        9.9999736E-25
  -4.133000        9.9999657E-25
  -4.126500        9.9999568E-25
  -4.120000        9.9999469E-25
  -4.113500        9.9999371E-25
  -4.107000        9.9999262E-25
  -4.100500        9.9999144E-25
  -4.094000        9.9999026E-25
  -4.087500        9.9998898E-25
  -4.081000        9.9998759E-25
  -4.074500        9.9998621E-25
  -4.068000        9.9998483E-25
  -4.061500        9.9998335E-25
  -4.055000        9.9998188E-25
  -4.048500        9.9998040E-25
  -4.042000        9.9997892E-25
  -4.035500        9.9997744E-25
  -4.029000        9.9997596E-25
  -4.022500        9.9997448E-25
  -4.016000        9.9997310E-25
  -4.009500        9.9997182E-25
  -4.003000        9.9997054E-25
  -3.996500        9.9996945E-25
  -3.990000        9.9996847E-25
  -3.983500        9.9996768E-25
  -3.977000        9.9996708E-25
  -3.970500        9.9996669E-25
  -3.964000        9.9996649E-25
  -3.957500        9.9996659E-25
  -3.951000        9.9996699E-25
  -3.944500        9.9996777E-25
  -3.938000        9.9996896E-25
  -3.931500        9.9997054E-25
  -3.925000        9.9997251E-25
  -3.918500        9.9997497E-25
  -3.912000        9.9997793E-25
  -3.905500        9.9998148E-25
  -3.899000        9.9998562E-25
  -3.892500        9.9999036E-25
  -3.886000        9.9999578E-25
  -3.879500        1.0000019E-24
  -3.873000        1.0000087E-24
  -3.866500        1.0000162E-24
  -3.860000        1.0000245E-24
  -3.853500        1.0000335E-24
  -3.847000        1.0000434E-24
  -3.840500        1.0000541E-24
  -3.834000        1.0000655E-24
  -3.827500        1.0000777E-24
  -3.821000        1.0000907E-24
  -3.814500        1.0001044E-24
  -3.808000        1.0001189E-24
  -3.801500        1.0001341E-24
  -3.795000        1.0001500E-24
  -3.788500        1.0001665E-24
  -3.782000        1.0001834E-24
  -3.775500        1.0002009E-24
  -3.769000        1.0002187E-24
  -3.762500        1.0002368E-24
  -3.756000        1.0002550E-24
  -3.749500        1.0002733E-24
  -3.743000        1.0002914E-24
  -3.736500        1.0003093E-24
  -3.730000        1.0003267E-24
  -3.723500        1.0003435E-24
  -3.717000        1.0003594E-24
  -3.710500        1.0003743E-24
  -3.704000        1.0003879E-24
  -3.697500        1.0004001E-24
  -3.691000        1.0004104E-24
  -3.684500        1.0004187E-24
  -3.678000        1.0004246E-24
  -3.671500        1.0004280E-24
  -3.665000        1.0004284E-24
  -3.658500        1.0004255E-24
  -3.652000        1.0004191E-24
  -3.645500        1.0004087E-24
  -3.639000        1.0003942E-24
  -3.632500        1.0003750E-24
  -3.626000        1.0003510E-24
  -3.619500        1.0003217E-24
  -3.613000        1.0002869E-24
  -3.606500        1.0002461E-24
  -3.600000        1.0001993E-24
  -3.593500        1.0001460E-24
  -3.587000        1.0000859E-24
  -3.580500        1.0000190E-24
  -3.574000        9.9994480E-25
  -3.567500        9.9986335E-25
  -3.561000        9.9977441E-25
  -3.554500        9.9967787E-25
  -3.548000        9.9957374E-25
  -3.541500        9.9946202E-25
  -3.535000        9.9934280E-25
  -3.528500        9.9921619E-25
  -3.522000        9.9908238E-25
  -3.515500        9.9894166E-25
  -3.509000        9.9879444E-25
  -3.502500        9.9864111E-25
  -3.496000        9.9848225E-25
  -3.489500        9.9831846E-25
  -3.483000        9.9815044E-25
  -3.476500        9.9797906E-25
  -3.470000        9.9780521E-25
  -3.463500        9.9762999E-25
  -3.457000        9.9745456E-25
  -3.450500        9.9728022E-25
  -3.444000        9.9710835E-25
  -3.437500        9.9694042E-25
  -3.431000        9.9677802E-25
  -3.424500        9.9662300E-25
  -3.418000        9.9647716E-25
  -3.411500        9.9634247E-25
  -3.405000        9.9622098E-25
  -3.398500        9.9611498E-25
  -3.392000        9.9602663E-25
  -3.385500        9.9595829E-25
  -3.379000        9.9591244E-25
  -3.372500        9.9589153E-25
  -3.366000        9.9589814E-25
  -3.359500        9.9593482E-25
  -3.353000        9.9600424E-25
  -3.346500        9.9610896E-25
  -3.340000        9.9625165E-25
  -3.333500        9.9643486E-25
  -3.327000        9.9666107E-25
  -3.320500        9.9693273E-25
  -3.314000        9.9725222E-25
  -3.307500        9.9762160E-25
  -3.301000        9.9804305E-25
  -3.294500        9.9851834E-25
  -3.288000        9.9904915E-25
  -3.281500        9.9963685E-25
  -3.275000        1.0002825E-24
  -3.268500        1.0009870E-24
  -3.262000        1.0017506E-24
  -3.255500        1.0025734E-24
  -3.249000        1.0034550E-24
  -3.242500        1.0043947E-24
  -3.236000        1.0053910E-24
  -3.229500        1.0064421E-24
  -3.223000        1.0075455E-24
  -3.216500        1.0086983E-24
  -3.210000        1.0098968E-24
  -3.203500        1.0111367E-24
  -3.197000        1.0124130E-24
  -3.190500        1.0137203E-24
  -3.184000        1.0150519E-24
  -3.177500        1.0164008E-24
  -3.171000        1.0177592E-24
  -3.164500        1.0191183E-24
  -3.158000        1.0204688E-24
  -3.151500        1.0218006E-24
  -3.145000        1.0231027E-24
  -3.138500        1.0243635E-24
  -3.132000        1.0255706E-24
  -3.125500        1.0267110E-24
  -3.119000        1.0277710E-24
  -3.112500        1.0287362E-24
  -3.106000        1.0295916E-24
  -3.099500        1.0303219E-24
  -3.093000        1.0309112E-24
  -3.086500        1.0313433E-24
  -3.080000        1.0316017E-24
  -3.073500        1.0316696E-24
  -3.067000        1.0315303E-24
  -3.060500        1.0311669E-24
  -3.054000        1.0305630E-24
  -3.047500        1.0297019E-24
  -3.041000        1.0285680E-24
  -3.034500        1.0271458E-24
  -3.028000        1.0254206E-24
  -3.021500        1.0233785E-24
  -3.015000        1.0210069E-24
  -3.008500        1.0182943E-24
  -3.002000        1.0152305E-24
  -2.995500        1.0118069E-24
  -2.989000        1.0080169E-24
  -2.982500        1.0038556E-24
  -2.976000        9.9932032E-25
  -2.969500        9.9441084E-25
  -2.963000        9.8912942E-25
  -2.956500        9.8348098E-25
  -2.950000        9.7747341E-25
  -2.943500        9.7111765E-25
  -2.937000        9.6442801E-25
  -2.930500        9.5742214E-25
  -2.924000        9.5012123E-25
  -2.917500        9.4255024E-25
  -2.911000        9.3473785E-25
  -2.904500        9.2671671E-25
  -2.898000        9.1852341E-25
  -2.891500        9.1019866E-25
  -2.885000        9.0178713E-25
  -2.878500        8.9333774E-25
  -2.872000        8.8490334E-25
  -2.865500        8.7654082E-25
  -2.859000        8.6831103E-25
  -2.852500        8.6027855E-25
  -2.846000        8.5251173E-25
  -2.839500        8.4508213E-25
  -2.833000        8.3806472E-25
  -2.826500        8.3153729E-25
  -2.820000        8.2558031E-25
  -2.813500        8.2027650E-25
  -2.807000        8.1571043E-25
  -2.800500        8.1196802E-25
  -2.794000        8.0913616E-25
  -2.787500        8.0730211E-25
  -2.781000        8.0655294E-25
  -2.774500        8.0697488E-25
  -2.768000        8.0865278E-25
  -2.761500        8.1166929E-25
  -2.755000        8.1610417E-25
  -2.748500        8.2203349E-25
  -2.742000        8.2952895E-25
  -2.735500        8.3865696E-25
  -2.729000        8.4947786E-25
  -2.722500        8.6204501E-25
  -2.716000        8.7640386E-25
  -2.709500        8.9259128E-25
  -2.703000        9.1063460E-25
  -2.696500        9.3055048E-25
  -2.690000        9.5234444E-25
  -2.683500        9.7600987E-25
  -2.677000        1.0015271E-24
  -2.670500        1.0288626E-24
  -2.664000        1.0579685E-24
  -2.657500        1.0887817E-24
  -2.651000        1.1212234E-24
  -2.644500        1.1551983E-24
  -2.638000        1.1905944E-24
  -2.631500        1.2272824E-24
  -2.625000        1.2651154E-24
  -2.618500        1.3039289E-24
  -2.612000        1.3435408E-24
  -2.605500        1.3837509E-24
  -2.599000        1.4243417E-24
  -2.592500        1.4650785E-24
  -2.586000        1.5057098E-24
  -2.579500        1.5459678E-24
  -2.573000        1.5855697E-24
  -2.566500        1.6242180E-24
  -2.560000        1.6616020E-24
  -2.553500        1.6973993E-24
  -2.547000        1.7312765E-24
  -2.540500        1.7628917E-24
  -2.534000        1.7918960E-24
  -2.527500        1.8179349E-24
  -2.521000        1.8406515E-24
  -2.514500        1.8596883E-24
  -2.508000        1.8746897E-24
  -2.501500        1.8853044E-24
  -2.495000        1.8911891E-24
  -2.488500        1.8920103E-24
  -2.482000        1.8874479E-24
  -2.475500        1.8771989E-24
  -2.469000        1.8609793E-24
  -2.462500        1.8385285E-24
  -2.456000        1.8096126E-24
  -2.449500        1.7740273E-24
  -2.443000        1.7316014E-24
  -2.436500        1.6822005E-24
  -2.430000        1.6257299E-24
  -2.423500        1.5621383E-24
  -2.417000        1.4914202E-24
  -2.410500        1.4136197E-24
  -2.404000        1.3288327E-24
  -2.397500        1.2372098E-24
  -2.391000        1.1389583E-24
  -2.384500        1.0343445E-24
  -2.378000        9.2369548E-25
  -2.371500        8.0740032E-25
  -2.365000        6.8591111E-25
  -2.358500        5.5974345E-25
  -2.352000        4.2947678E-25
  -2.345500        2.9575376E-25
  -2.339000        1.5927936E-25
  -2.332500        2.0819506E-26
  -2.326000       -1.1880105E-25
  -2.319500       -2.5870136E-25
  -2.313000       -3.9794754E-25
  -2.306500       -5.3555673E-25
  -2.300000       -6.7050169E-25
  -2.293500       -8.0171599E-25
  -2.287000       -9.2809979E-25
  -2.280500       -1.0485267E-24
  -2.274000       -1.1618509E-24
  -2.267500       -1.2669149E-24
  -2.261000       -1.3625580E-24
  -2.254500       -1.4476258E-24
  -2.248000       -1.5209795E-24
  -2.241500       -1.5815063E-24
  -2.235000       -1.6281298E-24
  -2.228500       -1.6598217E-24
  -2.222000       -1.6756131E-24
  -2.215500       -1.6746060E-24
  -2.209000       -1.6559853E-24
  -2.202500       -1.6190319E-24
  -2.196000       -1.5631338E-24
  -2.189500       -1.4877990E-24
  -2.183000       -1.3926670E-24
  -2.176500       -1.2775212E-24
  -2.170000       -1.1422997E-24
  -2.163500       -9.8710658E-25
  -2.157000       -8.1222184E-25
  -2.150500       -6.1811107E-25
  -2.144000       -4.0543380E-25
  -2.137500       -1.7505114E-25
  -2.131000        7.1967953E-26
  -2.124500        3.3434168E-25
  -2.118000        6.1057203E-25
  -2.111500        8.9894270E-25
  -2.105000        1.1975192E-24
  -2.098500        1.5041505E-24
  -2.092000        1.8164729E-24
  -2.085500        2.1319161E-24
  -2.079000        2.4477109E-24
  -2.072500        2.7609006E-24
  -2.066000        3.0683532E-24
  -2.059500        3.3667775E-24
  -2.053000        3.6527407E-24
  -2.046500        3.9226897E-24
  -2.040000        4.1729748E-24
  -2.033500        4.3998749E-24
  -2.027000        4.5996267E-24
  -2.020500        4.7684563E-24
  -2.014000        4.9026135E-24
  -2.007500        4.9984073E-24
  -2.001000        5.0522455E-24
  -1.994500        5.0606748E-24
  -1.988000        5.0204252E-24
  -1.981500        4.9284539E-24
  -1.975000        4.7819920E-24
  -1.968500        4.5785929E-24
  -1.962000        4.3161799E-24
  -1.955500        3.9930968E-24
  -1.949000        3.6081575E-24
  -1.942500        3.1606963E-24
  -1.936000        2.6506162E-24
  -1.929500        2.0784385E-24
  -1.923000        1.4453488E-24
  -1.916500        7.5324275E-25
  -1.910000        4.7684670E-27
  -1.903500       -7.9663409E-25
  -1.897000       -1.6466968E-24
  -1.890500       -2.5402923E-24
  -1.884000       -3.4714057E-24
  -1.877500       -4.4331143E-24
  -1.871000       -5.4175717E-24
  -1.864500       -6.4159986E-24
  -1.858000       -7.4186815E-24
  -1.851500       -8.4149789E-24
  -1.845000       -9.3933360E-24
  -1.838500       -1.0341309E-23
  -1.832000       -1.1245596E-23
  -1.825500       -1.2092084E-23
  -1.819000       -1.2865902E-23
  -1.812500       -1.3551483E-23
  -1.806000       -1.4132643E-23
  -1.799500       -1.4592671E-23
  -1.793000       -1.4914420E-23
  -1.786500       -1.5080431E-23
  -1.780000       -1.5073046E-23
  -1.773500       -1.4874550E-23
  -1.767000       -1.4467316E-23
  -1.760500       -1.3833968E-23
  -1.754000       -1.2957547E-23
  -1.747500       -1.1821696E-23
  -1.741000       -1.0410853E-23
  -1.734500       -8.7104499E-24
  -1.728000       -6.7071258E-24
  -1.721500       -4.3889452E-24
  -1.715000       -1.7456228E-24
  -1.708500        1.2312446E-24
  -1.702000        4.5479425E-24
  -1.695500        8.2084022E-24
  -1.689000        1.2213960E-23
  -1.682500        1.6563121E-23
  -1.676000        2.1251321E-23
  -1.669500        2.6270700E-23
  -1.663000        3.1609871E-23
  -1.656500        3.7253716E-23
  -1.650000        4.3183177E-23
  -1.643500        4.9375063E-23
  -1.637000        5.5801887E-23
  -1.630500        6.2431708E-23
  -1.624000        6.9228010E-23
  -1.617500        7.6149583E-23
  -1.611000        8.3150458E-23
  -1.604500        9.0179852E-23
  -1.598000        9.7182160E-23