 -1.2000000E-06   -1.1809953E-22
 -1.1769999E-06   -1.1809953E-22
 -1.1540000E-06   -2.5828814E-16
 -1.1310000E-06   -1.3543715E-21
 -1.1080000E-06    7.8417559E-16
 -1.0850000E-06   -1.1616510E-21
 -1.0620000E-06   -5.2642870E-16
 -1.0390000E-06   -6.2062162E-16
 -1.0160001E-06   -7.0843611E-18
 -9.9299996E-07    1.2205307E-15
 -9.6999997E-07   -3.2735505E-16
 -9.4699999E-07   -1.0069453E-16
 -9.2400001E-07    3.5326473E-16
 -9.0100002E-07   -4.3719145E-16
 -8.7799998E-07   -9.5982184E-16
 -8.5500000E-07    5.1559377E-16
 -8.3200001E-07    1.0510165E-15
 -8.0900003E-07   -2.8190146E-16
 -7.8599999E-07   -4.8385386E-16
 -7.6300000E-07   -1.6231811E-16
 -7.4000002E-07   -1.1582589E-16
 -7.1699998E-07    2.5331926E-17
 -6.9399999E-07   -9.3302790E-17
 -6.7100001E-07    1.0753479E-15
 -6.4800003E-07    6.4474734E-16
 -6.2499998E-07   -1.5672125E-15
 -6.0200000E-07   -4.3324552E-16
 -5.7900002E-07    4.0027307E-16
 -5.5599997E-07   -1.9886720E-16
 -5.3299999E-07    1.0208976E-15
 -5.1000001E-07    6.4976030E-16
 -4.8700002E-07   -1.2561688E-15
 -4.6400001E-07   -1.1641028E-15
 -4.4100000E-07    9.9972122E-16
 -4.1800001E-07    9.9004091E-16
 -3.9500000E-07    1.8789492E-16
 -3.7199999E-07   -1.1449209E-15
 -3.4900000E-07   -3.6443328E-16
 -3.2599999E-07    2.9833641E-16
 -3.0300001E-07    1.6538412E-16
 -2.7999999E-07    3.1923745E-16
 -2.5700001E-07   -2.0299131E-16
 -2.3400000E-07    2.0368783E-16
 -2.1100000E-07    1.1022840E-15
 -1.8800000E-07   -8.3388774E-16
 -1.6500000E-07   -2.2917616E-15
 -1.4200000E-07    1.0585398E-15
 -1.1900000E-07    2.4459472E-15
 -9.6000001E-08   -1.6201428E-15
 -7.3000002E-08   -2.2731681E-15
 -5.0000001E-08    2.1554231E-15
 -2.7000000E-08    2.0057901E-15
 -3.9999999E-09   -1.4077895E-15
  1.9000000E-08   -1.3325997E-15
  4.2000000E-08   -3.0932865E-16
  6.5000002E-08    1.4842185E-15
  8.8000000E-08    1.5404478E-15
  1.1100000E-07   -8.1340945E-16
  1.3400000E-07   -3.4944196E-15
  1.5700000E-07    5.5523311E-16
  1.8000000E-07    3.5322134E-15
  2.0300000E-07   -1.2628318E-16
  2.2600000E-07   -2.7714374E-15
  2.4900001E-07    5.4014264E-16
  2.7199999E-07    2.1177427E-15
  2.9500001E-07   -1.3880032E-15
  3.1799999E-07   -2.0894314E-15
  3.4100000E-07    1.3486292E-15
  3.6399999E-07    1.7788537E-15
  3.8700000E-07    4.9967066E-16
  4.1000001E-07   -1.3695274E-15
  4.3300000E-07   -1.2992342E-15
  4.5600001E-07   -1.7538688E-16
  4.7899999E-07    1.4744173E-15
  5.0199998E-07    1.2845494E-15
  5.2500002E-07   -1.3743688E-15
  5.4800000E-07   -6.7196299E-16
  5.7099999E-07    1.1149198E-15
  5.9400003E-07   -9.4475175E-16
  6.1700001E-07   -1.4899948E-15
  6.4000000E-07    1.4997528E-15
  6.6299998E-07    2.1142612E-15
  6.8600002E-07   -5.4721060E-16
  7.0900001E-07   -1.1641120E-15
  7.3199999E-07   -1.0819095E-15
  7.5499997E-07   -3.0087783E-16
  7.7800001E-07    1.1865943E-15
  8.0100000E-07    2.5977903E-15
  8.2399998E-07   -1.1517161E-15
  8.4700002E-07   -3.8803613E-15
  8.7000001E-07    8.0783295E-16
  8.9299999E-07    3.0417934E-15
  9.1599998E-07   -1.0987622E-15
  9.3900002E-07   -1.4216276E-15
  9.6199994E-07    2.2728206E-15
  9.8500004E-07    6.3754402E-16
  1.0080000E-06   -2.9503441E-15
  1.0310000E-06   -4.0734021E-16
  1.0540000E-06    2.2646679E-15
  1.0770000E-06   -1.8850416E-16
  1.1000000E-06    3.1133493E-16
  1.1229999E-06    4.4847414E-16
  1.1460000E-06   -2.2417614E-15
  1.1690000E-06   -7.7002712E-16
  1.1920000E-06    3.6171962E-15
  1.2150000E-06    1.3270902E-17
  1.2380000E-06   -3.4289683E-15
  1.2610000E-06    8.8510343E-16
  1.2839999E-06    2.7092726E-15
  1.3070000E-06   -2.5059542E-15
  1.3300000E-06   -2.2392877E-15
  1.3530000E-06    3.3680948E-15
  1.3760000E-06    1.9701925E-15
  1.3990000E-06   -2.5657164E-15
  1.4220000E-06   -1.2073577E-15
  1.4450000E-06    1.5603593E-15
  1.4680001E-06   -2.0921907E-16
  1.4910000E-06   -3.3538984E-16
  1.5140000E-06    5.2212884E-16
  1.5370000E-06   -1.4788796E-16
  1.5600000E-06   -4.6551660E-16
  1.5830000E-06   -5.1973936E-16
  1.6060000E-06    3.6558905E-17
  1.6290001E-06    3.0766103E-16
  1.6520000E-06    1.7284351E-15
  1.6750000E-06    7.2514713E-16
  1.6980000E-06   -1.3286370E-15
  1.7210000E-06   -2.0726799E-15
  1.7440000E-06    1.9393138E-16
  1.7670000E-06    1.2312650E-15
  1.7900001E-06    1.0925397E-15
  1.8130000E-06   -9.2107654E-16
  1.8360000E-06   -1.0012660E-15
  1.8590000E-06   -5.4193390E-16
  1.8820000E-06    2.0058733E-15
  1.9050000E-06    1.8506725E-15
  1.9280001E-06   -2.3507193E-15
  1.9510001E-06   -2.3312680E-15
  1.9740000E-06    2.4902330E-15
  1.9970000E-06    2.3101327E-15
  2.0200000E-06   -2.5890913E-15
  2.0430000E-06   -3.2349851E-15
  2.0660000E-06    2.4258738E-15
  2.0890000E-06    3.8426298E-15
  2.1119999E-06   -1.5437099E-15
  2.1349999E-06   -3.4799927E-15
  2.1579999E-06    5.6348560E-16
  2.1809999E-06    2.9365825E-15
  2.2040001E-06   -7.5770856E-16
  2.2270001E-06   -2.0726860E-15
  2.2500001E-06    5.4562437E-16
  2.2730001E-06    2.2715630E-15
  2.2960000E-06    3.0715532E-16
  2.3190000E-06   -3.7298215E-15
  2.3420000E-06   -2.0283688E-15
  2.3650000E-06    5.4093637E-15
  2.3880000E-06    4.2889018E-15
  2.4110000E-06   -5.7315115E-15
  2.4340000E-06   -5.9477912E-15
  2.4569999E-06    4.1792335E-15
  2.4799999E-06    6.1730067E-15
  2.5029999E-06   -2.2019759E-15
  2.5259999E-06   -4.7415672E-15
  2.5490001E-06    1.1436865E-15
  2.5720001E-06    2.0908002E-15
  2.5950001E-06    1.9677861E-17
  2.6180001E-06   -6.3422598E-16
  2.6410000E-06   -1.5419664E-15
  2.6640000E-06    1.2587417E-15
  2.6870000E-06    3.4359030E-15
  2.7100000E-06   -1.7020517E-15
  2.7330000E-06   -5.5748337E-15
  2.7560000E-06    1.6532036E-15
  2.7789999E-06    6.5975968E-15
  2.8019999E-06   -1.9455068E-15
  2.8249999E-06   -6.0154806E-15
  2.8479999E-06    1.8133351E-15
  2.8710001E-06    4.7313795E-15
  2.8940001E-06   -2.1313803E-15
  2.9170001E-06   -3.1757256E-15
  2.9400001E-06    1.6880591E-15
  2.9630000E-06    3.1239810E-15
  2.9860000E-06   -8.7820290E-17
  3.0090000E-06   -2.1629653E-15
  3.0320000E-06   -2.9501914E-15
  3.0550000E-06    6.7924165E-16
  3.0780000E-06    4.9397255E-15
  3.1009999E-06    7.4661677E-16
  3.1239999E-06   -5.8058954E-15
  3.1469999E-06   -7.4651121E-16
  3.1699999E-06    5.7895668E-15
  3.1930001E-06   -1.2275946E-15
  3.2160001E-06   -4.9864563E-15
  3.2390001E-06    3.5327597E-15
  3.2620001E-06    5.0979063E-15
  3.2850000E-06   -5.2772173E-15
  3.3080000E-06   -5.5805656E-15
  3.3310000E-06    4.3070219E-15
  3.3540000E-06    5.3407846E-15
  3.3770000E-06   -1.6225960E-15
  3.4000000E-06   -4.0456276E-15
  3.4230000E-06   -9.7106049E-18
  3.4459999E-06    2.3233728E-15
  3.4689999E-06    1.0465995E-15
  3.4919999E-06   -2.3347195E-15
  3.5149999E-06   -2.0352518E-15
  3.5380001E-06    3.1029578E-15
  3.5610001E-06    3.1898246E-15
  3.5840001E-06   -4.4200525E-15
  3.6070001E-06   -3.4467170E-15
  3.6300000E-06    6.7730444E-15
  3.6530000E-06    3.0333093E-15
  3.6760000E-06   -7.1868035E-15
  3.6990000E-06   -3.0986134E-15
  3.7220000E-06    7.1773938E-15
  3.7450000E-06    2.5295565E-15
  3.7679999E-06   -7.4070473E-15
  3.7909999E-06   -3.2429391E-15
  3.8139999E-06    6.2351887E-15
  3.8369999E-06    3.5575312E-15
  3.8600001E-06   -3.2771156E-15
  3.8829999E-06   -3.4617906E-15
  3.9060001E-06    1.7546419E-15
  3.9289998E-06    3.6246640E-15
  3.9520000E-06   -6.2041775E-16
  3.9749998E-06   -3.8110808E-15
  3.9980000E-06    9.0406341E-17
  4.0210002E-06    3.4911723E-15
  4.0440000E-06   -1.3487465E-15
  4.0670002E-06   -3.8900064E-15
  4.0899999E-06    2.2736600E-15
  4.1130002E-06    4.6151784E-15
  4.1359999E-06   -2.0993536E-15
  4.1590001E-06   -3.5101693E-15
  4.1819999E-06    2.3812938E-15
  4.2050001E-06    1.6926218E-15
  4.2279999E-06   -2.4496837E-15
  4.2510001E-06   -9.5067717E-16
  4.2739998E-06    9.1018825E-16
  4.2970000E-06    3.7663749E-16
  4.3199998E-06    2.2343959E-16
  4.3430000E-06    1.9227036E-16
  4.3660002E-06   -3.0479642E-16
  4.3890000E-06    5.8732333E-16
  4.4120002E-06   -6.4620736E-16
  4.4349999E-06   -9.4581975E-16
  4.4580001E-06    2.3868095E-15
  4.4809999E-06    1.8571875E-15
  4.5040001E-06   -4.9827607E-15
  4.5269999E-06   -3.8099004E-15
  4.5500001E-06    6.3989845E-15
  4.5729998E-06    5.8057904E-15
  4.5960001E-06   -5.9952772E-15
  4.6189998E-06   -6.0512364E-15
  4.6420000E-06    4.2840750E-15
  4.6649998E-06    4.7555034E-15
  4.6880000E-06   -2.6406443E-15
  4.7110002E-06   -3.0544192E-15
  4.7340000E-06    7.5934323E-16
  4.7570002E-06    2.4225530E-15
  4.7799999E-06   -3.6725959E-16
  4.8030001E-06   -2.6272658E-15
  4.8259999E-06    1.1115667E-15
  4.8490001E-06    4.4894686E-15
  4.8719999E-06   -1.3502254E-15
  4.8950001E-06   -5.6031522E-15
  4.9179998E-06    8.2174250E-16
  4.9410000E-06    6.4624552E-15
  4.9639998E-06   -1.6273345E-15
  4.9870000E-06   -7.3428236E-15
  5.0100002E-06    1.1027790E-15
  5.0330000E-06    6.9671331E-15
  5.0560002E-06    2.9574444E-16
  5.0789999E-06   -4.6025301E-15
  5.1020002E-06   -3.2105945E-16
  5.1249999E-06    2.6814003E-15
  5.1480001E-06    3.0071308E-16
  5.1709999E-06   -2.1164717E-15
  5.1940001E-06   -6.3639957E-16
  5.2169999E-06    1.6674138E-15
  5.2400001E-06    3.8089925E-16
  5.2629998E-06   -2.7503924E-15
  5.2860000E-06   -3.7375101E-16
  5.3089998E-06    5.1237197E-15
  5.3320000E-06    1.6714870E-15
  5.3550002E-06   -6.8920576E-15
  5.3780000E-06   -2.5259465E-15
  5.4010002E-06    7.5917022E-15
  5.4239999E-06    2.9225591E-15
  5.4470001E-06   -7.8769736E-15
  5.4699999E-06   -3.5328120E-15
  5.4930001E-06    6.5359862E-15
  5.5159999E-06    4.6502719E-15
  5.5390001E-06   -4.1474566E-15
  5.5619998E-06   -4.8198119E-15
  5.5850001E-06    1.7993072E-15
  5.6079998E-06    4.1482765E-15
  5.6310000E-06   -5.8146890E-16
  5.6539998E-06   -4.0818450E-15
  5.6770000E-06    1.0153065E-15
  5.7000002E-06    5.4346811E-15
  5.7230000E-06   -1.5255133E-15
  5.7460002E-06   -8.5325144E-15
  5.7689999E-06    1.2493572E-15
  5.7920001E-06    1.0589789E-14
  5.8149999E-06    9.5895914E-16
  5.8380001E-06   -1.0311957E-14
  5.8609999E-06   -4.1493116E-15
  5.8840001E-06    8.1571645E-15
  5.9069998E-06    5.6609211E-15
  5.9300000E-06   -4.9440983E-15
  5.9529998E-06   -5.9177813E-15
  5.9760000E-06    1.7749322E-15
  5.9990002E-06    5.4537313E-15
  6.0220000E-06   -1.1820522E-16
  6.0450002E-06   -4.5106059E-15
  6.0679999E-06    1.4267833E-15
  6.0910002E-06    5.0842200E-15
  6.1139999E-06   -1.5281710E-15
  6.1370001E-06   -6.1807918E-15
  6.1599999E-06   -7.1554236E-16
  6.1830001E-06    2.4814402E-15
  6.2059999E-06   -1.3609092E-15
  6.2290001E-06    7.0031625E-16
  6.2519998E-06    1.0174651E-14
  6.2750000E-06    1.1110106E-14
  6.2979998E-06   -3.3919553E-15
  6.3210000E-06   -2.2998877E-14
  6.3440002E-06   -3.2853450E-14
  6.3670000E-06   -2.1202383E-14
  6.3900002E-06    1.7866025E-14
  6.4129999E-06    7.3256912E-14
  6.4360001E-06    1.1032891E-13
  6.4589999E-06    7.6777485E-14
  6.4820001E-06   -6.1982280E-14
  6.5049999E-06   -2.6528581E-13
  6.5280001E-06   -3.9388081E-13
  6.5509998E-06   -2.6546205E-13
  6.5740001E-06    2.1696394E-13
  6.5969998E-06    9.1857533E-13
  6.6200000E-06    1.3863069E-12
  6.6429998E-06    9.8282482E-13
  6.6660000E-06   -6.7551872E-13
  6.6890002E-06   -3.1439829E-12
  6.7120000E-06   -4.8742295E-12
  6.7350002E-06   -3.6831055E-12
  6.7579999E-06    1.8392367E-12
  6.7810001E-06    1.0421138E-11
  6.8039999E-06    1.6994316E-11
  6.8270001E-06    1.4040399E-11
  6.8499999E-06   -3.8188068E-12
  6.8730001E-06   -3.3353830E-11
  6.8959998E-06   -5.8468563E-11
  6.9190000E-06   -5.3617197E-11
  6.9419998E-06    1.8416885E-12
  6.9650000E-06    1.0188184E-10
  6.9880002E-06    1.9729390E-10
  7.0110000E-06    2.0266908E-10
  7.0340002E-06    3.9661729E-11
  7.0569999E-06   -2.9111577E-10
  7.0800002E-06   -6.4724415E-10
  7.1029999E-06   -7.5026513E-10
  7.1260001E-06   -3.0921063E-10
  7.1489999E-06    7.4797307E-10
  7.1720001E-06    2.0414226E-09
  7.1949999E-06    2.6944762E-09
  7.2180001E-06    1.6595358E-09
  7.2409998E-06   -1.5632189E-09
  7.2640000E-06   -6.0923280E-09
  7.2869998E-06   -9.2988426E-09
  7.3100000E-06   -7.5582314E-09
  7.3330002E-06    1.6256072E-09
  7.3560000E-06    1.6765126E-08
  7.3790002E-06    3.0501653E-08
  7.4019999E-06    3.0897773E-08
  7.4250001E-06    7.2915425E-09
  7.4479999E-06   -4.0420812E-08
  7.4710001E-06   -9.3696443E-08
  7.4939999E-06   -1.1556672E-07
  7.5170001E-06   -6.5156243E-08
  7.5399998E-06    7.4011339E-08
  7.5630001E-06    2.6324690E-07
  7.5859998E-06    3.9688268E-07
  7.6090000E-06    3.3211563E-07
  7.6320002E-06   -3.1501120E-08
  7.6550004E-06   -6.4605041E-07
  7.6779997E-06   -1.2419468E-06
  7.7010000E-06   -1.3647671E-06
  7.7240002E-06   -5.7402661E-07
  7.7470004E-06    1.2253486E-06
  7.7699997E-06    3.4647437E-06
  7.7929999E-06    4.8451839E-06
  7.8160001E-06    3.7470434E-06
  7.8390003E-06   -8.4207215E-07
  7.8619996E-06   -8.1772996E-06
  7.8849998E-06   -1.5040552E-05
  7.9080000E-06   -1.6260085E-05
  7.9310003E-06   -6.9535849E-06
  7.9539996E-06    1.3878996E-05
  7.9769998E-06    3.9968734E-05
  8.0000000E-06    5.7057274E-05
  8.0230002E-06    4.7132518E-05
  8.0460004E-06   -1.9160841E-06
  8.0689997E-06   -8.4102496E-05
  8.0919999E-06   -1.6708109E-04
  8.1150001E-06   -1.9591958E-04
  8.1380003E-06   -1.1433198E-04
  8.1609996E-06    9.9140758E-05
  8.1839999E-06    3.9391223E-04
  8.2070001E-06    6.3259358E-04
  8.2300003E-06    6.2270346E-04
  8.2529996E-06    2.0429300E-04
  8.2759998E-06   -6.2671339E-04
  8.2990000E-06   -1.6149426E-03
  8.3220002E-06   -2.2393975E-03
  8.3450004E-06   -1.8695865E-03
  8.3679997E-06   -8.8066190E-05
  8.3909999E-06    2.9166155E-03
  8.4140001E-06    6.0840514E-03
  8.4370004E-06    7.5827721E-03
  8.4599997E-06    5.4394454E-03
  8.4829999E-06   -1.3622663E-03
  8.5060001E-06   -1.1686848E-02
  8.5290003E-06   -2.1606280E-02
  8.5519996E-06   -2.5017746E-02
  8.5749998E-06   -1.5898438E-02
  8.5980000E-06    8.1541175E-03
  8.6210002E-06    4.2387553E-02
  8.6440004E-06    7.3386215E-02
  8.6669997E-06    8.1597216E-02
  8.6900000E-06    4.8754752E-02
  8.7130002E-06   -3.1186968E-02
  8.7360004E-06   -0.1417072    
  8.7589997E-06   -0.2399571    
  8.7819999E-06   -0.2652315    
  8.8050001E-06   -0.1617411    
  8.8280003E-06    8.8806488E-02
  8.8509996E-06    0.4368846    
  8.8739998E-06    0.7542137    
  8.8970000E-06    0.8580449    
  8.9200003E-06    0.5763450    
  8.9429996E-06   -0.1585418    
  8.9659998E-06    -1.220816    
  8.9890000E-06    -2.253762    
  9.0120002E-06    -2.728147    
  9.0350004E-06    -2.114649    
  9.0579997E-06   -0.1414516    
  9.0809999E-06     2.946626    
  9.1040001E-06     6.250584    
  9.1270003E-06     8.322848    
  9.1499996E-06     7.578552    
  9.1729999E-06     2.960697    
  9.1960001E-06    -5.331640    
  9.2190003E-06    -15.35334    
  9.2419996E-06    -23.48391    
  9.2649998E-06    -25.26597    
  9.2880000E-06    -16.96733    
  9.3110002E-06     2.508768    
  9.3340004E-06     30.03702    
  9.3569997E-06     57.80023    
  9.3799999E-06     74.56344    
  9.4030001E-06     68.83318    
  9.4260004E-06     33.32555    
  9.4489997E-06    -30.55495    
  9.4719999E-06    -109.9743    
  9.4950001E-06    -181.3147    
  9.5180003E-06    -215.0890    
  9.5409996E-06    -184.6672    
  9.5639998E-06    -76.79493    
  9.5870000E-06     99.34953    
  9.6100002E-06     308.2034    
  9.6330004E-06     491.7586    
  9.6559997E-06     582.1408    
  9.6790000E-06     520.7628    
  9.7020002E-06     279.2782    
  9.7250004E-06    -124.0726    
  9.7479997E-06    -618.9268    
  9.7709999E-06    -1091.919    
  9.7940001E-06    -1410.286    
  9.8170003E-06    -1455.148    
  9.8399996E-06    -1155.830    
  9.8629998E-06    -515.0872    
  9.8860000E-06     383.3724    
  9.9090003E-06     1389.287    
  9.9319996E-06     2320.198    
  9.9549998E-06     3007.550    
  9.9780000E-06     3341.769    
  1.0001000E-05     3302.971    
  1.0024000E-05     2967.141    
  1.0047000E-05     2483.692    
  1.0070000E-05     2028.031    
  1.0093000E-05     1740.045    
  1.0116000E-05     1664.577    
  1.0139000E-05     1708.575    
  1.0162000E-05     1623.846    
  1.0185000E-05     1012.792    
  1.0208000E-05    -663.3467    
  1.0231000E-05    -4124.114    
  1.0254000E-05    -10442.21    
  1.0277000E-05    -21467.36    
  1.0300000E-05    -40686.74    
  1.0323000E-05    -74746.89    
  1.0346000E-05    -135875.8    
  1.0369000E-05    -245483.6    
  1.0392000E-05    -439176.1    
  1.0415000E-05    -773232.2    
  1.0438000E-05    -1332380.    
  1.0461000E-05    -2238464.    
  1.0484000E-05    -3659077.    
  1.0507000E-05    -5814802.    
  1.0530000E-05    -8983194.    
  1.0553000E-05   -1.3497298E+07
  1.0576000E-05   -1.9735712E+07
  1.0599000E-05   -2.8103886E+07
  1.0622000E-05   -3.9002672E+07
  1.0645000E-05   -5.2783576E+07
  1.0668000E-05   -6.9693824E+07
  1.0691000E-05   -8.9813872E+07
  1.0714000E-05   -1.1298672E+08
  1.0737000E-05   -1.3875342E+08
  1.0760000E-05   -1.6629974E+08
  1.0783000E-05   -1.9442219E+08
  1.0806000E-05   -2.2152251E+08
  1.0829000E-05   -2.4564686E+08
  1.0852000E-05   -2.6456462E+08
  1.0875000E-05   -2.7588266E+08
  1.0898000E-05   -2.7720934E+08
  1.0921000E-05   -2.6635520E+08
  1.0944000E-05   -2.4154514E+08
  1.0967000E-05   -2.0164456E+08
  1.0990000E-05   -1.4629136E+08
  1.1013000E-05   -7.6094472E+07
  1.1036000E-05     7268613.    
  1.1059000E-05    1.0109908E+08
  1.1082000E-05    2.0176331E+08
  1.1105000E-05    3.0482826E+08
  1.1128000E-05    4.0529725E+08
  1.1151000E-05    4.9800963E+08
  1.1174000E-05    5.7793242E+08
  1.1197000E-05    6.4049018E+08
  1.1220000E-05    6.8191200E+08
  1.1243000E-05    6.9959955E+08
  1.1266000E-05    6.9219238E+08
  1.1289000E-05    6.5974739E+08
  1.1312000E-05    6.0371526E+08
  1.1335000E-05    5.2684531E+08
  1.1358000E-05    4.3288064E+08
  1.1381000E-05    3.2643629E+08
  1.1404000E-05    2.1263245E+08
  1.1427000E-05    9.6719888E+07
  1.1450000E-05   -1.6280997E+07
  1.1473000E-05   -1.2185009E+08
  1.1496000E-05   -2.1611416E+08
  1.1519000E-05   -2.9605552E+08
  1.1542000E-05   -3.5970403E+08
  1.1565000E-05   -4.0606509E+08
  1.1588000E-05   -4.3503002E+08
  1.1611000E-05   -4.4732403E+08
  1.1634000E-05   -4.4436880E+08
  1.1657000E-05   -4.2809130E+08
  1.1680000E-05   -4.0070701E+08
  1.1703000E-05   -3.6461155E+08
  1.1726000E-05   -3.2223184E+08
  1.1749000E-05   -2.7589373E+08
  1.1772000E-05   -2.2772053E+08
  1.1795000E-05   -1.7951261E+08
  1.1818000E-05   -1.3279582E+08
  1.1841000E-05   -8.8812728E+07
  1.1864000E-05   -4.8540216E+07
  1.1887000E-05   -1.2647160E+07
  1.1910000E-05    1.8502640E+07
  1.1933000E-05    4.4688044E+07
  1.1956000E-05    6.5765456E+07
  1.1979000E-05    8.1757944E+07
  1.2002000E-05    9.2864712E+07
  1.2025000E-05    9.9313568E+07
  1.2048000E-05    1.0129723E+08
  1.2071000E-05    9.9088856E+07
  1.2094000E-05    9.3058176E+07
  1.2117000E-05    8.3628912E+07
  1.2140000E-05    7.1233776E+07
  1.2163000E-05    5.6319172E+07
  1.2186000E-05    3.9425584E+07
  1.2209000E-05    2.1240600E+07
  1.2232000E-05     2452901.    
  1.2255000E-05   -1.6332980E+07
  1.2278000E-05   -3.4435088E+07
  1.2301000E-05   -5.1053360E+07
  1.2324000E-05   -6.5547956E+07
  1.2347000E-05   -7.7464304E+07
  1.2370000E-05   -8.6384152E+07
  1.2393000E-05   -9.1936624E+07
  1.2416000E-05   -9.3964344E+07
  1.2439000E-05   -9.2548504E+07
  1.2462000E-05   -8.7907104E+07
  1.2485000E-05   -8.0354400E+07
  1.2508000E-05   -7.0310448E+07
  1.2531000E-05   -5.8296392E+07
  1.2554000E-05   -4.4938672E+07
  1.2577000E-05   -3.0880294E+07
  1.2600000E-05   -1.6658887E+07
  1.2623000E-05    -2761601.    
  1.2646000E-05    1.0293353E+07
  1.2669000E-05    2.2088764E+07
  1.2692000E-05    3.2375720E+07
  1.2715000E-05    4.0987836E+07
  1.2738000E-05    4.7799484E+07
  1.2761000E-05    5.2780084E+07
  1.2784000E-05    5.5994616E+07
  1.2807000E-05    5.7557140E+07
  1.2830000E-05    5.7662464E+07
  1.2853000E-05    5.6537312E+07
  1.2876000E-05    5.4376640E+07
  1.2899000E-05    5.1426420E+07
  1.2922000E-05    4.8008692E+07
  1.2945000E-05    4.4360116E+07
  1.2968000E-05    4.0602564E+07
  1.2991000E-05    3.6914404E+07
  1.3014000E-05    3.3517788E+07
  1.3037000E-05    3.0488122E+07
  1.3060000E-05    2.7756176E+07
  1.3083000E-05    2.5268478E+07
  1.3106000E-05    2.3009470E+07
  1.3129000E-05    2.0908690E+07
  1.3152000E-05    1.8806072E+07
  1.3175000E-05    1.6507946E+07
  1.3198000E-05    1.3890166E+07
  1.3221000E-05    1.0921928E+07
  1.3244000E-05     7561378.    
  1.3267000E-05     3734621.    
  1.3290000E-05    -511262.7    
  1.3313000E-05    -4984834.    
  1.3336000E-05    -9538635.    
  1.3359000E-05   -1.4072149E+07
  1.3382000E-05   -1.8349766E+07
  1.3405000E-05   -2.2039040E+07
  1.3428000E-05   -2.4930202E+07
  1.3451000E-05   -2.6937832E+07
  1.3474000E-05   -2.7948804E+07
  1.3497000E-05   -2.7821690E+07
  1.3520000E-05   -2.6514308E+07
  1.3543000E-05   -2.4127670E+07
  1.3566000E-05   -2.0828328E+07
  1.3589000E-05   -1.6776445E+07
  1.3612000E-05   -1.2140112E+07
  1.3635000E-05    -7168282.    
  1.3658000E-05    -2157080.    
  1.3681000E-05     2658292.    
  1.3704000E-05     7103604.    
  1.3727000E-05    1.0972187E+07
  1.3750000E-05    1.4052616E+07
  1.3773000E-05    1.6238943E+07
  1.3796000E-05    1.7510952E+07
  1.3819000E-05    1.7830606E+07
  1.3842000E-05    1.7171904E+07
  1.3865000E-05    1.5605851E+07
  1.3888000E-05    1.3267758E+07
  1.3911000E-05    1.0291588E+07
  1.3934000E-05     6820374.    
  1.3957000E-05     3033696.    
  1.3980000E-05    -854431.8    
  1.4003000E-05    -4627170.    
  1.4026000E-05    -8100060.    
  1.4049000E-05   -1.1122888E+07
  1.4072000E-05   -1.3563818E+07
  1.4095000E-05   -1.5317947E+07
  1.4118000E-05   -1.6318606E+07
  1.4141000E-05   -1.6536509E+07
  1.4164000E-05   -1.5972581E+07
  1.4187000E-05   -1.4682893E+07
  1.4210000E-05   -1.2772232E+07
  1.4233000E-05   -1.0334983E+07
  1.4256000E-05    -7456807.    
  1.4279000E-05    -4247378.    
  1.4302000E-05    -848202.1    
  1.4325000E-05     2596496.    
  1.4348000E-05     5943103.    
  1.4371000E-05     9056753.    
  1.4394000E-05    1.1828803E+07
  1.4417000E-05    1.4176323E+07
  1.4440000E-05    1.6008521E+07
  1.4463000E-05    1.7214930E+07
  1.4486000E-05    1.7703972E+07
  1.4509000E-05    1.7453854E+07
  1.4532000E-05    1.6509739E+07
  1.4555000E-05    1.4924814E+07
  1.4578000E-05    1.2725102E+07
  1.4601000E-05     9956480.    
  1.4624000E-05     6755468.    
  1.4647000E-05     3316209.    
  1.4670000E-05    -192362.0    
  1.4693000E-05    -3620297.    
  1.4716000E-05    -6785995.    
  1.4739000E-05    -9498080.    
  1.4762000E-05   -1.1621498E+07
  1.4785000E-05   -1.3068100E+07
  1.4808000E-05   -1.3758372E+07
  1.4831000E-05   -1.3644170E+07
  1.4854000E-05   -1.2769576E+07
  1.4877000E-05   -1.1259157E+07
  1.4900000E-05    -9254906.    
  1.4923000E-05    -6901214.    
  1.4946000E-05    -4369442.    
  1.4969000E-05    -1872896.    
  1.4992000E-05     389656.0    
  1.5015000E-05     2300765.    
  1.5038000E-05     3793116.    
  1.5061000E-05     4786764.    
  1.5084000E-05     5234570.    
  1.5107000E-05     5219229.    
  1.5130000E-05     4886406.    
  1.5153000E-05     4331814.    
  1.5176000E-05     3652282.    
  1.5199000E-05     3022635.    
  1.5222000E-05     2604277.    
  1.5245000E-05     2459584.    
  1.5268000E-05     2625798.    
  1.5291000E-05     3159121.    
  1.5314001E-05     4046164.    
  1.5337000E-05     5172462.    
  1.5359999E-05     6396968.    
  1.5383001E-05     7592815.    
  1.5406000E-05     8631042.    
  1.5428999E-05     9370638.    
  1.5452000E-05     9661533.    
  1.5475000E-05     9398273.    
  1.5498001E-05     8568398.    
  1.5521000E-05     7195724.    
  1.5543999E-05     5292792.    
  1.5567000E-05     2966884.    
  1.5590000E-05     450844.9    
  1.5613001E-05    -2082522.    
  1.5636000E-05    -4567400.    
  1.5658999E-05    -6857826.    
  1.5682001E-05    -8743792.    
  1.5705000E-05   -1.0160805E+07
  1.5727999E-05   -1.1177627E+07
  1.5751000E-05   -1.1819851E+07
  1.5774000E-05   -1.2108301E+07
  1.5797001E-05   -1.2171125E+07
  1.5820000E-05   -1.2174216E+07
  1.5842999E-05   -1.2222254E+07
  1.5866000E-05   -1.2371634E+07
  1.5889000E-05   -1.2653246E+07
  1.5912001E-05   -1.3093493E+07
  1.5935000E-05   -1.3717139E+07
  1.5957999E-05   -1.4457590E+07
  1.5981001E-05   -1.5144109E+07
  1.6004000E-05   -1.5667363E+07
  1.6026999E-05   -1.6013579E+07
  1.6050000E-05   -1.6080890E+07
  1.6073000E-05   -1.5709729E+07
  1.6096001E-05   -1.4892556E+07
  1.6119000E-05   -1.3698547E+07
  1.6141999E-05   -1.2091748E+07
  1.6165000E-05   -1.0046727E+07
  1.6188000E-05    -7668836.    
  1.6210999E-05    -5071852.    
  1.6234000E-05    -2300618.    
  1.6257000E-05     568519.8    
  1.6280001E-05     3432565.    
  1.6303000E-05     6220052.    
  1.6325999E-05     8840102.    
  1.6349000E-05    1.1181415E+07
  1.6372000E-05    1.3184659E+07
  1.6395001E-05    1.4798443E+07
  1.6418000E-05    1.5948354E+07
  1.6440999E-05    1.6631928E+07
  1.6464001E-05    1.6900978E+07
  1.6487000E-05    1.6751582E+07
  1.6509999E-05    1.6212775E+07
  1.6533000E-05    1.5446559E+07
  1.6556000E-05    1.4605006E+07
  1.6579001E-05    1.3750366E+07
  1.6602000E-05    1.3001374E+07
  1.6624999E-05    1.2521526E+07
  1.6648000E-05    1.2364468E+07
  1.6671000E-05    1.2531696E+07
  1.6694001E-05    1.3076431E+07
  1.6717000E-05    1.3979475E+07
  1.6739999E-05    1.5087226E+07
  1.6763001E-05    1.6257595E+07
  1.6786000E-05    1.7394076E+07
  1.6808999E-05    1.8339330E+07
  1.6832000E-05    1.8897776E+07
  1.6855000E-05    1.8913994E+07
  1.6878001E-05    1.8258532E+07
  1.6901000E-05    1.6840194E+07
  1.6923999E-05    1.4645700E+07
  1.6947000E-05    1.1689163E+07
  1.6970000E-05     8010456.    
  1.6993001E-05     3755684.    
  1.7016000E-05    -871529.4    
  1.7038999E-05    -5700710.    
  1.7062001E-05   -1.0508992E+07
  1.7085000E-05   -1.4984815E+07
  1.7107999E-05   -1.8893326E+07
  1.7131000E-05   -2.2107504E+07
  1.7154000E-05   -2.4464484E+07
  1.7177001E-05   -2.5808392E+07
  1.7200000E-05   -2.6145448E+07
  1.7222999E-05   -2.5572364E+07
  1.7246000E-05   -2.4146596E+07
  1.7269000E-05   -2.1982868E+07
  1.7292001E-05   -1.9324916E+07
  1.7315000E-05   -1.6415350E+07
  1.7337999E-05   -1.3405409E+07
  1.7361001E-05   -1.0421500E+07
  1.7384000E-05    -7617333.    
  1.7406999E-05    -5131770.    
  1.7430000E-05    -3020308.    
  1.7453000E-05    -1243014.    
  1.7476001E-05     248938.2    
  1.7499000E-05     1448054.    
  1.7521999E-05     2379664.    
  1.7545000E-05     3155275.    
  1.7568000E-05     3826452.    
  1.7591001E-05     4323932.    
  1.7614000E-05     4634064.    
  1.7636999E-05     4845738.    
  1.7660001E-05     4946094.    
  1.7683000E-05     4794930.    
  1.7705999E-05     4354760.    
  1.7729000E-05     3732101.    
  1.7752000E-05     2974132.    
  1.7775001E-05     2027747.    
  1.7798000E-05     910796.4    
  1.7820999E-05    -238264.8    
  1.7844000E-05    -1301913.    
  1.7867000E-05    -2254362.    
  1.7890001E-05    -3058466.    
  1.7913000E-05    -3589371.    
  1.7935999E-05    -3740724.    
  1.7959001E-05    -3538903.    
  1.7982000E-05    -3041090.    
  1.8004999E-05    -2195024.    
  1.8028000E-05    -954375.6    
  1.8051000E-05     555877.8    
  1.8074001E-05     2159094.    
  1.8097000E-05     3808842.    
  1.8119999E-05     5478474.    
  1.8143000E-05     6997063.    
  1.8166000E-05     8171979.    
  1.8188999E-05     8953884.    
  1.8212000E-05     9339942.    
  1.8235000E-05     9238705.    
  1.8258001E-05     8566922.    
  1.8281000E-05     7394982.    
  1.8303999E-05     5890424.    
  1.8327000E-05     4171058.    
  1.8350000E-05     2311281.    
  1.8373001E-05     473683.9    
  1.8396000E-05    -1081766.    
  1.8418999E-05    -2157179.    
  1.8442001E-05    -2684166.    
  1.8465000E-05    -2599311.    
  1.8487999E-05    -1802042.    
  1.8511000E-05    -308271.2    
  1.8534000E-05     1697771.    
  1.8557001E-05     4019340.    
  1.8580000E-05     6499960.    
  1.8602999E-05     8898256.    
  1.8626000E-05    1.0876305E+07
  1.8649000E-05    1.2151081E+07
  1.8672001E-05    1.2556405E+07
  1.8695000E-05    1.1984051E+07
  1.8717999E-05    1.0357511E+07
  1.8741001E-05     7668926.    
  1.8764000E-05     4028939.    
  1.8786999E-05    -317205.8    
  1.8810000E-05    -5058648.    
  1.8833000E-05    -9901062.    
  1.8856001E-05   -1.4537933E+07
  1.8879000E-05   -1.8599066E+07
  1.8901999E-05   -2.1734678E+07
  1.8925000E-05   -2.3704394E+07
  1.8948000E-05   -2.4341176E+07
  1.8971001E-05   -2.3523356E+07
  1.8994000E-05   -2.1234884E+07
  1.9016999E-05   -1.7578292E+07
  1.9040001E-05   -1.2737902E+07
  1.9063000E-05    -6974471.    
  1.9085999E-05    -604058.4    
  1.9109000E-05     6030659.    
  1.9132000E-05    1.2522322E+07
  1.9155001E-05    1.8426590E+07
  1.9178000E-05    2.3407004E+07
  1.9200999E-05    2.7245488E+07
  1.9224000E-05    2.9709666E+07
  1.9247000E-05    3.0597794E+07
  1.9270001E-05    2.9912426E+07
  1.9293000E-05    2.7815870E+07
  1.9315999E-05    2.4487796E+07
  1.9339001E-05    2.0185372E+07
  1.9362000E-05    1.5325252E+07
  1.9384999E-05    1.0372801E+07
  1.9408000E-05     5741911.    
  1.9431000E-05     1836816.    
  1.9454001E-05    -926231.0    
  1.9477000E-05    -2172787.    
  1.9499999E-05    -1641131.    
  1.9523000E-05     750852.1    
  1.9546000E-05     4925006.    
  1.9569001E-05    1.0752583E+07
  1.9592000E-05    1.7991648E+07
  1.9614999E-05    2.6119886E+07
  1.9638001E-05    3.4423496E+07
  1.9661000E-05    4.2181552E+07
  1.9683999E-05    4.8553212E+07