 -0.300000012         1.00000002E-24
 -0.298200011         1.00000002E-24
 -0.296400011         1.00000032E-24
 -0.294600010        -7.61626135E-18
 -0.292800009        -5.35632865E-17
 -0.291000009        -2.13958696E-16
 -0.289200008        -6.36717419E-16
 -0.287400007        -1.56732817E-15
 -0.285600007        -3.36726598E-15
 -0.283800006        -6.51648704E-15
 -0.282000005        -1.15902093E-14
 -0.280200005        -1.91998534E-14
 -0.278400004        -2.98888620E-14
 -0.276600003        -4.39762972E-14
 -0.274800003        -6.13445723E-14
 -0.273000002        -8.11723600E-14
 -0.271200001        -1.01618942E-13
 -0.269400001        -1.19472005E-13
 -0.267600000        -1.29775991E-13
 -0.265799999        -1.25462534E-13
 -0.263999999        -9.70069497E-14
 -0.262199998        -3.21360505E-14
 -0.260399997         8.43892285E-14
 -0.258599997         2.70896586E-13
 -0.256799996         5.48815117E-13
 -0.254999995         9.42570891E-13
 -0.253199995         1.47936546E-12
 -0.251399994         2.18884437E-12
 -0.249599993         3.10267567E-12
 -0.247799993         4.25405501E-12
 -0.246000007         5.67717011E-12
 -0.244200006         7.40665689E-12
 -0.242400005         9.47707191E-12
 -0.240600005         1.19224214E-11
 -0.238800004         1.47757744E-11
 -0.237000003         1.80689838E-11
 -0.235200003         2.18325392E-11
 -0.233400002         2.60955632E-11
 -0.231600001         3.08859674E-11
 -0.229800001         3.62307753E-11
 -0.228000000         4.21566185E-11
 -0.226199999         4.86903504E-11
 -0.224399999         5.58598862E-11
 -0.222599998         6.36950909E-11
 -0.220799997         7.22288548E-11
 -0.218999997         8.14981901E-11
 -0.217199996         9.15453754E-11
 -0.215399995         1.02419101E-10
 -0.213599995         1.14175565E-10
 -0.211799994         1.26879354E-10
 -0.209999993         1.40604139E-10
 -0.208199993         1.55433097E-10
 -0.206400007         1.71458972E-10
 -0.204600006         1.88783572E-10
 -0.202800006         2.07516851E-10
 -0.201000005         2.27775313E-10
 -0.199200004         2.49679805E-10
 -0.197400004         2.73352646E-10
 -0.195600003         2.98913977E-10
 -0.193800002         3.26477428E-10
 -0.192000002         3.56145224E-10
 -0.190200001         3.88002186E-10
 -0.188400000         4.22109486E-10
 -0.186600000         4.58497157E-10
 -0.184799999         4.97156372E-10
 -0.182999998         5.38030398E-10
 -0.181199998         5.81004800E-10
 -0.179399997         6.25896501E-10
 -0.177599996         6.72441991E-10
 -0.175799996         7.20283388E-10
 -0.173999995         7.68953012E-10
 -0.172199994         8.17855672E-10
 -0.170399994         8.66249350E-10
 -0.168599993         9.13222054E-10
 -0.166800007         9.57665613E-10
 -0.165000007         9.98246596E-10
 -0.163200006         1.03337250E-09
 -0.161400005         1.06115416E-09
 -0.159600005         1.07936304E-09
 -0.157800004         1.08538389E-09
 -0.156000003         1.07616238E-09
 -0.154200003         1.04814712E-09
 -0.152400002         9.97227412E-10
 -0.150600001         9.18660537E-10
 -0.148800001         8.07001854E-10
 -0.147000000         6.56024457E-10
 -0.145199999         4.58630078E-10
 -0.143399999         2.06762524E-10
 -0.141599998        -1.08690709E-10
 -0.139799997        -4.97994146E-10
 -0.137999997        -9.72673608E-10
 -0.136199996        -1.54561608E-09
 -0.134399995        -2.23119567E-09
 -0.132599995        -3.04536818E-09
 -0.130799994        -4.00579925E-09
 -0.128999993        -5.13197573E-09
 -0.127200007        -6.44532383E-09
 -0.125400007        -7.96932298E-09
 -0.123599999        -9.72961800E-09
 -0.121799998        -1.17541283E-08
 -0.119999997        -1.40731631E-08
 -0.118199997        -1.67194933E-08
 -0.116400003        -1.97284749E-08
 -0.114600003        -2.31381119E-08
 -0.112800002        -2.69891363E-08
 -0.111000001        -3.13250759E-08
 -0.109200001        -3.61922545E-08
 -0.107400000        -4.16398862E-08
 -0.105599999        -4.77200537E-08
 -0.103799999        -5.44876855E-08
 -0.101999998        -6.20005238E-08
 -0.100199997        -7.03191319E-08
  -9.83999968E-02    -7.95067123E-08
  -9.66000035E-02    -8.96290118E-08
  -9.48000029E-02    -1.00754207E-07
  -9.30000022E-02    -1.12952691E-07
  -9.12000015E-02    -1.26296825E-07
  -8.94000009E-02    -1.40860678E-07
  -8.76000002E-02    -1.56719665E-07
  -8.57999995E-02    -1.73950269E-07
  -8.39999989E-02    -1.92629486E-07
  -8.21999982E-02    -2.12834394E-07
  -8.03999975E-02    -2.34641632E-07
  -7.85999969E-02    -2.58126704E-07
  -7.68000036E-02    -2.83363306E-07
  -7.50000030E-02    -3.10422848E-07
  -7.32000023E-02    -3.39373116E-07
  -7.14000016E-02    -3.70278002E-07
  -6.96000010E-02    -4.03196253E-07
  -6.78000003E-02    -4.38180365E-07
  -6.59999996E-02    -4.75275698E-07
  -6.41999990E-02    -5.14519456E-07
  -6.23999983E-02    -5.55939323E-07
  -6.06000014E-02    -5.99552436E-07
  -5.88000007E-02    -6.45363968E-07
  -5.70000000E-02    -6.93366076E-07
  -5.51999994E-02    -7.43536191E-07
  -5.33999987E-02    -7.95836513E-07
  -5.16000018E-02    -8.50212018E-07
  -4.98000011E-02    -9.06589264E-07
  -4.80000004E-02    -9.64875653E-07
  -4.61999997E-02    -1.02495778E-06
  -4.43999991E-02    -1.08670088E-06
  -4.25999984E-02    -1.14994714E-06
  -4.08000015E-02    -1.21451581E-06
  -3.90000008E-02    -1.28020156E-06
  -3.72000001E-02    -1.34677407E-06
  -3.53999995E-02    -1.41397845E-06
  -3.35999988E-02    -1.48153390E-06
  -3.18000019E-02    -1.54913437E-06
  -2.99999993E-02    -1.61644937E-06
  -2.82000005E-02    -1.68312408E-06
  -2.63999999E-02    -1.74877960E-06
  -2.45999992E-02    -1.81301550E-06
  -2.28000004E-02    -1.87541013E-06
  -2.09999997E-02    -1.93552296E-06
  -1.92000009E-02    -1.99289821E-06
  -1.74000002E-02    -2.04706544E-06
  -1.55999996E-02    -2.09754330E-06
  -1.37999998E-02    -2.14384477E-06
  -1.20000001E-02    -2.18547802E-06
  -1.02000004E-02    -2.22195422E-06
  -8.39999970E-03    -2.25278950E-06
  -6.59999996E-03    -2.27751252E-06
  -4.80000023E-03    -2.29566854E-06
  -3.00000003E-03    -2.30682667E-06
  -1.20000006E-03    -2.31058584E-06
   6.00000028E-04    -2.30658247E-06
   2.40000011E-03    -2.29449688E-06
   4.19999985E-03    -2.27406281E-06
   6.00000005E-03    -2.24507357E-06
   7.79999979E-03    -2.20739230E-06
   9.60000046E-03    -2.16095896E-06
   1.14000002E-02    -2.10580083E-06
   1.31999999E-02    -2.04204139E-06
   1.49999997E-02    -1.96990891E-06
   1.67999994E-02    -1.88974718E-06
   1.86000001E-02    -1.80202369E-06
   2.04000007E-02    -1.70734040E-06
   2.21999995E-02    -1.60644265E-06
   2.40000002E-02    -1.50022856E-06
   2.58000009E-02    -1.38975838E-06
   2.75999997E-02    -1.27626390E-06
   2.94000003E-02    -1.16115609E-06
   3.11999992E-02    -1.04603453E-06
   3.29999998E-02    -9.32695116E-07
   3.48000005E-02    -8.23137441E-07
   3.66000012E-02    -7.19570608E-07
   3.84000018E-02    -6.24421716E-07
   4.01999988E-02    -5.40339613E-07
   4.19999994E-02    -4.70200916E-07
   4.38000001E-02    -4.17112773E-07
   4.56000008E-02    -3.84418001E-07
   4.74000014E-02    -3.75694498E-07
   4.91999984E-02    -3.94759923E-07
   5.09999990E-02    -4.45670537E-07
   5.27999997E-02    -5.32719298E-07
   5.46000004E-02    -6.60433273E-07
   5.64000010E-02    -8.33575712E-07
   5.82000017E-02    -1.05713707E-06
   5.99999987E-02    -1.33632864E-06
   6.17999993E-02    -1.67658220E-06
   6.36000037E-02    -2.08353254E-06
   6.53999969E-02    -2.56301564E-06
   6.71999976E-02    -3.12105249E-06
   6.89999983E-02    -3.76384355E-06
   7.07999989E-02    -4.49774507E-06
   7.25999996E-02    -5.32925696E-06
   7.44000003E-02    -6.26501151E-06
   7.62000009E-02    -7.31174759E-06
   7.80000016E-02    -8.47628598E-06
   7.98000023E-02    -9.76551928E-06
   8.16000029E-02    -1.11863765E-05
   8.34000036E-02    -1.27458015E-05
   8.51999968E-02    -1.44507194E-05
   8.69999975E-02    -1.63080058E-05
   8.87999982E-02    -1.83244574E-05
   9.05999988E-02    -2.05067572E-05
   9.23999995E-02    -2.28614244E-05
   9.42000002E-02    -2.53947856E-05
   9.60000008E-02    -2.81129287E-05
   9.78000015E-02    -3.10216528E-05
   9.96000022E-02    -3.41264167E-05
  0.101400003        -3.74322881E-05
  0.103200004        -4.09439053E-05
  0.104999997        -4.46653794E-05
  0.106799997        -4.86002682E-05
  0.108599998        -5.27515040E-05
  0.110399999        -5.71213131E-05
  0.112199999        -6.17111655E-05
  0.114000000        -6.65216721E-05
  0.115800001        -7.15525530E-05
  0.117600001        -7.68025056E-05
  0.119400002        -8.22691800E-05
  0.121200003        -8.79490617E-05
  0.123000003        -9.38373996E-05
  0.124799997        -9.99281037E-05
  0.126599997        -1.06213702E-04
  0.128399998        -1.12685200E-04
  0.130199999        -1.19332064E-04
  0.131999999        -1.26142084E-04
  0.133800000        -1.33101334E-04
  0.135600001        -1.40194068E-04
  0.137400001        -1.47402650E-04
  0.139200002        -1.54707493E-04
  0.141000003        -1.62087046E-04
  0.142800003        -1.69517618E-04
  0.144600004        -1.76973510E-04
  0.146400005        -1.84426783E-04
  0.148200005        -1.91847415E-04
  0.150000006        -1.99203190E-04
  0.151800007        -2.06459663E-04
  0.153600007        -2.13580308E-04
  0.155399993        -2.20526446E-04
  0.157199994        -2.27257275E-04
  0.158999994        -2.33730025E-04
  0.160799995        -2.39899993E-04
  0.162599996        -2.45720672E-04
  0.164399996        -2.51143763E-04
  0.166199997        -2.56119500E-04
  0.167999998        -2.60596687E-04
  0.169799998        -2.64522940E-04
  0.171599999        -2.67844851E-04
  0.173400000        -2.70508346E-04
  0.175200000        -2.72458739E-04
  0.177000001        -2.73641112E-04
  0.178800002        -2.74000748E-04
  0.180600002        -2.73483165E-04
  0.182400003        -2.72034667E-04
  0.184200004        -2.69602635E-04
  0.186000004        -2.66135874E-04
  0.187800005        -2.61584995E-04
  0.189600006        -2.55902851E-04
  0.191400006        -2.49044882E-04
  0.193200007        -2.40969603E-04
  0.194999993        -2.31638973E-04
  0.196799994        -2.21018781E-04
  0.198599994        -2.09079095E-04
  0.200399995        -1.95794652E-04
  0.202199996        -1.81145297E-04
  0.203999996        -1.65116318E-04
  0.205799997        -1.47698898E-04
  0.207599998        -1.28890344E-04
  0.209399998        -1.08694527E-04
  0.211199999        -8.71221273E-05
  0.213000000        -6.41909501E-05
  0.214800000        -3.99261044E-05
  0.216600001        -1.43602647E-05
  0.218400002         1.24662110E-05
  0.220200002         4.05051287E-05
  0.222000003         6.97004143E-05
  0.223800004         9.99880940E-05
  0.225600004         1.31296270E-04
  0.227400005         1.63545250E-04
  0.229200006         1.96647656E-04
  0.231000006         2.30508624E-04
  0.232800007         2.65026029E-04
  0.234599993         3.00090789E-04
  0.236399993         3.35587159E-04
  0.238199994         3.71393311E-04
  0.239999995         4.07381536E-04
  0.241799995         4.43418918E-04
  0.243599996         4.79367824E-04
  0.245399997         5.15086576E-04
  0.247199997         5.50430093E-04
  0.248999998         5.85250207E-04
  0.250800014         6.19397033E-04
  0.252600014         6.52719173E-04
  0.254400015         6.85064646E-04
  0.256199986         7.16281706E-04
  0.257999986         7.46219826E-04
  0.259799987         7.74730055E-04
  0.261599988         8.01666116E-04
  0.263399988         8.26885400E-04
  0.265199989         8.50249315E-04
  0.266999990         8.71624448E-04
  0.268799990         8.90883035E-04
  0.270599991         9.07904352E-04
  0.272399992         9.22574371E-04
  0.274199992         9.34787386E-04
  0.275999993         9.44446365E-04
  0.277799994         9.51463066E-04
  0.279599994         9.55759315E-04
  0.281399995         9.57267184E-04
  0.283199996         9.55929398E-04
  0.284999996         9.51699563E-04
  0.286799997         9.44542757E-04
  0.288599998         9.34435753E-04
  0.290399998         9.21366911E-04
  0.292199999         9.05336696E-04
  0.294000000         8.86357448E-04
  0.295800000         8.64453439E-04
  0.297600001         8.39660934E-04
  0.299400002         8.12027778E-04
  0.301200002         7.81613344E-04
  0.303000003         7.48488295E-04
  0.304800004         7.12734356E-04
  0.306600004         6.74443610E-04
  0.308400005         6.33718388E-04
  0.310200006         5.90670505E-04
  0.312000006         5.45421091E-04
  0.313800007         4.98099776E-04
  0.315600008         4.48844192E-04
  0.317400008         3.97799275E-04
  0.319200009         3.45116743E-04
  0.321000010         2.90954311E-04
  0.322800010         2.35475105E-04
  0.324600011         1.78846938E-04
  0.326400012         1.21241552E-04
  0.328200012         6.28340204E-05
  0.330000013         3.80197298E-06
  0.331800014        -5.56750347E-05
  0.333600014        -1.15416253E-04
  0.335399985        -1.75240377E-04
  0.337199986        -2.34966254E-04
  0.338999987        -2.94413418E-04
  0.340799987        -3.53402749E-04
  0.342599988        -4.11757152E-04
  0.344399989        -4.69302002E-04
  0.346199989        -5.25865820E-04
  0.347999990        -5.81280503E-04
  0.349799991        -6.35382195E-04
  0.351599991        -6.88011583E-04
  0.353399992        -7.39014125E-04
  0.355199993        -7.88240926E-04
  0.356999993        -8.35548679E-04
  0.358799994        -8.80800246E-04
  0.360599995        -9.23864951E-04
  0.362399995        -9.64618870E-04
  0.364199996        -1.00294501E-03
  0.365999997        -1.03873375E-03
  0.367799997        -1.07188313E-03
  0.369599998        -1.10229873E-03
  0.371399999        -1.12989452E-03
  0.373199999        -1.15459226E-03
  0.375000000        -1.17632188E-03
  0.376800001        -1.19502237E-03
  0.378600001        -1.21064088E-03
  0.380400002        -1.22313364E-03
  0.382200003        -1.23246503E-03
  0.384000003        -1.23860920E-03
  0.385800004        -1.24154869E-03
  0.387600005        -1.24127546E-03
  0.389400005        -1.23779022E-03
  0.391200006        -1.23110309E-03
  0.393000007        -1.22123328E-03
  0.394800007        -1.20820885E-03
  0.396600008        -1.19206693E-03
  0.398400009        -1.17285375E-03
  0.400200009        -1.15062448E-03
  0.402000010        -1.12544291E-03
  0.403800011        -1.09738135E-03
  0.405600011        -1.06652116E-03
  0.407400012        -1.03295140E-03
  0.409200013        -9.96769173E-04
  0.411000013        -9.58079647E-04
  0.412800014        -9.16995457E-04
  0.414600015        -8.73636396E-04
  0.416399986        -8.28128890E-04
  0.418199986        -7.80606293E-04
  0.419999987        -7.31207721E-04
  0.421799988        -6.80077821E-04
  0.423599988        -6.27366651E-04
  0.425399989        -5.73228754E-04
  0.427199990        -5.17823035E-04
  0.428999990        -4.61311807E-04
  0.430799991        -4.03860584E-04
  0.432599992        -3.45637265E-04
  0.434399992        -2.86811759E-04
  0.436199993        -2.27555181E-04
  0.437999994        -1.68039289E-04
  0.439799994        -1.08435954E-04
  0.441599995        -4.89164668E-05
  0.443399996         1.03490602E-05
  0.445199996         6.91923051E-05
  0.446999997         1.27447362E-04
  0.448799998         1.84951248E-04
  0.450599998         2.41544592E-04
  0.452399999         2.97072082E-04
  0.454200000         3.51383060E-04
  0.456000000         4.04332008E-04
  0.457800001         4.55778994E-04
  0.459600002         5.05590113E-04
  0.461400002         5.53637918E-04
  0.463200003         5.99801773E-04
  0.465000004         6.43968116E-04
  0.466800004         6.86030835E-04
  0.468600005         7.25891558E-04
  0.470400006         7.63459713E-04
  0.472200006         7.98652822E-04
  0.474000007         8.31396435E-04
  0.475800008         8.61624605E-04
  0.477600008         8.89279589E-04
  0.479400009         9.14311677E-04
  0.481200010         9.36679950E-04
  0.483000010         9.56351229E-04
  0.484800011         9.73300834E-04
  0.486600012         9.87511943E-04
  0.488400012         9.98975825E-04
  0.490200013         1.00769103E-03
  0.492000014         1.01366395E-03
  0.493800014         1.01690809E-03
  0.495599985         1.01744430E-03
  0.497399986         1.01529993E-03
  0.499199986         1.01050932E-03
  0.500999987         1.00311288E-03
  0.502799988         9.93156922E-04
  0.504599988         9.80694080E-04
  0.506399989         9.65782325E-04
  0.508199990         9.48484696E-04
  0.509999990         9.28869529E-04
  0.511799991         9.07009759E-04
  0.513599992         8.82982858E-04
  0.515399992         8.56870727E-04
  0.517199993         8.28759279E-04
  0.518999994         7.98738154E-04
  0.520799994         7.66900368E-04
  0.522599995         7.33342604E-04
  0.524399996         6.98164571E-04
  0.526199996         6.61468774E-04
  0.527999997         6.23360451E-04
  0.529799998         5.83947462E-04
  0.531599998         5.43339760E-04
  0.533399999         5.01649338E-04
  0.535200000         4.58990253E-04
  0.537000000         4.15477873E-04
  0.538800001         3.71229253E-04
  0.540600002         3.26362584E-04
  0.542400002         2.80996901E-04
  0.544200003         2.35252010E-04
  0.546000004         1.89248298E-04
  0.547800004         1.43106285E-04
  0.549600005         9.69465182E-05
  0.551400006         5.08892153E-05
  0.553200006         5.05407024E-06
  0.555000007        -4.04400744E-05
  0.556800008        -8.54755126E-05
  0.558600008        -1.29935943E-04
  0.560400009        -1.73706794E-04
  0.562200010        -2.16675500E-04
  0.564000010        -2.58731860E-04
  0.565800011        -2.99768202E-04
  0.567600012        -3.39679827E-04
  0.569400012        -3.78365279E-04
  0.571200013        -4.15726507E-04
  0.573000014        -4.51669272E-04
  0.574800014        -4.86103469E-04
  0.576600015        -5.18943125E-04
  0.578400016        -5.50106924E-04
  0.580200016        -5.79518324E-04
  0.582000017        -6.07105729E-04
  0.583800018        -6.32802607E-04
  0.585600019        -6.56547956E-04
  0.587400019        -6.78286073E-04
  0.589200020        -6.97967014E-04
  0.591000021        -7.15546426E-04
  0.592800021        -7.30985892E-04
  0.594600022        -7.44252407E-04
  0.596400023        -7.55319314E-04
  0.598200023        -7.64165598E-04
  0.600000024        -7.70775951E-04
  0.601800025        -7.75141118E-04
  0.603600025        -7.77257432E-04
  0.605400026        -7.77126988E-04
  0.607200027        -7.74757355E-04
  0.609000027        -7.70161627E-04
  0.610800028        -7.63358257E-04
  0.612600029        -7.54370820E-04
  0.614400029        -7.43228127E-04
  0.616199970        -7.29963824E-04
  0.617999971        -7.14616326E-04
  0.619799972        -6.97228883E-04
  0.621599972        -6.77848991E-04
  0.623399973        -6.56528689E-04
  0.625199974        -6.33324089E-04
  0.626999974        -6.08295319E-04
  0.628799975        -5.81506640E-04
  0.630599976        -5.53026097E-04
  0.632399976        -5.22925344E-04
  0.634199977        -4.91279643E-04
  0.635999978        -4.58167837E-04
  0.637799978        -4.23672202E-04
  0.639599979        -3.87878274E-04
  0.641399980        -3.50874994E-04
  0.643199980        -3.12754360E-04
  0.644999981        -2.73611542E-04
  0.646799982        -2.33544779E-04
  0.648599982        -1.92655323E-04
  0.650399983        -1.51047308E-04
  0.652199984        -1.08827808E-04
  0.653999984        -6.61065860E-05
  0.655799985        -2.29960860E-05
  0.657599986         2.03886684E-05
  0.659399986         6.39302380E-05
  0.661199987         1.07508909E-04
  0.662999988         1.51002852E-04
  0.664799988         1.94288339E-04
  0.666599989         2.37239918E-04
  0.668399990         2.79730710E-04
  0.670199990         3.21632746E-04
  0.671999991         3.62817111E-04
  0.673799992         4.03154467E-04
  0.675599992         4.42515389E-04
  0.677399993         4.80770657E-04
  0.679199994         5.17791836E-04
  0.680999994         5.53451828E-04
  0.682799995         5.87624963E-04
  0.684599996         6.20188017E-04
  0.686399996         6.51020440E-04
  0.688199997         6.80005236E-04
  0.689999998         7.07029016E-04
  0.691799998         7.31983222E-04
  0.693599999         7.54764129E-04
  0.695400000         7.75274122E-04
  0.697200000         7.93421525E-04
  0.699000001         8.09121877E-04
  0.700800002         8.22297996E-04
  0.702600002         8.32880964E-04
  0.704400003         8.40810302E-04
  0.706200004         8.46034847E-04
  0.708000004         8.48512864E-04
  0.709800005         8.48212570E-04
  0.711600006         8.45112721E-04
  0.713400006         8.39202665E-04
  0.715200007         8.30482866E-04
  0.717000008         8.18964909E-04
  0.718800008         8.04671727E-04
  0.720600009         7.87637837E-04
  0.722400010         7.67908932E-04
  0.724200010         7.45542522E-04
  0.726000011         7.20607117E-04
  0.727800012         6.93182461E-04
  0.729600012         6.63359126E-04
  0.731400013         6.31238276E-04
  0.733200014         5.96930971E-04
  0.735000014         5.60558168E-04
  0.736800015         5.22249844E-04
  0.738600016         4.82144300E-04
  0.740400016         4.40387928E-04
  0.742200017         3.97134223E-04
  0.744000018         3.52543080E-04
  0.745800018         3.06780013E-04
  0.747600019         2.60015309E-04
  0.749400020         2.12423256E-04
  0.751200020         1.64181081E-04
  0.753000021         1.15468283E-04
  0.754800022         6.64655527E-05
  0.756600022         1.73539447E-05
  0.758400023        -3.16860896E-05
  0.760200024        -8.04755546E-05
  0.762000024        -1.28837812E-04
  0.763800025        -1.76599409E-04
  0.765600026        -2.23591007E-04
  0.767400026        -2.69648037E-04
  0.769200027        -3.14611592E-04
  0.771000028        -3.58329096E-04
  0.772800028        -4.00654855E-04
  0.774600029        -4.41450917E-04
  0.776400030        -4.80587420E-04
  0.778199971        -5.17943176E-04
  0.779999971        -5.53406135E-04
  0.781799972        -5.86873619E-04
  0.783599973        -6.18252961E-04
  0.785399973        -6.47461216E-04
  0.787199974        -6.74426090E-04
  0.788999975        -6.99085242E-04
  0.790799975        -7.21386983E-04
  0.792599976        -7.41290161E-04
  0.794399977        -7.58763519E-04
  0.796199977        -7.73786451E-04
  0.797999978        -7.86348246E-04
  0.799799979        -7.96447915E-04
  0.801599979        -8.04094190E-04
  0.803399980        -8.09304824E-04
  0.805199981        -8.12106591E-04
  0.806999981        -8.12534650E-04
  0.808799982        -8.10632075E-04
  0.810599983        -8.06449621E-04
  0.812399983        -8.00045091E-04
  0.814199984        -7.91482744E-04
  0.815999985        -7.80832896E-04
  0.817799985        -7.68171332E-04
  0.819599986        -7.53578788E-04
  0.821399987        -7.37140363E-04
  0.823199987        -7.18944881E-04
  0.824999988        -6.99084718E-04
  0.826799989        -6.77654694E-04
  0.828599989        -6.54751959E-04
  0.830399990        -6.30475348E-04
  0.832199991        -6.04924920E-04
  0.833999991        -5.78201318E-04
  0.835799992        -5.50405588E-04
  0.837599993        -5.21638314E-04
  0.839399993        -4.91999672E-04
  0.841199994        -4.61588817E-04
  0.842999995        -4.30503482E-04
  0.844799995        -3.98839707E-04
  0.846599996        -3.66691558E-04
  0.848399997        -3.34150798E-04
  0.850199997        -3.01306718E-04
  0.851999998        -2.68245873E-04
  0.853799999        -2.35051892E-04
  0.855599999        -2.01805364E-04
  0.857400000        -1.68583691E-04
  0.859200001        -1.35461072E-04
  0.861000001        -1.02508282E-04
  0.862800002        -6.97927753E-05
  0.864600003        -3.73786133E-05
  0.866400003        -5.32648210E-06
  0.868200004         2.63062575E-05
  0.870000005         5.74655060E-05
  0.871800005         8.81003871E-05
  0.873600006         1.18163094E-04
  0.875400007         1.47608851E-04
  0.877200007         1.76395755E-04
  0.879000008         2.04484590E-04
  0.880800009         2.31838771E-04
  0.882600009         2.58424086E-04
  0.884400010         2.84208654E-04
  0.886200011         3.09162628E-04
  0.888000011         3.33258155E-04
  0.889800012         3.56469071E-04
  0.891600013         3.78770928E-04
  0.893400013         4.00140591E-04
  0.895200014         4.20556345E-04
  0.897000015         4.39997501E-04
  0.898800015         4.58444410E-04
  0.900600016         4.75878303E-04
  0.902400017         4.92281164E-04
  0.904200017         5.07635763E-04
  0.906000018         5.21925220E-04
  0.907800019         5.35133353E-04
  0.909600019         5.47244272E-04
  0.911400020         5.58242726E-04
  0.913200021         5.68113639E-04
  0.915000021         5.76842518E-04
  0.916800022         5.84415335E-04
  0.918600023         5.90818236E-04
  0.920400023         5.96038124E-04
  0.922200024         6.00062544E-04
  0.924000025         6.02879503E-04
  0.925800025         6.04478060E-04
  0.927600026         6.04847912E-04
  0.929400027         6.03980036E-04
  0.931200027         6.01866515E-04
  0.933000028         5.98500948E-04
  0.934800029         5.93878329E-04
  0.936600029         5.87995339E-04
  0.938399971         5.80850756E-04
  0.940199971         5.72445395E-04
  0.941999972         5.62782225E-04
  0.943799973         5.51866950E-04
  0.945599973         5.39707660E-04
  0.947399974         5.26315533E-04
  0.949199975         5.11704711E-04
  0.950999975         4.95892542E-04
  0.952799976         4.78899747E-04
  0.954599977         4.60750511E-04
  0.956399977         4.41472803E-04
  0.958199978         4.21098230E-04
  0.959999979         3.99662356E-04
  0.961799979         3.77204618E-04
  0.963599980         3.53768468E-04
  0.965399981         3.29401344E-04
  0.967199981         3.04154702E-04
  0.968999982         2.78084073E-04
  0.970799983         2.51248945E-04
  0.972599983         2.23712574E-04
  0.974399984         1.95542118E-04
  0.976199985         1.66808284E-04
  0.977999985         1.37585332E-04
  0.979799986         1.07950735E-04
  0.981599987         7.79851034E-05
  0.983399987         4.77718131E-05
  0.985199988         1.73968256E-05
  0.986999989        -1.30516855E-05
  0.988799989        -4.34836220E-05
  0.990599990        -7.38073213E-05
  0.992399991        -1.03929924E-04
  0.994199991        -1.33757785E-04
  0.995999992        -1.63196877E-04
  0.997799993        -1.92153238E-04
  0.999599993        -2.20533373E-04
   1.00139999        -2.48244760E-04
   1.00320005        -2.75196304E-04
   1.00500000        -3.01298744E-04
   1.00680006        -3.26465262E-04
   1.00860000        -3.50611837E-04
   1.01040006        -3.73657764E-04
   1.01220000        -3.95526033E-04
   1.01400006        -4.16144001E-04
   1.01580000        -4.35443653E-04
   1.01760006        -4.53361921E-04
   1.01940000        -4.69841325E-04
   1.02119994        -4.84830322E-04
   1.02300000        -4.98283363E-04
   1.02479994        -5.10161510E-04
   1.02660000        -5.20432775E-04
   1.02839994        -5.29071898E-04
   1.03020000        -5.36061125E-04
   1.03199995        -5.41389920E-04
   1.03380001        -5.45055256E-04
   1.03559995        -5.47061733E-04
   1.03740001        -5.47421572E-04
   1.03919995        -5.46154275E-04
   1.04100001        -5.43287082E-04
   1.04279995        -5.38854278E-04
   1.04460001        -5.32897364E-04
   1.04639995        -5.25464653E-04
   1.04820001        -5.16610919E-04
   1.04999995        -5.06397337E-04
   1.05180001        -4.94890613E-04
   1.05359995        -4.82163014E-04
   1.05540001        -4.68291488E-04
   1.05719995        -4.53357439E-04
   1.05900002        -4.37445939E-04
   1.06079996        -4.20645199E-04
   1.06260002        -4.03046113E-04
   1.06439996        -3.84741317E-04
   1.06620002        -3.65824759E-04
   1.06799996        -3.46390880E-04
   1.06980002        -3.26534093E-04
   1.07159996        -3.06347938E-04
   1.07340002        -2.85924529E-04
   1.07519996        -2.65353883E-04
   1.07700002        -2.44723255E-04
   1.07879996        -2.24116477E-04
   1.08060002        -2.03613527E-04
   1.08239996        -1.83289900E-04
   1.08420002        -1.63216129E-04
   1.08599997        -1.43457321E-04
   1.08780003        -1.24072831E-04
   1.08959997        -1.05115818E-04
   1.09140003        -8.66331175E-05
   1.09319997        -6.86649364E-05
   1.09500003        -5.12447623E-05
   1.09679997        -3.43992506E-05
   1.09860003        -1.81483010E-05
   1.10039997        -2.50507901E-06
   1.10220003         1.25238512E-05
   1.10399997         2.69382763E-05
   1.10580003         4.07440784E-05
   1.10759997         5.39528919E-05
   1.10940003         6.65816988E-05
   1.11119998         7.86523815E-05
   1.11300004         9.01911917E-05
   1.11479998         1.01228237E-04
   1.11660004         1.11796828E-04
   1.11839998         1.21932950E-04
   1.12020004         1.31674489E-04
   1.12199998         1.41060693E-04
   1.12380004         1.50131396E-04
   1.12559998         1.58926399E-04
   1.12740004         1.67484701E-04
   1.12919998         1.75843990E-04
   1.13100004         1.84039905E-04
   1.13279998         1.92105392E-04
   1.13460004         2.00070237E-04
   1.13639998         2.07960460E-04
   1.13820004         2.15797831E-04
   1.13999999         2.23599476E-04
   1.14180005         2.31377548E-04
   1.14359999         2.39138826E-04
   1.14540005         2.46884563E-04
   1.14719999         2.54610291E-04
   1.14900005         2.62305723E-04
   1.15079999         2.69954879E-04
   1.15260005         2.77535903E-04
   1.15439999         2.85021408E-04
   1.15620005         2.92378652E-04