 -0.300000012         1.00000002E-24
 -0.298200011         1.00000002E-24
 -0.296400011         1.00000002E-24
 -0.294600010         1.00000002E-24
 -0.292800009         1.00000002E-24
 -0.291000009         1.00000002E-24
 -0.289200008         1.00000002E-24
 -0.287400007         1.00000002E-24
 -0.285600007         1.00000002E-24
 -0.283800006         1.00000002E-24
 -0.282000005         1.00000002E-24
 -0.280200005         1.00000002E-24
 -0.278400004         1.00000002E-24
 -0.276600003         1.00000002E-24
 -0.274800003         1.00000002E-24
 -0.273000002         1.00000002E-24
 -0.271200001         1.00000002E-24
 -0.269400001         1.00000002E-24
 -0.267600000         1.00000002E-24
 -0.265799999         1.00000012E-24
 -0.263999999         1.00000022E-24
 -0.262199998         1.00000022E-24
 -0.260399997         1.00000022E-24
 -0.258599997         1.00000022E-24
 -0.256799996         1.00000022E-24
 -0.254999995         1.00000022E-24
 -0.253199995         1.00000022E-24
 -0.251399994         1.00000022E-24
 -0.249599993         1.00000022E-24
 -0.247799993         1.00000022E-24
 -0.246000007         1.00000022E-24
 -0.244200006         1.00000022E-24
 -0.242400005         1.00000022E-24
 -0.240600005         1.00000022E-24
 -0.238800004         1.00000022E-24
 -0.237000003         1.00000022E-24
 -0.235200003         1.00000022E-24
 -0.233400002         1.00000022E-24
 -0.231600001         1.00000022E-24
 -0.229800001         1.00000022E-24
 -0.228000000         1.00000032E-24
 -0.226199999         1.00000032E-24
 -0.224399999         1.00000032E-24
 -0.222599998         1.00000032E-24
 -0.220799997         1.00000032E-24
 -0.218999997         1.00000032E-24
 -0.217199996         1.00000032E-24
 -0.215399995         1.00000032E-24
 -0.213599995         1.00000032E-24
 -0.211799994         1.00000032E-24
 -0.209999993         1.00000032E-24
 -0.208199993         1.00000022E-24
 -0.206400007         1.00000022E-24
 -0.204600006         1.00000022E-24
 -0.202800006         1.00000022E-24
 -0.201000005         1.00000022E-24
 -0.199200004         1.00000022E-24
 -0.197400004         1.00000012E-24
 -0.195600003         1.00000012E-24
 -0.193800002         1.00000012E-24
 -0.192000002         1.00000002E-24
 -0.190200001         1.00000002E-24
 -0.188400000         1.00000002E-24
 -0.186600000         1.00000002E-24
 -0.184799999         1.00000002E-24
 -0.182999998         1.00000002E-24
 -0.181199998         9.99999921E-25
 -0.179399997         9.99999921E-25
 -0.177599996         9.99999822E-25
 -0.175799996         9.99999822E-25
 -0.173999995         9.99999822E-25
 -0.172199994         9.99999724E-25
 -0.170399994         9.99999724E-25
 -0.168599993         9.99999822E-25
 -0.166800007         9.99999822E-25
 -0.165000007         9.99999822E-25
 -0.163200006         9.99999921E-25
 -0.161400005         1.00000002E-24
 -0.159600005         1.00000012E-24
 -0.157800004         1.00000022E-24
 -0.156000003         1.00000032E-24
 -0.154200003         1.00000051E-24
 -0.152400002         1.00000051E-24
 -0.150600001         1.00000061E-24
 -0.148800001         1.00000071E-24
 -0.147000000         1.00000071E-24
 -0.145199999         1.00000071E-24
 -0.143399999         1.00000061E-24
 -0.141599998         1.00000061E-24
 -0.139799997         1.00000051E-24
 -0.137999997         1.00000022E-24
 -0.136199996         1.00000002E-24
 -0.134399995         9.99999822E-25
 -0.132599995         9.99999625E-25
 -0.130799994         9.99999428E-25
 -0.128999993         9.99999231E-25
 -0.127200007         9.99999231E-25
 -0.125400007         9.99999132E-25
 -0.123599999         9.99999231E-25
 -0.121799998         9.99999329E-25
 -0.119999997         9.99999625E-25
 -0.118199997         9.99999822E-25
 -0.116400003         1.00000012E-24
 -0.114600003         1.00000041E-24
 -0.112800002         1.00000071E-24
 -0.111000001         1.00000110E-24
 -0.109200001         1.00000140E-24
 -0.107400000         1.00000160E-24
 -0.105599999         1.00000170E-24
 -0.103799999         1.00000170E-24
 -0.101999998         1.00000160E-24
 -0.100199997         1.00000140E-24
  -9.83999968E-02     1.00000110E-24
  -9.66000035E-02     1.00000081E-24
  -9.48000029E-02     1.00000041E-24
  -9.30000022E-02     1.00000002E-24
  -9.12000015E-02     9.99999724E-25
  -8.94000009E-02     9.99999428E-25
  -8.76000002E-02     9.99999132E-25
  -8.57999995E-02     9.99998935E-25
  -8.39999989E-02     9.99998935E-25
  -8.21999982E-02     9.99998935E-25
  -8.03999975E-02     9.99999033E-25
  -7.85999969E-02     9.99999132E-25
  -7.68000036E-02     9.99999329E-25
  -7.50000030E-02     9.99999527E-25
  -7.32000023E-02     9.99999724E-25
  -7.14000016E-02     9.99999921E-25
  -6.96000010E-02     1.00000012E-24
  -6.78000003E-02     1.00000022E-24
  -6.59999996E-02     1.00000022E-24
  -6.41999990E-02     1.00000022E-24
  -6.23999983E-02     1.00000022E-24
  -6.06000014E-02     1.00000012E-24
  -5.88000007E-02     1.00000002E-24
  -5.70000000E-02     9.99999921E-25
  -5.51999994E-02     9.99999822E-25
  -5.33999987E-02     9.99999724E-25
  -5.16000018E-02     9.99999625E-25
  -4.98000011E-02     9.99999625E-25
  -4.80000004E-02     9.99999724E-25
  -4.61999997E-02     9.99999921E-25
  -4.43999991E-02     1.00000012E-24
  -4.25999984E-02     1.00000041E-24
  -4.08000015E-02     1.00000061E-24
  -3.90000008E-02     1.00000081E-24
  -3.72000001E-02     1.00000110E-24
  -3.53999995E-02     1.00000130E-24
  -3.35999988E-02     1.00000140E-24
  -3.18000019E-02     1.00000150E-24
  -2.99999993E-02     1.00000150E-24
  -2.82000005E-02     1.00000150E-24
  -2.63999999E-02     1.00000140E-24
  -2.45999992E-02     1.00000120E-24
  -2.28000004E-02     1.00000101E-24
  -2.09999997E-02     1.00000081E-24
  -1.92000009E-02     1.00000051E-24
  -1.74000002E-02     1.00000032E-24
  -1.55999996E-02     1.00000012E-24
  -1.37999998E-02     9.99999822E-25
  -1.20000001E-02     9.99999724E-25
  -1.02000004E-02     9.99999527E-25
  -8.39999970E-03     9.99999428E-25
  -6.59999996E-03     9.99999428E-25
  -4.80000023E-03     9.99999329E-25
  -3.00000003E-03     9.99999329E-25
  -1.20000006E-03     9.99999329E-25
   6.00000028E-04     9.99999231E-25
   2.40000011E-03     9.99999231E-25
   4.19999985E-03     9.99999231E-25
   6.00000005E-03     9.99999231E-25
   7.79999979E-03     9.99999231E-25
   9.60000046E-03     9.99999231E-25
   1.14000002E-02     9.99999329E-25
   1.31999999E-02     9.99999428E-25
   1.49999997E-02     9.99999428E-25
   1.67999994E-02     9.99999527E-25
   1.86000001E-02     9.99999724E-25
   2.04000007E-02     9.99999921E-25
   2.21999995E-02     1.00000012E-24
   2.40000002E-02     1.00000032E-24
   2.58000009E-02     1.00000041E-24
   2.75999997E-02     1.00000051E-24
   2.94000003E-02     1.00000071E-24
   3.11999992E-02     1.00000081E-24
   3.29999998E-02     1.00000081E-24
   3.48000005E-02     1.00000071E-24
   3.66000012E-02     1.00000051E-24
   3.84000018E-02     1.00000032E-24
   4.01999988E-02     1.00000002E-24
   4.19999994E-02     9.99999822E-25
   4.38000001E-02     9.99999527E-25
   4.56000008E-02     9.99999231E-25
   4.74000014E-02     9.99999132E-25
   4.91999984E-02     9.99999033E-25
   5.09999990E-02     9.99999033E-25
   5.27999997E-02     9.99999231E-25
   5.46000004E-02     9.99999625E-25
   5.64000010E-02     1.00000012E-24
   5.82000017E-02     1.00000081E-24
   5.99999987E-02     1.00000170E-24
   6.17999993E-02     1.00000278E-24
   6.36000037E-02     1.00000406E-24
   6.53999969E-02     1.00000544E-24
   6.71999976E-02     1.00000702E-24
   6.89999983E-02     1.00000880E-24
   7.07999989E-02     1.00001087E-24
   7.25999996E-02     1.00001313E-24
   7.44000003E-02     1.00001570E-24
   7.62000009E-02     1.00001866E-24
   7.80000016E-02     1.00002191E-24
   7.98000023E-02     1.00002556E-24
   8.16000029E-02     1.00002970E-24
   8.34000036E-02     1.00003414E-24
   8.51999968E-02     1.00003867E-24
   8.69999975E-02     1.00004331E-24
   8.87999982E-02     1.00004775E-24
   9.05999988E-02     1.00005139E-24
   9.23999995E-02     1.00005366E-24
   9.42000002E-02     1.00005376E-24
   9.60000008E-02     1.00005090E-24
   9.78000015E-02     1.00004360E-24
   9.96000022E-02     1.00003049E-24
  0.101400003         1.00000978E-24
  0.103200004         9.99979411E-25
  0.104999997         9.99936911E-25
  0.106799997         9.99879620E-25
  0.108599998         9.99804678E-25
  0.110399999         9.99708634E-25
  0.112199999         9.99588136E-25
  0.114000000         9.99439337E-25
  0.115800001         9.99258688E-25
  0.117600001         9.99042638E-25
  0.119400002         9.98787738E-25
  0.121200003         9.98491520E-25
  0.123000003         9.98152211E-25
  0.124799997         9.97769220E-25
  0.126599997         9.97344023E-25
  0.128399998         9.96880568E-25
  0.130199999         9.96385755E-25
  0.131999999         9.95870530E-25
  0.133800000         9.95350769E-25
  0.135600001         9.94848363E-25
  0.137400001         9.94392500E-25
  0.139200002         9.94020651E-25
  0.141000003         9.93780147E-25
  0.142800003         9.93729660E-25
  0.144600004         9.93940286E-25
  0.146400005         9.94497320E-25
  0.148200005         9.95501442E-25
  0.150000006         9.97069598E-25
  0.151800007         9.99336094E-25
  0.153600007         1.00245288E-24
  0.155399993         1.00658957E-24
  0.157199994         1.01193223E-24
  0.158999994         1.01868172E-24
  0.160799995         1.02705144E-24
  0.162599996         1.03726206E-24
  0.164399996         1.04953654E-24
  0.166199997         1.06409181E-24
  0.167999998         1.08112943E-24
  0.169799998         1.10082266E-24
  0.171599999         1.12330233E-24
  0.173400000         1.14863759E-24
  0.175200000         1.17681550E-24
  0.177000001         1.20771558E-24
  0.178800002         1.24108143E-24
  0.180600002         1.27648827E-24
  0.182400003         1.31330707E-24
  0.184200004         1.35066506E-24
  0.186000004         1.38740202E-24
  0.187800005         1.42202522E-24
  0.189600006         1.45266044E-24
  0.191400006         1.47700330E-24
  0.193200007         1.49226983E-24
  0.194999993         1.49514750E-24
  0.196799994         1.48175136E-24
  0.198599994         1.44758451E-24
  0.200399995         1.38750634E-24
  0.202199996         1.29571262E-24
  0.203999996         1.16572983E-24
  0.205799997         9.90427192E-25
  0.207599998         7.62052108E-25
  0.209399998         4.72292059E-25
  0.211199999         1.12368922E-25
  0.213000000        -3.26829116E-25
  0.214800000        -8.54573709E-25
  0.216600001        -1.48007375E-24
  0.218400002        -2.21219889E-24
  0.220200002        -3.05914441E-24
  0.222000003        -4.02803264E-24
  0.223800004        -5.12444596E-24
  0.225600004        -6.35188908E-24
  0.227400005        -7.71117451E-24
  0.229200006        -9.19973926E-24
  0.231000006        -1.08108827E-23
  0.232800007        -1.25329377E-23
  0.234599993        -1.43483685E-23
  0.236399993        -1.62328216E-23
  0.238199994        -1.81541254E-23
  0.239999995        -2.00712483E-23
  0.241799995        -2.19332614E-23
  0.243599996        -2.36782896E-23
  0.245399997        -2.52325096E-23
  0.247199997        -2.65091974E-23
  0.248999998        -2.74078867E-23
  0.250800014        -2.78136452E-23
  0.252600014        -2.75965443E-23
  0.254400015        -2.66113360E-23
  0.256199986        -2.46973953E-23
  0.257999986        -2.16789926E-23
  0.259799987        -1.73659209E-23
  0.261599988        -1.15545498E-23
  0.263399988        -4.02934097E-24
  0.265199989         5.43512187E-24
  0.266999990         1.70715464E-23
  0.268799990         3.11167478E-23
  0.270599991         4.78078581E-23
  0.272399992         6.73778973E-23
  0.274199992         9.00507064E-23
  0.275999993         1.16035229E-22
  0.277799994         1.45519227E-22
  0.279599994         1.78662430E-22
  0.281399995         2.15589198E-22
  0.283199996         2.56380829E-22
  0.284999996         3.01067439E-22
  0.286799997         3.49619973E-22
  0.288599998         4.01942049E-22
  0.290399998         4.57861988E-22
  0.292199999         5.17125511E-22
  0.294000000         5.79388825E-22
  0.295800000         6.44212694E-22
  0.297600001         7.11057965E-22
  0.299400002         7.79282089E-22
  0.301200002         8.48137504E-22
  0.303000003         9.16771987E-22
  0.304800004         9.84231232E-22
  0.306600004         1.04946329E-21
  0.308400005         1.11132574E-21
  0.310200006         1.16859567E-21
  0.312000006         1.21998104E-21
  0.313800007         1.26413524E-21
  0.315600008         1.29967290E-21
  0.317400008         1.32518797E-21
  0.319200009         1.33927155E-21
  0.321000010         1.34053050E-21
  0.322800010         1.32760519E-21
  0.324600011         1.29918479E-21
  0.326400012         1.25401843E-21
  0.328200012         1.19092228E-21
  0.330000013         1.10877806E-21
  0.331800014         1.00652260E-21
  0.333600014         8.83125467E-22
  0.335399985         7.37551978E-22
  0.337199986         5.68708633E-22
  0.338999987         3.75368594E-22
  0.340799987         1.56073467E-22
  0.342599988        -9.09913694E-23
  0.344399989        -3.68150631E-22
  0.346199989        -6.78426689E-22
  0.347999990        -1.02576030E-21
  0.349799991        -1.41527008E-21
  0.351599991        -1.85355100E-21
  0.353399992        -2.34901280E-21
  0.355199993        -2.91225838E-21
  0.356999993        -3.55650343E-21
  0.358799994        -4.29803127E-21
  0.360599995        -5.15668392E-21
  0.362399995        -6.15638097E-21
  0.364199996        -7.32565691E-21
  0.365999997        -8.69822015E-21
  0.367799997        -1.03135019E-20
  0.369599998        -1.22171975E-20
  0.371399999        -1.44617764E-20
  0.373199999        -1.71069416E-20
  0.375000000        -2.02200213E-20
  0.376800001        -2.38762517E-20
  0.378600001        -2.81589406E-20
  0.380400002        -3.31594671E-20
  0.382200003        -3.89770833E-20
  0.384000003        -4.57185051E-20
  0.385800004        -5.34971856E-20
  0.387600005        -6.24323162E-20
  0.389400005        -7.26474604E-20
  0.391200006        -8.42687341E-20
  0.393000007        -9.74226313E-20
  0.394800007        -1.12233261E-19
  0.396600008        -1.28819060E-19
  0.398400009        -1.47289059E-19
  0.400200009        -1.67738244E-19
  0.402000010        -1.90242649E-19
  0.403800011        -2.14853430E-19
  0.405600011        -2.41590480E-19
  0.407400012        -2.70435250E-19
  0.409200013        -3.01322975E-19
  0.411000013        -3.34134077E-19
  0.412800014        -3.68685152E-19
  0.414600015        -4.04719259E-19
  0.416399986        -4.41895703E-19
  0.418199986        -4.79779593E-19
  0.419999987        -5.17830935E-19
  0.421799988        -5.55393827E-19
  0.423599988        -5.91685601E-19
  0.425399989        -6.25786070E-19
  0.427199990        -6.56627809E-19
  0.428999990        -6.82986798E-19
  0.430799991        -7.03474201E-19
  0.432599992        -7.16529851E-19
  0.434399992        -7.20417238E-19
  0.436199993        -7.13220818E-19
  0.437999994        -6.92846119E-19
  0.439799994        -6.57022633E-19
  0.441599995        -6.03310229E-19
  0.443399996        -5.29109956E-19
  0.445199996        -4.31679066E-19
  0.446999997        -3.08150912E-19
  0.448799998        -1.55560801E-19
  0.450599998         2.91226577E-20
  0.452399999         2.48959496E-19
  0.454200000         5.06993576E-19
  0.456000000         8.06200469E-19
  0.457800001         1.14942785E-18
  0.459600002         1.53932811E-18
  0.461400002         1.97828309E-18
  0.463200003         2.46832018E-18
  0.465000004         3.01102222E-18
  0.466800004         3.60742688E-18
  0.468600005         4.25792172E-18
  0.470400006         4.96212870E-18
  0.472200006         5.71878720E-18
  0.474000007         6.52562703E-18
  0.475800008         7.37924102E-18
  0.477600008         8.27495272E-18
  0.479400009         9.20668152E-18
  0.481200010         1.01668116E-17
  0.483000010         1.11460652E-17
  0.484800011         1.21333731E-17
  0.486600012         1.31157617E-17
  0.488400012         1.40782418E-17
  0.490200013         1.50037246E-17
  0.492000014         1.58729441E-17
  0.493800014         1.66643955E-17
  0.495599985         1.73543220E-17
  0.497399986         1.79167056E-17
  0.499199986         1.83233013E-17
  0.500999987         1.85437118E-17
  0.502799988         1.85455068E-17
  0.504599988         1.82943781E-17
  0.506399989         1.77543582E-17
  0.508199990         1.68880850E-17
  0.509999990         1.56571344E-17
  0.511799991         1.40224170E-17
  0.513599992         1.19446311E-17
  0.515399992         9.38480328E-18
  0.517199993         6.30488809E-18
  0.518999994         2.66845157E-18
  0.520799994        -1.55857516E-18
  0.522599995        -6.40706061E-18
  0.524399996        -1.19037742E-17
  0.526199996        -1.80703974E-17
  0.527999997        -2.49224804E-17
  0.529799998        -3.24683412E-17
  0.531599998        -4.07078807E-17
  0.533399999        -4.96313893E-17
  0.535200000        -5.92182836E-17
  0.537000000        -6.94358435E-17
  0.538800001        -8.02379289E-17
  0.540600002        -9.15637057E-17
  0.542400002        -1.03336438E-16
  0.544200003        -1.15462237E-16
  0.546000004        -1.27828998E-16
  0.547800004        -1.40305383E-16
  0.549600005        -1.52739959E-16
  0.551400006        -1.64960408E-16
  0.553200006        -1.76773156E-16
  0.555000007        -1.87962937E-16
  0.556800008        -1.98292888E-16
  0.558600008        -2.07504781E-16
  0.560400009        -2.15319706E-16
  0.562200010        -2.21439056E-16
  0.564000010        -2.25545974E-16
  0.565800011        -2.27307300E-16
  0.567600012        -2.26375908E-16
  0.569400012        -2.22393662E-16
  0.571200013        -2.14994869E-16
  0.573000014        -2.03810421E-16
  0.574800014        -1.88472361E-16
  0.576600015        -1.68619259E-16
  0.578400016        -1.43902070E-16
  0.580200016        -1.13990716E-16
  0.582000017        -7.85811788E-17
  0.583800018        -3.74033305E-17
  0.585600019         9.77083689E-18
  0.587400019         6.31183607E-17
  0.589200020         1.22756025E-16
  0.591000021         1.88730693E-16
  0.592800021         2.61009444E-16
  0.594600022         3.39469285E-16
  0.596400023         4.23887077E-16
  0.598200023         5.13929459E-16
  0.600000024         6.09142950E-16
  0.601800025         7.08944342E-16
  0.603600025         8.12611911E-16
  0.605400026         9.19277658E-16
  0.607200027         1.02791990E-15
  0.609000027         1.13735762E-15
  0.610800028         1.24624656E-15
  0.612600029         1.35307637E-15
  0.614400029         1.45617066E-15
  0.616199970         1.55368861E-15
  0.617999971         1.64362932E-15
  0.619799972         1.72383974E-15
  0.621599972         1.79202420E-15
  0.623399973         1.84575954E-15
  0.625199974         1.88251061E-15
  0.626999974         1.89965307E-15
  0.628799975         1.89449739E-15
  0.630599976         1.86431803E-15
  0.632399976         1.80638649E-15
  0.634199977         1.71800929E-15
  0.635999978         1.59656859E-15
  0.637799978         1.43956796E-15
  0.639599979         1.24468199E-15
  0.641399980         1.00980896E-15
  0.643199980         7.33127821E-16
  0.644999981         4.13156784E-16
  0.646799982         4.88157859E-17
  0.648599982        -3.60510087E-16
  0.650399983        -8.14905676E-16
  0.652199984        -1.31386065E-15
  0.653999984        -1.85620452E-15
  0.655799985        -2.44004294E-15
  0.657599986        -3.06269771E-15
  0.659399986        -3.72064812E-15
  0.661199987        -4.40948073E-15
  0.662999988        -5.12384121E-15
  0.664799988        -5.85739758E-15
  0.666599989        -6.60280987E-15
  0.668399990        -7.35171235E-15
  0.670199990        -8.09470509E-15
  0.671999991        -8.82136195E-15
  0.673799992        -9.52025222E-15
  0.675599992        -1.01789770E-14
  0.677399993        -1.07842278E-14
  0.679199994        -1.13218608E-14
  0.680999994        -1.17769860E-14
  0.682799995        -1.21340934E-14
  0.684599996        -1.23771825E-14
  0.686399996        -1.24899269E-14
  0.688199997        -1.24558541E-14
  0.689999998        -1.22585564E-14
  0.691799998        -1.18819131E-14
  0.693599999        -1.13103445E-14
  0.695400000        -1.05290837E-14
  0.697200000        -9.52446282E-15
  0.699000001        -8.28422532E-15
  0.700800002        -6.79784640E-15
  0.702600002        -5.05687225E-15
  0.704400003        -3.05526076E-15
  0.706200004        -7.89735351E-16
  0.708000004         1.73986317E-15
  0.709800005         4.53022824E-15
  0.711600006         7.57424654E-15
  0.713400006         1.08606734E-14
  0.715200007         1.43738222E-14
  0.717000008         1.80932895E-14
  0.718800008         2.19937034E-14
  0.720600009         2.60445165E-14
  0.722400010         3.02098536E-14
  0.724200010         3.44483963E-14
  0.726000011         3.87133427E-14
  0.727800012         4.29524377E-14
  0.729600012         4.71080762E-14
  0.731400013         5.11174761E-14
  0.733200014         5.49129664E-14
  0.735000014         5.84223560E-14
  0.736800015         6.15693884E-14
  0.738600016         6.42743508E-14
  0.740400016         6.64547220E-14
  0.742200017         6.80259953E-14
  0.744000018         6.89025727E-14
  0.745800018         6.89987821E-14
  0.747600019         6.82300218E-14
  0.749400020         6.65139737E-14
  0.751200020         6.37719654E-14
  0.753000021         5.99303728E-14
  0.754800022         5.49221415E-14
  0.756600022         4.86883923E-14
  0.758400023         4.11800348E-14
  0.760200024         3.23594572E-14
  0.762000024         2.22022565E-14
  0.763800025         1.06989282E-14
  0.765600026        -2.14343805E-15
  0.767400026        -1.62994990E-14
  0.769200027        -3.17241012E-14
  0.771000028        -4.83507955E-14
  0.772800028        -6.60905114E-14
  0.774600029        -8.48303768E-14
  0.776400030        -1.04432705E-13
  0.778199971        -1.24734302E-13
  0.779999971        -1.45545969E-13
  0.781799972        -1.66652269E-13
  0.783599973        -1.87811748E-13
  0.785399973        -2.08757436E-13
  0.787199974        -2.29197764E-13
  0.788999975        -2.48817866E-13
  0.790799975        -2.67281423E-13
  0.792599976        -2.84232951E-13
  0.794399977        -2.99300542E-13
  0.796199977        -3.12099088E-13
  0.797999978        -3.22234156E-13
  0.799799979        -3.29306190E-13
  0.801599979        -3.32915390E-13
  0.803399980        -3.32666999E-13
  0.805199981        -3.28177047E-13
  0.806999981        -3.19078612E-13
  0.808799982        -3.05028382E-13
  0.810599983        -2.85713673E-13
  0.812399983        -2.60859666E-13
  0.814199984        -2.30236864E-13
  0.815999985        -1.93668744E-13
  0.817799985        -1.51039432E-13
  0.819599986        -1.02301251E-13
  0.821399987        -4.74822648E-14
  0.823199987         1.33066403E-14
  0.824999988         7.98649815E-14
  0.826799989         1.51896426E-13
  0.828599989         2.29003286E-13
  0.830399990         3.10681954E-13
  0.832199991         3.96319018E-13
  0.833999991         4.85188766E-13
  0.835799992         5.76451918E-13
  0.837599993         6.69155703E-13
  0.839399993         7.62235761E-13
  0.841199994         8.54519309E-13
  0.842999995         9.44730405E-13
  0.844799995         1.03149737E-12
  0.846599996         1.11336157E-12
  0.848399997         1.18878876E-12
  0.850199997         1.25618298E-12
  0.851999998         1.31390146E-12
  0.853799999         1.36027257E-12
  0.855599999         1.39361580E-12
  0.857400000         1.41226321E-12
  0.859200001         1.41458384E-12
  0.861000001         1.39900884E-12
  0.862800002         1.36405871E-12
  0.864600003         1.30837203E-12
  0.866400003         1.23073459E-12
  0.868200004         1.13011087E-12
  0.870000005         1.00567395E-12
  0.871800005         8.56836845E-13
  0.873600006         6.83282966E-13
  0.875400007         4.84996104E-13
  0.877200007         2.62288374E-13
  0.879000008         1.58270444E-14
  0.880800009        -2.53341646E-13
  0.882600009        -5.43771245E-13
  0.884400010        -8.53597737E-13
  0.886200011        -1.18052616E-12
  0.888000011        -1.52182195E-12
  0.889800012        -1.87430735E-12
  0.891600013        -2.23436504E-12
  0.893400013        -2.59794508E-12
  0.895200014        -2.96058273E-12
  0.897000015        -3.31741926E-12
  0.898800015        -3.66323378E-12
  0.900600016        -3.99248083E-12
  0.902400017        -4.29933780E-12
  0.904200017        -4.57775614E-12
  0.906000018        -4.82152729E-12
  0.907800019        -5.02435029E-12
  0.909600019        -5.17991119E-12
  0.911400020        -5.28196627E-12
  0.913200021        -5.32443577E-12
  0.915000021        -5.30149839E-12
  0.916800022        -5.20769842E-12
  0.918600023        -5.03804680E-12
  0.920400023        -4.78813473E-12
  0.922200024        -4.45424427E-12
  0.924000025        -4.03345803E-12
  0.925800025        -3.52377155E-12
  0.927600026        -2.92419864E-12
  0.929400027        -2.23487439E-12
  0.931200027        -1.45715178E-12
  0.933000028        -5.93686396E-13
  0.934800029         3.51484439E-13
  0.936600029         1.37287989E-12
  0.938399971         2.46352483E-12
  0.940199971         3.61491783E-12
  0.941999972         4.81701571E-12
  0.943799973         6.05824158E-12
  0.945599973         7.32550826E-12
  0.947399974         8.60427354E-12
  0.949199975         9.87861355E-12
  0.950999975         1.11313216E-11
  0.952799976         1.23440399E-11
  0.954599977         1.34974115E-11
  0.956399977         1.45712574E-11
  0.958199978         1.55447877E-11
  0.959999979         1.63968370E-11
  0.961799979         1.71061117E-11
  0.963599980         1.76514827E-11
  0.965399981         1.80122774E-11
  0.967199981         1.81686055E-11
  0.968999982         1.81016868E-11
  0.970799983         1.77942053E-11
  0.972599983         1.72306613E-11
  0.974399984         1.63977304E-11
  0.976199985         1.52846156E-11
  0.977999985         1.38834126E-11
  0.979799986         1.21894292E-11
  0.981599987         1.02015237E-11
  0.983399987         7.92239538E-12
  0.985199988         5.35885832E-12
  0.986999989         2.52206936E-12
  0.988799989        -5.72274053E-13
  0.990599990        -3.90379352E-12
  0.992399991        -7.44733702E-12
  0.994199991        -1.11729454E-11
  0.995999992        -1.50458881E-11
  0.997799993        -1.90267576E-11
  0.999599993        -2.30716505E-11
   1.00139999        -2.71324074E-11
   1.00320005        -3.11569451E-11
   1.00500000        -3.50896499E-11
   1.00680006        -3.88718849E-11
   1.00860000        -4.24425287E-11
   1.01040006        -4.57386282E-11
   1.01220000        -4.86961235E-11
   1.01400006        -5.12506183E-11
   1.01580000        -5.33382297E-11
   1.01760006        -5.48964936E-11
   1.01940000        -5.58653297E-11
   1.02119994        -5.61880091E-11
   1.02300000        -5.58122021E-11
   1.02479994        -5.46909983E-11
   1.02660000        -5.27839335E-11
   1.02839994        -5.00580376E-11
   1.03020000        -4.64888163E-11
   1.03199995        -4.20612052E-11
   1.03380001        -3.67704790E-11
   1.03559995        -3.06230596E-11
   1.03740001        -2.36372363E-11
   1.03919995        -1.58437950E-11
   1.04100001        -7.28649866E-12
   1.04279995         1.97756481E-12
   1.04460001         1.18777896E-11
   1.04639995         2.23300319E-11
   1.04820001         3.32367710E-11
   1.04999995         4.44874797E-11
   1.05180001         5.59591609E-11
   1.05359995         6.75171377E-11
   1.05540001         7.90160021E-11
   1.05719995         9.03008501E-11
   1.05900002         1.01208660E-10
   1.06079996         1.11569885E-10
   1.06260002         1.21210306E-10
   1.06439996         1.29953021E-10
   1.06620002         1.37620582E-10
   1.06799996         1.44037324E-10
   1.06980002         1.49031884E-10
   1.07159996         1.52439672E-10
   1.07340002         1.54105589E-10
   1.07519996         1.53886709E-10
   1.07700002         1.51654939E-10
   1.07879996         1.47299797E-10
   1.08060002         1.40730969E-10
   1.08239996         1.31880840E-10
   1.08420002         1.20706958E-10
   1.08599997         1.07194219E-10
   1.08780003         9.13567832E-11
   1.08959997         7.32399211E-11
   1.09140003         5.29213930E-11
   1.09319997         3.05125022E-11
   1.09500003         6.15885034E-12
   1.09679997        -1.99593918E-11
   1.09860003        -4.76276206E-11
   1.10039997        -7.65974020E-11
   1.10220003        -1.06587572E-10
   1.10399997        -1.37285849E-10
   1.10580003        -1.68350903E-10
   1.10759997        -1.99414985E-10
   1.10940003        -2.30087116E-10
   1.11119998        -2.59956556E-10
   1.11300004        -2.88597063E-10
   1.11479998        -3.15571347E-10
   1.11660004        -3.40436068E-10
   1.11839998        -3.62747221E-10
   1.12020004        -3.82065601E-10
   1.12199998        -3.97963024E-10
   1.12380004        -4.10028178E-10
   1.12559998        -4.17873097E-10
   1.12740004        -4.21139373E-10
   1.12919998        -4.19504459E-10
   1.13100004        -4.12687912E-10
   1.13279998        -4.00457278E-10
   1.13460004        -3.82633952E-10
   1.13639998        -3.59098334E-10
   1.13820004        -3.29794830E-10
   1.13999999        -2.94736041E-10
   1.14180005        -2.54006427E-10
   1.14359999        -2.07765263E-10
   1.14540005        -1.56248778E-10
   1.14719999        -9.97712746E-11
   1.14900005        -3.87255193E-11
   1.15079999         2.64180032E-11
   1.15260005         9.51127718E-11
   1.15439999         1.66739095E-10
   1.15620005         2.40607922E-10