 -0.300000012         1.00000002E-24
 -0.298200011         1.00000002E-24
 -0.296400011         1.00000002E-24
 -0.294600010         1.00000002E-24
 -0.292800009         1.00000002E-24
 -0.291000009         1.00000002E-24
 -0.289200008         1.00000002E-24
 -0.287400007         1.00000002E-24
 -0.285600007         1.00000002E-24
 -0.283800006         1.00000002E-24
 -0.282000005         1.00000002E-24
 -0.280200005         1.00000002E-24
 -0.278400004         1.00000002E-24
 -0.276600003         1.00000002E-24
 -0.274800003         1.00000002E-24
 -0.273000002         1.00000002E-24
 -0.271200001         1.00000002E-24
 -0.269400001         1.00000012E-24
 -0.267600000         1.00000022E-24
 -0.265799999         1.00000022E-24
 -0.263999999         1.00000022E-24
 -0.262199998         1.00000022E-24
 -0.260399997         1.00000022E-24
 -0.258599997         1.00000022E-24
 -0.256799996         1.00000022E-24
 -0.254999995         1.00000022E-24
 -0.253199995         1.00000022E-24
 -0.251399994         1.00000022E-24
 -0.249599993         1.00000022E-24
 -0.247799993         1.00000022E-24
 -0.246000007         1.00000022E-24
 -0.244200006         1.00000022E-24
 -0.242400005         1.00000022E-24
 -0.240600005         1.00000022E-24
 -0.238800004         1.00000022E-24
 -0.237000003         1.00000022E-24
 -0.235200003         1.00000022E-24
 -0.233400002         1.00000022E-24
 -0.231600001         1.00000022E-24
 -0.229800001         1.00000022E-24
 -0.228000000         1.00000022E-24
 -0.226199999         1.00000022E-24
 -0.224399999         1.00000022E-24
 -0.222599998         1.00000022E-24
 -0.220799997         1.00000022E-24
 -0.218999997         1.00000022E-24
 -0.217199996         1.00000022E-24
 -0.215399995         1.00000022E-24
 -0.213599995         1.00000022E-24
 -0.211799994         1.00000022E-24
 -0.209999993         1.00000022E-24
 -0.208199993         1.00000022E-24
 -0.206400007         1.00000022E-24
 -0.204600006         1.00000022E-24
 -0.202800006         1.00000022E-24
 -0.201000005         1.00000022E-24
 -0.199200004         1.00000022E-24
 -0.197400004         1.00000012E-24
 -0.195600003         1.00000002E-24
 -0.193800002         9.99999921E-25
 -0.192000002         9.99999822E-25
 -0.190200001         9.99999724E-25
 -0.188400000         9.99999625E-25
 -0.186600000         9.99999527E-25
 -0.184799999         9.99999527E-25
 -0.182999998         9.99999527E-25
 -0.181199998         9.99999527E-25
 -0.179399997         9.99999625E-25
 -0.177599996         9.99999724E-25
 -0.175799996         9.99999822E-25
 -0.173999995         1.00000002E-24
 -0.172199994         1.00000022E-24
 -0.170399994         1.00000041E-24
 -0.168599993         1.00000051E-24
 -0.166800007         1.00000061E-24
 -0.165000007         1.00000061E-24
 -0.163200006         1.00000061E-24
 -0.161400005         1.00000061E-24
 -0.159600005         1.00000061E-24
 -0.157800004         1.00000061E-24
 -0.156000003         1.00000051E-24
 -0.154200003         1.00000041E-24
 -0.152400002         1.00000032E-24
 -0.150600001         1.00000022E-24
 -0.148800001         1.00000022E-24
 -0.147000000         1.00000022E-24
 -0.145199999         1.00000032E-24
 -0.143399999         1.00000032E-24
 -0.141599998         1.00000032E-24
 -0.139799997         1.00000032E-24
 -0.137999997         1.00000012E-24
 -0.136199996         1.00000002E-24
 -0.134399995         9.99999921E-25
 -0.132599995         9.99999822E-25
 -0.130799994         9.99999625E-25
 -0.128999993         9.99999428E-25
 -0.127200007         9.99999329E-25
 -0.125400007         9.99999231E-25
 -0.123599999         9.99999231E-25
 -0.121799998         9.99999231E-25
 -0.119999997         9.99999428E-25
 -0.118199997         9.99999625E-25
 -0.116400003         9.99999921E-25
 -0.114600003         1.00000022E-24
 -0.112800002         1.00000061E-24
 -0.111000001         1.00000101E-24
 -0.109200001         1.00000140E-24
 -0.107400000         1.00000179E-24
 -0.105599999         1.00000199E-24
 -0.103799999         1.00000219E-24
 -0.101999998         1.00000229E-24
 -0.100199997         1.00000229E-24
  -9.83999968E-02     1.00000248E-24
  -9.66000035E-02     1.00000268E-24
  -9.48000029E-02     1.00000298E-24
  -9.30000022E-02     1.00000347E-24
  -9.12000015E-02     1.00000426E-24
  -8.94000009E-02     1.00000554E-24
  -8.76000002E-02     1.00000742E-24
  -8.57999995E-02     1.00000978E-24
  -8.39999989E-02     1.00001294E-24
  -8.21999982E-02     1.00001678E-24
  -8.03999975E-02     1.00002132E-24
  -7.85999969E-02     1.00002674E-24
  -7.68000036E-02     1.00003276E-24
  -7.50000030E-02     1.00003936E-24
  -7.32000023E-02     1.00004637E-24
  -7.14000016E-02     1.00005317E-24
  -6.96000010E-02     1.00005928E-24
  -6.78000003E-02     1.00006382E-24
  -6.59999996E-02     1.00006559E-24
  -6.41999990E-02     1.00006283E-24
  -6.23999983E-02     1.00005337E-24
  -6.06000014E-02     1.00003424E-24
  -5.88000007E-02     1.00000179E-24
  -5.70000000E-02     9.99951012E-25
  -5.51999994E-02     9.99875971E-25
  -5.33999987E-02     9.99768883E-25
  -5.16000018E-02     9.99620577E-25
  -4.98000011E-02     9.99419714E-25
  -4.80000004E-02     9.99153177E-25
  -4.61999997E-02     9.98804797E-25
  -4.43999991E-02     9.98356724E-25
  -4.25999984E-02     9.97788152E-25
  -4.08000015E-02     9.97076107E-25
  -3.90000008E-02     9.96195442E-25
  -3.72000001E-02     9.95119633E-25
  -3.53999995E-02     9.93821267E-25
  -3.35999988E-02     9.92274212E-25
  -3.18000019E-02     9.90454704E-25
  -2.99999993E-02     9.88344698E-25
  -2.82000005E-02     9.85935024E-25
  -2.63999999E-02     9.83230119E-25
  -2.45999992E-02     9.80254239E-25
  -2.28000004E-02     9.77058564E-25
  -2.09999997E-02     9.73730951E-25
  -1.92000009E-02     9.70406494E-25
  -1.74000002E-02     9.67282013E-25
  -1.55999996E-02     9.64631737E-25
  -1.37999998E-02     9.62826231E-25
  -1.20000001E-02     9.62354295E-25
  -1.02000004E-02     9.63848792E-25
  -8.39999970E-03     9.68113867E-25
  -6.59999996E-03     9.76156107E-25
  -4.80000023E-03     9.89218559E-25
  -3.00000003E-03     1.00881584E-24
  -1.20000006E-03     1.03677040E-24
   6.00000028E-04     1.07524877E-24
   2.40000011E-03     1.12679491E-24
   4.19999985E-03     1.19435888E-24
   6.00000005E-03     1.28131738E-24
   7.79999979E-03     1.39148191E-24
   9.60000046E-03     1.52908903E-24
   1.14000002E-02     1.69876857E-24
   1.31999999E-02     1.90547912E-24
   1.49999997E-02     2.15440497E-24
   1.67999994E-02     2.45080190E-24
   1.86000001E-02     2.79978371E-24
   2.04000007E-02     3.20603110E-24
   2.21999995E-02     3.67341364E-24
   2.40000002E-02     4.20450596E-24
   2.58000009E-02     4.79998037E-24
   2.75999997E-02     5.45786078E-24
   2.94000003E-02     6.17262004E-24
   3.11999992E-02     6.93409288E-24
   3.29999998E-02     7.72620468E-24
   3.48000005E-02     8.52548959E-24
   3.66000012E-02     9.29937871E-24
   3.84000018E-02     1.00042717E-23
   4.01999988E-02     1.05833705E-23
   4.19999994E-02     1.09642988E-23
   4.38000001E-02     1.10565048E-23
   4.56000008E-02     1.07485051E-23
   4.74000014E-02     9.90498565E-24
   4.91999984E-02     8.36385042E-24
   5.09999990E-02     5.93330804E-24
   5.27999997E-02     2.38907827E-24
   5.46000004E-02    -2.52809035E-24
   5.64000010E-02    -9.11446419E-24
   5.82000017E-02    -1.77046546E-23
   5.99999987E-02    -2.86720300E-23
   6.17999993E-02    -4.24278930E-23
   6.36000037E-02    -5.94190607E-23
   6.53999969E-02    -8.01234914E-23
   6.71999976E-02    -1.05043488E-22
   6.89999983E-02    -1.34695980E-22
   7.07999989E-02    -1.69599503E-22
   7.25999996E-02    -2.10257003E-22
   7.44000003E-02    -2.57134273E-22
   7.62000009E-02    -3.10633129E-22
   7.80000016E-02    -3.71058688E-22
   7.98000023E-02    -4.38580713E-22
   8.16000029E-02    -5.13187366E-22
   8.34000036E-02    -5.94632193E-22
   8.51999968E-02    -6.82373064E-22
   8.69999975E-02    -7.75503029E-22
   8.87999982E-02    -8.72672618E-22
   9.05999988E-02    -9.72005175E-22
   9.23999995E-02    -1.07100351E-21
   9.42000002E-02    -1.16644957E-21
   9.60000008E-02    -1.25429843E-21
   9.78000015E-02    -1.32956793E-21
   9.96000022E-02    -1.38622354E-21
  0.101400003        -1.41706682E-21
  0.103200004        -1.41362047E-21
  0.104999997        -1.36602527E-21
  0.106799997        -1.26294081E-21
  0.108599998        -1.09146583E-21
  0.110399999        -8.37074822E-22
  0.112199999        -4.83581277E-22
  0.114000000        -1.31324065E-23
  0.115800001         5.93758766E-22
  0.117600001         1.35813232E-21
  0.119400002         2.30245077E-21
  0.121200003         3.45040500E-21
  0.123000003         4.82665057E-21
  0.124799997         6.45647224E-21
  0.126599997         8.36535912E-21
  0.128399998         1.05784938E-20
  0.130199999         1.31201460E-20
  0.131999999         1.60129646E-20
  0.133800000         1.92771728E-20
  0.135600001         2.29296518E-20
  0.137400001         2.69829402E-20
  0.139200002         3.14441175E-20
  0.141000003         3.63136134E-20
  0.142800003         4.15839301E-20
  0.144600004         4.72383170E-20
  0.146400005         5.32493803E-20
  0.148200005         5.95776707E-20
  0.150000006         6.61702808E-20
  0.151800007         7.29594691E-20
  0.153600007         7.98613348E-20
  0.155399993         8.67745808E-20
  0.157199994         9.35794468E-20
  0.158999994         1.00136734E-19
  0.160799995         1.06287119E-19
  0.162599996         1.11850600E-19
  0.164399996         1.16626353E-19
  0.166199997         1.20392713E-19
  0.167999998         1.22907575E-19
  0.169799998         1.23909110E-19
  0.171599999         1.23116709E-19
  0.173400000         1.20232395E-19
  0.175200000         1.14942355E-19
  0.177000001         1.06918755E-19
  0.178800002         9.58216749E-20
  0.180600002         8.13011396E-20
  0.182400003         6.29989866E-20
  0.184200004         4.05507007E-20
  0.186000004         1.35865062E-20
  0.187800005        -1.82677604E-20
  0.189600006        -5.53909154E-20
  0.191400006        -9.81676302E-20
  0.193200007        -1.46991132E-19
  0.194999993        -2.02267567E-19
  0.196799994        -2.64422422E-19
  0.198599994        -3.33909342E-19
  0.200399995        -4.11221545E-19
  0.202199996        -4.96906367E-19
  0.203999996        -5.91583289E-19
  0.205799997        -6.95965210E-19
  0.207599998        -8.10883965E-19
  0.209399998        -9.37319298E-19
  0.211199999        -1.07643267E-18
  0.213000000        -1.22960429E-18
  0.214800000        -1.39847425E-18
  0.216600001        -1.58498703E-18
  0.218400002        -1.79143932E-18
  0.220200002        -2.02052885E-18
  0.222000003        -2.27540595E-18
  0.223800004        -2.55972447E-18
  0.225600004        -2.87769042E-18
  0.227400005        -3.23410766E-18
  0.229200006        -3.63441903E-18
  0.231000006        -4.08473946E-18
  0.232800007        -4.59187562E-18
  0.234599993        -5.16333500E-18
  0.236399993        -5.80731703E-18
  0.238199994        -6.53268205E-18
  0.239999995        -7.34889590E-18
  0.241799995        -8.26594307E-18
  0.243599996        -9.29421212E-18
  0.245399997        -1.04443323E-17
  0.247199997        -1.17269743E-17
  0.248999998        -1.31526052E-17
  0.250800014        -1.47311785E-17
  0.252600014        -1.64717766E-17
  0.254400015        -1.83821949E-17
  0.256199986        -2.04684321E-17
  0.257999986        -2.27341707E-17
  0.259799987        -2.51801223E-17
  0.261599988        -2.78033436E-17
  0.263399988        -3.05964613E-17
  0.265199989        -3.35468259E-17
  0.266999990        -3.66356474E-17
  0.268799990        -3.98369521E-17
  0.270599991        -4.31166472E-17
  0.272399992        -4.64314014E-17
  0.274199992        -4.97275706E-17
  0.275999993        -5.29400919E-17
  0.277799994        -5.59913395E-17
  0.279599994        -5.87900952E-17
  0.281399995        -6.12304699E-17
  0.283199996        -6.31909475E-17
  0.284999996        -6.45335543E-17
  0.286799997        -6.51031442E-17
  0.288599998        -6.47268565E-17
  0.290399998        -6.32138042E-17
  0.292199999        -6.03550547E-17
  0.294000000        -5.59239474E-17
  0.295800000        -4.96766361E-17
  0.297600001        -4.13532007E-17
  0.299400002        -3.06791760E-17
  0.301200002        -1.73675685E-17
  0.303000003        -1.12143274E-18
  0.304800004         1.83628686E-17
  0.306600004         4.13918002E-17
  0.308400005         6.82700879E-17
  0.310200006         9.92953695E-17
  0.312000006         1.34751983E-16
  0.313800007         1.74904204E-16
  0.315600008         2.19988406E-16
  0.317400008         2.70204542E-16
  0.319200009         3.25706720E-16
  0.321000010         3.86593169E-16
  0.322800010         4.52895176E-16
  0.324600011         5.24565704E-16
  0.326400012         6.01467084E-16
  0.328200012         6.83358336E-16
  0.330000013         7.69882275E-16
  0.331800014         8.60551964E-16
  0.333600014         9.54737739E-16
  0.335399985         1.05165366E-15
  0.337199986         1.15034539E-15
  0.338999987         1.24967726E-15
  0.340799987         1.34832166E-15
  0.342599988         1.44474916E-15
  0.344399989         1.53721996E-15
  0.346199989         1.62377751E-15
  0.347999990         1.70224495E-15
  0.349799991         1.77022252E-15
  0.351599991         1.82509152E-15
  0.353399992         1.86401818E-15
  0.355199993         1.88396327E-15
  0.356999993         1.88169640E-15
  0.358799994         1.85381440E-15
  0.360599995         1.79676652E-15
  0.362399995         1.70688108E-15
  0.364199996         1.58040477E-15
  0.365999997         1.41354298E-15
  0.367799997         1.20250673E-15
  0.369599998         9.43569822E-16
  0.371399999         6.33129917E-16
  0.373199999         2.67778031E-16
  0.375000000        -1.55625999E-16
  0.376800001        -6.39872141E-16
  0.378600001        -1.18731033E-15
  0.380400002        -1.79975634E-15
  0.382200003        -2.47839236E-15
  0.384000003        -3.22366213E-15
  0.385800004        -4.03516289E-15
  0.387600005        -4.91153410E-15
  0.389400005        -5.85034688E-15
  0.391200006        -6.84798906E-15
  0.393000007        -7.89955547E-15
  0.394800007        -8.99874335E-15
  0.396600008        -1.01377443E-14
  0.398400009        -1.13071572E-14
  0.400200009        -1.24958942E-14
  0.402000010        -1.36911178E-14
  0.403800011        -1.48781727E-14
  0.405600011        -1.60405526E-14
  0.407400012        -1.71598795E-14
  0.409200013        -1.82159043E-14
  0.411000013        -1.91865329E-14
  0.412800014        -2.00478909E-14
  0.414600015        -2.07744097E-14
  0.416399986        -2.13389521E-14
  0.418199986        -2.17129713E-14
  0.419999987        -2.18667163E-14
  0.421799988        -2.17694820E-14
  0.423599988        -2.13898842E-14
  0.425399989        -2.06962014E-14
  0.427199990        -1.96567582E-14
  0.428999990        -1.82403514E-14
  0.430799991        -1.64167216E-14
  0.432599992        -1.41570825E-14
  0.434399992        -1.14346932E-14
  0.436199993        -8.22545818E-15
  0.437999994        -4.50859459E-15
  0.439799994        -2.67319998E-16
  0.441599995         4.51043223E-15
  0.443399996         9.83125138E-15
  0.445199996         1.56955053E-14
  0.446999997         2.20965349E-14
  0.448799998         2.90198841E-14
  0.450599998         3.64425287E-14
  0.452399999         4.43321358E-14
  0.454200000         5.26463232E-14
  0.456000000         6.13320091E-14
  0.457800001         7.03248088E-14
  0.459600002         7.95484758E-14
  0.461400002         8.89145054E-14
  0.463200003         9.83217753E-14
  0.465000004         1.07656397E-13
  0.466800004         1.16791667E-13
  0.468600005         1.25588152E-13
  0.470400006         1.33894103E-13
  0.472200006         1.41545860E-13
  0.474000007         1.48368730E-13
  0.475800008         1.54177859E-13
  0.477600008         1.58779524E-13
  0.479400009         1.61972744E-13
  0.481200010         1.63550895E-13
  0.483000010         1.63303995E-13
  0.484800011         1.61020963E-13
  0.486600012         1.56492346E-13
  0.488400012         1.49513350E-13
  0.490200013         1.39887044E-13
  0.492000014         1.27428057E-13
  0.493800014         1.11966216E-13
  0.495599985         9.33508370E-14
  0.497399986         7.14548524E-14
  0.499199986         4.61793350E-14
  0.500999987         1.74581554E-14
  0.502799988        -1.47374229E-14
  0.504599988        -5.03939338E-14
  0.506399989        -8.94510296E-14
  0.508199990        -1.31796944E-13
  0.509999990        -1.77263979E-13
  0.511799991        -2.25624437E-13
  0.513599992        -2.76586805E-13
  0.515399992        -3.29792346E-13
  0.517199993        -3.84812381E-13
  0.518999994        -4.41146143E-13
  0.520799994        -4.98219304E-13
  0.522599995        -5.55383647E-13
  0.524399996        -6.11917364E-13
  0.526199996        -6.67026547E-13
  0.527999997        -7.19848172E-13
  0.529799998        -7.69453891E-13
  0.531599998        -8.14855507E-13
  0.533399999        -8.55011591E-13
  0.535200000        -8.88836097E-13
  0.537000000        -9.15208014E-13
  0.538800001        -9.32982966E-13
  0.540600002        -9.41006062E-13
  0.542400002        -9.38126638E-13
  0.544200003        -9.23214738E-13
  0.546000004        -8.95178463E-13
  0.547800004        -8.52982940E-13
  0.549600005        -7.95671092E-13
  0.551400006        -7.22384717E-13
  0.553200006        -6.32386938E-13
  0.555000007        -5.25085563E-13
  0.556800008        -4.00056290E-13
  0.558600008        -2.57066612E-13
  0.560400009        -9.60991405E-14
  0.562200010         8.26256923E-14
  0.564000010         2.78627111E-13
  0.565800011         4.91143909E-13
  0.567600012         7.19115251E-13
  0.569400012         9.61164525E-13
  0.571200013         1.21558525E-12
  0.573000014         1.48033072E-12
  0.574800014         1.75300724E-12
  0.576600015         2.03087156E-12
  0.578400016         2.31083295E-12
  0.580200016         2.58946076E-12
  0.582000017         2.86299652E-12
  0.583800018         3.12737401E-12
  0.585600019         3.37824321E-12
  0.587400019         3.61100256E-12
  0.589200020         3.82083731E-12
  0.591000021         4.00276470E-12
  0.592800021         4.15168594E-12
  0.594600022         4.26244543E-12
  0.596400023         4.32989582E-12
  0.598200023         4.34897127E-12
  0.600000024         4.31476469E-12
  0.601800025         4.22260881E-12
  0.603600025         4.06816724E-12
  0.605400026         3.84752386E-12
  0.607200027         3.55727904E-12
  0.609000027         3.19464399E-12
  0.610800028         2.75753899E-12
  0.612600029         2.24468773E-12
  0.614400029         1.65571235E-12
  0.616199970         9.91221645E-13
  0.617999971         2.52897041E-13
  0.619799972        -5.56433751E-13
  0.621599972        -1.43272612E-12
  0.623399973        -2.37066378E-12
  0.625199974        -3.36361473E-12
  0.626999974        -4.40360205E-12
  0.628799975        -5.48129120E-12
  0.630599976        -6.58599651E-12
  0.632399976        -7.70570500E-12
  0.634199977        -8.82712306E-12
  0.635999978        -9.93574580E-12
  0.637799978        -1.10159468E-11
  0.639599979        -1.20510997E-11
  0.641399980        -1.30237106E-11
  0.643199980        -1.39155909E-11
  0.644999981        -1.47080438E-11
  0.646799982        -1.53820828E-11
  0.648599982        -1.59186553E-11
  0.650399983        -1.62989223E-11
  0.652199984        -1.65045148E-11
  0.653999984        -1.65178496E-11
  0.655799985        -1.63224191E-11
  0.657599986        -1.59031243E-11
  0.659399986        -1.52466078E-11
  0.661199987        -1.43415696E-11
  0.662999988        -1.31791123E-11
  0.664799988        -1.17530595E-11
  0.666599989        -1.00602729E-11
  0.668399990        -8.10094700E-12
  0.670199990        -5.87888202E-12
  0.671999991        -3.40173462E-12
  0.673799992        -6.81229541E-13
  0.675599992         2.26667361E-12
  0.677399993         5.42165098E-12
  0.679199994         8.75893975E-12
  0.680999994         1.22493205E-11
  0.682799995         1.58591664E-11
  0.684599996         1.95505452E-11
  0.686399996         2.32814098E-11
  0.688199997         2.70058420E-11
  0.689999998         3.06743866E-11
  0.691799998         3.42344555E-11
  0.693599999         3.76308082E-11
  0.695400000         4.08061120E-11
  0.697200000         4.37015771E-11
  0.699000001         4.62576435E-11
  0.700800002         4.84147583E-11
  0.702600002         5.01142045E-11
  0.704400003         5.12989720E-11
  0.706200004         5.19147017E-11
  0.708000004         5.19106078E-11
  0.709800005         5.12404875E-11
  0.711600006         4.98636930E-11
  0.713400006         4.77461473E-11
  0.715200007         4.48612571E-11
  0.717000008         4.11909014E-11
  0.718800008         3.67263026E-11
  0.720600009         3.14688345E-11
  0.722400010         2.54307721E-11
  0.724200010         1.86359244E-11
  0.726000011         1.11201603E-11
  0.727800012         2.93178914E-12
  0.729600012        -5.86818571E-12
  0.731400013        -1.52059979E-11
  0.733200014        -2.49952021E-11
  0.735000014        -3.51369697E-11
  0.736800015        -4.55205561E-11
  0.738600016        -5.60239979E-11
  0.740400016        -6.65149880E-11
  0.742200017        -7.68519831E-11
  0.744000018        -8.68855196E-11
  0.745800018        -9.64597499E-11
  0.747600019        -1.05414101E-10
  0.749400020        -1.13585259E-10
  0.751200020        -1.20809196E-10
  0.753000021        -1.26923416E-10
  0.754800022        -1.31769359E-10
  0.756600022        -1.35194869E-10
  0.758400023        -1.37056713E-10
  0.760200024        -1.37223288E-10
  0.762000024        -1.35577147E-10
  0.763800025        -1.32017758E-10
  0.765600026        -1.26463950E-10
  0.767400026        -1.18856411E-10
  0.769200027        -1.09160035E-10
  0.771000028        -9.73659764E-11
  0.772800028        -8.34936426E-11
  0.774600029        -6.75923137E-11
  0.776400030        -4.97424359E-11
  0.778199971        -3.00566204E-11
  0.779999971        -8.68024923E-12
  0.781799972         1.42084036E-11
  0.783599973         3.83984372E-11
  0.785399973         6.36471015E-11
  0.787199974         8.96810542E-11
  0.788999975         1.16198176E-10
  0.790799975         1.42869855E-10
  0.792599976         1.69343872E-10
  0.794399977         1.95247665E-10
  0.796199977         2.20192295E-10
  0.797999978         2.43776721E-10
  0.799799979         2.65592576E-10
  0.801599979         2.85229451E-10
  0.803399980         3.02280451E-10
  0.805199981         3.16347920E-10
  0.806999981         3.27049776E-10
  0.808799982         3.34025752E-10
  0.810599983         3.36943695E-10
  0.812399983         3.35506040E-10
  0.814199984         3.29456101E-10
  0.815999985         3.18584242E-10
  0.817799985         3.02733616E-10
  0.819599986         2.81805995E-10
  0.821399987         2.55766408E-10
  0.823199987         2.24647814E-10
  0.824999988         1.88554755E-10
  0.826799989         1.47666490E-10
  0.828599989         1.02239023E-10
  0.830399990         5.26064088E-11
  0.832199991        -8.19186136E-13
  0.833999991        -5.75482023E-11
  0.835799992        -1.17015814E-10
  0.837599993        -1.78585174E-10
  0.839399993        -2.41551612E-10
  0.841199994        -3.05148407E-10
  0.842999995        -3.68553549E-10
  0.844799995        -4.30897679E-10
  0.846599996        -4.91273300E-10
  0.848399997        -5.48744883E-10
  0.850199997        -6.02360162E-10
  0.851999998        -6.51162235E-10
  0.853799999        -6.94202307E-10
  0.855599999        -7.30553562E-10
  0.857400000        -7.59325158E-10
  0.859200001        -7.79676490E-10
  0.861000001        -7.90831844E-10
  0.862800002        -7.92095389E-10
  0.864600003        -7.82864884E-10
  0.866400003        -7.62646390E-10
  0.868200004        -7.31067040E-10
  0.870000005        -6.87887636E-10
  0.871800005        -6.33014252E-10
  0.873600006        -5.66508229E-10
  0.875400007        -4.88594831E-10
  0.877200007        -3.99670047E-10
  0.879000008        -3.00306252E-10
  0.880800009        -1.91254457E-10
  0.882600009        -7.34457634E-11
  0.884400010         5.20103891E-11
  0.886200011         1.83830187E-10
  0.888000011         3.20561522E-10
  0.889800012         4.60593175E-10
  0.891600013         6.02166261E-10
  0.893400013         7.43388295E-10
  0.895200014         8.82249718E-10
  0.897000015         1.01664277E-09
  0.898800015         1.14438303E-09
  0.900600016         1.26323252E-09
  0.902400017         1.37092493E-09
  0.904200017         1.46519308E-09
  0.906000018         1.54379698E-09
  0.907800019         1.60455349E-09
  0.909600019         1.64536662E-09
  0.911400020         1.66425884E-09
  0.913200021         1.65940151E-09
  0.915000021         1.62914571E-09
  0.916800022         1.57205238E-09
  0.918600023         1.48692159E-09
  0.920400023         1.37281886E-09
  0.922200024         1.22910149E-09
  0.924000025         1.05544207E-09
  0.925800025         8.51847426E-10
  0.927600026         6.18677332E-10
  0.929400027         3.56657620E-10
  0.931200027         6.68907707E-11
  0.933000028        -2.49138571E-10
  0.934800029        -5.89561566E-10
  0.936600029        -9.52127599E-10
  0.938399971        -1.33421230E-09
  0.940199971        -1.73282866E-09
  0.941999972        -2.14464491E-09
  0.943799973        -2.56600496E-09
  0.945599973        -2.99295522E-09
  0.947399974        -3.42127504E-09
  0.949199975        -3.84651244E-09
  0.950999975        -4.26402114E-09
  0.952799976        -4.66900563E-09
  0.954599977        -5.05656494E-09
  0.956399977        -5.42174350E-09
  0.958199978        -5.75957948E-09
  0.959999979        -6.06515860E-09
  0.961799979        -6.33367092E-09
  0.963599980        -6.56046328E-09
  0.965399981        -6.74109302E-09
  0.967199981        -6.87138302E-09
  0.968999982        -6.94747460E-09
  0.970799983        -6.96587543E-09
  0.972599983        -6.92351154E-09
  0.974399984        -6.81776768E-09
  0.976199985        -6.64652866E-09
  0.977999985        -6.40821751E-09
  0.979799986        -6.10182127E-09
  0.981599987        -5.72692249E-09
  0.983399987        -5.28371125E-09
  0.985199988        -4.77299889E-09
  0.986999989        -4.19623225E-09
  0.988799989        -3.55548102E-09
  0.990599990        -2.85343127E-09
  0.992399991        -2.09338191E-09
  0.994199991        -1.27920596E-09
  0.995999992        -4.15335183E-10
  0.997799993         4.93280028E-10
  0.999599993         1.44121737E-09
   1.00139999         2.42262455E-09
   1.00320005         3.43126771E-09
   1.00500000         4.46060033E-09
   1.00680006         5.50381518E-09
   1.00860000         6.55391252E-09
   1.01040006         7.60376118E-09
   1.01220000         8.64617622E-09
   1.01400006         9.67397806E-09
   1.01580000         1.06800675E-08
   1.01760006         1.16574936E-08
   1.01940000         1.25995134E-08
   1.02119994         1.34996627E-08
   1.02300000         1.43518051E-08
   1.02479994         1.51501993E-08
   1.02660000         1.58895368E-08
   1.02839994         1.65649965E-08
   1.03020000         1.71722672E-08
   1.03199995         1.77076007E-08
   1.03380001         1.81678157E-08
   1.03559995         1.85503222E-08
   1.03740001         1.88531359E-08
   1.03919995         1.90748715E-08
   1.04100001         1.92147436E-08
   1.04279995         1.92725551E-08
   1.04460001         1.92486755E-08
   1.04639995         1.91440197E-08
   1.04820001         1.89600229E-08
   1.04999995         1.86985947E-08
   1.05180001         1.83620958E-08
   1.05359995         1.79532904E-08
   1.05540001         1.74753048E-08
   1.05719995         1.69315832E-08
   1.05900002         1.63258527E-08
   1.06079996         1.56620725E-08
   1.06260002         1.49444013E-08
   1.06439996         1.41771528E-08
   1.06620002         1.33647626E-08
   1.06799996         1.25117650E-08
   1.06980002         1.16227676E-08
   1.07159996         1.07024132E-08
   1.07340002         9.75539738E-09
   1.07519996         8.78642847E-09
   1.07700002         7.80023424E-09
   1.07879996         6.80156687E-09
   1.08060002         5.79519543E-09
   1.08239996         4.78592943E-09
   1.08420002         3.77861298E-09
   1.08599997         2.77813439E-09
   1.08780003         1.78945447E-09
   1.08959997         8.17597268E-10
   1.09140003        -1.32348243E-10
   1.09319997        -1.05519427E-09
   1.09500003        -1.94571959E-09
   1.09679997        -2.79862400E-09
   1.09860003        -3.60859365E-09
   1.10039997        -4.37032677E-09
   1.10220003        -5.07859221E-09
   1.10399997        -5.72828540E-09
   1.10580003        -6.31451380E-09
   1.10759997        -6.83270995E-09
   1.10940003        -7.27876426E-09
   1.11119998        -7.64911956E-09
   1.11300004        -7.94095634E-09
   1.11479998        -8.15236323E-09
   1.11660004        -8.28253555E-09
   1.11839998        -8.33196090E-09
   1.12020004        -8.30263769E-09
   1.12199998        -8.19830692E-09
   1.12380004        -8.02468314E-09
   1.12559998        -7.78966847E-09
   1.12740004        -7.50361462E-09
   1.12919998        -7.17950321E-09
   1.13100004        -6.83319001E-09
   1.13279998        -6.48354259E-09
   1.13460004        -6.15266016E-09
   1.13639998        -5.86593663E-09
   1.13820004        -5.65218539E-09
   1.13999999        -5.54368551E-09
   1.14180005        -5.57611424E-09
   1.14359999        -5.78855186E-09
   1.14540005        -6.22326590E-09
   1.14719999        -6.92552371E-09
   1.14900005        -7.94332689E-09
   1.15079999        -9.32700672E-09
   1.15260005        -1.11287708E-08
   1.15439999        -1.34021612E-08
   1.15620005        -1.62014295E-08