 -0.300000012         1.00000002E-24
 -0.298200011         1.00000002E-24
 -0.296400011         1.00000002E-24
 -0.294600010         1.00000002E-24
 -0.292800009         1.00000002E-24
 -0.291000009         1.00000002E-24
 -0.289200008         1.00000002E-24
 -0.287400007         1.00000012E-24
 -0.285600007         1.00000022E-24
 -0.283800006         1.00000022E-24
 -0.282000005         1.00000022E-24
 -0.280200005         1.00000022E-24
 -0.278400004         1.00000022E-24
 -0.276600003         1.00000022E-24
 -0.274800003         1.00000022E-24
 -0.273000002         1.00000022E-24
 -0.271200001         1.00000022E-24
 -0.269400001         1.00000012E-24
 -0.267600000         1.00000002E-24
 -0.265799999         1.00000002E-24
 -0.263999999         1.00000002E-24
 -0.262199998         1.00000002E-24
 -0.260399997         1.00000002E-24
 -0.258599997         1.00000002E-24
 -0.256799996         1.00000002E-24
 -0.254999995         1.00000012E-24
 -0.253199995         1.00000022E-24
 -0.251399994         1.00000032E-24
 -0.249599993         1.00000041E-24
 -0.247799993         1.00000041E-24
 -0.246000007         1.00000041E-24
 -0.244200006         1.00000041E-24
 -0.242400005         1.00000032E-24
 -0.240600005         1.00000022E-24
 -0.238800004         1.00000012E-24
 -0.237000003         1.00000002E-24
 -0.235200003         9.99999921E-25
 -0.233400002         9.99999822E-25
 -0.231600001         9.99999822E-25
 -0.229800001         9.99999921E-25
 -0.228000000         1.00000002E-24
 -0.226199999         1.00000022E-24
 -0.224399999         1.00000041E-24
 -0.222599998         1.00000061E-24
 -0.220799997         1.00000081E-24
 -0.218999997         1.00000091E-24
 -0.217199996         1.00000081E-24
 -0.215399995         1.00000071E-24
 -0.213599995         1.00000061E-24
 -0.211799994         1.00000041E-24
 -0.209999993         1.00000012E-24
 -0.208199993         9.99999724E-25
 -0.206400007         9.99999527E-25
 -0.204600006         9.99999329E-25
 -0.202800006         9.99999329E-25
 -0.201000005         9.99999428E-25
 -0.199200004         9.99999527E-25
 -0.197400004         9.99999724E-25
 -0.195600003         1.00000012E-24
 -0.193800002         1.00000041E-24
 -0.192000002         1.00000071E-24
 -0.190200001         1.00000071E-24
 -0.188400000         1.00000061E-24
 -0.186600000         1.00000032E-24
 -0.184799999         1.00000012E-24
 -0.182999998         9.99999921E-25
 -0.181199998         9.99999625E-25
 -0.179399997         9.99999428E-25
 -0.177599996         9.99999231E-25
 -0.175799996         9.99999329E-25
 -0.173999995         9.99999527E-25
 -0.172199994         9.99999921E-25
 -0.170399994         1.00000022E-24
 -0.168599993         1.00000051E-24
 -0.166800007         1.00000081E-24
 -0.165000007         1.00000101E-24
 -0.163200006         1.00000091E-24
 -0.161400005         1.00000081E-24
 -0.159600005         1.00000061E-24
 -0.157800004         1.00000032E-24
 -0.156000003         1.00000002E-24
 -0.154200003         9.99999625E-25
 -0.152400002         9.99999329E-25
 -0.150600001         9.99999132E-25
 -0.148800001         9.99999132E-25
 -0.147000000         9.99999329E-25
 -0.145199999         9.99999625E-25
 -0.143399999         1.00000002E-24
 -0.141599998         1.00000041E-24
 -0.139799997         1.00000091E-24
 -0.137999997         1.00000120E-24
 -0.136199996         1.00000140E-24
 -0.134399995         1.00000130E-24
 -0.132599995         1.00000110E-24
 -0.130799994         1.00000061E-24
 -0.128999993         1.00000002E-24
 -0.127200007         9.99999527E-25
 -0.125400007         9.99998935E-25
 -0.123599999         9.99998540E-25
 -0.121799998         9.99998343E-25
 -0.119999997         9.99998343E-25
 -0.118199997         9.99998540E-25
 -0.116400003         9.99998836E-25
 -0.114600003         9.99999428E-25
 -0.112800002         1.00000002E-24
 -0.111000001         1.00000061E-24
 -0.109200001         1.00000101E-24
 -0.107400000         1.00000140E-24
 -0.105599999         1.00000170E-24
 -0.103799999         1.00000179E-24
 -0.101999998         1.00000179E-24
 -0.100199997         1.00000170E-24
  -9.83999968E-02     1.00000170E-24
  -9.66000035E-02     1.00000179E-24
  -9.48000029E-02     1.00000199E-24
  -9.30000022E-02     1.00000229E-24
  -9.12000015E-02     1.00000288E-24
  -8.94000009E-02     1.00000347E-24
  -8.76000002E-02     1.00000406E-24
  -8.57999995E-02     1.00000475E-24
  -8.39999989E-02     1.00000534E-24
  -8.21999982E-02     1.00000554E-24
  -8.03999975E-02     1.00000525E-24
  -7.85999969E-02     1.00000416E-24
  -7.68000036E-02     1.00000170E-24
  -7.50000030E-02     9.99997554E-25
  -7.32000023E-02     9.99990948E-25
  -7.14000016E-02     9.99980988E-25
  -6.96000010E-02     9.99966394E-25
  -6.78000003E-02     9.99945983E-25
  -6.59999996E-02     9.99918175E-25
  -6.41999990E-02     9.99880704E-25
  -6.23999983E-02     9.99831499E-25
  -6.06000014E-02     9.99767897E-25
  -5.88000007E-02     9.99686743E-25
  -5.70000000E-02     9.99585177E-25
  -5.51999994E-02     9.99459748E-25
  -5.33999987E-02     9.99307498E-25
  -5.16000018E-02     9.99125567E-25
  -4.98000011E-02     9.98912378E-25
  -4.80000004E-02     9.98667338E-25
  -4.61999997E-02     9.98392617E-25
  -4.43999991E-02     9.98093639E-25
  -4.25999984E-02     9.97780658E-25
  -4.08000015E-02     9.97470537E-25
  -3.90000008E-02     9.97188815E-25
  -3.72000001E-02     9.96972273E-25
  -3.53999995E-02     9.96872285E-25
  -3.35999988E-02     9.96958566E-25
  -3.18000019E-02     9.97322626E-25
  -2.99999993E-02     9.98083482E-25
  -2.82000005E-02     9.99392301E-25
  -2.63999999E-02     1.00143792E-24
  -2.45999992E-02     1.00445304E-24
  -2.28000004E-02     1.00871920E-24
  -2.09999997E-02     1.01457275E-24
  -1.92000009E-02     1.02240781E-24
  -1.74000002E-02     1.03267967E-24
  -1.55999996E-02     1.04590364E-24
  -1.37999998E-02     1.06265125E-24
  -1.20000001E-02     1.08354019E-24
  -1.02000004E-02     1.10921771E-24
  -8.39999970E-03     1.14033453E-24
  -6.59999996E-03     1.17750733E-24
  -4.80000023E-03     1.22126643E-24
  -3.00000003E-03     1.27198565E-24
  -1.20000006E-03     1.32979111E-24
   6.00000028E-04     1.39444408E-24
   2.40000011E-03     1.46519563E-24
   4.19999985E-03     1.54060590E-24
   6.00000005E-03     1.61832714E-24
   7.79999979E-03     1.69484320E-24
   9.60000046E-03     1.76516581E-24
   1.14000002E-02     1.82248129E-24
   1.31999999E-02     1.85775126E-24
   1.49999997E-02     1.85926390E-24
   1.67999994E-02     1.81214307E-24
   1.86000001E-02     1.69782332E-24
   2.04000007E-02     1.49349750E-24
   2.21999995E-02     1.17156287E-24
   2.40000002E-02     6.99083505E-25
   2.58000009E-02     3.73047084E-26
   2.75999997E-02    -8.58739092E-25
   2.94000003E-02    -2.04046762E-24
   3.11999992E-02    -3.56578816E-24
   3.29999998E-02    -5.49883264E-24
   3.48000005E-02    -7.90930876E-24
   3.66000012E-02    -1.08713505E-23
   3.84000018E-02    -1.44617389E-23
   4.01999988E-02    -1.87573469E-23
   4.19999994E-02    -2.38316489E-23
   4.38000001E-02    -2.97501062E-23
   4.56000008E-02    -3.65642488E-23
   4.74000014E-02    -4.43042113E-23
   4.91999984E-02    -5.29695801E-23
   5.09999990E-02    -6.25182996E-23
   5.27999997E-02    -7.28533935E-23
   5.46000004E-02    -8.38074340E-23
   5.64000010E-02    -9.51245461E-23
   5.82000017E-02    -1.06439841E-22
   5.99999987E-02    -1.17256234E-22
   6.17999993E-02    -1.26918884E-22
   6.36000037E-02    -1.34587155E-22
   6.53999969E-02    -1.39204667E-22
   6.71999976E-02    -1.39467869E-22
   6.89999983E-02    -1.33793637E-22
   7.07999989E-02    -1.20287303E-22
   7.25999996E-02    -9.67117217E-23
   7.44000003E-02    -6.04593916E-23
   7.62000009E-02    -8.52949385E-24
   7.80000016E-02     6.24885311E-23
   7.98000023E-02     1.56421121E-22
   8.16000029E-02     2.77504555E-22
   8.34000036E-02     4.30362322E-22
   8.51999968E-02     6.19962226E-22
   8.69999975E-02     8.51549018E-22
   8.87999982E-02     1.13054779E-21
   9.05999988E-02     1.46243210E-21
   9.23999995E-02     1.85255277E-21
   9.42000002E-02     2.30592085E-21
   9.60000008E-02     2.82693983E-21
   9.78000015E-02     3.41908038E-21
   9.96000022E-02     4.08449346E-21
  0.101400003         4.82355753E-21
  0.103200004         5.63435488E-21
  0.104999997         6.51207590E-21
  0.106799997         7.44834944E-21
  0.108599998         8.43049717E-21
  0.110399999         9.44072542E-21
  0.112199999         1.04552471E-20
  0.114000000         1.14433499E-20
  0.115800001         1.23664253E-20
  0.117600001         1.31769718E-20
  0.119400002         1.38175949E-20
  0.121200003         1.42200248E-20
  0.123000003         1.43042065E-20
  0.124799997         1.39774573E-20
  0.126599997         1.31337847E-20
  0.128399998         1.16533601E-20
  0.130199999         9.40224618E-21
  0.131999999         6.23241212E-21
  0.133800000         1.98209560E-21
  0.135600001        -3.52340773E-21
  0.137400001        -1.04704748E-20
  0.139200002        -1.90553429E-20
  0.141000003        -2.94816670E-20
  0.142800003        -4.19574183E-20
  0.144600004        -5.66910430E-20
  0.146400005        -7.38868613E-20
  0.148200005        -9.37396225E-20
  0.150000006        -1.16428308E-19
  0.151800007        -1.42109022E-19
  0.153600007        -1.70907147E-19
  0.155399993        -2.02908723E-19
  0.157199994        -2.38151166E-19
  0.158999994        -2.76613384E-19
  0.160799995        -3.18205499E-19
  0.162599996        -3.62758352E-19
  0.164399996        -4.10012802E-19
  0.166199997        -4.59609517E-19
  0.167999998        -5.11079022E-19
  0.169799998        -5.63832465E-19
  0.171599999        -6.17154130E-19
  0.173400000        -6.70194347E-19
  0.175200000        -7.21965462E-19
  0.177000001        -7.71339149E-19
  0.178800002        -8.17046771E-19
  0.180600002        -8.57682432E-19
  0.182400003        -8.91709282E-19
  0.184200004        -9.17469341E-19
  0.186000004        -9.33196112E-19
  0.187800005        -9.37031749E-19
  0.189600006        -9.27047058E-19
  0.191400006        -9.01263839E-19
  0.193200007        -8.57680881E-19
  0.194999993        -7.94301165E-19
  0.196799994        -7.09159879E-19
  0.198599994        -6.00352024E-19
  0.200399995        -4.66058373E-19
  0.202199996        -3.04567049E-19
  0.203999996        -1.14290033E-19
  0.205799997         1.06229242E-19
  0.207599998         3.58318822E-19
  0.209399998         6.43195430E-19
  0.211199999         9.61998231E-19
  0.213000000         1.31584345E-18
  0.214800000         1.70590264E-18
  0.216600001         2.13350808E-18
  0.218400002         2.60028920E-18
  0.220200002         3.10834270E-18
  0.222000003         3.66043841E-18
  0.223800004         4.26026677E-18
  0.225600004         4.91272327E-18
  0.227400005         5.62423963E-18
  0.229200006         6.40314929E-18
  0.231000006         7.26010137E-18
  0.232800007         8.20850530E-18
  0.234599993         9.26500768E-18
  0.236399993         1.04500018E-17
  0.238199994         1.17881459E-17
  0.239999995         1.33088952E-17
  0.241799995         1.50470159E-17
  0.243599996         1.70430904E-17
  0.245399997         1.93439693E-17
  0.247199997         2.20031664E-17
  0.248999998         2.50811568E-17
  0.250800014         2.86455657E-17
  0.252600014         3.27712150E-17
  0.254400015         3.75399874E-17
  0.256199986         4.30404837E-17
  0.257999986         4.93674327E-17
  0.259799987         5.66208041E-17
  0.261599988         6.49046407E-17
  0.263399988         7.43254669E-17
  0.265199989         8.49903860E-17
  0.266999990         9.70047013E-17
  0.268799990         1.10469044E-16
  0.270599991         1.25476139E-16
  0.272399992         1.42106943E-16
  0.274199992         1.60426333E-16
  0.275999993         1.80478276E-16
  0.277799994         2.02280441E-16
  0.279599994         2.25818322E-16
  0.281399995         2.51038940E-16
  0.283199996         2.77844012E-16
  0.284999996         3.06082873E-16
  0.286799997         3.35544955E-16
  0.288599998         3.65952141E-16
  0.290399998         3.96951006E-16
  0.292199999         4.28105036E-16
  0.294000000         4.58886981E-16
  0.295800000         4.88671836E-16
  0.297600001         5.16729538E-16
  0.299400002         5.42219565E-16
  0.301200002         5.64185353E-16
  0.303000003         5.81550428E-16
  0.304800004         5.93115869E-16
  0.306600004         5.97559351E-16
  0.308400005         5.93436524E-16
  0.310200006         5.79183448E-16
  0.312000006         5.53123155E-16
  0.313800007         5.13473596E-16
  0.315600008         4.58359280E-16
  0.317400008         3.85826234E-16
  0.319200009         2.93859790E-16
  0.321000010         1.80407231E-16
  0.322800010         4.34033116E-17
  0.324600011        -1.19199492E-16
  0.326400012        -3.09396704E-16
  0.328200012        -5.29093519E-16
  0.330000013        -7.80061705E-16
  0.331800014        -1.06389286E-15
  0.333600014        -1.38194685E-15
  0.335399985        -1.73529639E-15
  0.337199986        -2.12466907E-15
  0.338999987        -2.55038381E-15
  0.340799987        -3.01228675E-15
  0.342599988        -3.50968208E-15
  0.344399989        -4.04126322E-15
  0.346199989        -4.60504285E-15
  0.347999990        -5.19828143E-15
  0.349799991        -5.81741381E-15
  0.351599991        -6.45798544E-15
  0.353399992        -7.11458209E-15
  0.355199993        -7.78076927E-15
  0.356999993        -8.44903506E-15
  0.358799994        -9.11074144E-15
  0.360599995        -9.75607890E-15
  0.362399995        -1.03740360E-14
  0.364199996        -1.09523833E-14
  0.365999997        -1.14776598E-14
  0.367799997        -1.19351847E-14
  0.369599998        -1.23090853E-14
  0.371399999        -1.25823390E-14
  0.373199999        -1.27368353E-14
  0.375000000        -1.27534752E-14
  0.376800001        -1.26122782E-14
  0.378600001        -1.22925241E-14
  0.380400002        -1.17729270E-14
  0.382200003        -1.10318274E-14
  0.384000003        -1.00474396E-14
  0.385800004        -8.79810242E-15
  0.387600005        -7.26258754E-15
  0.389400005        -5.42043827E-15
  0.391200006        -3.25233610E-15
  0.393000007        -7.40506854E-16
  0.394800007         2.13083208E-15
  0.396600008         5.37499664E-15
  0.398400009         9.00232800E-15
  0.400200009         1.30196528E-14
  0.402000010         1.74297137E-14
  0.403800011         2.22305779E-14
  0.405600011         2.74150362E-14
  0.407400012         3.29699714E-14
  0.409200013         3.88757359E-14
  0.411000013         4.51055243E-14
  0.412800014         5.16247540E-14
  0.414600015         5.83904873E-14
  0.416399986         6.53508213E-14
  0.418199986         7.24444512E-14
  0.419999987         7.96001381E-14
  0.421799988         8.67363364E-14
  0.423599988         9.37609365E-14
  0.425399989         1.00571020E-13
  0.427199990         1.07052808E-13
  0.428999990         1.13081738E-13
  0.430799991         1.18522678E-13
  0.432599992         1.23230324E-13
  0.434399992         1.27049819E-13
  0.436199993         1.29817557E-13
  0.437999994         1.31362260E-13
  0.439799994         1.31506215E-13
  0.441599995         1.30066869E-13
  0.443399996         1.26858661E-13
  0.445199996         1.21695107E-13
  0.446999997         1.14391271E-13
  0.448799998         1.04766354E-13
  0.450599998         9.26468578E-14
  0.452399999         7.78697582E-14
  0.454200000         6.02860928E-14
  0.456000000         3.97648528E-14
  0.457800001         1.61970098E-14
  0.459600002        -1.05001753E-14
  0.461400002        -4.03786603E-14
  0.463200003        -7.34550292E-14
  0.465000004        -1.09705790E-13
  0.466800004        -1.49062661E-13
  0.468600005        -1.91407898E-13
  0.470400006        -2.36569661E-13
  0.472200006        -2.84317708E-13
  0.474000007        -3.34359303E-13
  0.475800008        -3.86335468E-13
  0.477600008        -4.39817751E-13
  0.479400009        -4.94305606E-13
  0.481200010        -5.49224403E-13
  0.483000010        -6.03924246E-13
  0.484800011        -6.57680019E-13
  0.486600012        -7.09691745E-13
  0.488400012        -7.59086966E-13
  0.490200013        -8.04923782E-13
  0.492000014        -8.46195509E-13
  0.493800014        -8.81836542E-13
  0.495599985        -9.10730150E-13
  0.497399986        -9.31717268E-13
  0.499199986        -9.43608039E-13
  0.500999987        -9.45193468E-13
  0.502799988        -9.35260333E-13
  0.504599988        -9.12606687E-13
  0.506399989        -8.76059425E-13
  0.508199990        -8.24493902E-13
  0.509999990        -7.56853673E-13
  0.511799991        -6.72173634E-13
  0.513599992        -5.69602145E-13
  0.515399992        -4.48426073E-13
  0.517199993        -3.08095238E-13
  0.518999994        -1.48248343E-13
  0.520799994         3.12616889E-14
  0.522599995         2.30341923E-13
  0.524399996         4.48634538E-13
  0.526199996         6.85492570E-13
  0.527999997         9.39957313E-13
  0.529799998         1.21073702E-12
  0.531599998         1.49618870E-12
  0.533399999         1.79430169E-12
  0.535200000         2.10268651E-12
  0.537000000         2.41856340E-12
  0.538800001         2.73876082E-12
  0.540600002         3.05971437E-12
  0.542400002         3.37747343E-12
  0.544200003         3.68771116E-12
  0.546000004         3.98574446E-12
  0.547800004         4.26655803E-12
  0.549600005         4.52483407E-12
  0.551400006         4.75499327E-12
  0.553200006         4.95123907E-12
  0.555000007         5.10761225E-12
  0.556800008         5.21805255E-12
  0.558600008         5.27646546E-12
  0.560400009         5.27679940E-12
  0.562200010         5.21312984E-12
  0.564000010         5.07974609E-12
  0.565800011         4.87124967E-12
  0.567600012         4.58265067E-12
  0.569400012         4.20947825E-12
  0.571200013         3.74788525E-12
  0.573000014         3.19476108E-12
  0.574800014         2.54784236E-12
  0.576600015         1.80582600E-12
  0.578400016         9.68478553E-13
  0.580200016         3.67430458E-14
  0.582000017        -9.87159790E-13
  0.583800018        -2.09963644E-12
  0.585600019        -3.29563525E-12
  0.587400019        -4.56857122E-12
  0.589200020        -5.91026403E-12
  0.591000021        -7.31088974E-12
  0.592800021        -8.75895103E-12
  0.594600022        -1.02412636E-11
  0.596400023        -1.17429686E-11
  0.598200023        -1.32475550E-11
  0.600000024        -1.47369200E-11
  0.601800025        -1.61914510E-11
  0.603600025        -1.75901290E-11
  0.605400026        -1.89106612E-11
  0.607200027        -2.01296479E-11
  0.609000027        -2.12227718E-11
  0.610800028        -2.21650198E-11
  0.612600029        -2.29309332E-11
  0.614400029        -2.34948866E-11
  0.616199970        -2.38313830E-11
  0.617999971        -2.39154078E-11
  0.619799972        -2.37227581E-11
  0.621599972        -2.32304436E-11
  0.623399973        -2.24170561E-11
  0.625199974        -2.12632013E-11
  0.626999974        -1.97519119E-11
  0.628799975        -1.78690725E-11
  0.630599976        -1.56038533E-11
  0.632399976        -1.29491435E-11
  0.634199977        -9.90195599E-12
  0.635999978        -6.46384118E-12
  0.637799978        -2.64126741E-12
  0.639599979         1.55402731E-12
  0.641399980         6.10471569E-12
  0.643199980         1.09876049E-11
  0.644999981         1.61734064E-11
  0.646799982         2.16265651E-11
  0.648599982         2.73051547E-11
  0.650399983         3.31608456E-11
  0.652199984         3.91389213E-11
  0.653999984         4.51784374E-11
  0.655799985         5.12123954E-11
  0.657599986         5.71680654E-11
  0.659399986         6.29673882E-11
  0.661199987         6.85274754E-11
  0.662999988         7.37612124E-11
  0.664799988         7.85779844E-11
  0.666599989         8.28844562E-11
  0.668399990         8.65855443E-11
  0.670199990         8.95854016E-11
  0.671999991         9.17885282E-11
  0.673799992         9.31009991E-11
  0.675599992         9.34317415E-11
  0.677399993         9.26939012E-11
  0.679199994         9.08062722E-11
  0.680999994         8.76947820E-11
  0.682799995         8.32939828E-11
  0.684599996         7.75485925E-11
  0.686399996         7.04150627E-11
  0.688199997         6.18630563E-11
  0.689999998         5.18769576E-11
  0.691799998         4.04572729E-11
  0.693599999         2.76220158E-11
  0.695400000         1.34079145E-11
  0.697200000        -2.12847340E-12
  0.699000001        -1.89098008E-11
  0.700800002        -3.68371653E-11
  0.702600002        -5.57895362E-11
  0.704400003        -7.56234103E-11
  0.706200004        -9.61727295E-11
  0.708000004        -1.17249058E-10
  0.709800005        -1.38642098E-10
  0.711600006        -1.60120431E-10
  0.713400006        -1.81432674E-10
  0.715200007        -2.02309017E-10
  0.717000008        -2.22462854E-10
  0.718800008        -2.41593218E-10
  0.720600009        -2.59387123E-10
  0.722400010        -2.75522632E-10
  0.724200010        -2.89672009E-10
  0.726000011        -3.01505321E-10
  0.727800012        -3.10694415E-10
  0.729600012        -3.16917187E-10
  0.731400013        -3.19861942E-10
  0.733200014        -3.19232224E-10
  0.735000014        -3.14751780E-10
  0.736800015        -3.06169506E-10
  0.738600016        -2.93264801E-10
  0.740400016        -2.75852591E-10
  0.742200017        -2.53788657E-10
  0.744000018        -2.26974606E-10
  0.745800018        -1.95362879E-10
  0.747600019        -1.58961400E-10
  0.749400020        -1.17837948E-10
  0.751200020        -7.21240082E-11
  0.753000021        -2.20183038E-11
  0.754800022         3.22103663E-11
  0.756600022         9.02209071E-11
  0.758400023         1.51598498E-10
  0.760200024         2.15853946E-10
  0.762000024         2.82423973E-10
  0.763800025         3.50672325E-10
  0.765600026         4.19892260E-10
  0.767400026         4.89309593E-10
  0.769200027         5.58087576E-10
  0.771000028         6.25332064E-10
  0.772800028         6.90098867E-10
  0.774600029         7.51401108E-10
  0.776400030         8.08219047E-10
  0.778199971         8.59509963E-10
  0.779999971         9.04219755E-10
  0.781799972         9.41295375E-10
  0.783599973         9.69698322E-10
  0.785399973         9.88419124E-10
  0.787199974         9.96492000E-10
  0.788999975         9.93010674E-10
  0.790799975         9.77144476E-10
  0.792599976         9.48154777E-10
  0.794399977         9.05411468E-10
  0.796199977         8.48409010E-10
  0.797999978         7.76782416E-10
  0.799799979         6.90322965E-10
  0.801599979         5.88992022E-10
  0.803399980         4.72934858E-10
  0.805199981         3.42492396E-10
  0.806999981         1.98211586E-10
  0.808799982         4.08539036E-11
  0.810599983        -1.28598493E-10
  0.812399983        -3.08938958E-10
  0.814199984        -4.98735053E-10
  0.815999985        -6.96330438E-10
  0.817799985        -8.99849306E-10
  0.819599986        -1.10720477E-09
  0.821399987        -1.31610978E-09
  0.823199987        -1.52409219E-09
  0.824999988        -1.72851300E-09
  0.826799989        -1.92658867E-09
  0.828599989        -2.11541584E-09
  0.830399990        -2.29200081E-09
  0.832199991        -2.45329113E-09
  0.833999991        -2.59621169E-09
  0.835799992        -2.71770251E-09
  0.837599993        -2.81475931E-09
  0.839399993        -2.88447666E-09
  0.841199994        -2.92409252E-09
  0.842999995        -2.93103497E-09
  0.844799995        -2.90296920E-09
  0.846599996        -2.83784352E-09
  0.848399997        -2.73393752E-09
  0.850199997        -2.58990651E-09
  0.851999998        -2.40482678E-09
  0.853799999        -2.17823604E-09
  0.855599999        -1.91017224E-09
  0.857400000        -1.60120817E-09
  0.859200001        -1.25248067E-09
  0.861000001        -8.65714944E-10
  0.862800002        -4.43242970E-10
  0.864600003         1.19853476E-11
  0.866400003         4.96398478E-10
  0.868200004         1.00580722E-09
  0.870000005         1.53541768E-09
  0.871800005         2.07985251E-09
  0.873600006         2.63318212E-09
  0.875400007         3.18896487E-09
  0.877200007         3.74029785E-09
  0.879000008         4.27987557E-09
  0.880800009         4.80005946E-09
  0.882600009         5.29295541E-09
  0.884400010         5.75050185E-09
  0.886200011         6.16456353E-09
  0.888000011         6.52703713E-09
  0.889800012         6.82995438E-09
  0.891600013         7.06560188E-09
  0.893400013         7.22663795E-09
  0.895200014         7.30621519E-09
  0.897000015         7.29810212E-09
  0.898800015         7.19680893E-09
  0.900600016         6.99770597E-09
  0.902400017         6.69714550E-09
  0.904200017         6.29257446E-09
  0.906000018         5.78263748E-09
  0.907800019         5.16727727E-09
  0.909600019         4.44782122E-09
  0.911400020         3.62705355E-09
  0.913200021         2.70927591E-09
  0.915000021         1.70035164E-09
  0.916800022         6.07730644E-10
  0.918600023        -5.59542801E-10
  0.920400023        -1.79084325E-09
  0.922200024        -3.07399928E-09
  0.924000025        -4.39534897E-09
  0.925800025        -5.73982017E-09
  0.927600026        -7.09103221E-09
  0.929400027        -8.43142178E-09
  0.931200027        -9.74239178E-09
  0.933000028        -1.10044782E-08
  0.934800029        -1.21975443E-08
  0.936600029        -1.33009888E-08
  0.938399971        -1.42939784E-08
  0.940199971        -1.51556847E-08
  0.941999972        -1.58655524E-08
  0.943799973        -1.64035558E-08
  0.945599973        -1.67504943E-08
  0.947399974        -1.68882544E-08
  0.949199975        -1.68001044E-08
  0.950999975        -1.64709739E-08
  0.952799976        -1.58877231E-08
  0.954599977        -1.50394150E-08
  0.956399977        -1.39175533E-08
  0.958199978        -1.25163231E-08
  0.959999979        -1.08328013E-08
  0.961799979        -8.86712836E-09
  0.963599980        -6.62267086E-09
  0.965399981        -4.10613277E-09
  0.967199981        -1.32764166E-09
  0.968999982         1.69921432E-09
  0.970799983         4.95738517E-09
  0.972599983         8.42640713E-09
  0.974399984         1.20824906E-08
  0.976199985         1.58986637E-08
  0.977999985         1.98449648E-08
  0.979799986         2.38886582E-08
  0.981599987         2.79945382E-08
  0.983399987         3.21252394E-08
  0.985199988         3.62416053E-08
  0.986999989         4.03031102E-08
  0.988799989         4.42682868E-08
  0.990599990         4.80952096E-08
  0.992399991         5.17419814E-08
  0.994199991         5.51672912E-08
  0.995999992         5.83308974E-08
  0.997799993         6.11942212E-08
  0.999599993         6.37208544E-08
   1.00139999         6.58771313E-08
   1.00320005         6.76325982E-08
   1.00500000         6.89605812E-08
   1.00680006         6.98385918E-08
   1.00860000         7.02487881E-08
   1.01040006         7.01783662E-08
   1.01220000         6.96198370E-08
   1.01400006         6.85713530E-08
   1.01580000         6.70368649E-08
   1.01760006         6.50262635E-08
   1.01940000         6.25554151E-08
   1.02119994         5.96461263E-08
   1.02300000         5.63260230E-08
   1.02479994         5.26283195E-08
   1.02660000         4.85915308E-08
   1.02839994         4.42590711E-08
   1.03020000         3.96787705E-08
   1.03199995         3.49022891E-08
   1.03380001         2.99845020E-08
   1.03559995         2.49827288E-08
   1.03740001         1.99559711E-08
   1.03919995         1.49640282E-08
   1.04100001         1.00666071E-08
   1.04279995         5.32236166E-09
   1.04460001         7.87912124E-10
   1.04639995        -3.48314755E-09
   1.04820001        -7.44125073E-09
   1.04999995        -1.10418501E-08
   1.05180001        -1.42463747E-08
   1.05359995        -1.70231580E-08
   1.05540001        -1.93483096E-08
   1.05719995        -2.12064979E-08
   1.05900002        -2.25916725E-08
   1.06079996        -2.35076758E-08
   1.06260002        -2.39687203E-08
   1.06439996        -2.39997782E-08
   1.06620002        -2.36368010E-08
   1.06799996        -2.29267965E-08
   1.06980002        -2.19277698E-08
   1.07159996        -2.07084714E-08
   1.07340002        -1.93479881E-08
   1.07519996        -1.79351733E-08
   1.07700002        -1.65678937E-08
   1.07879996        -1.53521018E-08
   1.08060002        -1.44007393E-08
   1.08239996        -1.38325023E-08
   1.08420002        -1.37704310E-08
   1.08599997        -1.43403858E-08
   1.08780003        -1.56693574E-08
   1.08959997        -1.78837105E-08
   1.09140003        -2.11073061E-08
   1.09319997        -2.54595722E-08
   1.09500003        -3.10534993E-08
   1.09679997        -3.79936331E-08
   1.09860003        -4.63740655E-08
   1.10039997        -5.62764200E-08
   1.10220003        -6.77679282E-08
   1.10399997        -8.08995679E-08
   1.10580003        -9.57042801E-08
   1.10759997        -1.12195345E-07
   1.10940003        -1.30364953E-07
   1.11119998        -1.50182842E-07
   1.11300004        -1.71595289E-07
   1.11479998        -1.94524247E-07
   1.11660004        -2.18866646E-07
   1.11839998        -2.44494203E-07
   1.12020004        -2.71253242E-07
   1.12199998        -2.98964977E-07
   1.12380004        -3.27426051E-07
   1.12559998        -3.56409259E-07
   1.12740004        -3.85664919E-07
   1.12919998        -4.14921971E-07
   1.13100004        -4.43890144E-07
   1.13279998        -4.72261519E-07
   1.13460004        -4.99713224E-07
   1.13639998        -5.25909741E-07
   1.13820004        -5.50505831E-07
   1.13999999        -5.73149407E-07
   1.14180005        -5.93484742E-07
   1.14359999        -6.11155883E-07
   1.14540005        -6.25810060E-07
   1.14719999        -6.37101039E-07
   1.14900005        -6.44692932E-07
   1.15079999        -6.48263779E-07
   1.15260005        -6.47508784E-07
   1.15439999        -6.42144187E-07
   1.15620005        -6.31910268E-07