 -0.300000012         1.00000002E-24
 -0.298200011         1.00000002E-24
 -0.296400011         1.00000002E-24
 -0.294600010         1.00000002E-24
 -0.292800009         1.00000002E-24
 -0.291000009         1.00000002E-24
 -0.289200008         1.00000002E-24
 -0.287400007         1.00000002E-24
 -0.285600007         1.00000002E-24
 -0.283800006         1.00000002E-24
 -0.282000005         1.00000012E-24
 -0.280200005         1.00000022E-24
 -0.278400004         1.00000022E-24
 -0.276600003         1.00000022E-24
 -0.274800003         1.00000022E-24
 -0.273000002         1.00000022E-24
 -0.271200001         1.00000022E-24
 -0.269400001         1.00000022E-24
 -0.267600000         1.00000022E-24
 -0.265799999         1.00000022E-24
 -0.263999999         1.00000022E-24
 -0.262199998         1.00000022E-24
 -0.260399997         1.00000022E-24
 -0.258599997         1.00000022E-24
 -0.256799996         1.00000022E-24
 -0.254999995         1.00000022E-24
 -0.253199995         1.00000022E-24
 -0.251399994         1.00000022E-24
 -0.249599993         1.00000022E-24
 -0.247799993         1.00000022E-24
 -0.246000007         1.00000022E-24
 -0.244200006         1.00000022E-24
 -0.242400005         1.00000022E-24
 -0.240600005         1.00000012E-24
 -0.238800004         1.00000002E-24
 -0.237000003         1.00000002E-24
 -0.235200003         1.00000002E-24
 -0.233400002         1.00000022E-24
 -0.231600001         1.00000051E-24
 -0.229800001         1.00000101E-24
 -0.228000000         1.00000199E-24
 -0.226199999         1.00000377E-24
 -0.224399999         1.00000682E-24
 -0.222599998         1.00001185E-24
 -0.220799997         1.00001984E-24
 -0.218999997         1.00003236E-24
 -0.217199996         1.00005139E-24
 -0.215399995         1.00007969E-24
 -0.213599995         1.00012062E-24
 -0.211799994         1.00017810E-24
 -0.209999993         1.00025610E-24
 -0.208199993         1.00035836E-24
 -0.206400007         1.00048704E-24
 -0.204600006         1.00064067E-24
 -0.202800006         1.00081186E-24
 -0.201000005         1.00098304E-24
 -0.199200004         1.00112139E-24
 -0.197400004         1.00117158E-24
 -0.195600003         1.00104694E-24
 -0.193800002         1.00061760E-24
 -0.192000002         9.99696407E-25
 -0.190200001         9.98022049E-25
 -0.188400000         9.95237666E-25
 -0.186600000         9.90866687E-25
 -0.184799999         9.84282459E-25
 -0.182999998         9.74672358E-25
 -0.181199998         9.60994003E-25
 -0.179399997         9.41922206E-25
 -0.177599996         9.15782708E-25
 -0.175799996         8.80472210E-25
 -0.173999995         8.33359464E-25
 -0.172199994         7.71167199E-25
 -0.170399994         6.89834210E-25
 -0.168599993         5.84359908E-25
 -0.166800007         4.48640678E-25
 -0.165000007         2.75313886E-25
 -0.163200006         5.56385815E-26
 -0.161400005        -2.20541695E-25
 -0.159600005        -5.64686851E-25
 -0.157800004        -9.89201993E-25
 -0.156000003        -1.50670096E-24
 -0.154200003        -2.12871453E-24
 -0.152400002        -2.86361400E-24
 -0.150600001        -3.71346331E-24
 -0.148800001        -4.66944361E-24
 -0.147000000        -5.70543097E-24
 -0.145199999        -6.76923436E-24
 -0.143399999        -7.77095124E-24
 -0.141599998        -8.56784669E-24
 -0.139799997        -8.94515649E-24
 -0.137999997        -8.59224064E-24
 -0.136199996        -7.07359820E-24
 -0.134399995        -3.79442845E-24
 -0.132599995         2.03930641E-24
 -0.130799994         1.14659773E-23
 -0.128999993         2.58176614E-23
 -0.127200007         4.67721784E-23
 -0.125400007         7.64052807E-23
 -0.123599999         1.17239347E-22
 -0.121799998         1.72283511E-22
 -0.119999997         2.45058593E-22
 -0.118199997         3.39598334E-22
 -0.116400003         4.60416029E-22
 -0.114600003         6.12423493E-22
 -0.112800002         8.00787018E-22
 -0.111000001         1.03070087E-21
 -0.109200001         1.30705806E-21
 -0.107400000         1.63399342E-21
 -0.105599999         2.01427224E-21
 -0.103799999         2.44849662E-21
 -0.101999998         2.93409728E-21
 -0.100199997         3.46408296E-21
  -9.83999968E-02     4.02551565E-21
  -9.66000035E-02     4.59768714E-21
  -9.48000029E-02     5.14997601E-21
  -9.30000022E-02     5.63937693E-21
  -9.12000015E-02     6.00769929E-21
  -8.94000009E-02     6.17846160E-21
  -8.76000002E-02     6.05351896E-21
  -8.57999995E-02     5.50949705E-21
  -8.39999989E-02     4.39413972E-21
  -8.21999982E-02     2.52271528E-21
  -8.03999975E-02    -3.25324420E-22
  -7.85999969E-02    -4.40918447E-21
  -7.68000036E-02    -1.00287636E-20
  -7.50000030E-02    -1.75255096E-20
  -7.32000023E-02    -2.72816703E-20
  -7.14000016E-02    -3.97174132E-20
  -6.96000010E-02    -5.52852754E-20
  -6.78000003E-02    -7.44612607E-20
  -6.59999996E-02    -9.77319193E-20
  -6.41999990E-02    -1.25576680E-19
  -6.23999983E-02    -1.58444572E-19
  -6.06000014E-02    -1.96724656E-19
  -5.88000007E-02    -2.40709326E-19
  -5.70000000E-02    -2.90549646E-19
  -5.51999994E-02    -3.46202306E-19
  -5.33999987E-02    -4.07367297E-19
  -5.16000018E-02    -4.73416403E-19
  -4.98000011E-02    -5.43311872E-19
  -4.80000004E-02    -6.15515744E-19
  -4.61999997E-02    -6.87890790E-19
  -4.43999991E-02    -7.57592751E-19
  -4.25999984E-02    -8.20957164E-19
  -4.08000015E-02    -8.73381441E-19
  -3.90000008E-02    -9.09206117E-19
  -3.72000001E-02    -9.21597489E-19
  -3.53999995E-02    -9.02437918E-19
  -3.35999988E-02    -8.42227493E-19
  -3.18000019E-02    -7.30003331E-19
  -2.99999993E-02    -5.53284206E-19
  -2.82000005E-02    -2.98047831E-19
  -2.63999999E-02     5.12506729E-20
  -2.45999992E-02     5.11609761E-19
  -2.28000004E-02     1.10135211E-18
  -2.09999997E-02     1.83992451E-18
  -1.92000009E-02     2.74761730E-18
  -1.74000002E-02     3.84519375E-18
  -1.55999996E-02     5.15341876E-18
  -1.37999998E-02     6.69247845E-18
  -1.20000001E-02     8.48128548E-18
  -1.02000004E-02     1.05366630E-17
  -8.39999970E-03     1.28724060E-17
  -6.59999996E-03     1.54982131E-17
  -4.80000023E-03     1.84185098E-17
  -3.00000003E-03     2.16311486E-17
  -1.20000006E-03     2.51260115E-17
   6.00000028E-04     2.88835323E-17
   2.40000011E-03     3.28731435E-17
   4.19999985E-03     3.70517093E-17
   6.00000005E-03     4.13619191E-17
   7.79999979E-03     4.57307530E-17
   9.60000046E-03     5.00679885E-17
   1.14000002E-02     5.42648415E-17
   1.31999999E-02     5.81927649E-17
   1.49999997E-02     6.17024724E-17
   1.67999994E-02     6.46232273E-17
   1.86000001E-02     6.67624752E-17
   2.04000007E-02     6.79057976E-17
   2.21999995E-02     6.78173554E-17
   2.40000002E-02     6.62407426E-17
   2.58000009E-02     6.29003424E-17
   2.75999997E-02     5.75032668E-17
   2.94000003E-02     4.97417352E-17
   3.11999992E-02     3.92960620E-17
   3.29999998E-02     2.58381180E-17
   3.48000005E-02     9.03527150E-18
   3.66000012E-02    -1.14452622E-17
   3.84000018E-02    -3.59317729E-17
   4.01999988E-02    -6.47432214E-17
   4.19999994E-02    -9.81843402E-17
   4.38000001E-02    -1.36540891E-16
   4.56000008E-02    -1.80075327E-16
   4.74000014E-02    -2.29022992E-16
   4.91999984E-02    -2.83589172E-16
   5.09999990E-02    -3.43947416E-16
   5.27999997E-02    -4.10239312E-16
   5.46000004E-02    -4.82575899E-16
   5.64000010E-02    -5.61041537E-16
   5.82000017E-02    -6.45699727E-16
   5.99999987E-02    -7.36602244E-16
   6.17999993E-02    -8.33800704E-16
   6.36000037E-02    -9.37361494E-16
   6.53999969E-02    -1.04738409E-15
   6.71999976E-02    -1.16402222E-15
   6.89999983E-02    -1.28750903E-15
   7.07999989E-02    -1.41818419E-15
   7.25999996E-02    -1.55652458E-15
   7.44000003E-02    -1.70317658E-15
   7.62000009E-02    -1.85898956E-15
   7.80000016E-02    -2.02505037E-15
   7.98000023E-02    -2.20271638E-15
   8.16000029E-02    -2.39364756E-15
   8.34000036E-02    -2.59983274E-15
   8.51999968E-02    -2.82361292E-15
   8.69999975E-02    -3.06769414E-15
   8.87999982E-02    -3.33515178E-15
   9.05999988E-02    -3.62942141E-15
   9.23999995E-02    -3.95427294E-15
   9.42000002E-02    -4.31376728E-15
   9.60000008E-02    -4.71218701E-15
   9.78000015E-02    -5.15394519E-15
   9.96000022E-02    -5.64346204E-15
  0.101400003        -6.18500536E-15
  0.103200004        -6.78249774E-15
  0.104999997        -7.43928116E-15
  0.106799997        -8.15783361E-15
  0.108599998        -8.93944088E-15
  0.110399999        -9.78381753E-15
  0.112199999        -1.06886690E-14
  0.114000000        -1.16492052E-14
  0.115800001        -1.26575903E-14
  0.117600001        -1.37023427E-14
  0.119400002        -1.47676738E-14
  0.121200003        -1.58327737E-14
  0.123000003        -1.68710498E-14
  0.124799997        -1.78493203E-14
  0.126599997        -1.87269633E-14
  0.128399998        -1.94550407E-14
  0.130199999        -1.99754086E-14
  0.131999999        -2.02198166E-14
  0.133800000        -2.01090128E-14
  0.135600001        -1.95518803E-14
  0.137400001        -1.84446235E-14
  0.139200002        -1.66700218E-14
  0.141000003        -1.40967780E-14
  0.142800003        -1.05789807E-14
  0.144600004        -5.95573217E-15
  0.146400005        -5.09464907E-17
  0.148200005         7.32663340E-15
  0.150000006         1.63831605E-14
  0.151800007         2.73391302E-14
  0.153600007         4.04284862E-14
  0.155399993         5.58973745E-14
  0.157199994         7.40024903E-14
  0.158999994         9.50089616E-14
  0.160799995         1.19187781E-13
  0.162599996         1.46812684E-13
  0.164399996         1.78156521E-13
  0.166199997         2.13486997E-13
  0.167999998         2.53061786E-13
  0.169799998         2.97123030E-13
  0.171599999         3.45891284E-13
  0.173400000         3.99558614E-13
  0.175200000         4.58281091E-13
  0.177000001         5.22170794E-13
  0.178800002         5.91286894E-13
  0.180600002         6.65626191E-13
  0.182400003         7.45113444E-13
  0.184200004         8.29590628E-13
  0.186000004         9.18806155E-13
  0.187800005         1.01240338E-12
  0.189600006         1.10990969E-12
  0.191400006         1.21072380E-12
  0.193200007         1.31410486E-12
  0.194999993         1.41916080E-12
  0.196799994         1.52483722E-12
  0.198599994         1.62990650E-12
  0.200399995         1.73295807E-12
  0.202199996         1.83238928E-12
  0.203999996         1.92639784E-12
  0.205799997         2.01297572E-12
  0.207599998         2.08990486E-12
  0.209399998         2.15475424E-12
  0.211199999         2.20488059E-12
  0.213000000         2.23743116E-12
  0.214800000         2.24934893E-12
  0.216600001         2.23738281E-12
  0.218400002         2.19809999E-12
  0.220200002         2.12790397E-12
  0.222000003         2.02305512E-12
  0.223800004         1.87969779E-12
  0.225600004         1.69389177E-12
  0.227400005         1.46164873E-12
  0.229200006         1.17897478E-12
  0.231000006         8.41918711E-13
  0.232800007         4.46626053E-13
  0.234599993        -1.06008376E-14
  0.236399993        -5.33236541E-13
  0.238199994        -1.12446033E-12
  0.239999995        -1.78707819E-12
  0.241799995        -2.52343914E-12
  0.243599996        -3.33534632E-12
  0.245399997        -4.22396276E-12
  0.247199997        -5.18971411E-12
  0.248999998        -6.23218621E-12
  0.250800014        -7.35002163E-12
  0.252600014        -8.54081042E-12
  0.254400015        -9.80098988E-12
  0.256199986        -1.11257323E-11
  0.257999986        -1.25088464E-11
  0.259799987        -1.39426734E-11
  0.261599988        -1.54179950E-11
  0.263399988        -1.69239466E-11
  0.265199989        -1.84479394E-11
  0.266999990        -1.99755993E-11
  0.268799990        -2.14907137E-11
  0.270599991        -2.29751964E-11
  0.272399992        -2.44090737E-11
  0.274199992        -2.57704934E-11
  0.275999993        -2.70357573E-11
  0.277799994        -2.81793790E-11
  0.279599994        -2.91741770E-11
  0.281399995        -2.99913913E-11
  0.283199996        -3.06008482E-11
  0.284999996        -3.09711493E-11
  0.286799997        -3.10699105E-11
  0.288599998        -3.08640336E-11
  0.290399998        -3.03200277E-11
  0.292199999        -2.94043713E-11
  0.294000000        -2.80839102E-11
  0.295800000        -2.63263161E-11
  0.297600001        -2.41005792E-11
  0.299400002        -2.13775352E-11
  0.301200002        -1.81304485E-11
  0.303000003        -1.43356195E-11
  0.304800004        -9.97303108E-12
  0.306600004        -5.02701786E-12
  0.308400005         5.13036228E-13
  0.310200006         6.65198452E-12
  0.312000006         1.33881994E-11
  0.313800007         2.07128568E-11
  0.315600008         2.86092192E-11
  0.317400008         3.70519553E-11
  0.319200009         4.60064764E-11
  0.321000010         5.54283251E-11
  0.322800010         6.52626217E-11
  0.324600011         7.54436028E-11
  0.326400012         8.58941876E-11
  0.328200012         9.65257041E-11
  0.330000013         1.07237726E-10
  0.331800014         1.17917995E-10
  0.333600014         1.28442576E-10
  0.335399985         1.38676057E-10
  0.337199986         1.48472054E-10
  0.338999987         1.57673777E-10
  0.340799987         1.66114941E-10
  0.342599988         1.73620784E-10
  0.344399989         1.80009313E-10
  0.346199989         1.85092858E-10
  0.347999990         1.88679752E-10
  0.349799991         1.90576360E-10
  0.351599991         1.90589253E-10
  0.353399992         1.88527666E-10
  0.355199993         1.84206123E-10
  0.356999993         1.77447376E-10
  0.358799994         1.68085407E-10
  0.360599995         1.55968655E-10
  0.362399995         1.40963463E-10
  0.364199996         1.22957505E-10
  0.365999997         1.01863434E-10
  0.367799997         7.76224501E-11
  0.369599998         5.02079697E-11
  0.371399999         1.96291698E-11
  0.373199999        -1.40655126E-11
  0.375000000        -5.07850706E-11
  0.376800001        -9.03928252E-11
  0.378600001        -1.32703612E-10
  0.380400002        -1.77481238E-10
  0.382200003        -2.24436483E-10
  0.384000003        -2.73225442E-10
  0.385800004        -3.23448518E-10
  0.387600005        -3.74649894E-10
  0.389400005        -4.26317842E-10
  0.391200006        -4.77885620E-10
  0.393000007        -5.28733168E-10
  0.394800007        -5.78189829E-10
  0.396600008        -6.25537733E-10
  0.398400009        -6.70016154E-10
  0.400200009        -7.10826897E-10
  0.402000010        -7.47140572E-10
  0.403800011        -7.78103970E-10
  0.405600011        -8.02848066E-10
  0.407400012        -8.20497559E-10
  0.409200013        -8.30180646E-10
  0.411000013        -8.31040237E-10
  0.412800014        -8.22245549E-10
  0.414600015        -8.03004496E-10
  0.416399986        -7.72577058E-10
  0.418199986        -7.30288607E-10
  0.419999987        -6.75543899E-10
  0.421799988        -6.07841222E-10
  0.423599988        -5.26786725E-10
  0.425399989        -4.32108183E-10
  0.427199990        -3.23668981E-10
  0.428999990        -2.01481165E-10
  0.430799991        -6.57178895E-11
  0.432599992         8.32750327E-11
  0.434399992         2.44968934E-10
  0.436199993         4.18643481E-10
  0.437999994         6.03379513E-10
  0.439799994         7.98053679E-10
  0.441599995         1.00133557E-09
  0.443399996         1.21168664E-09
  0.445199996         1.42736212E-09
  0.446999997         1.64641556E-09
  0.448799998         1.86670568E-09
  0.450599998         2.08590745E-09
  0.452399999         2.30152453E-09
  0.454200000         2.51090659E-09
  0.456000000         2.71126899E-09
  0.457800001         2.89971558E-09
  0.459600002         3.07326475E-09
  0.461400002         3.22887894E-09
  0.463200003         3.36349615E-09
  0.465000004         3.47406504E-09
  0.466800004         3.55758178E-09
  0.468600005         3.61113006E-09
  0.470400006         3.63192121E-09
  0.472200006         3.61733754E-09
  0.474000007         3.56497520E-09
  0.475800008         3.47268836E-09
  0.477600008         3.33863315E-09
  0.479400009         3.16131010E-09
  0.481200010         2.93960722E-09
  0.483000010         2.67283906E-09
  0.484800011         2.36078379E-09
  0.486600012         2.00371897E-09
  0.488400012         1.60245051E-09
  0.490200013         1.15833898E-09
  0.492000014         6.73320177E-10
  0.493800014         1.49920173E-10
  0.495599985        -4.08736378E-10
  0.497399986        -9.98924721E-10
  0.499199986        -1.61632552E-09
  0.500999987        -2.25603913E-09
  0.502799988        -2.91260638E-09
  0.504599988        -3.58004004E-09
  0.506399989        -4.25186242E-09
  0.508199990        -4.92115326E-09
  0.509999990        -5.58060487E-09
  0.511799991        -6.22258689E-09
  0.513599992        -6.83921852E-09
  0.515399992        -7.42244710E-09
  0.517199993        -7.96413513E-09
  0.518999994        -8.45615489E-09
  0.520799994        -8.89048302E-09
  0.522599995        -9.25930621E-09
  0.524399996        -9.55512736E-09
  0.526199996        -9.77087211E-09
  0.527999997        -9.89999727E-09
  0.529799998        -9.93660088E-09
  0.531599998        -9.87553062E-09
  0.533399999        -9.71248149E-09
  0.535200000        -9.44409617E-09
  0.537000000        -9.06805653E-09
  0.538800001        -8.58316529E-09
  0.540600002        -7.98941713E-09
  0.542400002        -7.28805949E-09
  0.544200003        -6.48164145E-09
  0.546000004        -5.57404567E-09
  0.547800004        -4.57050531E-09
  0.549600005        -3.47760420E-09
  0.551400006        -2.30325892E-09
  0.553200006        -1.05668252E-09
  0.555000007         2.51672377E-10
  0.556800008         1.61018832E-09
  0.558600008         3.00617931E-09
  0.560400009         4.42600534E-09
  0.562200010         5.85520565E-09
  0.564000010         7.27865412E-09
  0.565800011         8.68072547E-09
  0.567600012         1.00454844E-08
  0.569400012         1.13568834E-08
  0.571200013         1.25989734E-08
  0.573000014         1.37561287E-08
  0.574800014         1.48132759E-08
  0.576600015         1.57561253E-08
  0.578400016         1.65714127E-08
  0.580200016         1.72471228E-08
  0.582000017         1.77727308E-08
  0.583800018         1.81394118E-08
  0.585600019         1.83402555E-08
  0.587400019         1.83704589E-08
  0.589200020         1.82274924E-08
  0.591000021         1.79112565E-08
  0.592800021         1.74242025E-08
  0.594600022         1.67714287E-08
  0.596400023         1.59607350E-08
  0.598200023         1.50026533E-08
  0.600000024         1.39104328E-08
  0.601800025         1.26999860E-08
  0.603600025         1.13897967E-08
  0.605400026         1.00007798E-08
  0.607200027         8.55610072E-09
  0.609000027         7.08095049E-09
  0.610800028         5.60228086E-09
  0.612600029         4.14849355E-09
  0.614400029         2.74909340E-09
  0.616199970         1.43430079E-09
  0.617999971         2.34634479E-10
  0.619799972        -8.19538881E-10
  0.621599972        -1.69848058E-09
  0.623399973        -2.37357445E-09
  0.625199974        -2.81783774E-09
  0.626999974        -3.00644110E-09
  0.628799975        -2.91723001E-09
  0.630599976        -2.53124210E-09
  0.632399976        -1.83321325E-09
  0.634199977        -8.12062750E-10
  0.635999978         5.38647182E-10
  0.637799978         2.22028618E-09
  0.639599979         4.22877333E-09
  0.641399980         6.55424337E-09
  0.643199980         9.18076815E-09
  0.644999981         1.20861419E-08
  0.646799982         1.52417350E-08
  0.648599982         1.86124200E-08
  0.650399983         2.21565770E-08
  0.652199984         2.58261803E-08
  0.653999984         2.95669675E-08
  0.655799985         3.33187025E-08
  0.657599986         3.70155178E-08
  0.659399986         4.05863396E-08
  0.661199987         4.39553993E-08
  0.662999988         4.70428283E-08
  0.664799988         4.97653332E-08
  0.666599989         5.20369134E-08
  0.668399990         5.37696856E-08
  0.670199990         5.48747039E-08
  0.671999991         5.52628805E-08
  0.673799992         5.48458985E-08
  0.675599992         5.35371711E-08
  0.677399993         5.12527905E-08
  0.679199994         4.79124758E-08
  0.680999994         4.34405152E-08
  0.682799995         3.77666503E-08
  0.684599996         3.08269321E-08
  0.686399996         2.25645049E-08
  0.688199997         1.29303155E-08
  0.689999998         1.88372429E-09
  0.691799998        -1.06069740E-08
  0.693599999        -2.45641623E-08
  0.695400000        -4.00006215E-08
  0.697200000        -5.69194256E-08
  0.699000001        -7.53139275E-08
  0.700800002        -9.51679198E-08
  0.702600002        -1.16455972E-07
  0.704400003        -1.39143907E-07
  0.706200004        -1.63189412E-07
  0.708000004        -1.88542828E-07
  0.709800005        -2.15148049E-07
  0.711600006        -2.42943628E-07
  0.713400006        -2.71863939E-07
  0.715200007        -3.01840458E-07
  0.717000008        -3.32803211E-07
  0.718800008        -3.64682165E-07
  0.720600009        -3.97408797E-07
  0.722400010        -4.30917595E-07
  0.724200010        -4.65147679E-07
  0.726000011        -5.00044223E-07
  0.727800012        -5.35560048E-07
  0.729600012        -5.71656926E-07
  0.731400013        -6.08306777E-07
  0.733200014        -6.45493003E-07
  0.735000014        -6.83211283E-07
  0.736800015        -7.21470371E-07
  0.738600016        -7.60292664E-07
  0.740400016        -7.99714371E-07
  0.742200017        -8.39785457E-07
  0.744000018        -8.80569530E-07
  0.745800018        -9.22143045E-07
  0.747600019        -9.64594165E-07
  0.749400020        -1.00802197E-06
  0.751200020        -1.05253446E-06
  0.753000021        -1.09824634E-06
  0.754800022        -1.14527722E-06
  0.756600022        -1.19374886E-06
  0.758400023        -1.24378187E-06
  0.760200024        -1.29549323E-06
  0.762000024        -1.34899233E-06
  0.763800025        -1.40437771E-06
  0.765600026        -1.46173306E-06
  0.767400026        -1.52112386E-06
  0.769200027        -1.58259343E-06
  0.771000028        -1.64615892E-06
  0.772800028        -1.71180830E-06
  0.774600029        -1.77949630E-06
  0.776400030        -1.84914177E-06
  0.778199971        -1.92062475E-06
  0.779999971        -1.99378451E-06
  0.781799972        -2.06841764E-06
  0.783599973        -2.14427678E-06
  0.785399973        -2.22107087E-06
  0.787199974        -2.29846523E-06
  0.788999975        -2.37608378E-06
  0.790799975        -2.45351021E-06
  0.792599976        -2.53029316E-06
  0.794399977        -2.60594970E-06
  0.796199977        -2.67997189E-06
  0.797999978        -2.75183356E-06
  0.799799979        -2.82099973E-06
  0.801599979        -2.88693491E-06
  0.803399980        -2.94911615E-06
  0.805199981        -3.00704392E-06
  0.806999981        -3.06025731E-06
  0.808799982        -3.10834844E-06
  0.810599983        -3.15098009E-06
  0.812399983        -3.18790148E-06
  0.814199984        -3.21896937E-06
  0.815999985        -3.24416578E-06
  0.817799985        -3.26362078E-06
  0.819599986        -3.27763223E-06
  0.821399987        -3.28668921E-06
  0.823199987        -3.29149384E-06
  0.824999988        -3.29298427E-06
  0.826799989        -3.29235786E-06
  0.828599989        -3.29109321E-06
  0.830399990        -3.29097270E-06
  0.832199991        -3.29410432E-06
  0.833999991        -3.30294165E-06
  0.835799992        -3.32030368E-06
  0.837599993        -3.34939250E-06
  0.839399993        -3.39380949E-06
  0.841199994        -3.45756916E-06
  0.842999995        -3.54511121E-06
  0.844799995        -3.66130962E-06
  0.846599996        -3.81147788E-06
  0.848399997        -4.00137287E-06
  0.850199997        -4.23719484E-06
  0.851999998        -4.52558061E-06
  0.853799999        -4.87359785E-06
  0.855599999        -5.28873215E-06
  0.857400000        -5.77886885E-06
  0.859200001        -6.35227389E-06
  0.861000001        -7.01756471E-06
  0.862800002        -7.78368212E-06
  0.864600003        -8.65985203E-06
  0.866400003        -9.65554682E-06
  0.868200004        -1.07804381E-05
  0.870000005        -1.20443419E-05
  0.871800005        -1.34571692E-05
  0.873600006        -1.50288597E-05
  0.875400007        -1.67693197E-05
  0.877200007        -1.86883444E-05
  0.879000008        -2.07955545E-05
  0.880800009        -2.31003069E-05
  0.882600009        -2.56116127E-05
  0.884400010        -2.83380541E-05
  0.886200011        -3.12876946E-05
  0.888000011        -3.44679829E-05
  0.889800012        -3.78856566E-05
  0.891600013        -4.15466493E-05
  0.893400013        -4.54559922E-05
  0.895200014        -4.96177163E-05
  0.897000015        -5.40347428E-05
  0.898800015        -5.87087998E-05
  0.900600016        -6.36403201E-05
  0.902400017        -6.88283326E-05
  0.904200017        -7.42703996E-05
  0.906000018        -7.99624977E-05
  0.907800019        -8.58989588E-05
  0.909600019        -9.20723687E-05
  0.911400020        -9.84735161E-05
  0.913200021        -1.05091298E-04
  0.915000021        -1.11912690E-04
  0.916800022        -1.18922690E-04
  0.918600023        -1.26104263E-04
  0.920400023        -1.33438312E-04
  0.922200024        -1.40903678E-04
  0.924000025        -1.48477120E-04
  0.925800025        -1.56133319E-04
  0.927600026        -1.63844874E-04
  0.929400027        -1.71582375E-04
  0.931200027        -1.79314418E-04
  0.933000028        -1.87007667E-04
  0.934800029        -1.94626933E-04
  0.936600029        -2.02135256E-04
  0.938399971        -2.09493999E-04
  0.940199971        -2.16662986E-04
  0.941999972        -2.23600655E-04
  0.943799973        -2.30264137E-04
  0.945599973        -2.36609485E-04
  0.947399974        -2.42591850E-04
  0.949199975        -2.48165597E-04
  0.950999975        -2.53284641E-04
  0.952799976        -2.57902517E-04
  0.954599977        -2.61972717E-04
  0.956399977        -2.65448907E-04
  0.958199978        -2.68285105E-04
  0.959999979        -2.70436081E-04
  0.961799979        -2.71857454E-04
  0.963599980        -2.72506091E-04
  0.965399981        -2.72340287E-04
  0.967199981        -2.71320110E-04
  0.968999982        -2.69407668E-04
  0.970799983        -2.66567251E-04
  0.972599983        -2.62765825E-04
  0.974399984        -2.57973064E-04
  0.976199985        -2.52161728E-04
  0.977999985        -2.45307951E-04
  0.979799986        -2.37391316E-04
  0.981599987        -2.28395191E-04
  0.983399987        -2.18306872E-04
  0.985199988        -2.07117802E-04
  0.986999989        -1.94823719E-04
  0.988799989        -1.81424766E-04
  0.990599990        -1.66925660E-04
  0.992399991        -1.51335727E-04
  0.994199991        -1.34669055E-04
  0.995999992        -1.16944451E-04
  0.997799993        -9.81854973E-05
  0.999599993        -7.84205404E-05
   1.00139999        -5.76826424E-05
   1.00320005        -3.60095219E-05
   1.00500000        -1.34434558E-05
   1.00680006         9.96884046E-06
   1.00860000         3.41763625E-05
   1.01040006         5.91239914E-05
   1.01220000         8.47526753E-05
   1.01400006         1.10999667E-04
   1.01580000         1.37798750E-04
   1.01760006         1.65080477E-04
   1.01940000         1.92772510E-04
   1.02119994         2.20799848E-04
   1.02300000         2.49085162E-04
   1.02479994         2.77549028E-04
   1.02660000         3.06110393E-04
   1.02839994         3.34686774E-04
   1.03020000         3.63194675E-04
   1.03199995         3.91549780E-04
   1.03380001         4.19667398E-04
   1.03559995         4.47462720E-04
   1.03740001         4.74851171E-04
   1.03919995         5.01748640E-04
   1.04100001         5.28071832E-04
   1.04279995         5.53738559E-04
   1.04460001         5.78667910E-04
   1.04639995         6.02780550E-04
   1.04820001         6.25999004E-04
   1.04999995         6.48247660E-04
   1.05180001         6.69453235E-04
   1.05359995         6.89544657E-04
   1.05540001         7.08453532E-04
   1.05719995         7.26113911E-04
   1.05900002         7.42462755E-04
   1.06079996         7.57439877E-04
   1.06260002         7.70987885E-04
   1.06439996         7.83052528E-04
   1.06620002         7.93582585E-04
   1.06799996         8.02529976E-04
   1.06980002         8.09849589E-04
   1.07159996         8.15499807E-04
   1.07340002         8.19441979E-04
   1.07519996         8.21640890E-04
   1.07700002         8.22064525E-04
   1.07879996         8.20684247E-04
   1.08060002         8.17474618E-04
   1.08239996         8.12413637E-04
   1.08420002         8.05482850E-04
   1.08599997         7.96667242E-04
   1.08780003         7.85955344E-04
   1.08959997         7.73339241E-04
   1.09140003         7.58814858E-04
   1.09319997         7.42381962E-04
   1.09500003         7.24044163E-04
   1.09679997         7.03809143E-04
   1.09860003         6.81688718E-04
   1.10039997         6.57699187E-04
   1.10220003         6.31861098E-04
   1.10399997         6.04199769E-04
   1.10580003         5.74745180E-04
   1.10759997         5.43532253E-04
   1.10940003         5.10600803E-04
   1.11119998         4.75995941E-04
   1.11300004         4.39768017E-04
   1.11479998         4.01972822E-04
   1.11660004         3.62671650E-04
   1.11839998         3.21931351E-04
   1.12020004         2.79824424E-04
   1.12199998         2.36429070E-04
   1.12380004         1.91829182E-04
   1.12559998         1.46114311E-04
   1.12740004         9.93796129E-05
   1.12919998         5.17257649E-05
   1.13100004         3.25885298E-06
   1.13279998        -4.59097973E-05
   1.13460004        -9.56638178E-05
   1.13639998        -1.45882048E-04
   1.13820004        -1.96438748E-04
   1.13999999        -2.47204007E-04
   1.14180005        -2.98044062E-04
   1.14359999        -3.48821661E-04
   1.14540005        -3.99396435E-04
   1.14719999        -4.49625455E-04
   1.14900005        -4.99363698E-04
   1.15079999        -5.48464537E-04
   1.15260005        -5.96780214E-04
   1.15439999        -6.44162588E-04
   1.15620005        -6.90463406E-04