 -0.300000012         1.00000002E-24
 -0.298200011         1.00000002E-24
 -0.296400011         1.00000002E-24
 -0.294600010         1.00000002E-24
 -0.292800009         1.00000002E-24
 -0.291000009         1.00000002E-24
 -0.289200008         1.00000002E-24
 -0.287400007         1.00000002E-24
 -0.285600007         1.00000002E-24
 -0.283800006         1.00000002E-24
 -0.282000005         1.00000002E-24
 -0.280200005         1.00000012E-24
 -0.278400004         1.00000022E-24
 -0.276600003         1.00000022E-24
 -0.274800003         1.00000022E-24
 -0.273000002         1.00000022E-24
 -0.271200001         1.00000022E-24
 -0.269400001         1.00000022E-24
 -0.267600000         1.00000022E-24
 -0.265799999         1.00000022E-24
 -0.263999999         1.00000022E-24
 -0.262199998         1.00000022E-24
 -0.260399997         1.00000022E-24
 -0.258599997         1.00000022E-24
 -0.256799996         1.00000022E-24
 -0.254999995         1.00000022E-24
 -0.253199995         1.00000022E-24
 -0.251399994         1.00000022E-24
 -0.249599993         1.00000022E-24
 -0.247799993         1.00000022E-24
 -0.246000007         1.00000022E-24
 -0.244200006         1.00000022E-24
 -0.242400005         1.00000022E-24
 -0.240600005         1.00000022E-24
 -0.238800004         1.00000022E-24
 -0.237000003         1.00000012E-24
 -0.235200003         1.00000002E-24
 -0.233400002         9.99999921E-25
 -0.231600001         9.99999822E-25
 -0.229800001         9.99999822E-25
 -0.228000000         9.99999822E-25
 -0.226199999         9.99999822E-25
 -0.224399999         9.99999822E-25
 -0.222599998         9.99999921E-25
 -0.220799997         1.00000002E-24
 -0.218999997         1.00000012E-24
 -0.217199996         1.00000022E-24
 -0.215399995         1.00000032E-24
 -0.213599995         1.00000032E-24
 -0.211799994         1.00000032E-24
 -0.209999993         1.00000032E-24
 -0.208199993         1.00000032E-24
 -0.206400007         1.00000032E-24
 -0.204600006         1.00000022E-24
 -0.202800006         1.00000012E-24
 -0.201000005         1.00000002E-24
 -0.199200004         9.99999921E-25
 -0.197400004         9.99999822E-25
 -0.195600003         9.99999724E-25
 -0.193800002         9.99999724E-25
 -0.192000002         9.99999724E-25
 -0.190200001         9.99999724E-25
 -0.188400000         9.99999822E-25
 -0.186600000         9.99999921E-25
 -0.184799999         1.00000012E-24
 -0.182999998         1.00000022E-24
 -0.181199998         1.00000041E-24
 -0.179399997         1.00000051E-24
 -0.177599996         1.00000051E-24
 -0.175799996         1.00000061E-24
 -0.173999995         1.00000071E-24
 -0.172199994         1.00000071E-24
 -0.170399994         1.00000071E-24
 -0.168599993         1.00000061E-24
 -0.166800007         1.00000051E-24
 -0.165000007         1.00000041E-24
 -0.163200006         1.00000022E-24
 -0.161400005         1.00000002E-24
 -0.159600005         9.99999822E-25
 -0.157800004         9.99999625E-25
 -0.156000003         9.99999625E-25
 -0.154200003         9.99999527E-25
 -0.152400002         9.99999428E-25
 -0.150600001         9.99999428E-25
 -0.148800001         9.99999428E-25
 -0.147000000         9.99999527E-25
 -0.145199999         9.99999724E-25
 -0.143399999         9.99999921E-25
 -0.141599998         1.00000012E-24
 -0.139799997         1.00000032E-24
 -0.137999997         1.00000051E-24
 -0.136199996         1.00000061E-24
 -0.134399995         1.00000081E-24
 -0.132599995         1.00000091E-24
 -0.130799994         1.00000101E-24
 -0.128999993         1.00000091E-24
 -0.127200007         1.00000091E-24
 -0.125400007         1.00000081E-24
 -0.123599999         1.00000071E-24
 -0.121799998         1.00000051E-24
 -0.119999997         1.00000032E-24
 -0.118199997         1.00000022E-24
 -0.116400003         1.00000002E-24
 -0.114600003         9.99999921E-25
 -0.112800002         9.99999921E-25
 -0.111000001         9.99999822E-25
 -0.109200001         9.99999822E-25
 -0.107400000         1.00000002E-24
 -0.105599999         1.00000012E-24
 -0.103799999         1.00000022E-24
 -0.101999998         1.00000051E-24
 -0.100199997         1.00000071E-24
  -9.83999968E-02     1.00000081E-24
  -9.66000035E-02     1.00000091E-24
  -9.48000029E-02     1.00000101E-24
  -9.30000022E-02     1.00000101E-24
  -9.12000015E-02     1.00000101E-24
  -8.94000009E-02     1.00000101E-24
  -8.76000002E-02     1.00000081E-24
  -8.57999995E-02     1.00000071E-24
  -8.39999989E-02     1.00000051E-24
  -8.21999982E-02     1.00000032E-24
  -8.03999975E-02     9.99999921E-25
  -7.85999969E-02     9.99999428E-25
  -7.68000036E-02     9.99998540E-25
  -7.50000030E-02     9.99997456E-25
  -7.32000023E-02     9.99995681E-25
  -7.14000016E-02     9.99993117E-25
  -6.96000010E-02     9.99989567E-25
  -6.78000003E-02     9.99984538E-25
  -6.59999996E-02     9.99977636E-25
  -6.41999990E-02     9.99968465E-25
  -6.23999983E-02     9.99956534E-25
  -6.06000014E-02     9.99941545E-25
  -5.88000007E-02     9.99922711E-25
  -5.70000000E-02     9.99899834E-25
  -5.51999994E-02     9.99872125E-25
  -5.33999987E-02     9.99839585E-25
  -5.16000018E-02     9.99801818E-25
  -4.98000011E-02     9.99759121E-25
  -4.80000004E-02     9.99711888E-25
  -4.61999997E-02     9.99661204E-25
  -4.43999991E-02     9.99609040E-25
  -4.25999984E-02     9.99557962E-25
  -4.08000015E-02     9.99512306E-25
  -3.90000008E-02     9.99477498E-25
  -3.72000001E-02     9.99461425E-25
  -3.53999995E-02     9.99474342E-25
  -3.35999988E-02     9.99529267E-25
  -3.18000019E-02     9.99642961E-25
  -2.99999993E-02     9.99835936E-25
  -2.82000005E-02     1.00013363E-24
  -2.63999999E-02     1.00056632E-24
  -2.45999992E-02     1.00117020E-24
  -2.28000004E-02     1.00198706E-24
  -2.09999997E-02     1.00306504E-24
  -1.92000009E-02     1.00445787E-24
  -1.74000002E-02     1.00622482E-24
  -1.55999996E-02     1.00842920E-24
  -1.37999998E-02     1.01113706E-24
  -1.20000001E-02     1.01441428E-24
  -1.02000004E-02     1.01832289E-24
  -8.39999970E-03     1.02291663E-24
  -6.59999996E-03     1.02823434E-24
  -4.80000023E-03     1.03429190E-24
  -3.00000003E-03     1.04107246E-24
  -1.20000006E-03     1.04851418E-24
   6.00000028E-04     1.05649597E-24
   2.40000011E-03     1.06482023E-24
   4.19999985E-03     1.07319280E-24
   6.00000005E-03     1.08120122E-24
   7.79999979E-03     1.08828884E-24
   9.60000046E-03     1.09372725E-24
   1.14000002E-02     1.09658716E-24
   1.31999999E-02     1.09570660E-24
   1.49999997E-02     1.08965909E-24
   1.67999994E-02     1.07672276E-24
   1.86000001E-02     1.05485070E-24
   2.04000007E-02     1.02164626E-24
   2.21999995E-02     9.74343305E-25
   2.40000002E-02     9.09797128E-25
   2.58000009E-02     8.24486948E-25
   2.75999997E-02     7.14534628E-25
   2.94000003E-02     5.75744708E-25
   3.11999992E-02     4.03669838E-25
   3.29999998E-02     1.93707408E-25
   3.48000005E-02    -5.87680544E-26
   3.66000012E-02    -3.58227974E-25
   3.84000018E-02    -7.08764505E-25
   4.01999988E-02    -1.11380967E-24
   4.19999994E-02    -1.57579236E-24
   4.38000001E-02    -2.09572831E-24
   4.56000008E-02    -2.67273825E-24
   4.74000014E-02    -3.30348777E-24
   4.91999984E-02    -3.98155099E-24
   5.09999990E-02    -4.69669521E-24
   5.27999997E-02    -5.43408688E-24
   5.46000004E-02    -6.17342783E-24
   5.64000010E-02    -6.88802735E-24
   5.82000017E-02    -7.54382477E-24
   5.99999987E-02    -8.09837742E-24
   6.17999993E-02    -8.49983505E-24
   6.36000037E-02    -8.68593601E-24
   6.53999969E-02    -8.58304804E-24
   6.71999976E-02    -8.10529337E-24
   6.89999983E-02    -7.15382535E-24
   7.07999989E-02    -5.61627234E-24
   7.25999996E-02    -3.36643749E-24
   7.44000003E-02    -2.64303483E-25
   7.62000009E-02     3.84359105E-24
   7.80000016E-02     9.12332231E-24
   7.98000023E-02     1.57522317E-23
   8.16000029E-02     2.39169721E-23
   8.34000036E-02     3.38108845E-23
   8.51999968E-02     4.56306146E-23
   8.69999975E-02     5.95719230E-23
   8.87999982E-02     7.58246097E-23
   9.05999988E-02     9.45664681E-23
   9.23999995E-02     1.15956305E-22
   9.42000002E-02     1.40125956E-22
   9.60000008E-02     1.67171099E-22
   9.78000015E-02     1.97141376E-22
   9.96000022E-02     2.30029088E-22
  0.101400003         2.65757268E-22
  0.103200004         3.04166640E-22
  0.104999997         3.45001716E-22
  0.106799997         3.87896311E-22
  0.108599998         4.32358279E-22
  0.110399999         4.77753400E-22
  0.112199999         5.23289682E-22
  0.114000000         5.68000400E-22
  0.115800001         6.10727732E-22
  0.117600001         6.50105346E-22
  0.119400002         6.84542343E-22
  0.121200003         7.12205890E-22
  0.123000003         7.31004660E-22
  0.124799997         7.38572121E-22
  0.126599997         7.32249823E-22
  0.128399998         7.09070389E-22
  0.130199999         6.65739988E-22
  0.131999999         5.98620371E-22
  0.133800000         5.03710029E-22
  0.135600001         3.76623880E-22
  0.137400001         2.12571786E-22
  0.139200002         6.33396418E-24
  0.141000003        -2.47764676E-22
  0.142800003        -5.55884052E-22
  0.144600004        -9.24701390E-22
  0.146400005        -1.36144639E-21
  0.148200005        -1.87394092E-21
  0.150000006        -2.47063965E-21
  0.151800007        -3.16067631E-21
  0.153600007        -3.95390879E-21
  0.155399993        -4.86096887E-21
  0.157199994        -5.89330967E-21
  0.158999994        -7.06324840E-21
  0.160799995        -8.38400865E-21
  0.162599996        -9.86975347E-21
  0.164399996        -1.15356072E-20
  0.166199997        -1.33976578E-20
  0.167999998        -1.54729481E-20
  0.169799998        -1.77794379E-20
  0.171599999        -2.03359284E-20
  0.173400000        -2.31619603E-20
  0.175200000        -2.62776637E-20
  0.177000001        -2.97035582E-20
  0.178800002        -3.34602894E-20
  0.180600002        -3.75683107E-20
  0.182400003        -4.20474775E-20
  0.184200004        -4.69165664E-20
  0.186000004        -5.21927185E-20
  0.187800005        -5.78907522E-20
  0.189600006        -6.40224029E-20
  0.191400006        -7.05954321E-20
  0.193200007        -7.76126120E-20
  0.194999993        -8.50706211E-20
  0.196799994        -9.29587059E-20
  0.198599994        -1.01257311E-19
  0.200399995        -1.09936465E-19
  0.202199996        -1.18954013E-19
  0.203999996        -1.28253747E-19
  0.205799997        -1.37763170E-19
  0.207599998        -1.47391190E-19
  0.209399998        -1.57025544E-19
  0.211199999        -1.66529823E-19
  0.213000000        -1.75740415E-19
  0.214800000        -1.84462905E-19
  0.216600001        -1.92468191E-19
  0.218400002        -1.99488176E-19
  0.220200002        -2.05210870E-19
  0.222000003        -2.09275054E-19
  0.223800004        -2.11264242E-19
  0.225600004        -2.10699976E-19
  0.227400005        -2.07034273E-19
  0.229200006        -1.99641282E-19
  0.231000006        -1.87808036E-19
  0.232800007        -1.70724030E-19
  0.234599993        -1.47469837E-19
  0.236399993        -1.17004543E-19
  0.238199994        -7.81519403E-20
  0.239999995        -2.95857205E-20
  0.241799995         3.01867738E-20
  0.243599996         1.02841692E-19
  0.245399997         1.90257034E-19
  0.247199997         2.94531616E-19
  0.248999998         4.18004918E-19
  0.250800014         5.63277013E-19
  0.252600014         7.33228301E-19
  0.254400015         9.31039342E-19
  0.256199986         1.16020839E-18
  0.257999986         1.42456776E-18
  0.259799987         1.72829814E-18
  0.261599988         2.07593693E-18
  0.263399988         2.47238474E-18
  0.265199989         2.92290370E-18
  0.266999990         3.43310973E-18
  0.268799990         4.00895524E-18
  0.270599991         4.65670259E-18
  0.272399992         5.38288445E-18
  0.274199992         6.19425144E-18
  0.275999993         7.09770514E-18
  0.277799994         8.10021082E-18
  0.279599994         9.20869488E-18
  0.281399995         1.04299220E-17
  0.283199996         1.17703458E-17
  0.284999996         1.32359387E-17
  0.286799997         1.48320019E-17
  0.288599998         1.65629368E-17
  0.290399998         1.84320044E-17
  0.292199999         2.04410507E-17
  0.294000000         2.25902016E-17
  0.295800000         2.48775396E-17
  0.297600001         2.72987569E-17
  0.299400002         2.98467742E-17
  0.301200002         3.25113447E-17
  0.303000003         3.52786576E-17
  0.304800004         3.81308921E-17
  0.306600004         4.10457906E-17
  0.308400005         4.39962247E-17
  0.310200006         4.69497624E-17
  0.312000006         4.98682508E-17
  0.313800007         5.27073928E-17
  0.315600008         5.54163729E-17
  0.317400008         5.79375499E-17
  0.319200009         6.02061225E-17
  0.321000010         6.21498977E-17
  0.322800010         6.36891815E-17
  0.324600011         6.47366238E-17
  0.326400012         6.51972906E-17
  0.328200012         6.49687572E-17
  0.330000013         6.39413459E-17
  0.331800014         6.19985303E-17
  0.333600014         5.90174375E-17
  0.335399985         5.48695271E-17
  0.337199986         4.94214707E-17
  0.338999987         4.25361847E-17
  0.340799987         3.40740377E-17
  0.342599988         2.38942916E-17
  0.344399989         1.18567465E-17
  0.346199989        -2.17640070E-18
  0.347999990        -1.83384800E-17
  0.349799991        -3.67560286E-17
  0.351599991        -5.75462802E-17
  0.353399992        -8.08144143E-17
  0.355199993        -1.06650567E-16
  0.356999993        -1.35126663E-16
  0.358799994        -1.66293029E-16
  0.360599995        -2.00174783E-16
  0.362399995        -2.36768235E-16
  0.364199996        -2.76036841E-16
  0.365999997        -3.17907294E-16
  0.367799997        -3.62265457E-16
  0.369599998        -4.08952113E-16
  0.371399999        -4.57758892E-16
  0.373199999        -5.08424327E-16
  0.375000000        -5.60629403E-16
  0.376800001        -6.13994119E-16
  0.378600001        -6.68073467E-16
  0.380400002        -7.22354515E-16
  0.382200003        -7.76253180E-16
  0.384000003        -8.29111371E-16
  0.385800004        -8.80195769E-16
  0.387600005        -9.28695711E-16
  0.389400005        -9.73723030E-16
  0.391200006        -1.01431253E-15
  0.393000007        -1.04942279E-15
  0.394800007        -1.07793868E-15
  0.396600008        -1.09867521E-15
  0.398400009        -1.11038248E-15
  0.400200009        -1.11175202E-15
  0.402000010        -1.10142458E-15
  0.403800011        -1.07800041E-15
  0.405600011        -1.04005026E-15
  0.407400012        -9.86129733E-16
  0.409200013        -9.14794418E-16
  0.411000013        -8.24617650E-16
  0.412800014        -7.14210452E-16
  0.414600015        -5.82243195E-16
  0.416399986        -4.27469841E-16
  0.418199986        -2.48754915E-16
  0.419999987        -4.51011891E-17
  0.421799988         1.84320007E-16
  0.423599988         4.40136451E-16
  0.425399989         7.22740921E-16
  0.427199990         1.03225714E-15
  0.428999990         1.36850296E-15
  0.430799991         1.73095354E-15
  0.432599992         2.11870553E-15
  0.434399992         2.53043978E-15
  0.436199993         2.96438535E-15
  0.437999994         3.41828722E-15
  0.439799994         3.88937201E-15
  0.441599995         4.37432124E-15
  0.443399996         4.86924386E-15
  0.445199996         5.36965695E-15
  0.446999997         5.87047153E-15
  0.448799998         6.36598284E-15
  0.450599998         6.84986524E-15
  0.452399999         7.31518744E-15
  0.454200000         7.75441892E-15
  0.456000000         8.15946160E-15
  0.457800001         8.52168000E-15
  0.459600002         8.83195664E-15
  0.461400002         9.08074715E-15
  0.463200003         9.25815820E-15
  0.465000004         9.35402963E-15
  0.466800004         9.35803779E-15
  0.468600005         9.25981077E-15
  0.470400006         9.04905118E-15
  0.472200006         8.71568697E-15
  0.474000007         8.25002044E-15
  0.475800008         7.64289517E-15
  0.477600008         6.88587938E-15
  0.479400009         5.97145268E-15
  0.481200010         4.89321320E-15
  0.483000010         3.64607280E-15
  0.484800011         2.22647777E-15
  0.486600012         6.32614233E-16
  0.488400012        -1.13536868E-15
  0.490200013        -3.07515121E-15
  0.492000014        -5.18203534E-15
  0.493800014        -7.44874845E-15
  0.495599985        -9.86525552E-15
  0.497399986        -1.24185974E-14
  0.499199986        -1.50927414E-14
  0.500999987        -1.78684548E-14
  0.502799988        -2.07232218E-14
  0.504599988        -2.36311723E-14
  0.506399989        -2.65630667E-14
  0.508199990        -2.94863113E-14
  0.509999990        -3.23650307E-14
  0.511799991        -3.51601750E-14
  0.513599992        -3.78296942E-14
  0.515399992        -4.03287667E-14
  0.517199993        -4.26100737E-14
  0.518999994        -4.46241351E-14
  0.520799994        -4.63197629E-14
  0.522599995        -4.76444954E-14
  0.524399996        -4.85451489E-14
  0.526199996        -4.89684417E-14
  0.527999997        -4.88616444E-14
  0.529799998        -4.81733048E-14
  0.531599998        -4.68540815E-14
  0.533399999        -4.48575435E-14
  0.535200000        -4.21411021E-14
  0.537000000        -3.86669287E-14
  0.538800001        -3.44029377E-14
  0.540600002        -2.93237961E-14
  0.542400002        -2.34119636E-14
  0.544200003        -1.66586800E-14
  0.546000004        -9.06501352E-15
  0.547800004        -6.42840303E-16
  0.549600005         8.58420289E-15
  0.551400006         1.85798015E-14
  0.553200006         2.92941229E-14
  0.555000007         4.06630702E-14
  0.556800008         5.26076375E-14
  0.558600008         6.50334346E-14
  0.560400009         7.78302864E-14
  0.562200010         9.08720256E-14
  0.564000010         1.04016520E-13
  0.565800011         1.17105883E-13
  0.567600012         1.29966919E-13
  0.569400012         1.42411758E-13
  0.571200013         1.54238818E-13
  0.573000014         1.65234037E-13
  0.574800014         1.75172377E-13
  0.576600015         1.83819729E-13
  0.578400016         1.90934969E-13
  0.580200016         1.96272509E-13
  0.582000017         1.99584937E-13
  0.583800018         2.00626259E-13
  0.585600019         1.99155335E-13
  0.587400019         1.94939510E-13
  0.589200020         1.87758609E-13
  0.591000021         1.77409140E-13
  0.592800021         1.63708741E-13
  0.594600022         1.46500962E-13
  0.596400023         1.25659804E-13
  0.598200023         1.01094710E-13
  0.600000024         7.27554884E-14
  0.601800025         4.06370392E-14
  0.603600025         4.78414331E-15
  0.605400026        -3.47040545E-14
  0.607200027        -7.76696280E-14
  0.609000027        -1.23892135E-13
  0.610800028        -1.73084976E-13
  0.612600029        -2.24892560E-13
  0.614400029        -2.78887942E-13
  0.616199970        -3.34571401E-13
  0.617999971        -3.91369391E-13
  0.619799972        -4.48635107E-13
  0.621599972        -5.05649450E-13
  0.623399973        -5.61623556E-13
  0.625199974        -6.15701934E-13
  0.626999974        -6.66967566E-13
  0.628799975        -7.14447436E-13
  0.630599976        -7.57120386E-13
  0.632399976        -7.93925906E-13
  0.634199977        -8.23773992E-13
  0.635999978        -8.45556752E-13
  0.637799978        -8.58161198E-13
  0.639599979        -8.60483993E-13
  0.641399980        -8.51445921E-13
  0.643199980        -8.30009238E-13
  0.644999981        -7.95195344E-13
  0.646799982        -7.46102290E-13
  0.648599982        -6.81925978E-13
  0.650399983        -6.01978320E-13
  0.652199984        -5.05707726E-13
  0.653999984        -3.92719711E-13
  0.655799985        -2.62796024E-13
  0.657599986        -1.15915185E-13
  0.659399986         4.77298763E-14
  0.661199987         2.27713708E-13
  0.662999988         4.23362110E-13
  0.664799988         6.33738342E-13
  0.666599989         8.57630644E-13
  0.668399990         1.09354290E-12
  0.670199990         1.33968715E-12
  0.671999991         1.59398178E-12
  0.673799992         1.85405012E-12
  0.675599992         2.11722436E-12
  0.677399993         2.38055452E-12
  0.679199994         2.64082050E-12
  0.680999994         2.89454962E-12
  0.682799995         3.13803822E-12
  0.684599996         3.36737821E-12
  0.686399996         3.57849189E-12
  0.688199997         3.76716583E-12
  0.689999998         3.92909490E-12
  0.691799998         4.05992948E-12
  0.693599999         4.15532712E-12
  0.695400000         4.21101001E-12
  0.697200000         4.22282261E-12
  0.699000001         4.18679934E-12
  0.700800002         4.09923050E-12
  0.702600002         3.95673338E-12
  0.704400003         3.75632598E-12
  0.706200004         3.49549534E-12
  0.708000004         3.17227689E-12
  0.709800005         2.78532405E-12
  0.711600006         2.33397980E-12
  0.713400006         1.81834810E-12
  0.715200007         1.23935692E-12
  0.717000008         5.98820039E-13
  0.718800008        -1.00512074E-13
  0.720600009        -8.54902087E-13
  0.722400010        -1.65958978E-12
  0.724200010        -2.50876446E-12
  0.726000011        -3.39554903E-12
  0.727800012        -4.31199477E-12
  0.729600012        -5.24909022E-12
  0.731400013        -6.19678787E-12
  0.733200014        -7.14403970E-12
  0.735000014        -8.07885443E-12
  0.736800015        -8.98837341E-12
  0.738600016        -9.85895480E-12
  0.740400016        -1.06762888E-11
  0.742200017        -1.14255177E-11
  0.744000018        -1.20913904E-11
  0.745800018        -1.26584203E-11
  0.747600019        -1.31110608E-11
  0.749400020        -1.34339137E-11
  0.751200020        -1.36119319E-11
  0.753000021        -1.36306478E-11
  0.754800022        -1.34764214E-11
  0.756600022        -1.31366801E-11
  0.758400023        -1.26001709E-11
  0.760200024        -1.18572322E-11
  0.762000024        -1.09000560E-11
  0.763800025        -9.72295335E-12
  0.765600026        -8.32260649E-12
  0.767400026        -6.69832852E-12
  0.769200027        -4.85229825E-12
  0.771000028        -2.78978078E-12
  0.772800028        -5.19330997E-13
  0.774600029         1.94702934E-12
  0.776400030         4.59366182E-12
  0.778199971         7.40119424E-12
  0.779999971         1.03464477E-11
  0.781799972         1.34023955E-11
  0.783599973         1.65381875E-11
  0.785399973         1.97191950E-11
  0.787199974         2.29071293E-11
  0.788999975         2.60602148E-11
  0.790799975         2.91334075E-11
  0.792599976         3.20786973E-11
  0.794399977         3.48454252E-11
  0.796199977         3.73807270E-11
  0.797999978         3.96299972E-11
  0.799799979         4.15373916E-11
  0.801599979         4.30464588E-11
  0.803399980         4.41007508E-11
  0.805199981         4.46445485E-11
  0.806999981         4.46235930E-11
  0.808799982         4.39858705E-11
  0.810599983         4.26824409E-11
  0.812399983         4.06682847E-11
  0.814199984         3.79031598E-11
  0.815999985         3.43525000E-11
  0.817799985         2.99882827E-11
  0.819599986         2.47898820E-11
  0.821399987         1.87449275E-11
  0.823199987         1.18501103E-11
  0.824999988         4.11192781E-12
  0.826799989        -4.45261406E-12
  0.828599989        -1.38153751E-11
  0.830399990        -2.39365420E-11
  0.832199991        -3.47642019E-11
  0.833999991        -4.62340236E-11
  0.835799992        -5.82690424E-11
  0.837599993        -7.07796183E-11
  0.839399993        -8.36635275E-11
  0.841199994        -9.68062019E-11
  0.842999995        -1.10081118E-10
  0.844799995        -1.23350385E-10
  0.846599996        -1.36465589E-10
  0.848399997        -1.49268597E-10
  0.850199997        -1.61592753E-10
  0.851999998        -1.73264139E-10
  0.853799999        -1.84103163E-10
  0.855599999        -1.93926070E-10
  0.857400000        -2.02546882E-10
  0.859200001        -2.09779291E-10
  0.861000001        -2.15438792E-10
  0.862800002        -2.19345028E-10
  0.864600003        -2.21323890E-10
  0.866400003        -2.21210245E-10
  0.868200004        -2.18850146E-10
  0.870000005        -2.14103568E-10
  0.871800005        -2.06846804E-10
  0.873600006        -1.96975075E-10
  0.875400007        -1.84404908E-10
  0.877200007        -1.69076433E-10
  0.879000008        -1.50955762E-10
  0.880800009        -1.30036884E-10
  0.882600009        -1.06343663E-10
  0.884400010        -7.99312838E-11
  0.886200011        -5.08877211E-11
  0.888000011        -1.93346762E-11
  0.889800012         1.45717119E-11
  0.891600013         5.06406271E-11
  0.893400013         8.86467358E-11
  0.895200014         1.28330735E-10
  0.897000015         1.69400424E-10
  0.898800015         2.11532278E-10
  0.900600016         2.54373550E-10
  0.902400017         2.97544878E-10
  0.904200017         3.40643319E-10
  0.906000018         3.83246268E-10
  0.907800019         4.24915408E-10
  0.909600019         4.65201627E-10
  0.911400020         5.03650177E-10
  0.913200021         5.39806311E-10
  0.915000021         5.73221581E-10
  0.916800022         6.03460337E-10
  0.918600023         6.30106634E-10
  0.920400023         6.52771337E-10
  0.922200024         6.71099898E-10
  0.924000025         6.84779566E-10
  0.925800025         6.93547331E-10
  0.927600026         6.97197577E-10
  0.929400027         6.95589530E-10
  0.931200027         6.88654689E-10
  0.933000028         6.76404099E-10
  0.934800029         6.58935018E-10
  0.936600029         6.36437014E-10
  0.938399971         6.09197581E-10
  0.940199971         5.77607073E-10
  0.941999972         5.42162815E-10
  0.943799973         5.03471986E-10
  0.945599973         4.62253791E-10
  0.947399974         4.19340590E-10
  0.949199975         3.75677295E-10
  0.950999975         3.32319838E-10
  0.952799976         2.90432095E-10
  0.954599977         2.51281718E-10
  0.956399977         2.16233656E-10
  0.958199978         1.86742941E-10
  0.959999979         1.64345745E-10
  0.961799979         1.50647939E-10
  0.963599980         1.47313217E-10
  0.965399981         1.56049604E-10
  0.967199981         1.78593404E-10
  0.968999982         2.16692761E-10
  0.970799983         2.72089462E-10
  0.972599983         3.46499357E-10
  0.974399984         4.41591846E-10
  0.976199985         5.58968039E-10
  0.977999985         7.00138558E-10
  0.979799986         8.66499927E-10
  0.981599987         1.05931097E-09
  0.983399987         1.27966915E-09
  0.985199988         1.52848600E-09
  0.986999989         1.80646365E-09
  0.988799989         2.11407136E-09
  0.990599990         2.45152232E-09
  0.992399991         2.81875234E-09
  0.994199991         3.21539861E-09
  0.995999992         3.64078190E-09
  0.997799993         4.09388790E-09
  0.999599993         4.57335325E-09
   1.00139999         5.07745002E-09
   1.00320005         5.60407676E-09
   1.00500000         6.15075280E-09
   1.00680006         6.71461109E-09
   1.00860000         7.29239691E-09
   1.01040006         7.88047139E-09
   1.01220000         8.47481640E-09
   1.01400006         9.07104614E-09
   1.01580000         9.66441682E-09
   1.01760006         1.02498472E-08
   1.01940000         1.08219416E-08
   1.02119994         1.13750103E-08
   1.02300000         1.19031087E-08
   1.02479994         1.24000605E-08
   1.02660000         1.28595037E-08
   1.02839994         1.32749332E-08
   1.03020000         1.36397418E-08
   1.03199995         1.39472771E-08
   1.03380001         1.41908858E-08
   1.03559995         1.43639740E-08
   1.03740001         1.44600740E-08
   1.03919995         1.44728913E-08
   1.04100001         1.43963810E-08
   1.04279995         1.42248089E-08
   1.04460001         1.39528140E-08
   1.04639995         1.35754874E-08
   1.04820001         1.30884281E-08
   1.04999995         1.24878170E-08
   1.05180001         1.17704815E-08
   1.05359995         1.09339640E-08
   1.05540001         9.97658223E-09
   1.05719995         8.89748897E-09
   1.05900002         7.69673392E-09
   1.06079996         6.37531317E-09
   1.06260002         4.93522068E-09
   1.06439996         3.37949002E-09
   1.06620002         1.71223202E-09
   1.06799996        -6.13310791E-11
   1.06980002        -1.93484451E-09
   1.07159996        -3.90080235E-09
   1.07340002        -5.95053962E-09
   1.07519996        -8.07423284E-09
   1.07700002        -1.02609095E-08
   1.07879996        -1.24984672E-08
   1.08060002        -1.47737014E-08
   1.08239996        -1.70723453E-08
   1.08420002        -1.93791259E-08
   1.08599997        -2.16778115E-08
   1.08780003        -2.39512978E-08
   1.08959997        -2.61816719E-08
   1.09140003        -2.83503265E-08
   1.09319997        -3.04380485E-08
   1.09500003        -3.24251346E-08
   1.09679997        -3.42915136E-08
   1.09860003        -3.60168997E-08
   1.10039997        -3.75808895E-08
   1.10220003        -3.89631580E-08
   1.10399997        -4.01435862E-08
   1.10580003        -4.11024459E-08
   1.10759997        -4.18205488E-08
   1.10940003        -4.22794493E-08
   1.11119998        -4.24615791E-08
   1.11300004        -4.23504751E-08
   1.11479998        -4.19309174E-08
   1.11660004        -4.11891428E-08
   1.11839998        -4.01130151E-08
   1.12020004        -3.86921784E-08
   1.12199998        -3.69182622E-08
   1.12380004        -3.47850211E-08
   1.12559998        -3.22885008E-08
   1.12740004        -2.94271771E-08
   1.12919998        -2.62020965E-08
   1.13100004        -2.26169998E-08
   1.13279998        -1.86784206E-08
   1.13460004        -1.43957859E-08
   1.13639998        -9.78148496E-09
   1.13820004        -4.85092455E-09
   1.13999999         3.77433501E-10
   1.14180005         5.88205706E-09
   1.14359999         1.16383525E-08
   1.14540005         1.76187012E-08
   1.14719999         2.37925040E-08
   1.14900005         3.01262659E-08
   1.15079999         3.65837067E-08
   1.15260005         4.31258833E-08
   1.15439999         4.97113462E-08
   1.15620005         5.62963223E-08