 -0.300000012       0.00000000    
 -0.298200011       0.00000000    
 -0.296400011       0.00000000    
 -0.294600010      -2.69679181E-18
 -0.292800009      -1.85646693E-17
 -0.291000009      -7.07459718E-17
 -0.289200008      -1.95399079E-16
 -0.287400007      -4.32271274E-16
 -0.285600007      -8.00509504E-16
 -0.283800006      -1.25608400E-15
 -0.282000005      -1.62945221E-15
 -0.280200005      -1.54481795E-15
 -0.278400004      -3.25056834E-16
 -0.276600003       3.11138558E-15
 -0.274800003       1.03539580E-14
 -0.273000002       2.35958019E-14
 -0.271200001       4.57145579E-14
 -0.269400001       8.03322659E-14
 -0.267600000       1.31850301E-13
 -0.265799999       2.05457247E-13
 -0.263999999       3.07109047E-13
 -0.262199998       4.43481758E-13
 -0.260399997       6.21897770E-13
 -0.258599997       8.50225868E-13
 -0.256799996       1.13675595E-12
 -0.254999995       1.49004854E-12
 -0.253199995       1.91875942E-12
 -0.251399994       2.43144437E-12
 -0.249599993       3.03634461E-12
 -0.247799993       3.74116493E-12
 -0.246000007       4.55285159E-12
 -0.244200006       5.47739111E-12
 -0.242400005       6.51963466E-12
 -0.240600005       7.68318308E-12
 -0.238800004       8.97033402E-12
 -0.237000003       1.03821153E-11
 -0.235200003       1.19184159E-11
 -0.233400002       1.35782271E-11
 -0.231600001       1.53599702E-11
 -0.229800001       1.72619471E-11
 -0.228000000       1.92828687E-11
 -0.226199999       2.14224714E-11
 -0.224399999       2.36821882E-11
 -0.222599998       2.60658665E-11
 -0.220799997       2.85805182E-11
 -0.218999997       3.12370546E-11
 -0.217199996       3.40510259E-11
 -0.215399995       3.70432920E-11
 -0.213599995       4.02406546E-11
 -0.211799994       4.36763542E-11
 -0.209999993       4.73904561E-11
 -0.208199993       5.14300894E-11
 -0.206400007       5.58494397E-11
 -0.204600006       6.07095624E-11
 -0.202800006       6.60779001E-11
 -0.201000005       7.20274812E-11
 -0.199200004       7.86358964E-11
 -0.197400004       8.59838381E-11
 -0.195600003       9.41533934E-11
 -0.193800002       1.03225963E-10
 -0.192000002       1.13279906E-10
 -0.190200001       1.24387819E-10
 -0.188400000       1.36613623E-10
 -0.186600000       1.50009255E-10
 -0.184799999       1.64611227E-10
 -0.182999998       1.80436874E-10
 -0.181199998       1.97480463E-10
 -0.179399997       2.15708992E-10
 -0.177599996       2.35058001E-10
 -0.175799996       2.55426957E-10
 -0.173999995       2.76674739E-10
 -0.172199994       2.98614938E-10
 -0.170399994       3.21011051E-10
 -0.168599993       3.43571699E-10
 -0.166800007       3.65945774E-10
 -0.165000007       3.87717553E-10
 -0.163200006       4.08401896E-10
 -0.161400005       4.27439667E-10
 -0.159600005       4.44192932E-10
 -0.157800004       4.57940130E-10
 -0.156000003       4.67871741E-10
 -0.154200003       4.73085571E-10
 -0.152400002       4.72582140E-10
 -0.150600001       4.65260303E-10
 -0.148800001       4.49912607E-10
 -0.147000000       4.25220803E-10
 -0.145199999       3.89751703E-10
 -0.143399999       3.41952577E-10
 -0.141599998       2.80147322E-10
 -0.139799997       2.02532574E-10
 -0.137999997       1.07174276E-10
 -0.136199996      -7.99517830E-12
 -0.134399995      -1.45179008E-10
 -0.132599995      -3.06717984E-10
 -0.130799994      -4.95090469E-10
 -0.128999993      -7.12911674E-10
 -0.127200007      -9.62931068E-10
 -0.125400007      -1.24802835E-09
 -0.123599999      -1.57120639E-09
 -0.121799998      -1.93558192E-09
 -0.119999997      -2.34437425E-09
 -0.118199997      -2.80088908E-09
 -0.116400003      -3.30849903E-09
 -0.114600003      -3.87061938E-09
 -0.112800002      -4.49068072E-09
 -0.111000001      -5.17209431E-09
 -0.109200001      -5.91821436E-09
 -0.107400000      -6.73229295E-09
 -0.105599999      -7.61743113E-09
 -0.103799999      -8.57651816E-09
 -0.101999998      -9.61217861E-09
 -0.100199997      -1.07266915E-08
  -9.83999968E-02  -1.19219266E-08
  -9.66000035E-02  -1.31992568E-08
  -9.48000029E-02  -1.45594754E-08
  -9.30000022E-02  -1.60027049E-08
  -9.12000015E-02  -1.75282970E-08
  -8.94000009E-02  -1.91347347E-08
  -8.76000002E-02  -2.08195310E-08
  -8.57999995E-02  -2.25791155E-08
  -8.39999989E-02  -2.44087275E-08
  -8.21999982E-02  -2.63023132E-08
  -8.03999975E-02  -2.82524102E-08
  -7.85999969E-02  -3.02500496E-08
  -7.68000036E-02  -3.22846461E-08
  -7.50000030E-02  -3.43439126E-08
  -7.32000023E-02  -3.64137556E-08
  -7.14000016E-02  -3.84782197E-08
  -6.96000010E-02  -4.05193958E-08
  -6.78000003E-02  -4.25173816E-08
  -6.59999996E-02  -4.44502248E-08
  -6.41999990E-02  -4.62939092E-08
  -6.23999983E-02  -4.80223505E-08
  -6.06000014E-02  -4.96073973E-08
  -5.88000007E-02  -5.10188656E-08
  -5.70000000E-02  -5.22245998E-08
  -5.51999994E-02  -5.31905577E-08
  -5.33999987E-02  -5.38809068E-08
  -5.16000018E-02  -5.42581660E-08
  -4.98000011E-02  -5.42833618E-08
  -4.80000004E-02  -5.39162279E-08
  -4.61999997E-02  -5.31154178E-08
  -4.43999991E-02  -5.18387502E-08
  -4.25999984E-02  -5.00435071E-08
  -4.08000015E-02  -4.76867150E-08
  -3.90000008E-02  -4.47254642E-08
  -3.72000001E-02  -4.11173282E-08
  -3.53999995E-02  -3.68206656E-08
  -3.35999988E-02  -3.17950679E-08
  -3.18000019E-02  -2.60017892E-08
  -2.99999993E-02  -1.94041228E-08
  -2.82000005E-02  -1.19679209E-08
  -2.63999999E-02  -3.66198805E-09
  -2.45999992E-02   5.54140822E-09
  -2.28000004E-02   1.56661262E-08
  -2.09999997E-02   2.67316764E-08
  -1.92000009E-02   3.87527770E-08
  -1.74000002E-02   5.17389616E-08
  -1.55999996E-02   6.56941168E-08
  -1.37999998E-02   8.06162177E-08
  -1.20000001E-02   9.64968976E-08
  -1.02000004E-02   1.13321235E-07
  -8.39999970E-03   1.31067466E-07
  -6.59999996E-03   1.49706793E-07
  -4.80000023E-03   1.69203290E-07
  -3.00000003E-03   1.89513898E-07
  -1.20000006E-03   2.10588283E-07
   6.00000028E-04   2.32369175E-07
   2.40000011E-03   2.54792184E-07
   4.19999985E-03   2.77786341E-07
   6.00000005E-03   3.01274383E-07
   7.79999979E-03   3.25172891E-07
   9.60000046E-03   3.49393218E-07
   1.14000002E-02   3.73841658E-07
   1.31999999E-02   3.98420411E-07
   1.49999997E-02   4.23028013E-07
   1.67999994E-02   4.47560467E-07
   1.86000001E-02   4.71911846E-07
   2.04000007E-02   4.95975257E-07
   2.21999995E-02   5.19643777E-07
   2.40000002E-02   5.42811563E-07
   2.58000009E-02   5.65374819E-07
   2.75999997E-02   5.87232421E-07
   2.94000003E-02   6.08287451E-07
   3.11999992E-02   6.28447822E-07
   3.29999998E-02   6.47627303E-07
   3.48000005E-02   6.65746200E-07
   3.66000012E-02   6.82732264E-07
   3.84000018E-02   6.98521490E-07
   4.01999988E-02   7.13058228E-07
   4.19999994E-02   7.26296093E-07
   4.38000001E-02   7.38198025E-07
   4.56000008E-02   7.48736056E-07
   4.74000014E-02   7.57891939E-07
   4.91999984E-02   7.65656353E-07
   5.09999990E-02   7.72028670E-07
   5.27999997E-02   7.77016112E-07
   5.46000004E-02   7.80633059E-07
   5.64000010E-02   7.82899974E-07
   5.82000017E-02   7.83841813E-07
   5.99999987E-02   7.83487053E-07
   6.17999993E-02   7.81865765E-07
   6.36000037E-02   7.79007564E-07
   6.53999969E-02   7.74940020E-07
   6.71999976E-02   7.69686324E-07
   6.89999983E-02   7.63263301E-07
   7.07999989E-02   7.55679139E-07
   7.25999996E-02   7.46930823E-07
   7.44000003E-02   7.37002324E-07
   7.62000009E-02   7.25862037E-07
   7.80000016E-02   7.13460793E-07
   7.98000023E-02   6.99730322E-07
   8.16000029E-02   6.84580812E-07
   8.34000036E-02   6.67899883E-07
   8.51999968E-02   6.49551396E-07
   8.69999975E-02   6.29374767E-07
   8.87999982E-02   6.07184404E-07
   9.05999988E-02   5.82769928E-07
   9.23999995E-02   5.55896577E-07
   9.42000002E-02   5.26306849E-07
   9.60000008E-02   4.93721757E-07
   9.78000015E-02   4.57843953E-07
   9.96000022E-02   4.18360230E-07
  0.101400003       3.74945898E-07
  0.103200004       3.27268225E-07
  0.104999997       2.74993027E-07
  0.106799997       2.17789065E-07
  0.108599998       1.55335812E-07
  0.110399999       8.73291697E-08
  0.112199999       1.34910092E-08
  0.114000000      -6.64237376E-08
  0.115800001      -1.52618384E-07
  0.117600001      -2.45243569E-07
  0.119400002      -3.44390543E-07
  0.121200003      -4.50078971E-07
  0.123000003      -5.62247919E-07
  0.124799997      -6.80746382E-07
  0.126599997      -8.05323452E-07
  0.128399998      -9.35617550E-07
  0.130199999      -1.07114874E-06
  0.131999999      -1.21131040E-06
  0.133800000      -1.35536106E-06
  0.135600001      -1.50241681E-06
  0.137400001      -1.65144741E-06
  0.139200002      -1.80127029E-06
  0.141000003      -1.95054668E-06
  0.142800003      -2.09778250E-06
  0.144600004      -2.24132646E-06
  0.146400005      -2.37937229E-06
  0.148200005      -2.50996277E-06
  0.150000006      -2.63099537E-06
  0.151800007      -2.74023182E-06
  0.153600007      -2.83530403E-06
  0.155399993      -2.91373340E-06
  0.157199994      -2.97293900E-06
  0.158999994      -3.01026193E-06
  0.160799995      -3.02298031E-06
  0.162599996      -3.00833472E-06
  0.164399996      -2.96355142E-06
  0.166199997      -2.88586716E-06
  0.167999998      -2.77256413E-06
  0.169799998      -2.62099684E-06
  0.171599999      -2.42862870E-06
  0.173400000      -2.19306253E-06
  0.175200000      -1.91208233E-06
  0.177000001      -1.58368664E-06
  0.178800002      -1.20613049E-06
  0.180600002      -7.77964772E-07
  0.182400003      -2.98069494E-07
  0.184200004       2.34296195E-07
  0.186000004       8.19458705E-07
  0.187800005       1.45729484E-06
  0.189600006       2.14718511E-06
  0.191400006       2.88798697E-06
  0.193200007       3.67799521E-06
  0.194999993       4.51490814E-06
  0.196799994       5.39580196E-06
  0.198599994       6.31710509E-06
  0.200399995       7.27457063E-06
  0.202199996       8.26326323E-06
  0.203999996       9.27754445E-06
  0.205799997       1.03110597E-05
  0.207599998       1.13567403E-05
  0.209399998       1.24067974E-05
  0.211199999       1.34527336E-05
  0.213000000       1.44853539E-05
  0.214800000       1.54947884E-05
  0.216600001       1.64705107E-05
  0.218400002       1.74013749E-05
  0.220200002       1.82756503E-05
  0.222000003       1.90810752E-05
  0.223800004       1.98048911E-05
  0.225600004       2.04339176E-05
  0.227400005       2.09546051E-05
  0.229200006       2.13531093E-05
  0.231000006       2.16153694E-05
  0.232800007       2.17271700E-05
  0.234599993       2.16742537E-05
  0.236399993       2.14423872E-05
  0.238199994       2.10174658E-05
  0.239999995       2.03856107E-05
  0.241799995       1.95332486E-05
  0.243599996       1.84472410E-05
  0.245399997       1.71149677E-05
  0.247199997       1.55244343E-05
  0.248999998       1.36643657E-05
  0.250800014       1.15243211E-05
  0.252600014       9.09478331E-06
  0.254400015       6.36725645E-06
  0.256199986       3.33436105E-06
  0.257999986      -1.00920019E-08
  0.259799987      -3.67100483E-06
  0.261599988      -7.65190907E-06
  0.263399988      -1.19549222E-05
  0.265199989      -1.65806523E-05
  0.266999990      -2.15281871E-05
  0.268799990      -2.67950072E-05
  0.270599991      -3.23769382E-05
  0.272399992      -3.82681901E-05
  0.274199992      -4.44612524E-05
  0.275999993      -5.09469501E-05
  0.277799994      -5.77144056E-05
  0.279599994      -6.47510969E-05
  0.281399995      -7.20428288E-05
  0.283199996      -7.95737942E-05
  0.284999996      -8.73265963E-05
  0.286799997      -9.52823175E-05
  0.288599998      -1.03420571E-04
  0.290399998      -1.11719572E-04
  0.292199999      -1.20156212E-04
  0.294000000      -1.28706131E-04
  0.295800000      -1.37343857E-04
  0.297600001      -1.46042832E-04
  0.299400002      -1.54775582E-04
  0.301200002      -1.63513760E-04
  0.303000003      -1.72228320E-04
  0.304800004      -1.80889590E-04
  0.306600004      -1.89467406E-04
  0.308400005      -1.97931236E-04
  0.310200006      -2.06250261E-04
  0.312000006      -2.14393542E-04
  0.313800007      -2.22330069E-04
  0.315600008      -2.30028978E-04
  0.317400008      -2.37459550E-04
  0.319200009      -2.44591385E-04
  0.321000010      -2.51394493E-04
  0.322800010      -2.57839420E-04
  0.324600011      -2.63897207E-04
  0.326400012      -2.69539742E-04
  0.328200012      -2.74739490E-04
  0.330000013      -2.79469910E-04
  0.331800014      -2.83705303E-04
  0.333600014      -2.87421019E-04
  0.335399985      -2.90593423E-04
  0.337199986      -2.93199992E-04
  0.338999987      -2.95219332E-04
  0.340799987      -2.96631275E-04
  0.342599988      -2.97416846E-04
  0.344399989      -2.97558436E-04
  0.346199989      -2.97039689E-04
  0.347999990      -2.95845588E-04
  0.349799991      -2.93962512E-04
  0.351599991      -2.91378237E-04
  0.353399992      -2.88081908E-04
  0.355199993      -2.84064241E-04
  0.356999993      -2.79317348E-04
  0.358799994      -2.73834914E-04
  0.360599995      -2.67612108E-04
  0.362399995      -2.60645698E-04
  0.364199996      -2.52933998E-04
  0.365999997      -2.44477065E-04
  0.367799997      -2.35276515E-04
  0.369599998      -2.25335723E-04
  0.371399999      -2.14659842E-04
  0.373199999      -2.03255739E-04
  0.375000000      -1.91132131E-04
  0.376800001      -1.78299626E-04
  0.378600001      -1.64770725E-04
  0.380400002      -1.50559907E-04
  0.382200003      -1.35683687E-04
  0.384000003      -1.20160563E-04
  0.385800004      -1.04011167E-04
  0.387600005      -8.72582750E-05
  0.389400005      -6.99268348E-05
  0.391200006      -5.20439535E-05
  0.393000007      -3.36389967E-05
  0.394800007      -1.47435512E-05
  0.396600008       4.60852925E-06
  0.398400009       2.43811573E-05
  0.400200009       4.45359838E-05
  0.402000010       6.50324655E-05
  0.403800011       8.58278363E-05
  0.405600011       1.06877225E-04
  0.407400012       1.28133630E-04
  0.409200013       1.49548068E-04
  0.411000013       1.71069580E-04
  0.412800014       1.92645428E-04
  0.414600015       2.14221116E-04
  0.416399986       2.35740590E-04
  0.418199986       2.57146283E-04
  0.419999987       2.78379477E-04
  0.421799988       2.99380248E-04
  0.423599988       3.20087827E-04
  0.425399989       3.40440660E-04
  0.427199990       3.60376842E-04
  0.428999990       3.79834091E-04
  0.430799991       3.98750184E-04
  0.432599992       4.17063071E-04
  0.434399992       4.34711314E-04
  0.436199993       4.51634056E-04
  0.437999994       4.67771693E-04
  0.439799994       4.83065844E-04
  0.441599995       4.97459667E-04
  0.443399996       5.10898244E-04
  0.445199996       5.23328956E-04
  0.446999997       5.34701336E-04
  0.448799998       5.44967828E-04
  0.450599998       5.54083905E-04
  0.452399999       5.62008121E-04
  0.454200000       5.68702584E-04
  0.456000000       5.74133184E-04
  0.457800001       5.78269595E-04
  0.459600002       5.81085798E-04
  0.461400002       5.82560024E-04
  0.463200003       5.82675042E-04
  0.465000004       5.81418339E-04
  0.466800004       5.78782056E-04
  0.468600005       5.74763457E-04
  0.470400006       5.69364522E-04
  0.472200006       5.62592584E-04
  0.474000007       5.54459810E-04
  0.475800008       5.44983603E-04
  0.477600008       5.34186489E-04
  0.479400009       5.22095885E-04
  0.481200010       5.08744386E-04
  0.483000010       4.94169421E-04
  0.484800011       4.78413160E-04
  0.486600012       4.61522461E-04
  0.488400012       4.43548692E-04
  0.490200013       4.24547499E-04
  0.492000014       4.04578663E-04
  0.493800014       3.83705774E-04
  0.495599985       3.61996063E-04
  0.497399986       3.39519989E-04
  0.499199986       3.16351128E-04
  0.500999987       2.92565790E-04
  0.502799988       2.68242584E-04
  0.504599988       2.43462375E-04
  0.506399989       2.18307570E-04
  0.508199990       1.92862033E-04
  0.509999990       1.67210572E-04
  0.511799991       1.41438693E-04
  0.513599992       1.15632043E-04
  0.515399992       8.98762883E-05
  0.517199993       6.42564337E-05
  0.518999994       3.88566077E-05
  0.520799994       1.37596689E-05
  0.522599995      -1.09531702E-05
  0.524399996      -3.52027746E-05
  0.526199996      -5.89123447E-05
  0.527999997      -8.20078276E-05
  0.529799998      -1.04418250E-04
  0.531599998      -1.26075975E-04
  0.533399999      -1.46917067E-04
  0.535200000      -1.66881553E-04
  0.537000000      -1.85913712E-04
  0.538800001      -2.03962249E-04
  0.540600002      -2.20980583E-04
  0.542400002      -2.36927037E-04
  0.544200003      -2.51764985E-04
  0.546000004      -2.65463052E-04
  0.547800004      -2.77995161E-04
  0.549600005      -2.89340736E-04
  0.551400006      -2.99484702E-04
  0.553200006      -3.08417482E-04
  0.555000007      -3.16135091E-04
  0.556800008      -3.22639069E-04
  0.558600008      -3.27936461E-04
  0.560400009      -3.32039723E-04
  0.562200010      -3.34966549E-04
  0.564000010      -3.36739904E-04
  0.565800011      -3.37387610E-04
  0.567600012      -3.36942496E-04
  0.569400012      -3.35441873E-04
  0.571200013      -3.32927448E-04
  0.573000014      -3.29445058E-04
  0.574800014      -3.25044326E-04
  0.576600015      -3.19778454E-04
  0.578400016      -3.13703844E-04
  0.580200016      -3.06879723E-04
  0.582000017      -2.99367821E-04
  0.583800018      -2.91232107E-04
  0.585600019      -2.82538182E-04
  0.587400019      -2.73353158E-04
  0.589200020      -2.63745053E-04
  0.591000021      -2.53782404E-04
  0.592800021      -2.43534028E-04
  0.594600022      -2.33068451E-04
  0.596400023      -2.22453644E-04
  0.598200023      -2.11756560E-04
  0.600000024      -2.01042742E-04
  0.601800025      -1.90376028E-04
  0.603600025      -1.79818075E-04
  0.605400026      -1.69428109E-04
  0.607200027      -1.59262578E-04
  0.609000027      -1.49374828E-04
  0.610800028      -1.39814802E-04
  0.612600029      -1.30628789E-04
  0.614400029      -1.21859142E-04
  0.616199970      -1.13544120E-04
  0.617999971      -1.05717634E-04
  0.619799972      -9.84091166E-05
  0.621599972      -9.16433783E-05
  0.623399973      -8.54404861E-05
  0.625199974      -7.98157052E-05
  0.626999974      -7.47794475E-05
  0.628799975      -7.03372643E-05
  0.630599976      -6.64898398E-05
  0.632399976      -6.32330703E-05
  0.634199977      -6.05581081E-05
  0.635999978      -5.84514601E-05
  0.637799978      -5.68951400E-05
  0.639599979      -5.58668216E-05
  0.641399980      -5.53400023E-05
  0.643199980      -5.52842321E-05
  0.644999981      -5.56653395E-05
  0.646799982      -5.64456896E-05
  0.648599982      -5.75844606E-05
  0.650399983      -5.90379423E-05
  0.652199984      -6.07598486E-05
  0.653999984      -6.27016343E-05
  0.655799985      -6.48128698E-05
  0.657599986      -6.70415393E-05
  0.659399986      -6.93344700E-05
  0.661199987      -7.16376089E-05
  0.662999988      -7.38964882E-05
  0.664799988      -7.60565235E-05
  0.666599989      -7.80634437E-05
  0.668399990      -7.98636029E-05
  0.670199990      -8.14044033E-05
  0.671999991      -8.26346368E-05
  0.673799992      -8.35048268E-05
  0.675599992      -8.39675995E-05
  0.677399993      -8.39780041E-05
  0.679199994      -8.34938255E-05
  0.680999994      -8.24759263E-05
  0.682799995      -8.08885015E-05
  0.684599996      -7.86993769E-05
  0.686399996      -7.58802344E-05
  0.688199997      -7.24068523E-05
  0.689999998      -6.82593454E-05
  0.691799998      -6.34223252E-05
  0.693599999      -5.78850377E-05
  0.695400000      -5.16415312E-05
  0.697200000      -4.46907761E-05
  0.699000001      -3.70367416E-05
  0.700800002      -2.86884024E-05
  0.702600002      -1.96598376E-05
  0.704400003      -9.97021016E-06
  0.706200004       3.56273887E-07
  0.708000004       1.12903508E-05
  0.709800005       2.27978744E-05
  0.711600006       3.48398862E-05
  0.713400006       4.73727523E-05
  0.715200007       6.03483204E-05
  0.717000008       7.37140945E-05
  0.718800008       8.74135148E-05
  0.720600009       1.01386198E-04
  0.722400010       1.15568131E-04
  0.724200010       1.29892040E-04
  0.726000011       1.44287682E-04
  0.727800012       1.58682175E-04
  0.729600012       1.73000371E-04
  0.731400013       1.87165220E-04
  0.733200014       2.01098141E-04
  0.735000014       2.14719490E-04
  0.736800015       2.27948869E-04
  0.738600016       2.40705718E-04
  0.740400016       2.52909551E-04
  0.742200017       2.64480652E-04
  0.744000018       2.75340222E-04
  0.745800018       2.85411137E-04
  0.747600019       2.94618221E-04
  0.749400020       3.02888715E-04
  0.751200020       3.10152769E-04
  0.753000021       3.16343823E-04
  0.754800022       3.21399042E-04
  0.756600022       3.25259869E-04
  0.758400023       3.27872141E-04
  0.760200024       3.29186732E-04
  0.762000024       3.29159695E-04
  0.763800025       3.27752787E-04
  0.765600026       3.24933731E-04
  0.767400026       3.20676365E-04
  0.769200027       3.14961042E-04
  0.771000028       3.07774870E-04
  0.772800028       2.99111765E-04
  0.774600029       2.88972748E-04
  0.776400030       2.77365936E-04
  0.778199971       2.64306756E-04
  0.779999971       2.49817967E-04
  0.781799972       2.33929575E-04
  0.783599973       2.16678905E-04
  0.785399973       1.98110429E-04
  0.787199974       1.78275775E-04
  0.788999975       1.57233502E-04
  0.790799975       1.35048889E-04
  0.792599976       1.11793852E-04
  0.794399977       8.75464611E-05
  0.796199977       6.23908491E-05
  0.797999978       3.64167208E-05
  0.799799979       9.71910413E-06
  0.801599979      -1.76021349E-05
  0.803399980      -4.54426809E-05
  0.805199981      -7.36942602E-05
  0.806999981      -1.02245067E-04
  0.808799982      -1.30980334E-04
  0.810599983      -1.59782852E-04
  0.812399983      -1.88533508E-04
  0.814199984      -2.17111796E-04
  0.815999985      -2.45396455E-04
  0.817799985      -2.73266021E-04
  0.819599986      -3.00599466E-04
  0.821399987      -3.27276677E-04
  0.823199987      -3.53179115E-04
  0.824999988      -3.78190482E-04
  0.826799989      -4.02197096E-04
  0.828599989      -4.25088656E-04
  0.830399990      -4.46758640E-04
  0.832199991      -4.67104983E-04
  0.833999991      -4.86030447E-04
  0.835799992      -5.03443356E-04
  0.837599993      -5.19257679E-04
  0.839399993      -5.33393933E-04
  0.841199994      -5.45779301E-04
  0.842999995      -5.56348066E-04
  0.844799995      -5.65041904E-04
  0.846599996      -5.71810349E-04
  0.848399997      -5.76611026E-04
  0.850199997      -5.79409767E-04
  0.851999998      -5.80180902E-04
  0.853799999      -5.78907318E-04
  0.855599999      -5.75580751E-04
  0.857400000      -5.70201606E-04
  0.859200001      -5.62779314E-04
  0.861000001      -5.53331978E-04
  0.862800002      -5.41886431E-04
  0.864600003      -5.28478296E-04
  0.866400003      -5.13151521E-04
  0.868200004      -4.95958608E-04
  0.870000005      -4.76959889E-04
  0.871800005      -4.56223730E-04
  0.873600006      -4.33825859E-04
  0.875400007      -4.09849279E-04
  0.877200007      -3.84383806E-04
  0.879000008      -3.57525627E-04
  0.880800009      -3.29376955E-04
  0.882600009      -3.00045504E-04
  0.884400010      -2.69644021E-04
  0.886200011      -2.38289766E-04
  0.888000011      -2.06103956E-04
  0.889800012      -1.73211316E-04
  0.891600013      -1.39739437E-04
  0.893400013      -1.05818261E-04
  0.895200014      -7.15793431E-05
  0.897000015      -3.71554852E-05
  0.898800015      -2.67997552E-06
  0.900600016       3.17139566E-05
  0.902400017       6.58937861E-05
  0.904200017       9.97282550E-05
  0.906000018       1.33088033E-04
  0.907800019       1.65846170E-04
  0.909600019       1.97878777E-04
  0.911400020       2.29065568E-04
  0.913200021       2.59290420E-04
  0.915000021       2.88441923E-04
  0.916800022       3.16413702E-04
  0.918600023       3.43105203E-04
  0.920400023       3.68421926E-04
  0.922200024       3.92275950E-04
  0.924000025       4.14586277E-04
  0.925800025       4.35279304E-04
  0.927600026       4.54289140E-04
  0.929400027       4.71557898E-04
  0.931200027       4.87035926E-04
  0.933000028       5.00682101E-04
  0.934800029       5.12464088E-04
  0.936600029       5.22358343E-04
  0.938399971       5.30350255E-04
  0.940199971       5.36434236E-04
  0.941999972       5.40613953E-04
  0.943799973       5.42901689E-04
  0.945599973       5.43319038E-04
  0.947399974       5.41896152E-04
  0.949199975       5.38671855E-04
  0.950999975       5.33693586E-04
  0.952799976       5.27016760E-04
  0.954599977       5.18704590E-04
  0.956399977       5.08827972E-04
  0.958199978       4.97464673E-04
  0.959999979       4.84699354E-04
  0.961799979       4.70622617E-04
  0.963599980       4.55330824E-04
  0.965399981       4.38925315E-04
  0.967199981       4.21511941E-04
  0.968999982       4.03200334E-04
  0.970799983       3.84103274E-04
  0.972599983       3.64336011E-04
  0.974399984       3.44015571E-04
  0.976199985       3.23259999E-04
  0.977999985       3.02187662E-04
  0.979799986       2.80916574E-04
  0.981599987       2.59563472E-04
  0.983399987       2.38243374E-04
  0.985199988       2.17068591E-04
  0.986999989       1.96148147E-04
  0.988799989       1.75587062E-04
  0.990599990       1.55485759E-04
  0.992399991       1.35939292E-04
  0.994199991       1.17036790E-04
  0.995999992       9.88610263E-05
  0.997799993       8.14876985E-05
  0.999599993       6.49851063E-05
   1.00139999       4.94137021E-05
   1.00320005       3.48257236E-05
   1.00500000       2.12649666E-05
   1.00680006       8.76651211E-06
   1.00860000      -2.64340315E-06
   1.01040006      -1.29475211E-05
   1.01220000      -2.21375085E-05
   1.01400006      -3.02139561E-05
   1.01580000      -3.71862807E-05
   1.01760006      -4.30725195E-05
   1.01940000      -4.78990805E-05
   1.02119994      -5.17004519E-05
   1.02300000      -5.45188159E-05
   1.02479994      -5.64035909E-05
   1.02660000      -5.74109799E-05
   1.02839994      -5.76033926E-05
   1.03020000      -5.70488628E-05
   1.03199995      -5.58203901E-05
   1.03380001      -5.39952925E-05
   1.03559995      -5.16544715E-05
   1.03740001      -4.88816913E-05
   1.03919995      -4.57628266E-05
   1.04100001      -4.23850979E-05
   1.04279995      -3.88363042E-05
   1.04460001      -3.52040515E-05
   1.04639995      -3.15749967E-05
   1.04820001      -2.80341173E-05
   1.04999995      -2.46639738E-05
   1.05180001      -2.15440123E-05
   1.05359995      -1.87499008E-05
   1.05540001      -1.63528930E-05
   1.05719995      -1.44192236E-05
   1.05900002      -1.30095805E-05
   1.06079996      -1.21785952E-05
   1.06260002      -1.19744018E-05
   1.06439996      -1.24382404E-05
   1.06620002      -1.36041390E-05
   1.06799996      -1.54986519E-05
   1.06980002      -1.81406613E-05
   1.07159996      -2.15412438E-05
   1.07340002      -2.57036154E-05
   1.07519996      -3.06231159E-05
   1.07700002      -3.62872997E-05
   1.07879996      -4.26760635E-05
   1.08060002      -4.97618021E-05
   1.08239996      -5.75096929E-05
   1.08420002      -6.58779754E-05
   1.08599997      -7.48183083E-05
   1.08780003      -8.42761947E-05
   1.08959997      -9.41913822E-05
   1.09140003      -1.04498395E-04
   1.09319997      -1.15127041E-04
   1.09500003      -1.26002968E-04
   1.09679997      -1.37048308E-04
   1.09860003      -1.48182211E-04
   1.10039997      -1.59321571E-04
   1.10220003      -1.70381609E-04
   1.10399997      -1.81276613E-04
   1.10580003      -1.91920524E-04
   1.10759997      -2.02227660E-04
   1.10940003      -2.12113358E-04
   1.11119998      -2.21494600E-04
   1.11300004      -2.30290665E-04
   1.11479998      -2.38423745E-04
   1.11660004      -2.45819538E-04
   1.11839998      -2.52407772E-04
   1.12020004      -2.58122804E-04
   1.12199998      -2.62904039E-04
   1.12380004      -2.66696414E-04
   1.12559998      -2.69450946E-04
   1.12740004      -2.71124882E-04
   1.12919998      -2.71682307E-04
   1.13100004      -2.71094206E-04
   1.13279998      -2.69338867E-04
   1.13460004      -2.66401999E-04
   1.13639998      -2.62276910E-04
   1.13820004      -2.56964559E-04
   1.13999999      -2.50473619E-04
   1.14180005      -2.42820519E-04
   1.14359999      -2.34029256E-04
   1.14540005      -2.24131334E-04
   1.14719999      -2.13165622E-04
   1.14900005      -2.01178074E-04
   1.15079999      -1.88221558E-04
   1.15260005      -1.74355373E-04
   1.15439999      -1.59645075E-04
   1.15620005      -1.44161968E-04
   1.15799999      -1.27982668E-04
   1.15980005      -1.11188696E-04
   1.16159999      -9.38659432E-05
   1.16340005      -7.61040646E-05
   1.16520000      -5.79959706E-05
   1.16700006      -3.96372234E-05
   1.16880000      -2.11253955E-05
   1.17060006      -2.55942996E-06
   1.17240000       1.59609554E-05
   1.17420006       3.43359716E-05
   1.17600000       5.24664247E-05
   1.17780006       7.02543184E-05
   1.17960000       8.76035119E-05
   1.18139994       1.04420375E-04
   1.18320000       1.20614401E-04
   1.18499994       1.36098752E-04
   1.18680000       1.50790846E-04
   1.18859994       1.64612953E-04
   1.19040000       1.77492620E-04
   1.19219995       1.89363171E-04
   1.19400001       2.00164097E-04
   1.19579995       2.09841543E-04
   1.19760001       2.18348534E-04
   1.19939995       2.25645301E-04
   1.20120001       2.31699523E-04
   1.20299995       2.36486492E-04
   1.20480001       2.39989211E-04
   1.20659995       2.42198483E-04
   1.20840001       2.43112911E-04
   1.21019995       2.42738824E-04
   1.21200001       2.41090092E-04
   1.21379995       2.38188077E-04
   1.21560001       2.34061299E-04
   1.21739995       2.28745193E-04
   1.21920002       2.22281742E-04
   1.22099996       2.14719126E-04
   1.22280002       2.06111275E-04
   1.22459996       1.96517387E-04
   1.22640002       1.86001460E-04
   1.22819996       1.74631743E-04
   1.23000002       1.62480137E-04
   1.23179996       1.49621716E-04
   1.23360002       1.36133996E-04
   1.23539996       1.22096375E-04
   1.23720002       1.07589512E-04
   1.23899996       9.26947396E-05
   1.24080002       7.74933505E-05