 -0.300000012         1.00000002E-24
 -0.298200011         1.00000002E-24
 -0.296400011         1.00000002E-24
 -0.294600010         1.00000002E-24
 -0.292800009         1.00000002E-24
 -0.291000009         1.00000002E-24
 -0.289200008         1.00000002E-24
 -0.287400007         1.00000002E-24
 -0.285600007         1.00000002E-24
 -0.283800006         1.00000002E-24
 -0.282000005         1.00000002E-24
 -0.280200005         1.00000012E-24
 -0.278400004         1.00000022E-24
 -0.276600003         1.00000022E-24
 -0.274800003         1.00000022E-24
 -0.273000002         1.00000022E-24
 -0.271200001         1.00000022E-24
 -0.269400001         1.00000022E-24
 -0.267600000         1.00000022E-24
 -0.265799999         1.00000022E-24
 -0.263999999         1.00000022E-24
 -0.262199998         1.00000022E-24
 -0.260399997         1.00000022E-24
 -0.258599997         1.00000022E-24
 -0.256799996         1.00000022E-24
 -0.254999995         1.00000022E-24
 -0.253199995         1.00000022E-24
 -0.251399994         1.00000022E-24
 -0.249599993         1.00000022E-24
 -0.247799993         1.00000022E-24
 -0.246000007         1.00000022E-24
 -0.244200006         1.00000022E-24
 -0.242400005         1.00000022E-24
 -0.240600005         1.00000022E-24
 -0.238800004         1.00000022E-24
 -0.237000003         1.00000022E-24
 -0.235200003         1.00000012E-24
 -0.233400002         1.00000002E-24
 -0.231600001         1.00000002E-24
 -0.229800001         9.99999921E-25
 -0.228000000         9.99999921E-25
 -0.226199999         9.99999822E-25
 -0.224399999         9.99999822E-25
 -0.222599998         9.99999822E-25
 -0.220799997         9.99999822E-25
 -0.218999997         9.99999921E-25
 -0.217199996         9.99999921E-25
 -0.215399995         1.00000002E-24
 -0.213599995         1.00000012E-24
 -0.211799994         1.00000012E-24
 -0.209999993         1.00000022E-24
 -0.208199993         1.00000022E-24
 -0.206400007         1.00000022E-24
 -0.204600006         1.00000012E-24
 -0.202800006         1.00000012E-24
 -0.201000005         1.00000002E-24
 -0.199200004         1.00000002E-24
 -0.197400004         9.99999921E-25
 -0.195600003         9.99999921E-25
 -0.193800002         9.99999921E-25
 -0.192000002         9.99999921E-25
 -0.190200001         9.99999921E-25
 -0.188400000         1.00000002E-24
 -0.186600000         1.00000012E-24
 -0.184799999         1.00000032E-24
 -0.182999998         1.00000051E-24
 -0.181199998         1.00000061E-24
 -0.179399997         1.00000071E-24
 -0.177599996         1.00000081E-24
 -0.175799996         1.00000091E-24
 -0.173999995         1.00000091E-24
 -0.172199994         1.00000081E-24
 -0.170399994         1.00000071E-24
 -0.168599993         1.00000051E-24
 -0.166800007         1.00000041E-24
 -0.165000007         1.00000012E-24
 -0.163200006         9.99999921E-25
 -0.161400005         9.99999822E-25
 -0.159600005         9.99999625E-25
 -0.157800004         9.99999527E-25
 -0.156000003         9.99999428E-25
 -0.154200003         9.99999428E-25
 -0.152400002         9.99999527E-25
 -0.150600001         9.99999724E-25
 -0.148800001         9.99999921E-25
 -0.147000000         1.00000012E-24
 -0.145199999         1.00000032E-24
 -0.143399999         1.00000061E-24
 -0.141599998         1.00000071E-24
 -0.139799997         1.00000091E-24
 -0.137999997         1.00000101E-24
 -0.136199996         1.00000091E-24
 -0.134399995         1.00000061E-24
 -0.132599995         1.00000041E-24
 -0.130799994         1.00000002E-24
 -0.128999993         9.99999625E-25
 -0.127200007         9.99999231E-25
 -0.125400007         9.99998935E-25
 -0.123599999         9.99998738E-25
 -0.121799998         9.99998639E-25
 -0.119999997         9.99998836E-25
 -0.118199997         9.99999033E-25
 -0.116400003         9.99999428E-25
 -0.114600003         9.99999822E-25
 -0.112800002         1.00000032E-24
 -0.111000001         1.00000081E-24
 -0.109200001         1.00000130E-24
 -0.107400000         1.00000170E-24
 -0.105599999         1.00000199E-24
 -0.103799999         1.00000209E-24
 -0.101999998         1.00000189E-24
 -0.100199997         1.00000160E-24
  -9.83999968E-02     1.00000120E-24
  -9.66000035E-02     1.00000071E-24
  -9.48000029E-02     1.00000022E-24
  -9.30000022E-02     9.99999625E-25
  -9.12000015E-02     9.99999132E-25
  -8.94000009E-02     9.99998639E-25
  -8.76000002E-02     9.99998343E-25
  -8.57999995E-02     9.99998146E-25
  -8.39999989E-02     9.99998146E-25
  -8.21999982E-02     9.99998442E-25
  -8.03999975E-02     9.99998836E-25
  -7.85999969E-02     9.99999329E-25
  -7.68000036E-02     9.99999822E-25
  -7.50000030E-02     1.00000041E-24
  -7.32000023E-02     1.00000101E-24
  -7.14000016E-02     1.00000160E-24
  -6.96000010E-02     1.00000199E-24
  -6.78000003E-02     1.00000219E-24
  -6.59999996E-02     1.00000229E-24
  -6.41999990E-02     1.00000219E-24
  -6.23999983E-02     1.00000189E-24
  -6.06000014E-02     1.00000150E-24
  -5.88000007E-02     1.00000110E-24
  -5.70000000E-02     1.00000061E-24
  -5.51999994E-02     1.00000012E-24
  -5.33999987E-02     9.99999625E-25
  -5.16000018E-02     9.99999132E-25
  -4.98000011E-02     9.99998738E-25
  -4.80000004E-02     9.99998442E-25
  -4.61999997E-02     9.99998245E-25
  -4.43999991E-02     9.99998245E-25
  -4.25999984E-02     9.99998442E-25
  -4.08000015E-02     9.99998639E-25
  -3.90000008E-02     9.99998836E-25
  -3.72000001E-02     9.99999033E-25
  -3.53999995E-02     9.99999329E-25
  -3.35999988E-02     9.99999625E-25
  -3.18000019E-02     9.99999921E-25
  -2.99999993E-02     1.00000012E-24
  -2.82000005E-02     1.00000032E-24
  -2.63999999E-02     1.00000051E-24
  -2.45999992E-02     1.00000061E-24
  -2.28000004E-02     1.00000071E-24
  -2.09999997E-02     1.00000081E-24
  -1.92000009E-02     1.00000081E-24
  -1.74000002E-02     1.00000081E-24
  -1.55999996E-02     1.00000081E-24
  -1.37999998E-02     1.00000071E-24
  -1.20000001E-02     1.00000061E-24
  -1.02000004E-02     1.00000051E-24
  -8.39999970E-03     1.00000032E-24
  -6.59999996E-03     1.00000012E-24
  -4.80000023E-03     9.99999822E-25
  -3.00000003E-03     9.99999527E-25
  -1.20000006E-03     9.99999231E-25
   6.00000028E-04     9.99999033E-25
   2.40000011E-03     9.99998836E-25
   4.19999985E-03     9.99998639E-25
   6.00000005E-03     9.99998540E-25
   7.79999979E-03     9.99998639E-25
   9.60000046E-03     9.99998738E-25
   1.14000002E-02     9.99998836E-25
   1.31999999E-02     9.99999033E-25
   1.49999997E-02     9.99999329E-25
   1.67999994E-02     9.99999724E-25
   1.86000001E-02     1.00000002E-24
   2.04000007E-02     1.00000032E-24
   2.21999995E-02     1.00000071E-24
   2.40000002E-02     1.00000091E-24
   2.58000009E-02     1.00000120E-24
   2.75999997E-02     1.00000130E-24
   2.94000003E-02     1.00000140E-24
   3.11999992E-02     1.00000140E-24
   3.29999998E-02     1.00000130E-24
   3.48000005E-02     1.00000110E-24
   3.66000012E-02     1.00000091E-24
   3.84000018E-02     1.00000051E-24
   4.01999988E-02     1.00000012E-24
   4.19999994E-02     9.99999822E-25
   4.38000001E-02     9.99999428E-25
   4.56000008E-02     9.99999033E-25
   4.74000014E-02     9.99998738E-25
   4.91999984E-02     9.99998442E-25
   5.09999990E-02     9.99998343E-25
   5.27999997E-02     9.99998146E-25
   5.46000004E-02     9.99998047E-25
   5.64000010E-02     9.99998047E-25
   5.82000017E-02     9.99998047E-25
   5.99999987E-02     9.99998245E-25
   6.17999993E-02     9.99998343E-25
   6.36000037E-02     9.99998540E-25
   6.53999969E-02     9.99998935E-25
   6.71999976E-02     9.99999329E-25
   6.89999983E-02     9.99999724E-25
   7.07999989E-02     1.00000012E-24
   7.25999996E-02     1.00000061E-24
   7.44000003E-02     1.00000101E-24
   7.62000009E-02     1.00000140E-24
   7.80000016E-02     1.00000170E-24
   7.98000023E-02     1.00000189E-24
   8.16000029E-02     1.00000199E-24
   8.34000036E-02     1.00000179E-24
   8.51999968E-02     1.00000150E-24
   8.69999975E-02     1.00000091E-24
   8.87999982E-02     1.00000032E-24
   9.05999988E-02     9.99999527E-25
   9.23999995E-02     9.99998738E-25
   9.42000002E-02     9.99997949E-25
   9.60000008E-02     9.99997259E-25
   9.78000015E-02     9.99996667E-25
   9.96000022E-02     9.99996371E-25
  0.101400003         9.99996272E-25
  0.103200004         9.99996470E-25
  0.104999997         9.99996864E-25
  0.106799997         9.99997456E-25
  0.108599998         9.99998146E-25
  0.110399999         9.99999132E-25
  0.112199999         1.00000012E-24
  0.114000000         1.00000101E-24
  0.115800001         1.00000179E-24
  0.117600001         1.00000239E-24
  0.119400002         1.00000288E-24
  0.121200003         1.00000317E-24
  0.123000003         1.00000308E-24
  0.124799997         1.00000268E-24
  0.126599997         1.00000209E-24
  0.128399998         1.00000140E-24
  0.130199999         1.00000061E-24
  0.131999999         9.99999822E-25
  0.133800000         9.99999132E-25
  0.135600001         9.99998540E-25
  0.137400001         9.99998146E-25
  0.139200002         9.99997850E-25
  0.141000003         9.99997752E-25
  0.142800003         9.99997850E-25
  0.144600004         9.99998047E-25
  0.146400005         9.99998442E-25
  0.148200005         9.99998738E-25
  0.150000006         9.99999132E-25
  0.151800007         9.99999527E-25
  0.153600007         9.99999822E-25
  0.155399993         1.00000012E-24
  0.157199994         1.00000041E-24
  0.158999994         1.00000061E-24
  0.160799995         1.00000091E-24
  0.162599996         1.00000110E-24
  0.164399996         1.00000140E-24
  0.166199997         1.00000150E-24
  0.167999998         1.00000170E-24
  0.169799998         1.00000179E-24
  0.171599999         1.00000189E-24
  0.173400000         1.00000199E-24
  0.175200000         1.00000199E-24
  0.177000001         1.00000189E-24
  0.178800002         1.00000179E-24
  0.180600002         1.00000150E-24
  0.182400003         1.00000091E-24
  0.184200004         1.00000032E-24
  0.186000004         9.99999527E-25
  0.187800005         9.99998540E-25
  0.189600006         9.99997653E-25
  0.191400006         9.99996864E-25
  0.193200007         9.99996174E-25
  0.194999993         9.99995582E-25
  0.196799994         9.99995286E-25
  0.198599994         9.99995385E-25
  0.200399995         9.99995681E-25
  0.202199996         9.99996371E-25
  0.203999996         9.99997259E-25
  0.205799997         9.99998245E-25
  0.207599998         9.99999527E-25
  0.209399998         1.00000081E-24
  0.211199999         1.00000179E-24
  0.213000000         1.00000278E-24
  0.214800000         1.00000337E-24
  0.216600001         1.00000377E-24
  0.218400002         1.00000377E-24
  0.220200002         1.00000337E-24
  0.222000003         1.00000268E-24
  0.223800004         1.00000189E-24
  0.225600004         1.00000091E-24
  0.227400005         9.99999822E-25
  0.229200006         9.99998935E-25
  0.231000006         9.99998047E-25
  0.232800007         9.99997456E-25
  0.234599993         9.99997160E-25
  0.236399993         9.99997061E-25
  0.238199994         9.99997259E-25
  0.239999995         9.99997752E-25
  0.241799995         9.99998343E-25
  0.243599996         9.99998935E-25
  0.245399997         9.99999625E-25
  0.247199997         1.00000012E-24
  0.248999998         1.00000041E-24
  0.250800014         1.00000051E-24
  0.252600014         1.00000041E-24
  0.254400015         1.00000002E-24
  0.256199986         9.99999625E-25
  0.257999986         9.99999132E-25
  0.259799987         9.99998639E-25
  0.261599988         9.99998343E-25
  0.263399988         9.99998146E-25
  0.265199989         9.99998343E-25
  0.266999990         9.99998738E-25
  0.268799990         9.99999428E-25
  0.270599991         1.00000032E-24
  0.272399992         1.00000130E-24
  0.274199992         1.00000239E-24
  0.275999993         1.00000347E-24
  0.277799994         1.00000436E-24
  0.279599994         1.00000495E-24
  0.281399995         1.00000525E-24
  0.283199996         1.00000525E-24
  0.284999996         1.00000485E-24
  0.286799997         1.00000416E-24
  0.288599998         1.00000337E-24
  0.290399998         1.00000239E-24
  0.292199999         1.00000170E-24
  0.294000000         1.00000110E-24
  0.295800000         1.00000081E-24
  0.297600001         1.00000101E-24
  0.299400002         1.00000170E-24
  0.301200002         1.00000298E-24
  0.303000003         1.00000465E-24
  0.304800004         1.00000682E-24
  0.306600004         1.00000929E-24
  0.308400005         1.00001185E-24
  0.310200006         1.00001422E-24
  0.312000006         1.00001619E-24
  0.313800007         1.00001757E-24
  0.315600008         1.00001816E-24
  0.317400008         1.00001757E-24
  0.319200009         1.00001580E-24
  0.321000010         1.00001274E-24
  0.322800010         1.00000820E-24
  0.324600011         1.00000239E-24
  0.326400012         9.99995089E-25
  0.328200012         9.99986510E-25
  0.330000013         9.99976551E-25
  0.331800014         9.99965211E-25
  0.333600014         9.99952392E-25
  0.335399985         9.99938291E-25
  0.337199986         9.99922415E-25
  0.338999987         9.99905060E-25
  0.340799987         9.99885635E-25
  0.342599988         9.99864335E-25
  0.344399989         9.99840670E-25
  0.346199989         9.99814736E-25
  0.347999990         9.99786140E-25
  0.349799991         9.99754980E-25
  0.351599991         9.99721059E-25
  0.353399992         9.99684574E-25
  0.355199993         9.99645624E-25
  0.356999993         9.99604702E-25
  0.358799994         9.99562005E-25
  0.360599995         9.99518420E-25
  0.362399995         9.99474638E-25
  0.364199996         9.99431842E-25
  0.365999997         9.99390920E-25
  0.367799997         9.99353449E-25
  0.369599998         9.99321205E-25
  0.371399999         9.99295863E-25
  0.373199999         9.99279888E-25
  0.375000000         9.99275549E-25
  0.376800001         9.99285805E-25
  0.378600001         9.99313809E-25
  0.380400002         9.99363014E-25
  0.382200003         9.99437266E-25
  0.384000003         9.99541001E-25
  0.385800004         9.99678953E-25
  0.387600005         9.99856052E-25
  0.389400005         1.00007772E-24
  0.391200006         1.00034968E-24
  0.393000007         1.00067814E-24
  0.394800007         1.00106932E-24
  0.396600008         1.00152972E-24
  0.398400009         1.00206565E-24
  0.400200009         1.00268392E-24
  0.402000010         1.00339094E-24
  0.403800011         1.00419291E-24
  0.405600011         1.00509577E-24
  0.407400012         1.00610501E-24
  0.409200013         1.00722530E-24
  0.411000013         1.00846075E-24
  0.412800014         1.00981444E-24
  0.414600015         1.01128793E-24
  0.416399986         1.01288163E-24
  0.418199986         1.01459414E-24
  0.419999987         1.01642233E-24
  0.421799988         1.01836115E-24
  0.423599988         1.02040282E-24
  0.425399989         1.02253748E-24
  0.427199990         1.02475240E-24
  0.428999990         1.02703231E-24
  0.430799991         1.02935886E-24
  0.432599992         1.03171104E-24
  0.434399992         1.03406471E-24
  0.436199993         1.03639284E-24
  0.437999994         1.03866594E-24
  0.439799994         1.04085158E-24
  0.441599995         1.04291504E-24
  0.443399996         1.04481945E-24
  0.445199996         1.04652605E-24
  0.446999997         1.04799422E-24
  0.448799998         1.04918205E-24
  0.450599998         1.05004595E-24
  0.452399999         1.05054135E-24
  0.454200000         1.05062201E-24
  0.456000000         1.05024011E-24
  0.457800001         1.04934554E-24
  0.459600002         1.04788516E-24
  0.461400002         1.04580109E-24
  0.463200003         1.04302962E-24
  0.465000004         1.03949799E-24
  0.466800004         1.03512238E-24
  0.468600005         1.02980318E-24
  0.470400006         1.02342120E-24
  0.472200006         1.01583137E-24
  0.474000007         1.00685680E-24
  0.475800008         9.96280540E-25
  0.477600008         9.83837541E-25
  0.479400009         9.69203974E-25
  0.481200010         9.51986789E-25
  0.483000010         9.31710993E-25
  0.484800011         9.07806832E-25
  0.486600012         8.79595489E-25
  0.488400012         8.46274794E-25
  0.490200013         8.06903288E-25
  0.492000014         7.60385689E-25
  0.493800014         7.05457699E-25
  0.495599985         6.40672004E-25
  0.497399986         5.64385604E-25
  0.499199986         4.74749213E-25
  0.500999987         3.69699786E-25
  0.502799988         2.46956925E-25
  0.504599988         1.04023180E-25
  0.506399989        -6.18085585E-26
  0.508199990        -2.53441756E-25
  0.509999990        -4.73953844E-25
  0.511799991        -7.26565595E-25
  0.513599992        -1.01459858E-24
  0.515399992        -1.34142070E-24
  0.517199993        -1.71037962E-24
  0.518999994        -2.12472033E-24
  0.520799994        -2.58748724E-24
  0.522599995        -3.10140882E-24
  0.524399996        -3.66876646E-24
  0.526199996        -4.29124240E-24
  0.527999997        -4.96975192E-24
  0.529799998        -5.70425439E-24
  0.531599998        -6.49354404E-24
  0.533399999        -7.33502907E-24
  0.535200000        -8.22448709E-24
  0.537000000        -9.15580997E-24
  0.538800001        -1.01207344E-23
  0.540600002        -1.11085634E-23
  0.542400002        -1.21058815E-23
  0.544200003        -1.30962696E-23
  0.546000004        -1.40600210E-23
  0.547800004        -1.49738674E-23
  0.549600005        -1.58107226E-23
  0.551400006        -1.65394471E-23
  0.553200006        -1.71246478E-23
  0.555000007        -1.75265109E-23
  0.556800008        -1.77006866E-23
  0.558600008        -1.75982499E-23
  0.560400009        -1.71657032E-23
  0.562200010        -1.63450796E-23
  0.564000010        -1.50741316E-23
  0.565800011        -1.32866280E-23
  0.567600012        -1.09127720E-23
  0.569400012        -7.87971543E-24
  0.571200013        -4.11225025E-24
  0.573000014         4.66381470E-25
  0.574800014         5.93351748E-24
  0.576600015         1.23659382E-23
  0.578400016         1.98385375E-23
  0.580200016         2.84228667E-23
  0.582000017         3.81854337E-23
  0.583800018         4.91858845E-23
  0.585600019         6.14749900E-23
  0.587400019         7.50923953E-23
  0.589200020         9.00642811E-23
  0.591000021         1.06400827E-22
  0.592800021         1.24093500E-22
  0.594600022         1.43112268E-22
  0.596400023         1.63402666E-22
  0.598200023         1.84882756E-22
  0.600000024         2.07440063E-22
  0.601800025         2.30928491E-22
  0.603600025         2.55165100E-22
  0.605400026         2.79927179E-22
  0.607200027         3.04949140E-22
  0.609000027         3.29919856E-22
  0.610800028         3.54479835E-22
  0.612600029         3.78219020E-22
  0.614400029         4.00674545E-22
  0.616199970         4.21329297E-22
  0.617999971         4.39610549E-22
  0.619799972         4.54889257E-22
  0.621599972         4.66480388E-22
  0.623399973         4.73643094E-22
  0.625199974         4.75582808E-22
  0.626999974         4.71453216E-22
  0.628799975         4.60360241E-22
  0.630599976         4.41366036E-22
  0.632399976         4.13495163E-22
  0.634199977         3.75741770E-22
  0.635999978         3.27078114E-22
  0.637799978         2.66464466E-22
  0.639599979         1.92861673E-22
  0.641399980         1.05243864E-22
  0.643199980         2.61442132E-24
  0.644999981        -1.15976664E-22
  0.646799982        -2.51413328E-22
  0.648599982        -4.04491850E-22
  0.650399983        -5.75898147E-22
  0.652199984        -7.66181293E-22
  0.653999984        -9.75725368E-22
  0.655799985        -1.20472061E-21
  0.657599986        -1.45313116E-21
  0.659399986        -1.72066149E-21
  0.661199987        -2.00672038E-21
  0.662999988        -2.31038553E-21
  0.664799988        -2.63036447E-21
  0.666599989        -2.96495681E-21
  0.668399990        -3.31201441E-21
  0.670199990        -3.66890387E-21
  0.671999991        -4.03246631E-21
  0.673799992        -4.39898325E-21
  0.675599992        -4.76414149E-21
  0.677399993        -5.12299974E-21
  0.679199994        -5.46996283E-21
  0.680999994        -5.79875783E-21
  0.682799995        -6.10242117E-21
  0.684599996        -6.37328324E-21
  0.686399996        -6.60297247E-21
  0.688199997        -6.78242220E-21
  0.689999998        -6.90189163E-21
  0.691799998        -6.95100064E-21
  0.693599999        -6.91877210E-21
  0.695400000        -6.79370061E-21
  0.697200000        -6.56382074E-21
  0.699000001        -6.21681807E-21
  0.700800002        -5.74013666E-21
  0.702600002        -5.12111718E-21
  0.704400003        -4.34715885E-21
  0.706200004        -3.40589759E-21
  0.708000004        -2.28541400E-21
  0.709800005        -9.74455718E-22
  0.711600006         5.37313130E-22
  0.713400006         2.25902783E-21
  0.715200007         4.19833783E-21
  0.717000008         6.36109363E-21
  0.718800008         8.75099735E-21
  0.720600009         1.13692591E-20
  0.722400010         1.42142248E-20
  0.724200010         1.72810018E-20
  0.726000011         2.05610669E-20
  0.727800012         2.40418753E-20
  0.729600012         2.77064857E-20
  0.731400013         3.15331557E-20
  0.733200014         3.54949857E-20
  0.735000014         3.95595897E-20
  0.736800015         4.36887557E-20
  0.738600016         4.78381748E-20
  0.740400016         5.19572047E-20
  0.742200017         5.59886891E-20
  0.744000018         5.98688253E-20
  0.745800018         6.35271544E-20
  0.747600019         6.68865740E-20
  0.749400020         6.98634871E-20
  0.751200020         7.23680285E-20
  0.753000021         7.43044001E-20
  0.754800022         7.55713952E-20
  0.756600022         7.60629602E-20
  0.758400023         7.56689702E-20
  0.760200024         7.42761467E-20
  0.762000024         7.17690592E-20
  0.763800025         6.80314049E-20
  0.765600026         6.29473654E-20
  0.767400026         5.64031712E-20
  0.769200027         4.82888493E-20
  0.771000028         3.85001458E-20
  0.772800028         2.69404938E-20
  0.774600029         1.35233868E-20
  0.776400030        -1.82538041E-21
  0.778199971        -1.91650769E-20
  0.779999971        -3.85374077E-20
  0.781799972        -5.99637185E-20
  0.783599973        -8.34422320E-20
  0.785399973        -1.08944986E-19
  0.787199974        -1.36415034E-19
  0.788999975        -1.65763389E-19
  0.790799975        -1.96866129E-19
  0.792599976        -2.29561568E-19
  0.794399977        -2.63647509E-19
  0.796199977        -2.98878760E-19
  0.797999978        -3.34964721E-19
  0.799799979        -3.71567282E-19
  0.801599979        -4.08299401E-19
  0.803399980        -4.44723317E-19
  0.805199981        -4.80350192E-19
  0.806999981        -5.14639569E-19
  0.808799982        -5.46999753E-19
  0.810599983        -5.76788854E-19
  0.812399983        -6.03316691E-19
  0.814199984        -6.25847075E-19
  0.815999985        -6.43601576E-19
  0.817799985        -6.55763974E-19
  0.819599986        -6.61485789E-19
  0.821399987        -6.59892846E-19
  0.823199987        -6.50092876E-19
  0.824999988        -6.31184768E-19
  0.826799989        -6.02268808E-19
  0.828599989        -5.62457691E-19
  0.830399990        -5.10889390E-19
  0.832199991        -4.46741224E-19
  0.833999991        -3.69244611E-19
  0.835799992        -2.77702058E-19
  0.837599993        -1.71503777E-19
  0.839399993        -5.01468456E-20
  0.841199994         8.67457846E-20
  0.842999995         2.39404629E-19
  0.844799995         4.07893177E-19
  0.846599996         5.92086628E-19
  0.848399997         7.91650724E-19
  0.850199997         1.00602078E-18
  0.851999998         1.23437898E-18
  0.853799999         1.47563572E-18
  0.855599999         1.72840950E-18
  0.857400000         1.99100885E-18
  0.859200001         2.26141688E-18
  0.861000001         2.53727582E-18
  0.862800002         2.81587728E-18
  0.864600003         3.09415325E-18
  0.866400003         3.36866968E-18
  0.868200004         3.63562919E-18
  0.870000005         3.89087190E-18
  0.871800005         4.12988656E-18
  0.873600006         4.34782343E-18
  0.875400007         4.53951674E-18
  0.877200007         4.69950960E-18
  0.879000008         4.82208991E-18
  0.880800009         4.90133009E-18
  0.882600009         4.93113837E-18
  0.884400010         4.90531131E-18
  0.886200011         4.81760122E-18
  0.888000011         4.66178851E-18
  0.889800012         4.43176241E-18
  0.891600013         4.12160980E-18
  0.893400013         3.72571247E-18
  0.895200014         3.23885050E-18
  0.897000015         2.65631290E-18
  0.898800015         1.97402145E-18
  0.900600016         1.18864437E-18
  0.902400017         2.97734899E-19
  0.904200017        -7.00142679E-19
  0.906000018        -1.80527805E-18
  0.907800019        -3.01667517E-18
  0.909600019        -4.33192088E-18
  0.911400020        -5.74705113E-18
  0.913200021        -7.25641794E-18
  0.915000021        -8.85257129E-18
  0.916800022        -1.05261438E-17
  0.918600023        -1.22657476E-17
  0.920400023        -1.40578948E-17
  0.922200024        -1.58869103E-17
  0.924000025        -1.77348896E-17
  0.925800025        -1.95816614E-17
  0.927600026        -2.14047757E-17
  0.929400027        -2.31795281E-17
  0.931200027        -2.48790219E-17
  0.933000028        -2.64742331E-17
  0.934800029        -2.79341474E-17
  0.936600029        -2.92259057E-17
  0.938399971        -3.03150279E-17
  0.940199971        -3.11656343E-17
  0.941999972        -3.17407564E-17
  0.943799973        -3.20026451E-17
  0.945599973        -3.19131872E-17
  0.947399974        -3.14343224E-17
  0.949199975        -3.05285034E-17
  0.950999975        -2.91592548E-17
  0.952799976        -2.72917341E-17
  0.954599977        -2.48933454E-17
  0.956399977        -2.19343996E-17
  0.958199978        -1.83888454E-17
  0.959999979        -1.42348982E-17
  0.961799979        -9.45592510E-18
  0.963599980        -4.04111685E-18
  0.965399981         2.01370916E-18
  0.967199981         8.70529509E-18
  0.968999982         1.60221576E-17
  0.970799983         2.39438628E-17
  0.972599983         3.24402799E-17
  0.974399984         4.14708787E-17
  0.976199985         5.09841075E-17
  0.977999985         6.09168295E-17
  0.979799986         7.11939001E-17
  0.981599987         8.17277275E-17
  0.983399987         9.24180907E-17
  0.985199988         1.03151983E-16
  0.986999989         1.13803667E-16
  0.988799989         1.24234905E-16
  0.990599990         1.34295366E-16
  0.992399991         1.43823137E-16
  0.994199991         1.52645726E-16
  0.995999992         1.60580969E-16
  0.997799993         1.67438363E-16
  0.999599993         1.73020482E-16
   1.00139999         1.77124939E-16
   1.00320005         1.79546289E-16
   1.00500000         1.80078437E-16
   1.00680006         1.78517183E-16
   1.00860000         1.74662839E-16
   1.01040006         1.68323433E-16
   1.01220000         1.59318123E-16
   1.01400006         1.47480361E-16
   1.01580000         1.32661546E-16
   1.01760006         1.14735007E-16
   1.01940000         9.35997744E-17
   1.02119994         6.91845129E-17
   1.02300000         4.14516318E-17
   1.02479994         1.04011502E-17
   1.02660000        -2.39255540E-17
   1.02839994        -6.14420759E-17
   1.03020000        -1.02013114E-16
   1.03199995        -1.45451704E-16
   1.03380001        -1.91515896E-16
   1.03559995        -2.39906836E-16
   1.03740001        -2.90266438E-16
   1.03919995        -3.42176138E-16
   1.04100001        -3.95156064E-16
   1.04279995        -4.48665411E-16
   1.04460001        -5.02103185E-16
   1.04639995        -5.54809492E-16
   1.04820001        -6.06068803E-16
   1.04999995        -6.55112963E-16
   1.05180001        -7.01126122E-16
   1.05359995        -7.43250447E-16
   1.05540001        -7.80593271E-16
   1.05719995        -8.12234504E-16
   1.05900002        -8.37236058E-16
   1.06079996        -8.54651585E-16
   1.06260002        -8.63538390E-16
   1.06439996        -8.62969607E-16
   1.06620002        -8.52046588E-16
   1.06799996        -8.29914623E-16
   1.06980002        -7.95776231E-16
   1.07159996        -7.48907939E-16
   1.07340002        -6.88675426E-16
   1.07519996        -6.14550567E-16
   1.07700002        -5.26127104E-16
   1.07879996        -4.23139385E-16
   1.08060002        -3.05476371E-16
   1.08239996        -1.73198835E-16
   1.08420002        -2.65539105E-17
   1.08599997         1.34012074E-16
   1.08780003         3.07838825E-16
   1.08959997         4.94042078E-16
   1.09140003         6.91503616E-16
   1.09319997         8.98864164E-16
   1.09500003         1.11451928E-15
   1.09679997         1.33661651E-15
   1.09860003         1.56305700E-15
   1.10039997         1.79149967E-15
   1.10220003         2.01936763E-15
   1.10399997         2.24386037E-15
   1.10580003         2.46196818E-15
   1.10759997         2.67049244E-15
   1.10940003         2.86606854E-15
   1.11119998         3.04519229E-15
   1.11300004         3.20424962E-15
   1.11479998         3.33955678E-15
   1.11660004         3.44739657E-15
   1.11839998         3.52406067E-15
   1.12020004         3.56590198E-15
   1.12199998         3.56937566E-15
   1.12380004         3.53110015E-15
   1.12559998         3.44791093E-15
   1.12740004         3.31691982E-15
   1.12919998         3.13557028E-15
   1.13100004         2.90169834E-15
   1.13279998         2.61359279E-15
   1.13460004         2.27005783E-15
   1.13639998         1.87046919E-15
   1.13820004         1.41483142E-15
   1.13999999         9.03824918E-16
   1.14180005         3.38858733E-16
   1.14359999        -2.77885120E-16
   1.14540005        -9.43417673E-16
   1.14719999        -1.65390722E-15
   1.14900005        -2.40466343E-15
   1.15079999        -3.19011836E-15
   1.15260005        -4.00383030E-15
   1.15439999        -4.83848301E-15
   1.15620005        -5.68590813E-15