 -0.300000012       0.00000000    
 -0.298200011       0.00000000    
 -0.296400011       0.00000000    
 -0.294600010       0.00000000    
 -0.292800009       0.00000000    
 -0.291000009       0.00000000    
 -0.289200008       0.00000000    
 -0.287400007       0.00000000    
 -0.285600007       0.00000000    
 -0.283800006       0.00000000    
 -0.282000005       0.00000000    
 -0.280200005       0.00000000    
 -0.278400004       0.00000000    
 -0.276600003       0.00000000    
 -0.274800003       0.00000000    
 -0.273000002       0.00000000    
 -0.271200001       0.00000000    
 -0.269400001       0.00000000    
 -0.267600000       0.00000000    
 -0.265799999       0.00000000    
 -0.263999999      -1.36283114E-38
 -0.262199998      -1.11238413E-37
 -0.260399997      -4.17770255E-37
 -0.258599997      -1.25939298E-36
 -0.256799996      -3.33781922E-36
 -0.254999995      -7.91813110E-36
 -0.253199995      -1.65439408E-35
 -0.251399994      -2.88172842E-35
 -0.249599993      -3.40882284E-35
 -0.247799993       1.30206031E-35
 -0.246000007       2.55727487E-34
 -0.244200006       1.08347114E-33
 -0.242400005       3.45631449E-33
 -0.240600005       9.57242960E-33
 -0.238800004       2.41703885E-32
 -0.237000003       5.69508029E-32
 -0.235200003       1.26883095E-31
 -0.233400002       2.69548166E-31
 -0.231600001       5.49155602E-31
 -0.229800001       1.07743348E-30
 -0.228000000       2.04213273E-30
 -0.226199999       3.74825238E-30
 -0.224399999       6.67499633E-30
 -0.222599998       1.15505091E-29
 -0.220799997       1.94440157E-29
 -0.218999997       3.18704452E-29
 -0.217199996       5.08950039E-29
 -0.215399995       7.92137574E-29
 -0.213599995       1.20170036E-28
 -0.211799994       1.77645335E-28
 -0.209999993       2.55736485E-28
 -0.208199993       3.58099349E-28
 -0.206400007       4.86804745E-28
 -0.204600006       6.40515381E-28
 -0.202800006       8.11757901E-28
 -0.201000005       9.83033547E-28
 -0.199200004       1.12148634E-27
 -0.197400004       1.17183275E-27
 -0.195600003       1.04724607E-27
 -0.193800002       6.17879445E-28
 -0.192000002      -3.03302598E-28
 -0.190200001      -1.97776269E-27
 -0.188400000      -4.76215145E-27
 -0.186600000      -9.13320122E-27
 -0.184799999      -1.57175882E-26
 -0.182999998      -2.53279216E-26
 -0.181199998      -3.90064416E-26
 -0.179399997      -5.80784543E-26
 -0.177599996      -8.42180075E-26
 -0.175799996      -1.19528562E-25
 -0.173999995      -1.66641357E-25
 -0.172199994      -2.28833585E-25
 -0.170399994      -3.10166500E-25
 -0.168599993      -4.15640654E-25
 -0.166800007      -5.51359736E-25
 -0.165000007      -7.24686331E-25
 -0.163200006      -9.44361364E-25
 -0.161400005      -1.22054137E-24
 -0.159600005      -1.56468628E-24
 -0.157800004      -1.98920112E-24
 -0.156000003      -2.50669999E-24
 -0.154200003      -3.12871346E-24
 -0.152400002      -3.86361273E-24
 -0.150600001      -4.71346166E-24
 -0.148800001      -5.66944196E-24
 -0.147000000      -6.70542971E-24
 -0.145199999      -7.76923389E-24
 -0.143399999      -8.77095076E-24
 -0.141599998      -9.56784701E-24
 -0.139799997      -9.94515760E-24
 -0.137999997      -9.59224332E-24
 -0.136199996      -8.07360088E-24
 -0.134399995      -4.79443074E-24
 -0.132599995       1.03930206E-24
 -0.130799994       1.04659715E-23
 -0.128999993       2.48176540E-23
 -0.127200007       4.57721710E-23
 -0.125400007       7.54052702E-23
 -0.123599999       1.16239336E-22
 -0.121799998       1.71283500E-22
 -0.119999997       2.44058595E-22
 -0.118199997       3.38598336E-22
 -0.116400003       4.59416031E-22
 -0.114600003       6.11423545E-22
 -0.112800002       7.99787071E-22
 -0.111000001       1.02970092E-21
 -0.109200001       1.30605811E-21
 -0.107400000       1.63299347E-21
 -0.105599999       2.01327239E-21
 -0.103799999       2.44749657E-21
 -0.101999998       2.93309723E-21
 -0.100199997       3.46308292E-21
  -9.83999968E-02   4.02451560E-21
  -9.66000035E-02   4.59668709E-21
  -9.48000029E-02   5.14897596E-21
  -9.30000022E-02   5.63837648E-21
  -9.12000015E-02   6.00669884E-21
  -8.94000009E-02   6.17746115E-21
  -8.76000002E-02   6.05251810E-21
  -8.57999995E-02   5.50849579E-21
  -8.39999989E-02   4.39313846E-21
  -8.21999982E-02   2.52171462E-21
  -8.03999975E-02  -3.26324519E-22
  -7.85999969E-02  -4.41018493E-21
  -7.68000036E-02  -1.00297645E-20
  -7.50000030E-02  -1.75265112E-20
  -7.32000023E-02  -2.72826720E-20
  -7.14000016E-02  -3.97184148E-20
  -6.96000010E-02  -5.52862771E-20
  -6.78000003E-02  -7.44622624E-20
  -6.59999996E-02  -9.77329209E-20
  -6.41999990E-02  -1.25577675E-19
  -6.23999983E-02  -1.58445567E-19
  -6.06000014E-02  -1.96725651E-19
  -5.88000007E-02  -2.40710334E-19
  -5.70000000E-02  -2.90550654E-19
  -5.51999994E-02  -3.46203314E-19
  -5.33999987E-02  -4.07368305E-19
  -5.16000018E-02  -4.73417385E-19
  -4.98000011E-02  -5.43312751E-19
  -4.80000004E-02  -6.15516623E-19
  -4.61999997E-02  -6.87891618E-19
  -4.43999991E-02  -7.57593578E-19
  -4.25999984E-02  -8.20957991E-19
  -4.08000015E-02  -8.73382269E-19
  -3.90000008E-02  -9.09206944E-19
  -3.72000001E-02  -9.21598316E-19
  -3.53999995E-02  -9.02438952E-19
  -3.35999988E-02  -8.42228682E-19
  -3.18000019E-02  -7.30004675E-19
  -2.99999993E-02  -5.53285757E-19
  -2.82000005E-02  -2.98049512E-19
  -2.63999999E-02   5.12489313E-20
  -2.45999992E-02   5.11608055E-19
  -2.28000004E-02   1.10135035E-18
  -2.09999997E-02   1.83992265E-18
  -1.92000009E-02   2.74761565E-18
  -1.74000002E-02   3.84519209E-18
  -1.55999996E-02   5.15341711E-18
  -1.37999998E-02   6.69247680E-18
  -1.20000001E-02   8.48128465E-18
  -1.02000004E-02   1.05366630E-17
  -8.39999970E-03   1.28724060E-17
  -6.59999996E-03   1.54982148E-17
  -4.80000023E-03   1.84185131E-17
  -3.00000003E-03   2.16311519E-17
  -1.20000006E-03   2.51260148E-17
   6.00000028E-04   2.88835323E-17
   2.40000011E-03   3.28731435E-17
   4.19999985E-03   3.70517093E-17
   6.00000005E-03   4.13619191E-17
   7.79999979E-03   4.57307530E-17
   9.60000046E-03   5.00679885E-17
   1.14000002E-02   5.42648415E-17
   1.31999999E-02   5.81927649E-17
   1.49999997E-02   6.17024790E-17
   1.67999994E-02   6.46232405E-17
   1.86000001E-02   6.67624950E-17
   2.04000007E-02   6.79058241E-17
   2.21999995E-02   6.78173885E-17
   2.40000002E-02   6.62407823E-17
   2.58000009E-02   6.29003953E-17
   2.75999997E-02   5.75033198E-17
   2.94000003E-02   4.97417948E-17
   3.11999992E-02   3.92961249E-17
   3.29999998E-02   2.58381858E-17
   3.48000005E-02   9.03534594E-18
   3.66000012E-02  -1.14451853E-17
   3.84000018E-02  -3.59317001E-17
   4.01999988E-02  -6.47431552E-17
   4.19999994E-02  -9.81842741E-17
   4.38000001E-02  -1.36540838E-16
   4.56000008E-02  -1.80075300E-16
   4.74000014E-02  -2.29022965E-16
   4.91999984E-02  -2.83589145E-16
   5.09999990E-02  -3.43947390E-16
   5.27999997E-02  -4.10239259E-16
   5.46000004E-02  -4.82575899E-16
   5.64000010E-02  -5.61041537E-16
   5.82000017E-02  -6.45699780E-16
   5.99999987E-02  -7.36602350E-16
   6.17999993E-02  -8.33800810E-16
   6.36000037E-02  -9.37361600E-16
   6.53999969E-02  -1.04738419E-15
   6.71999976E-02  -1.16402232E-15
   6.89999983E-02  -1.28750914E-15
   7.07999989E-02  -1.41818430E-15
   7.25999996E-02  -1.55652468E-15
   7.44000003E-02  -1.70317669E-15
   7.62000009E-02  -1.85898977E-15
   7.80000016E-02  -2.02505058E-15
   7.98000023E-02  -2.20271659E-15
   8.16000029E-02  -2.39364777E-15
   8.34000036E-02  -2.59983295E-15
   8.51999968E-02  -2.82361313E-15
   8.69999975E-02  -3.06769414E-15
   8.87999982E-02  -3.33515157E-15
   9.05999988E-02  -3.62942098E-15
   9.23999995E-02  -3.95427252E-15
   9.42000002E-02  -4.31376685E-15
   9.60000008E-02  -4.71218616E-15
   9.78000015E-02  -5.15394434E-15
   9.96000022E-02  -5.64346077E-15
  0.101400003      -6.18500366E-15
  0.103200004      -6.78249605E-15
  0.104999997      -7.43927946E-15
  0.106799997      -8.15783191E-15
  0.108599998      -8.93943919E-15
  0.110399999      -9.78381584E-15
  0.112199999      -1.06886673E-14
  0.114000000      -1.16492026E-14
  0.115800001      -1.26575877E-14
  0.117600001      -1.37023410E-14
  0.119400002      -1.47676738E-14
  0.121200003      -1.58327754E-14
  0.123000003      -1.68710532E-14
  0.124799997      -1.78493237E-14
  0.126599997      -1.87269667E-14
  0.128399998      -1.94550441E-14
  0.130199999      -1.99754120E-14
  0.131999999      -2.02198166E-14
  0.133800000      -2.01090077E-14
  0.135600001      -1.95518701E-14
  0.137400001      -1.84446066E-14
  0.139200002      -1.66699963E-14
  0.141000003      -1.40967424E-14
  0.142800003      -1.05789367E-14
  0.144600004      -5.95568051E-15
  0.146400005      -5.08889983E-17
  0.148200005       7.32669439E-15
  0.150000006       1.63832232E-14
  0.151800007       2.73391929E-14
  0.153600007       4.04285471E-14
  0.155399993       5.58974355E-14
  0.157199994       7.40025513E-14
  0.158999994       9.50090158E-14
  0.160799995       1.19187822E-13
  0.162599996       1.46812724E-13
  0.164399996       1.78156548E-13
  0.166199997       2.13486997E-13
  0.167999998       2.53061732E-13
  0.169799998       2.97122976E-13
  0.171599999       3.45891230E-13
  0.173400000       3.99558560E-13
  0.175200000       4.58281037E-13
  0.177000001       5.22170740E-13
  0.178800002       5.91286839E-13
  0.180600002       6.65626137E-13
  0.182400003       7.45113444E-13
  0.184200004       8.29590682E-13
  0.186000004       9.18806264E-13
  0.187800005       1.01240370E-12
  0.189600006       1.10990991E-12
  0.191400006       1.21072401E-12
  0.193200007       1.31410507E-12
  0.194999993       1.41916112E-12
  0.196799994       1.52483766E-12
  0.198599994       1.62990704E-12
  0.200399995       1.73295850E-12
  0.202199996       1.83238971E-12
  0.203999996       1.92639806E-12
  0.205799997       2.01297594E-12
  0.207599998       2.08990486E-12
  0.209399998       2.15475424E-12
  0.211199999       2.20488059E-12
  0.213000000       2.23743116E-12
  0.214800000       2.24934871E-12
  0.216600001       2.23738237E-12
  0.218400002       2.19809956E-12
  0.220200002       2.12790332E-12
  0.222000003       2.02305425E-12
  0.223800004       1.87969692E-12
  0.225600004       1.69389080E-12
  0.227400005       1.46164764E-12
  0.229200006       1.17897369E-12
  0.231000006       8.41917573E-13
  0.232800007       4.46624833E-13
  0.234599993      -1.06021386E-14
  0.236399993      -5.33238059E-13
  0.238199994      -1.12446207E-12
  0.239999995      -1.78708014E-12
  0.241799995      -2.52344131E-12
  0.243599996      -3.33534871E-12
  0.245399997      -4.22396536E-12
  0.247199997      -5.18971671E-12
  0.248999998      -6.23218881E-12
  0.250800014      -7.35002337E-12
  0.252600014      -8.54081215E-12
  0.254400015      -9.80099162E-12
  0.256199986      -1.11257340E-11
  0.257999986      -1.25088481E-11
  0.259799987      -1.39426751E-11
  0.261599988      -1.54179967E-11
  0.263399988      -1.69239484E-11
  0.265199989      -1.84479411E-11
  0.266999990      -1.99756028E-11
  0.268799990      -2.14907172E-11
  0.270599991      -2.29751999E-11
  0.272399992      -2.44090755E-11
  0.274199992      -2.57704934E-11
  0.275999993      -2.70357556E-11
  0.277799994      -2.81793738E-11
  0.279599994      -2.91741666E-11
  0.281399995      -2.99913809E-11
  0.283199996      -3.06008344E-11
  0.284999996      -3.09711354E-11
  0.286799997      -3.10698967E-11
  0.288599998      -3.08640231E-11
  0.290399998      -3.03200243E-11
  0.292199999      -2.94043678E-11
  0.294000000      -2.80839085E-11
  0.295800000      -2.63263161E-11
  0.297600001      -2.41005792E-11
  0.299400002      -2.13775352E-11
  0.301200002      -1.81304485E-11
  0.303000003      -1.43356195E-11
  0.304800004      -9.97303108E-12
  0.306600004      -5.02701786E-12
  0.308400005       5.13035144E-13
  0.310200006       6.65198148E-12
  0.312000006       1.33881951E-11
  0.313800007       2.07128498E-11
  0.315600008       2.86092105E-11
  0.317400008       3.70519414E-11
  0.319200009       4.60064591E-11
  0.321000010       5.54283043E-11
  0.322800010       6.52626009E-11
  0.324600011       7.54435819E-11
  0.326400012       8.58941598E-11
  0.328200012       9.65256763E-11
  0.330000013       1.07237698E-10
  0.331800014       1.17917967E-10
  0.333600014       1.28442534E-10
  0.335399985       1.38676015E-10
  0.337199986       1.48472012E-10
  0.338999987       1.57673749E-10
  0.340799987       1.66114913E-10
  0.342599988       1.73620743E-10
  0.344399989       1.80009271E-10
  0.346199989       1.85092802E-10
  0.347999990       1.88679683E-10
  0.349799991       1.90576277E-10
  0.351599991       1.90589156E-10
  0.353399992       1.88527555E-10
  0.355199993       1.84206012E-10
  0.356999993       1.77447265E-10
  0.358799994       1.68085296E-10
  0.360599995       1.55968558E-10
  0.362399995       1.40963380E-10
  0.364199996       1.22957464E-10
  0.365999997       1.01863420E-10
  0.367799997       7.76224640E-11
  0.369599998       5.02080114E-11
  0.371399999       1.96292444E-11
  0.373199999      -1.40654068E-11
  0.375000000      -5.07849353E-11
  0.376800001      -9.03926725E-11
  0.378600001      -1.32703418E-10
  0.380400002      -1.77481030E-10
  0.382200003      -2.24436247E-10
  0.384000003      -2.73225165E-10
  0.385800004      -3.23448185E-10
  0.387600005      -3.74649534E-10
  0.389400005      -4.26317426E-10
  0.391200006      -4.77885176E-10
  0.393000007      -5.28732669E-10
  0.394800007      -5.78189274E-10
  0.396600008      -6.25537122E-10
  0.398400009      -6.70015488E-10
  0.400200009      -7.10826231E-10
  0.402000010      -7.47139905E-10
  0.403800011      -7.78103304E-10
  0.405600011      -8.02847455E-10
  0.407400012      -8.20496948E-10
  0.409200013      -8.30180091E-10
  0.411000013      -8.31039737E-10
  0.412800014      -8.22245105E-10
  0.414600015      -8.03004163E-10
  0.416399986      -7.72576836E-10
  0.418199986      -7.30288496E-10
  0.419999987      -6.75543899E-10
  0.421799988      -6.07841388E-10
  0.423599988      -5.26787003E-10
  0.425399989      -4.32108543E-10
  0.427199990      -3.23669425E-10
  0.428999990      -2.01481651E-10
  0.430799991      -6.57184307E-11
  0.432599992       8.32744290E-11
  0.434399992       2.44968268E-10
  0.436199993       4.18642732E-10
  0.437999994       6.03378680E-10
  0.439799994       7.98052791E-10
  0.441599995       1.00133468E-09
  0.443399996       1.21168575E-09
  0.445199996       1.42736123E-09
  0.446999997       1.64641456E-09
  0.448799998       1.86670457E-09
  0.450599998       2.08590611E-09
  0.452399999       2.30152297E-09
  0.454200000       2.51090504E-09
  0.456000000       2.71126765E-09
  0.457800001       2.89971425E-09
  0.459600002       3.07326342E-09
  0.461400002       3.22887761E-09
  0.463200003       3.36349482E-09
  0.465000004       3.47406393E-09
  0.466800004       3.55758090E-09
  0.468600005       3.61112940E-09
  0.470400006       3.63192099E-09
  0.472200006       3.61733776E-09
  0.474000007       3.56497587E-09
  0.475800008       3.47268947E-09
  0.477600008       3.33863492E-09
  0.479400009       3.16131255E-09
  0.481200010       2.93961033E-09
  0.483000010       2.67284261E-09
  0.484800011       2.36078801E-09
  0.486600012       2.00372363E-09
  0.488400012       1.60245561E-09
  0.490200013       1.15834431E-09
  0.492000014       6.73325729E-10
  0.493800014       1.49925905E-10
  0.495599985      -4.08730605E-10
  0.497399986      -9.98918948E-10
  0.499199986      -1.61631986E-09
  0.500999987      -2.25603358E-09
  0.502799988      -2.91260127E-09
  0.504599988      -3.58003516E-09
  0.506399989      -4.25185798E-09
  0.508199990      -4.92114927E-09
  0.509999990      -5.58060087E-09
  0.511799991      -6.22258334E-09
  0.513599992      -6.83921542E-09
  0.515399992      -7.42244444E-09
  0.517199993      -7.96413335E-09
  0.518999994      -8.45615400E-09
  0.520799994      -8.89048302E-09
  0.522599995      -9.25930710E-09
  0.524399996      -9.55512913E-09
  0.526199996      -9.77087478E-09
  0.527999997      -9.90000171E-09
  0.529799998      -9.93660887E-09
  0.531599998      -9.87554039E-09
  0.533399999      -9.71249303E-09
  0.535200000      -9.44411038E-09
  0.537000000      -9.06807340E-09
  0.538800001      -8.58318483E-09
  0.540600002      -7.98943844E-09
  0.542400002      -7.28808258E-09
  0.544200003      -6.48166587E-09
  0.546000004      -5.57407054E-09
  0.547800004      -4.57053018E-09
  0.549600005      -3.47762863E-09
  0.551400006      -2.30328245E-09
  0.553200006      -1.05670439E-09
  0.555000007       2.51652560E-10
  0.556800008       1.61017111E-09
  0.558600008       3.00616487E-09
  0.560400009       4.42599379E-09
  0.562200010       5.85519855E-09
  0.564000010       7.27865146E-09
  0.565800011       8.68072814E-09
  0.567600012       1.00454933E-08
  0.569400012       1.13568976E-08
  0.571200013       1.25989938E-08
  0.573000014       1.37561553E-08
  0.574800014       1.48133079E-08
  0.576600015       1.57561626E-08
  0.578400016       1.65714535E-08
  0.580200016       1.72471690E-08
  0.582000017       1.77727806E-08
  0.583800018       1.81394633E-08
  0.585600019       1.83403088E-08
  0.587400019       1.83705122E-08
  0.589200020       1.82275457E-08
  0.591000021       1.79113098E-08
  0.592800021       1.74242558E-08
  0.594600022       1.67714820E-08
  0.596400023       1.59607865E-08
  0.598200023       1.50027031E-08
  0.600000024       1.39104799E-08
  0.601800025       1.27000312E-08
  0.603600025       1.13898384E-08
  0.605400026       1.00008171E-08
  0.607200027       8.55613180E-09
  0.609000027       7.08097536E-09
  0.610800028       5.60229818E-09
  0.612600029       4.14850243E-09
  0.614400029       2.74909251E-09
  0.616199970       1.43428913E-09
  0.617999971       2.34611081E-10
  0.619799972      -8.19575185E-10
  0.621599972      -1.69853021E-09
  0.623399973      -2.37363773E-09
  0.625199974      -2.81791412E-09
  0.626999974      -3.00653014E-09
  0.628799975      -2.91733060E-09
  0.630599976      -2.53135335E-09
  0.632399976      -1.83333393E-09
  0.634199977      -8.12190870E-10
  0.635999978       5.38513067E-10
  0.637799978       2.22014851E-09
  0.639599979       4.22863478E-09
  0.641399980       6.55410615E-09
  0.643199980       9.18063492E-09
  0.644999981       1.20860140E-08
  0.646799982       1.52416142E-08
  0.648599982       1.86123064E-08
  0.650399983       2.21564722E-08
  0.652199984       2.58260844E-08
  0.653999984       2.95668823E-08
  0.655799985       3.33186314E-08
  0.657599986       3.70154609E-08
  0.659399986       4.05862970E-08
  0.661199987       4.39553709E-08
  0.662999988       4.70428176E-08
  0.664799988       4.97653367E-08
  0.666599989       5.20369348E-08
  0.668399990       5.37697211E-08
  0.670199990       5.48747536E-08
  0.671999991       5.52629444E-08
  0.673799992       5.48459766E-08
  0.675599992       5.35372635E-08
  0.677399993       5.12528970E-08
  0.679199994       4.79125966E-08
  0.680999994       4.34406502E-08
  0.682799995       3.77667995E-08
  0.684599996       3.08270955E-08
  0.686399996       2.25646879E-08
  0.688199997       1.29305207E-08
  0.689999998       1.88395521E-09
  0.691799998      -1.06067137E-08
  0.693599999      -2.45638709E-08
  0.695400000      -4.00003088E-08
  0.697200000      -5.69190917E-08
  0.699000001      -7.53135723E-08
  0.700800002      -9.51675503E-08
  0.702600002      -1.16455595E-07
  0.704400003      -1.39143523E-07
  0.706200004      -1.63189043E-07
  0.708000004      -1.88542472E-07
  0.709800005      -2.15147736E-07
  0.711600006      -2.42943344E-07
  0.713400006      -2.71863712E-07
  0.715200007      -3.01840288E-07
  0.717000008      -3.32803097E-07
  0.718800008      -3.64682109E-07
  0.720600009      -3.97408769E-07
  0.722400010      -4.30917595E-07
  0.724200010      -4.65147707E-07
  0.726000011      -5.00044280E-07
  0.727800012      -5.35560105E-07
  0.729600012      -5.71656926E-07
  0.731400013      -6.08306721E-07
  0.733200014      -6.45492946E-07
  0.735000014      -6.83211226E-07
  0.736800015      -7.21470371E-07
  0.738600016      -7.60292721E-07
  0.740400016      -7.99714428E-07
  0.742200017      -8.39785571E-07
  0.744000018      -8.80569644E-07
  0.745800018      -9.22143158E-07
  0.747600019      -9.64594392E-07
  0.749400020      -1.00802220E-06
  0.751200020      -1.05253469E-06
  0.753000021      -1.09824657E-06
  0.754800022      -1.14527745E-06
  0.756600022      -1.19374909E-06
  0.758400023      -1.24378209E-06
  0.760200024      -1.29549346E-06
  0.762000024      -1.34899267E-06
  0.763800025      -1.40437805E-06
  0.765600026      -1.46173352E-06
  0.767400026      -1.52112443E-06
  0.769200027      -1.58259411E-06
  0.771000028      -1.64615972E-06
  0.772800028      -1.71180920E-06
  0.774600029      -1.77949732E-06
  0.776400030      -1.84914290E-06
  0.778199971      -1.92062612E-06
  0.779999971      -1.99378587E-06
  0.781799972      -2.06841901E-06
  0.783599973      -2.14427791E-06
  0.785399973      -2.22107178E-06
  0.787199974      -2.29846592E-06
  0.788999975      -2.37608401E-06
  0.790799975      -2.45351021E-06
  0.792599976      -2.53029293E-06
  0.794399977      -2.60594948E-06
  0.796199977      -2.67997166E-06
  0.797999978      -2.75183334E-06
  0.799799979      -2.82099950E-06
  0.801599979      -2.88693468E-06
  0.803399980      -2.94911592E-06
  0.805199981      -3.00704392E-06
  0.806999981      -3.06025754E-06
  0.808799982      -3.10834889E-06
  0.810599983      -3.15098055E-06
  0.812399983      -3.18790194E-06
  0.814199984      -3.21896960E-06
  0.815999985      -3.24416601E-06
  0.817799985      -3.26362078E-06
  0.819599986      -3.27763223E-06
  0.821399987      -3.28668898E-06
  0.823199987      -3.29149316E-06
  0.824999988      -3.29298314E-06
  0.826799989      -3.29235627E-06
  0.828599989      -3.29109139E-06
  0.830399990      -3.29097065E-06
  0.832199991      -3.29410182E-06
  0.833999991      -3.30293892E-06
  0.835799992      -3.32030072E-06
  0.837599993      -3.34938954E-06
  0.839399993      -3.39380654E-06
  0.841199994      -3.45756621E-06
  0.842999995      -3.54510848E-06
  0.844799995      -3.66130712E-06
  0.846599996      -3.81147584E-06
  0.848399997      -4.00137151E-06
  0.850199997      -4.23719393E-06
  0.851999998      -4.52558061E-06
  0.853799999      -4.87359875E-06
  0.855599999      -5.28873397E-06
  0.857400000      -5.77887158E-06
  0.859200001      -6.35227752E-06
  0.861000001      -7.01756971E-06
  0.862800002      -7.78368849E-06
  0.864600003      -8.65986021E-06
  0.866400003      -9.65555591E-06
  0.868200004      -1.07804472E-05
  0.870000005      -1.20443510E-05
  0.871800005      -1.34571774E-05
  0.873600006      -1.50288670E-05
  0.875400007      -1.67693252E-05
  0.877200007      -1.86883499E-05
  0.879000008      -2.07955600E-05
  0.880800009      -2.31003105E-05
  0.882600009      -2.56116145E-05
  0.884400010      -2.83380541E-05
  0.886200011      -3.12876909E-05
  0.888000011      -3.44679756E-05
  0.889800012      -3.78856457E-05
  0.891600013      -4.15466384E-05
  0.893400013      -4.54559813E-05
  0.895200014      -4.96177054E-05
  0.897000015      -5.40347319E-05
  0.898800015      -5.87087889E-05
  0.900600016      -6.36403129E-05
  0.902400017      -6.88283253E-05
  0.904200017      -7.42703924E-05
  0.906000018      -7.99624977E-05
  0.907800019      -8.58989661E-05
  0.909600019      -9.20723833E-05
  0.911400020      -9.84735379E-05
  0.913200021      -1.05091320E-04
  0.915000021      -1.11912719E-04
  0.916800022      -1.18922726E-04
  0.918600023      -1.26104293E-04
  0.920400023      -1.33438341E-04
  0.922200024      -1.40903707E-04
  0.924000025      -1.48477149E-04
  0.925800025      -1.56133334E-04
  0.927600026      -1.63844888E-04
  0.929400027      -1.71582404E-04
  0.931200027      -1.79314447E-04
  0.933000028      -1.87007696E-04
  0.934800029      -1.94626962E-04
  0.936600029      -2.02135270E-04
  0.938399971      -2.09494014E-04
  0.940199971      -2.16662986E-04
  0.941999972      -2.23600626E-04
  0.943799973      -2.30264093E-04
  0.945599973      -2.36609427E-04
  0.947399974      -2.42591777E-04
  0.949199975      -2.48165510E-04
  0.950999975      -2.53284525E-04
  0.952799976      -2.57902371E-04
  0.954599977      -2.61972571E-04
  0.956399977      -2.65448762E-04
  0.958199978      -2.68284988E-04
  0.959999979      -2.70435965E-04
  0.961799979      -2.71857367E-04
  0.963599980      -2.72506004E-04
  0.965399981      -2.72340199E-04
  0.967199981      -2.71320052E-04
  0.968999982      -2.69407581E-04
  0.970799983      -2.66567193E-04
  0.972599983      -2.62765738E-04
  0.974399984      -2.57972977E-04
  0.976199985      -2.52161699E-04
  0.977999985      -2.45307951E-04
  0.979799986      -2.37391345E-04
  0.981599987      -2.28395249E-04
  0.983399987      -2.18306959E-04
  0.985199988      -2.07117904E-04
  0.986999989      -1.94823806E-04
  0.988799989      -1.81424854E-04
  0.990599990      -1.66925747E-04
  0.992399991      -1.51335815E-04
  0.994199991      -1.34669128E-04
  0.995999992      -1.16944510E-04
  0.997799993      -9.81855410E-05
  0.999599993      -7.84205768E-05
   1.00139999      -5.76826715E-05
   1.00320005      -3.60095473E-05
   1.00500000      -1.34434804E-05
   1.00680006       9.96881772E-06
   1.00860000       3.41763407E-05
   1.01040006       5.91239659E-05
   1.01220000       8.47526462E-05
   1.01400006       1.10999630E-04
   1.01580000       1.37798706E-04
   1.01760006       1.65080433E-04
   1.01940000       1.92772466E-04
   1.02119994       2.20799804E-04
   1.02300000       2.49085104E-04
   1.02479994       2.77548999E-04
   1.02660000       3.06110393E-04
   1.02839994       3.34686803E-04
   1.03020000       3.63194704E-04
   1.03199995       3.91549809E-04
   1.03380001       4.19667427E-04
   1.03559995       4.47462749E-04
   1.03740001       4.74851200E-04
   1.03919995       5.01748698E-04
   1.04100001       5.28071891E-04
   1.04279995       5.53738617E-04
   1.04460001       5.78667969E-04
   1.04639995       6.02780667E-04
   1.04820001       6.25999121E-04
   1.04999995       6.48247777E-04
   1.05180001       6.69453351E-04
   1.05359995       6.89544773E-04
   1.05540001       7.08453590E-04
   1.05719995       7.26113969E-04
   1.05900002       7.42462813E-04
   1.06079996       7.57439877E-04
   1.06260002       7.70987826E-04
   1.06439996       7.83052470E-04
   1.06620002       7.93582527E-04
   1.06799996       8.02529859E-04
   1.06980002       8.09849473E-04
   1.07159996       8.15499690E-04
   1.07340002       8.19441979E-04
   1.07519996       8.21641006E-04
   1.07700002       8.22064700E-04
   1.07879996       8.20684421E-04
   1.08060002       8.17474793E-04
   1.08239996       8.12413869E-04
   1.08420002       8.05483141E-04
   1.08599997       7.96667533E-04
   1.08780003       7.85955635E-04
   1.08959997       7.73339532E-04
   1.09140003       7.58815149E-04
   1.09319997       7.42382254E-04
   1.09500003       7.24044396E-04
   1.09679997       7.03809317E-04
   1.09860003       6.81688834E-04
   1.10039997       6.57699187E-04
   1.10220003       6.31861039E-04
   1.10399997       6.04199653E-04
   1.10580003       5.74745005E-04
   1.10759997       5.43532020E-04
   1.10940003       5.10600512E-04
   1.11119998       4.75995621E-04
   1.11300004       4.39767697E-04
   1.11479998       4.01972531E-04
   1.11660004       3.62671359E-04
   1.11839998       3.21931089E-04
   1.12020004       2.79824191E-04
   1.12199998       2.36428881E-04
   1.12380004       1.91829036E-04
   1.12559998       1.46114195E-04
   1.12740004       9.93795184E-05
   1.12919998       5.17256922E-05
   1.13100004       3.25880023E-06
   1.13279998      -4.59098337E-05
   1.13460004      -9.56638469E-05
   1.13639998      -1.45882062E-04
   1.13820004      -1.96438777E-04
   1.13999999      -2.47204065E-04
   1.14180005      -2.98044150E-04
   1.14359999      -3.48821777E-04
   1.14540005      -3.99396609E-04
   1.14719999      -4.49625717E-04
   1.14900005      -4.99364047E-04
   1.15079999      -5.48464945E-04
   1.15260005      -5.96780737E-04
   1.15439999      -6.44163112E-04
   1.15620005      -6.90463989E-04
   1.15799999      -7.35535810E-04
   1.15980005      -7.79232301E-04
   1.16159999      -8.21409165E-04
   1.16340005      -8.61924549E-04
   1.16520000      -9.00639629E-04
   1.16700006      -9.37419245E-04
   1.16880000      -9.72132722E-04
   1.17060006      -1.00465410E-03
   1.17240000      -1.03486294E-03
   1.17420006      -1.06264476E-03
   1.17600000      -1.08789152E-03
   1.17780006      -1.11050252E-03
   1.17960000      -1.13038428E-03
   1.18139994      -1.14745134E-03
   1.18320000      -1.16162654E-03
   1.18499994      -1.17284153E-03
   1.18680000      -1.18103693E-03
   1.18859994      -1.18616293E-03
   1.19040000      -1.18817925E-03
   1.19219995      -1.18705560E-03
   1.19400001      -1.18277152E-03
   1.19579995      -1.17531698E-03
   1.19760001      -1.16469234E-03
   1.19939995      -1.15090818E-03
   1.20120001      -1.13398547E-03
   1.20299995      -1.11395575E-03
   1.20480001      -1.09086081E-03
   1.20659995      -1.06475281E-03
   1.20840001      -1.03569392E-03
   1.21019995      -1.00375630E-03
   1.21200001      -9.69022280E-04
   1.21379995      -9.31583287E-04
   1.21560001      -8.91540258E-04
   1.21739995      -8.49003030E-04
   1.21920002      -8.04090174E-04
   1.22099996      -7.56928523E-04
   1.22280002      -7.07652769E-04
   1.22459996      -6.56404940E-04
   1.22640002      -6.03334163E-04
   1.22819996      -5.48596086E-04
   1.23000002      -4.92352177E-04
   1.23179996      -4.34769434E-04
   1.23360002      -3.76019743E-04
   1.23539996      -3.16279184E-04
   1.23720002      -2.55727617E-04
   1.23899996      -1.94547887E-04
   1.24080002      -1.32925299E-04