 -0.300000012       0.00000000    
 -0.298200011       0.00000000    
 -0.296400011       0.00000000    
 -0.294600010       0.00000000    
 -0.292800009       9.79010648E-20
 -0.291000009       8.72686920E-19
 -0.289200008       4.29872075E-18
 -0.287400007       1.54448848E-17
 -0.285600007       4.51569510E-17
 -0.283800006       1.13796547E-16
 -0.282000005       2.55921502E-16
 -0.280200005       5.25551015E-16
 -0.278400004       1.00139062E-15
 -0.276600003       1.79111342E-15
 -0.274800003       3.03355448E-15
 -0.273000002       4.89747250E-15
 -0.271200001       7.57543408E-15
 -0.269400001       1.12713488E-14
 -0.267600000       1.61802758E-14
 -0.265799999       2.24593192E-14
 -0.263999999       3.01886778E-14
 -0.262199998       3.93223153E-14
 -0.260399997       4.96280331E-14
 -0.258599997       6.06170794E-14
 -0.256799996       7.14639055E-14
 -0.254999995       8.09167661E-14
 -0.253199995       8.72001852E-14
 -0.251399994       8.79103648E-14
 -0.249599993       7.99044736E-14
 -0.247799993       5.91846857E-14
 -0.246000007       2.07775047E-14
 -0.244200006      -4.13914203E-14
 -0.242400005      -1.34627484E-13
 -0.240600005      -2.67603241E-13
 -0.238800004      -4.50501886E-13
 -0.237000003      -6.95170917E-13
 -0.235200003      -1.01528920E-12
 -0.233400002      -1.42655028E-12
 -0.231600001      -1.94686953E-12
 -0.229800001      -2.59661672E-12
 -0.228000000      -3.39888577E-12
 -0.226199999      -4.37980338E-12
 -0.224399999      -5.56888867E-12
 -0.222599998      -6.99946828E-12
 -0.220799997      -8.70915839E-12
 -0.218999997      -1.07404216E-11
 -0.217199996      -1.31411965E-11
 -0.215399995      -1.59656316E-11
 -0.213599995      -1.92749046E-11
 -0.211799994      -2.31381407E-11
 -0.209999993      -2.76334546E-11
 -0.208199993      -3.28490880E-11
 -0.206400007      -3.88847080E-11
 -0.204600006      -4.58527695E-11
 -0.202800006      -5.38801018E-11
 -0.201000005      -6.31095523E-11
 -0.199200004      -7.37018988E-11
 -0.197400004      -8.58378021E-11
 -0.195600003      -9.97200933E-11
 -0.193800002      -1.15576215E-10
 -0.192000002      -1.33660832E-10
 -0.190200001      -1.54258786E-10
 -0.188400000      -1.77688378E-10
 -0.186600000      -2.04304768E-10
 -0.184799999      -2.34503972E-10
 -0.182999998      -2.68726874E-10
 -0.181199998      -3.07464026E-10
 -0.179399997      -3.51260465E-10
 -0.177599996      -4.00721178E-10
 -0.175799996      -4.56516908E-10
 -0.173999995      -5.19390364E-10
 -0.172199994      -5.90162974E-10
 -0.170399994      -6.69741873E-10
 -0.168599993      -7.59127650E-10
 -0.166800007      -8.59421923E-10
 -0.165000007      -9.71836389E-10
 -0.163200006      -1.09770093E-09
 -0.161400005      -1.23847321E-09
 -0.159600005      -1.39574796E-09
 -0.157800004      -1.57126723E-09
 -0.156000003      -1.76693027E-09
 -0.154200003      -1.98480410E-09
 -0.152400002      -2.22713425E-09
 -0.150600001      -2.49635623E-09
 -0.148800001      -2.79510637E-09
 -0.147000000      -3.12623216E-09
 -0.145199999      -3.49280560E-09
 -0.143399999      -3.89813248E-09
 -0.141599998      -4.34576464E-09
 -0.139799997      -4.83951013E-09
 -0.137999997      -5.38344569E-09
 -0.136199996      -5.98192473E-09
 -0.134399995      -6.63958755E-09
 -0.132599995      -7.36136974E-09
 -0.130799994      -8.15251155E-09
 -0.128999993      -9.01856190E-09
 -0.127200007      -9.96538851E-09
 -0.125400007      -1.09991740E-08
 -0.123599999      -1.21264243E-08
 -0.121799998      -1.33539668E-08
 -0.119999997      -1.46889434E-08
 -0.118199997      -1.61388112E-08
 -0.116400003      -1.77113328E-08
 -0.114600003      -1.94145588E-08
 -0.112800002      -2.12568221E-08
 -0.111000001      -2.32467077E-08
 -0.109200001      -2.53930406E-08
 -0.107400000      -2.77048482E-08
 -0.105599999      -3.01913374E-08
 -0.103799999      -3.28618519E-08
 -0.101999998      -3.57258259E-08
 -0.100199997      -3.87927415E-08
  -9.83999968E-02  -4.20720738E-08
  -9.66000035E-02  -4.55732376E-08
  -9.48000029E-02  -4.93055090E-08
  -9.30000022E-02  -5.32779687E-08
  -9.12000015E-02  -5.74994239E-08
  -8.94000009E-02  -6.19783194E-08
  -8.76000002E-02  -6.67226416E-08
  -8.57999995E-02  -7.17398621E-08
  -8.39999989E-02  -7.70368018E-08
  -8.21999982E-02  -8.26195290E-08
  -8.03999975E-02  -8.84932945E-08
  -7.85999969E-02  -9.46623544E-08
  -7.68000036E-02  -1.01129892E-07
  -7.50000030E-02  -1.07897911E-07
  -7.32000023E-02  -1.14967072E-07
  -7.14000016E-02  -1.22336616E-07
  -6.96000010E-02  -1.30004210E-07
  -6.78000003E-02  -1.37965785E-07
  -6.59999996E-02  -1.46215484E-07
  -6.41999990E-02  -1.54745535E-07
  -6.23999983E-02  -1.63546076E-07
  -6.06000014E-02  -1.72605041E-07
  -5.88000007E-02  -1.81908149E-07
  -5.70000000E-02  -1.91438644E-07
  -5.51999994E-02  -2.01177414E-07
  -5.33999987E-02  -2.11102673E-07
  -5.16000018E-02  -2.21190092E-07
  -4.98000011E-02  -2.31412628E-07
  -4.80000004E-02  -2.41740537E-07
  -4.61999997E-02  -2.52141405E-07
  -4.43999991E-02  -2.62580016E-07
  -4.25999984E-02  -2.73018486E-07
  -4.08000015E-02  -2.83416256E-07
  -3.90000008E-02  -2.93730210E-07
  -3.72000001E-02  -3.03914760E-07
  -3.53999995E-02  -3.13921959E-07
  -3.35999988E-02  -3.23701585E-07
  -3.18000019E-02  -3.33201484E-07
  -2.99999993E-02  -3.42367656E-07
  -2.82000005E-02  -3.51144536E-07
  -2.63999999E-02  -3.59475280E-07
  -2.45999992E-02  -3.67301993E-07
  -2.28000004E-02  -3.74566156E-07
  -2.09999997E-02  -3.81209020E-07
  -1.92000009E-02  -3.87171809E-07
  -1.74000002E-02  -3.92396373E-07
  -1.55999996E-02  -3.96825413E-07
  -1.37999998E-02  -4.00403081E-07
  -1.20000001E-02  -4.03075347E-07
  -1.02000004E-02  -4.04790597E-07
  -8.39999970E-03  -4.05500089E-07
  -6.59999996E-03  -4.05158431E-07
  -4.80000023E-03  -4.03724073E-07
  -3.00000003E-03  -4.01159895E-07
  -1.20000006E-03  -3.97433638E-07
   6.00000028E-04  -3.92518388E-07
   2.40000011E-03  -3.86393111E-07
   4.19999985E-03  -3.79043030E-07
   6.00000005E-03  -3.70459986E-07
   7.79999979E-03  -3.60642872E-07
   9.60000046E-03  -3.49598054E-07
   1.14000002E-02  -3.37339458E-07
   1.31999999E-02  -3.23888969E-07
   1.49999997E-02  -3.09276430E-07
   1.67999994E-02  -2.93539784E-07
   1.86000001E-02  -2.76725160E-07
   2.04000007E-02  -2.58886729E-07
   2.21999995E-02  -2.40086621E-07
   2.40000002E-02  -2.20394639E-07
   2.58000009E-02  -1.99887950E-07
   2.75999997E-02  -1.78650737E-07
   2.94000003E-02  -1.56773538E-07
   3.11999992E-02  -1.34352717E-07
   3.29999998E-02  -1.11489847E-07
   3.48000005E-02  -8.82907685E-08
   3.66000012E-02  -6.48647998E-08
   3.84000018E-02  -4.13237196E-08
   4.01999988E-02  -1.77807316E-08
   4.19999994E-02   5.65066482E-09
   4.38000001E-02   2.88578903E-08
   4.56000008E-02   5.17305381E-08
   4.74000014E-02   7.41616759E-08
   4.91999984E-02   9.60492130E-08
   5.09999990E-02   1.17297276E-07
   5.27999997E-02   1.37817594E-07
   5.46000004E-02   1.57530835E-07
   5.64000010E-02   1.76368076E-07
   5.82000017E-02   1.94272033E-07
   5.99999987E-02   2.11198355E-07
   6.17999993E-02   2.27116985E-07
   6.36000037E-02   2.42013073E-07
   6.53999969E-02   2.55888239E-07
   6.71999976E-02   2.68761227E-07
   6.89999983E-02   2.80668900E-07
   7.07999989E-02   2.91666709E-07
   7.25999996E-02   3.01829260E-07
   7.44000003E-02   3.11250403E-07
   7.62000009E-02   3.20043597E-07
   7.80000016E-02   3.28341542E-07
   7.98000023E-02   3.36295841E-07
   8.16000029E-02   3.44076511E-07
   8.34000036E-02   3.51871194E-07
   8.51999968E-02   3.59884041E-07
   8.69999975E-02   3.68334412E-07
   8.87999982E-02   3.77455507E-07
   9.05999988E-02   3.87492435E-07
   9.23999995E-02   3.98700365E-07
   9.42000002E-02   4.11342398E-07
   9.60000008E-02   4.25687091E-07
   9.78000015E-02   4.42006012E-07
   9.96000022E-02   4.60570931E-07
  0.101400003       4.81651000E-07
  0.103200004       5.05509945E-07
  0.104999997       5.32402510E-07
  0.106799997       5.62571984E-07
  0.108599998       5.96246650E-07
  0.110399999       6.33636716E-07
  0.112199999       6.74930959E-07
  0.114000000       7.20294338E-07
  0.115800001       7.69864187E-07
  0.117600001       8.23748223E-07
  0.119400002       8.82021425E-07
  0.121200003       9.44723865E-07
  0.123000003       1.01185867E-06
  0.124799997       1.08338986E-06
  0.126599997       1.15924104E-06
  0.128399998       1.23929419E-06
  0.130199999       1.32338891E-06
  0.131999999       1.41132170E-06
  0.133800000       1.50284654E-06
  0.135600001       1.59767501E-06
  0.137400001       1.69547718E-06
  0.139200002       1.79588289E-06
  0.141000003       1.89848402E-06
  0.142800003       2.00283580E-06
  0.144600004       2.10846110E-06
  0.146400005       2.21485129E-06
  0.148200005       2.32147272E-06
  0.150000006       2.42776741E-06
  0.151800007       2.53316034E-06
  0.153600007       2.63706170E-06
  0.155399993       2.73887304E-06
  0.157199994       2.83799272E-06
  0.158999994       2.93381959E-06
  0.160799995       3.02575972E-06
  0.162599996       3.11323174E-06
  0.164399996       3.19567152E-06
  0.166199997       3.27253815E-06
  0.167999998       3.34331935E-06
  0.169799998       3.40753604E-06
  0.171599999       3.46474781E-06
  0.173400000       3.51455651E-06
  0.175200000       3.55660973E-06
  0.177000001       3.59060664E-06
  0.178800002       3.61629895E-06
  0.180600002       3.63349363E-06
  0.182400003       3.64205653E-06
  0.184200004       3.64191123E-06
  0.186000004       3.63304093E-06
  0.187800005       3.61548678E-06
  0.189600006       3.58934881E-06
  0.191400006       3.55478346E-06
  0.193200007       3.51200015E-06
  0.194999993       3.46125807E-06
  0.196799994       3.40286419E-06
  0.198599994       3.33716480E-06
  0.200399995       3.26454392E-06
  0.202199996       3.18541561E-06
  0.203999996       3.10021574E-06
  0.205799997       3.00939882E-06
  0.207599998       2.91342576E-06
  0.209399998       2.81276039E-06
  0.211199999       2.70785813E-06
  0.213000000       2.59915828E-06
  0.214800000       2.48707647E-06
  0.216600001       2.37199629E-06
  0.218400002       2.25426129E-06
  0.220200002       2.13416592E-06
  0.222000003       2.01194825E-06
  0.223800004       1.88778438E-06
  0.225600004       1.76178071E-06
  0.227400005       1.63396760E-06
  0.229200006       1.50429628E-06
  0.231000006       1.37263362E-06
  0.232800007       1.23875827E-06
  0.234599993       1.10236044E-06
  0.236399993       9.63039156E-07
  0.238199994       8.20304194E-07
  0.239999995       6.73577176E-07
  0.241799995       5.22192920E-07
  0.243599996       3.65405469E-07
  0.245399997       2.02391263E-07
  0.247199997       3.22567359E-08
  0.248999998      -1.45953450E-07
  0.250800014      -3.33248266E-07
  0.252600014      -5.30680097E-07
  0.254400015      -7.39332052E-07
  0.256199986      -9.60308398E-07
  0.257999986      -1.19471872E-06
  0.259799987      -1.44366516E-06
  0.261599988      -1.70822864E-06
  0.263399988      -1.98945190E-06
  0.265199989      -2.28832437E-06
  0.266999990      -2.60576667E-06
  0.268799990      -2.94261326E-06
  0.270599991      -3.29959994E-06
  0.272399992      -3.67734424E-06
  0.274199992      -4.07633115E-06
  0.275999993      -4.49689878E-06
  0.277799994      -4.93922516E-06
  0.279599994      -5.40331348E-06
  0.281399995      -5.88897956E-06
  0.283199996      -6.39584368E-06
  0.284999996      -6.92331696E-06
  0.286799997      -7.47059448E-06
  0.288599998      -8.03665353E-06
  0.290399998      -8.62024262E-06
  0.292199999      -9.21988067E-06
  0.294000000      -9.83385962E-06
  0.295800000      -1.04602404E-05
  0.297600001      -1.10968595E-05
  0.299400002      -1.17413365E-05
  0.301200002      -1.23910750E-05
  0.303000003      -1.30432791E-05
  0.304800004      -1.36949602E-05
  0.306600004      -1.43429561E-05
  0.308400005      -1.49839443E-05
  0.310200006      -1.56144597E-05
  0.312000006      -1.62309152E-05
  0.313800007      -1.68296265E-05
  0.315600008      -1.74068282E-05
  0.317400008      -1.79587041E-05
  0.319200009      -1.84814162E-05
  0.321000010      -1.89711263E-05
  0.322800010      -1.94240220E-05
  0.324600011      -1.98363596E-05
  0.326400012      -2.02044721E-05
  0.328200012      -2.05248180E-05
  0.330000013      -2.07940029E-05
  0.331800014      -2.10088056E-05
  0.333600014      -2.11662136E-05
  0.335399985      -2.12634532E-05
  0.337199986      -2.12980012E-05
  0.338999987      -2.12676296E-05
  0.340799987      -2.11704228E-05
  0.342599988      -2.10047947E-05
  0.344399989      -2.07695211E-05
  0.346199989      -2.04637472E-05
  0.347999990      -2.00870072E-05
  0.349799991      -1.96392430E-05
  0.351599991      -1.91208092E-05
  0.353399992      -1.85324825E-05
  0.355199993      -1.78754726E-05
  0.356999993      -1.71514130E-05
  0.358799994      -1.63623699E-05
  0.360599995      -1.55108282E-05
  0.362399995      -1.45996910E-05
  0.364199996      -1.36322660E-05
  0.365999997      -1.26122450E-05
  0.367799997      -1.15436924E-05
  0.369599998      -1.04310166E-05
  0.371399999      -9.27895326E-06
  0.373199999      -8.09252833E-06
  0.375000000      -6.87703277E-06
  0.376800001      -5.63798903E-06
  0.378600001      -4.38111010E-06
  0.380400002      -3.11226745E-06
  0.382200003      -1.83744316E-06
  0.384000003      -5.62693288E-07
  0.385800004       7.05898458E-07
  0.387600005       1.96226461E-06
  0.389400005       3.20039703E-06
  0.391200006       4.41439897E-06
  0.393000007       5.59852469E-06
  0.394800007       6.74722651E-06
  0.396600008       7.85520206E-06
  0.398400009       8.91743366E-06
  0.400200009       9.92923196E-06
  0.402000010       1.08862760E-05
  0.403800011       1.17846484E-05
  0.405600011       1.26208715E-05
  0.407400012       1.33919393E-05
  0.409200013       1.40953416E-05
  0.411000013       1.47290866E-05
  0.412800014       1.52917273E-05
  0.414600015       1.57823670E-05
  0.416399986       1.62006763E-05
  0.418199986       1.65468937E-05
  0.419999987       1.68218285E-05
  0.421799988       1.70268577E-05
  0.423599988       1.71639058E-05
  0.425399989       1.72354448E-05
  0.427199990       1.72444616E-05
  0.428999990       1.71944357E-05
  0.430799991       1.70893072E-05
  0.432599992       1.69334453E-05
  0.434399992       1.67316066E-05
  0.436199993       1.64888843E-05
  0.437999994       1.62106662E-05
  0.439799994       1.59025876E-05
  0.441599995       1.55704674E-05
  0.443399996       1.52202510E-05
  0.445199996       1.48579602E-05
  0.446999997       1.44896230E-05
  0.448799998       1.41212140E-05
  0.450599998       1.37585903E-05
  0.452399999       1.34074362E-05
  0.454200000       1.30732005E-05
  0.456000000       1.27610301E-05
  0.457800001       1.24757216E-05
  0.459600002       1.22216525E-05
  0.461400002       1.20027480E-05
  0.463200003       1.18224179E-05
  0.465000004       1.16835208E-05
  0.466800004       1.15883222E-05
  0.468600005       1.15384610E-05
  0.470400006       1.15349294E-05
  0.472200006       1.15780358E-05
  0.474000007       1.16674073E-05
  0.475800008       1.18019734E-05
  0.477600008       1.19799679E-05
  0.479400009       1.21989397E-05
  0.481200010       1.24557610E-05
  0.483000010       1.27466483E-05
  0.484800011       1.30672006E-05
  0.486600012       1.34124248E-05
  0.488400012       1.37767856E-05
  0.490200013       1.41542505E-05
  0.492000014       1.45383474E-05
  0.493800014       1.49222242E-05
  0.495599985       1.52987177E-05
  0.497399986       1.56604165E-05
  0.499199986       1.59997544E-05
  0.500999987       1.63090644E-05
  0.502799988       1.65806832E-05
  0.504599988       1.68070110E-05
  0.506399989       1.69806153E-05
  0.508199990       1.70943022E-05
  0.509999990       1.71412066E-05
  0.511799991       1.71148695E-05
  0.513599992       1.70093226E-05
  0.515399992       1.68191527E-05
  0.517199993       1.65395941E-05
  0.518999994       1.61665776E-05
  0.520799994       1.56968053E-05
  0.522599995       1.51278073E-05
  0.524399996       1.44579790E-05
  0.526199996       1.36866192E-05
  0.527999997       1.28139964E-05
  0.529799998       1.18413273E-05
  0.531599998       1.07708265E-05
  0.533399999       9.60569832E-06
  0.535200000       8.35013907E-06
  0.537000000       7.00931560E-06
  0.538800001       5.58935244E-06
  0.540600002       4.09729091E-06
  0.542400002       2.54105589E-06
  0.544200003       9.29395469E-07
  0.546000004      -7.28170903E-07
  0.547800004      -2.42142505E-06
  0.549600005      -4.13952284E-06
  0.551400006      -5.87107115E-06
  0.553200006      -7.60423336E-06
  0.555000007      -9.32681178E-06
  0.556800008      -1.10263472E-05
  0.558600008      -1.26902332E-05
  0.560400009      -1.43058205E-05
  0.562200010      -1.58605235E-05
  0.564000010      -1.73419394E-05
  0.565800011      -1.87379464E-05
  0.567600012      -2.00368340E-05
  0.569400012      -2.12273972E-05
  0.571200013      -2.22990511E-05
  0.573000014      -2.32419225E-05
  0.574800014      -2.40469653E-05
  0.576600015      -2.47060270E-05
  0.578400016      -2.52119607E-05
  0.580200016      -2.55586783E-05
  0.582000017      -2.57412339E-05
  0.583800018      -2.57558804E-05
  0.585600019      -2.56001167E-05
  0.587400019      -2.52727259E-05
  0.589200020      -2.47738117E-05
  0.591000021      -2.41048147E-05
  0.592800021      -2.32685125E-05
  0.594600022      -2.22690360E-05
  0.596400023      -2.11118277E-05
  0.598200023      -1.98036378E-05
  0.600000024      -1.83524735E-05
  0.601800025      -1.67675535E-05
  0.603600025      -1.50592559E-05
  0.605400026      -1.32390314E-05
  0.607200027      -1.13193519E-05
  0.609000027      -9.31359955E-06
  0.610800028      -7.23598077E-06
  0.612600029      -5.10141763E-06
  0.614400029      -2.92545019E-06
  0.616199970      -7.24108418E-07
  0.617999971       1.48620597E-06
  0.619799972       3.68884002E-06
  0.621599972       5.86702299E-06
  0.623399973       8.00399266E-06
  0.625199974       1.00831257E-05
  0.626999974       1.20880613E-05
  0.628799975       1.40028351E-05
  0.630599976       1.58120038E-05
  0.632399976       1.75007663E-05
  0.634199977       1.90550727E-05
  0.635999978       2.04617500E-05
  0.637799978       2.17086017E-05
  0.639599979       2.27844994E-05
  0.641399980       2.36794840E-05
  0.643199980       2.43848426E-05
  0.644999981       2.48931810E-05
  0.646799982       2.51984893E-05
  0.648599982       2.52961981E-05
  0.650399983       2.51832062E-05
  0.652199984       2.48579308E-05
  0.653999984       2.43203140E-05
  0.655799985       2.35718344E-05
  0.657599986       2.26155080E-05
  0.659399986       2.14558659E-05
  0.661199987       2.00989416E-05
  0.662999988       1.85522204E-05
  0.664799988       1.68246024E-05
  0.666599989       1.49263415E-05
  0.668399990       1.28689799E-05
  0.670199990       1.06652687E-05
  0.671999991       8.32908609E-06
  0.673799992       5.87534578E-06
  0.675599992       3.31989554E-06
  0.677399993       6.79408970E-07
  0.679199994      -2.02872320E-06
  0.680999994      -4.78650918E-06
  0.682799995      -7.57547559E-06
  0.684599996      -1.03767907E-05
  0.686399996      -1.31713923E-05
  0.688199997      -1.59401097E-05
  0.689999998      -1.86637899E-05
  0.691799998      -2.13234343E-05
  0.693599999      -2.39003075E-05
  0.695400000      -2.63760721E-05
  0.697200000      -2.87329040E-05
  0.699000001      -3.09536117E-05
  0.700800002      -3.30217408E-05
  0.702600002      -3.49216898E-05
  0.704400003      -3.66387976E-05
  0.706200004      -3.81594509E-05
  0.708000004      -3.94711606E-05
  0.709800005      -4.05626379E-05
  0.711600006      -4.14238784E-05
  0.713400006      -4.20462093E-05
  0.715200007      -4.24223472E-05
  0.717000008      -4.25464532E-05
  0.718800008      -4.24141544E-05
  0.720600009      -4.20225697E-05
  0.722400010      -4.13703565E-05
  0.724200010      -4.04576749E-05
  0.726000011      -3.92862203E-05
  0.727800012      -3.78591940E-05
  0.729600012      -3.61813109E-05
  0.731400013      -3.42587336E-05
  0.733200014      -3.20990621E-05
  0.735000014      -2.97112965E-05
  0.736800015      -2.71057688E-05
  0.738600016      -2.42941023E-05
  0.740400016      -2.12891391E-05
  0.742200017      -1.81048745E-05
  0.744000018      -1.47563733E-05
  0.745800018      -1.12596990E-05
  0.747600019      -7.63182015E-06
  0.749400020      -3.89052411E-06
  0.751200020      -5.43275576E-08
  0.753000021       3.85762996E-06
  0.754800022       7.82567713E-06
  0.756600022       1.18297066E-05
  0.758400023       1.58492912E-05
  0.760200024       1.98637736E-05
  0.762000024       2.38523753E-05
  0.763800025       2.77942945E-05
  0.765600026       3.16688274E-05
  0.767400026       3.54554431E-05
  0.769200027       3.91339054E-05
  0.771000028       4.26843508E-05
  0.772800028       4.60874144E-05
  0.774600029       4.93242987E-05
  0.776400030       5.23768722E-05
  0.778199971       5.52277743E-05
  0.779999971       5.78604668E-05
  0.781799972       6.02593464E-05
  0.783599973       6.24097956E-05
  0.785399973       6.42982850E-05
  0.787199974       6.59124198E-05
  0.788999975       6.72409878E-05
  0.790799975       6.82740720E-05
  0.792599976       6.90030429E-05
  0.794399977       6.94206465E-05
  0.796199977       6.95210183E-05
  0.797999978       6.92997564E-05
  0.799799979       6.87539286E-05
  0.801599979       6.78820870E-05
  0.803399980       6.66843189E-05
  0.805199981       6.51622540E-05
  0.806999981       6.33190284E-05
  0.808799982       6.11593568E-05
  0.810599983       5.86894676E-05
  0.812399983       5.59171458E-05
  0.814199984       5.28516503E-05
  0.815999985       4.95037602E-05
  0.817799985       4.58856921E-05
  0.819599986       4.20110810E-05
  0.821399987       3.78949408E-05
  0.823199987       3.35536024E-05
  0.824999988       2.90046592E-05
  0.826799989       2.42669048E-05
  0.828599989       1.93602591E-05
  0.830399990       1.43056905E-05
  0.832199991       9.12513315E-06
  0.833999991       3.84140003E-06
  0.835799992      -1.52191490E-06
  0.837599993      -6.94053824E-06
  0.839399993      -1.23896280E-05
  0.841199994      -1.78438731E-05
  0.842999995      -2.32776219E-05
  0.844799995      -2.86649902E-05
  0.846599996      -3.39799990E-05
  0.848399997      -3.91966860E-05
  0.850199997      -4.42892488E-05
  0.851999998      -4.92321778E-05
  0.853799999      -5.40003784E-05
  0.855599999      -5.85693160E-05
  0.857400000      -6.29151473E-05
  0.859200001      -6.70148511E-05
  0.861000001      -7.08463704E-05
  0.862800002      -7.43887285E-05
  0.864600003      -7.76221787E-05
  0.866400003      -8.05282834E-05
  0.868200004      -8.30900972E-05
  0.870000005      -8.52922167E-05
  0.871800005      -8.71209340E-05
  0.873600006      -8.85642949E-05
  0.875400007      -8.96122219E-05
  0.877200007      -9.02565735E-05
  0.879000008      -9.04912376E-05
  0.880800009      -9.03121836E-05
  0.882600009      -8.97175196E-05
  0.884400010      -8.87075221E-05
  0.886200011      -8.72846722E-05
  0.888000011      -8.54536847E-05
  0.889800012      -8.32214791E-05
  0.891600013      -8.05972159E-05
  0.893400013      -7.75922454E-05
  0.895200014      -7.42200864E-05
  0.897000015      -7.04963459E-05
  0.898800015      -6.64387262E-05
  0.900600016      -6.20668798E-05
  0.902400017      -5.74023579E-05
  0.904200017      -5.24685056E-05
  0.906000018      -4.72903448E-05
  0.907800019      -4.18944510E-05
  0.909600019      -3.63088111E-05
  0.911400020      -3.05627000E-05
  0.913200021      -2.46864965E-05
  0.915000021      -1.87115529E-05
  0.916800022      -1.26699933E-05
  0.918600023      -6.59455281E-06
  0.920400023      -5.18393961E-07
  0.922200024       5.52508618E-06
  0.924000025       1.15024477E-05
  0.925800025       1.73804019E-05
  0.927600026       2.31260019E-05
  0.929400027       2.87068469E-05
  0.931200027       3.40912702E-05
  0.933000028       3.92485417E-05
  0.934800029       4.41490338E-05
  0.936600029       4.87644393E-05
  0.938399971       5.30679172E-05
  0.940199971       5.70342818E-05
  0.941999972       6.06401591E-05
  0.943799973       6.38641432E-05
  0.945599973       6.66869382E-05
  0.947399974       6.90914894E-05
  0.949199975       7.10630993E-05
  0.950999975       7.25895297E-05
  0.952799976       7.36611109E-05
  0.954599977       7.42707925E-05
  0.956399977       7.44142380E-05
  0.958199978       7.40898395E-05
  0.959999979       7.32987537E-05
  0.961799979       7.20449316E-05
  0.963599980       7.03351252E-05
  0.965399981       6.81788370E-05
  0.967199981       6.55882832E-05
  0.968999982       6.25783941E-05
  0.970799983       5.91666649E-05
  0.972599983       5.53731588E-05
  0.974399984       5.12203369E-05
  0.976199985       4.67329701E-05
  0.977999985       4.19380231E-05
  0.979799986       3.68644833E-05
  0.981599987       3.15432117E-05
  0.983399987       2.60067845E-05
  0.985199988       2.02892952E-05
  0.986999989       1.44261767E-05
  0.988799989       8.45396789E-06
  0.990599990       2.41013549E-06
  0.992399991      -3.66715926E-06
  0.994199991      -9.73929036E-06
  0.995999992      -1.57673858E-05
  0.997799993      -2.17125707E-05
  0.999599993      -2.75361963E-05
   1.00139999      -3.32000855E-05
   1.00320005      -3.86667598E-05
   1.00500000      -4.38996794E-05
   1.00680006      -4.88634687E-05
   1.00860000      -5.35241561E-05
   1.01040006      -5.78493637E-05
   1.01220000      -6.18085614E-05
   1.01400006      -6.53732277E-05
   1.01580000      -6.85170744E-05
   1.01760006      -7.12162073E-05
   1.01940000      -7.34493224E-05
   1.02119994      -7.51978296E-05
   1.02300000      -7.64460128E-05
   1.02479994      -7.71811465E-05
   1.02660000      -7.73935972E-05
   1.02839994      -7.70769475E-05
   1.03020000      -7.62280033E-05
   1.03199995      -7.48469029E-05
   1.03380001      -7.29371022E-05
   1.03559995      -7.05054408E-05
   1.03740001      -6.75620613E-05
   1.03919995      -6.41204097E-05
   1.04100001      -6.01972024E-05
   1.04279995      -5.58123102E-05
   1.04460001      -5.09886886E-05
   1.04639995      -4.57522474E-05
   1.04820001      -4.01317302E-05
   1.04999995      -3.41585401E-05
   1.05180001      -2.78665539E-05
   1.05359995      -2.12919604E-05
   1.05540001      -1.44730247E-05
   1.05719995      -7.44987028E-06
   1.05900002      -2.64228873E-07
   1.06079996       7.04080185E-06
   1.06260002       1.44210353E-05
   1.06439996       2.18314726E-05
   1.06620002       2.92265868E-05
   1.06799996       3.65605956E-05
   1.06980002       4.37877934E-05
   1.07159996       5.08628182E-05
   1.07340002       5.77409483E-05
   1.07519996       6.43784297E-05
   1.07700002       7.07327417E-05
   1.07879996       7.67629026E-05
   1.08060002       8.24297240E-05
   1.08239996       8.76960985E-05
   1.08420002       9.25272543E-05
   1.08599997       9.68910099E-05
   1.08780003       1.00757978E-04
   1.08959997       1.04101797E-04
   1.09140003       1.06899308E-04
   1.09319997       1.09130720E-04
   1.09500003       1.10779780E-04
   1.09679997       1.11833884E-04
   1.09860003       1.12284179E-04
   1.10039997       1.12125628E-04
   1.10220003       1.11357076E-04
   1.10399997       1.09981258E-04
   1.10580003       1.08004788E-04
   1.10759997       1.05438143E-04
   1.10940003       1.02295577E-04
   1.11119998       9.85950828E-05
   1.11300004       9.43582127E-05
   1.11479998       8.96099955E-05
   1.11660004       8.43787566E-05
   1.11839998       7.86959135E-05
   1.12020004       7.25958016E-05
   1.12199998       6.61154190E-05
   1.12380004       5.92941869E-05
   1.12559998       5.21736911E-05
   1.12740004       4.47973907E-05
   1.12919998       3.72103241E-05
   1.13100004       2.94588135E-05
   1.13279998       2.15901364E-05
   1.13460004       1.36522167E-05
   1.13639998       5.69329995E-06
   1.13820004      -2.23837924E-06
   1.13999999      -1.00949183E-05
   1.14180005      -1.78290702E-05
   1.14359999      -2.53945600E-05
   1.14540005      -3.27463895E-05
   1.14719999      -3.98411466E-05
   1.14900005      -4.66372694E-05
   1.15079999      -5.30953293E-05
   1.15260005      -5.91782955E-05
   1.15439999      -6.48517525E-05
   1.15620005      -7.00841192E-05
   1.15799999      -7.48468665E-05
   1.15980005      -7.91146449E-05
   1.16159999      -8.28654884E-05
   1.16340005      -8.60808868E-05
   1.16520000      -8.87459028E-05
   1.16700006      -9.08492584E-05
   1.16880000      -9.23833650E-05
   1.17060006      -9.33443298E-05
   1.17240000      -9.37319783E-05
   1.17420006      -9.35498028E-05
   1.17600000      -9.28049049E-05
   1.17780006      -9.15079218E-05
   1.17960000      -8.96729034E-05
   1.18139994      -8.73171884E-05
   1.18320000      -8.44612587E-05
   1.18499994      -8.11285499E-05
   1.18680000      -7.73452848E-05
   1.18859994      -7.31402470E-05
   1.19040000      -6.85445630E-05
   1.19219995      -6.35914766E-05
   1.19400001      -5.83160836E-05
   1.19579995      -5.27550801E-05
   1.19760001      -4.69465194E-05
   1.19939995      -4.09295062E-05
   1.20120001      -3.47439491E-05
   1.20299995      -2.84302860E-05
   1.20480001      -2.20292004E-05
   1.20659995      -1.55813595E-05
   1.20840001      -9.12713404E-06
   1.21019995      -2.70635769E-06
   1.21200001       3.64194261E-06
   1.21379995       9.87977455E-06
   1.21560001       1.59704159E-05
   1.21739995       2.18786390E-05
   1.21920002       2.75709008E-05
   1.22099996       3.30155417E-05
   1.22280002       3.81829523E-05
   1.22459996       4.30457367E-05
   1.22640002       4.75788365E-05
   1.22819996       5.17596600E-05
   1.23000002       5.55681763E-05
   1.23179996       5.89870033E-05
   1.23360002       6.20014689E-05
   1.23539996       6.45996261E-05
   1.23720002       6.67723216E-05
   1.23899996       6.85131527E-05
   1.24080002       6.98184958E-05