 -0.300000012         1.00000002E-24
 -0.298200011         1.00000002E-24
 -0.296400011         1.00000002E-24
 -0.294600010        -2.69679098E-18
 -0.292800009        -1.85646676E-17
 -0.291000009        -7.07459718E-17
 -0.289200008        -1.95399079E-16
 -0.287400007        -4.32271247E-16
 -0.285600007        -8.00509451E-16
 -0.283800006        -1.25608400E-15
 -0.282000005        -1.62945221E-15
 -0.280200005        -1.54481795E-15
 -0.278400004        -3.25056834E-16
 -0.276600003         3.11138558E-15
 -0.274800003         1.03539580E-14
 -0.273000002         2.35958019E-14
 -0.271200001         4.57145579E-14
 -0.269400001         8.03322659E-14
 -0.267600000         1.31850301E-13
 -0.265799999         2.05457247E-13
 -0.263999999         3.07109047E-13
 -0.262199998         4.43481758E-13
 -0.260399997         6.21897770E-13
 -0.258599997         8.50225868E-13
 -0.256799996         1.13675595E-12
 -0.254999995         1.49004854E-12
 -0.253199995         1.91875942E-12
 -0.251399994         2.43144437E-12
 -0.249599993         3.03634461E-12
 -0.247799993         3.74116493E-12
 -0.246000007         4.55285159E-12
 -0.244200006         5.47739111E-12
 -0.242400005         6.51963466E-12
 -0.240600005         7.68318308E-12
 -0.238800004         8.97033402E-12
 -0.237000003         1.03821153E-11
 -0.235200003         1.19184159E-11
 -0.233400002         1.35782271E-11
 -0.231600001         1.53599702E-11
 -0.229800001         1.72619471E-11
 -0.228000000         1.92828687E-11
 -0.226199999         2.14224714E-11
 -0.224399999         2.36821882E-11
 -0.222599998         2.60658682E-11
 -0.220799997         2.85805199E-11
 -0.218999997         3.12370546E-11
 -0.217199996         3.40510259E-11
 -0.215399995         3.70432920E-11
 -0.213599995         4.02406546E-11
 -0.211799994         4.36763507E-11
 -0.209999993         4.73904527E-11
 -0.208199993         5.14300859E-11
 -0.206400007         5.58494397E-11
 -0.204600006         6.07095624E-11
 -0.202800006         6.60779001E-11
 -0.201000005         7.20274881E-11
 -0.199200004         7.86359103E-11
 -0.197400004         8.59838520E-11
 -0.195600003         9.41534004E-11
 -0.193800002         1.03225963E-10
 -0.192000002         1.13279899E-10
 -0.190200001         1.24387819E-10
 -0.188400000         1.36613609E-10
 -0.186600000         1.50009227E-10
 -0.184799999         1.64611186E-10
 -0.182999998         1.80436832E-10
 -0.181199998         1.97480421E-10
 -0.179399997         2.15708965E-10
 -0.177599996         2.35057945E-10
 -0.175799996         2.55426930E-10
 -0.173999995         2.76674711E-10
 -0.172199994         2.98614938E-10
 -0.170399994         3.21011079E-10
 -0.168599993         3.43571754E-10
 -0.166800007         3.65945857E-10
 -0.165000007         3.87717580E-10
 -0.163200006         4.08401979E-10
 -0.161400005         4.27439778E-10
 -0.159600005         4.44193071E-10
 -0.157800004         4.57940297E-10
 -0.156000003         4.67871908E-10
 -0.154200003         4.73085737E-10
 -0.152400002         4.72582251E-10
 -0.150600001         4.65260358E-10
 -0.148800001         4.49912607E-10
 -0.147000000         4.25220775E-10
 -0.145199999         3.89751675E-10
 -0.143399999         3.41952550E-10
 -0.141599998         2.80147378E-10
 -0.139799997         2.02532685E-10
 -0.137999997         1.07174457E-10
 -0.136199996        -7.99494412E-12
 -0.134399995        -1.45178883E-10
 -0.132599995        -3.06718012E-10
 -0.130799994        -4.95090746E-10
 -0.128999993        -7.12912229E-10
 -0.127200007        -9.62931845E-10
 -0.125400007        -1.24802924E-09
 -0.123599999        -1.57120716E-09
 -0.121799998        -1.93558281E-09
 -0.119999997        -2.34437536E-09
 -0.118199997        -2.80089019E-09
 -0.116400003        -3.30849992E-09
 -0.114600003        -3.87062027E-09
 -0.112800002        -4.49068116E-09
 -0.111000001        -5.17209475E-09
 -0.109200001        -5.91821481E-09
 -0.107400000        -6.73229339E-09
 -0.105599999        -7.61743113E-09
 -0.103799999        -8.57651905E-09
 -0.101999998        -9.61217950E-09
 -0.100199997        -1.07266933E-08
  -9.83999968E-02    -1.19219274E-08
  -9.66000035E-02    -1.31992568E-08
  -9.48000029E-02    -1.45594754E-08
  -9.30000022E-02    -1.60027032E-08
  -9.12000015E-02    -1.75282935E-08
  -8.94000009E-02    -1.91347329E-08
  -8.76000002E-02    -2.08195292E-08
  -8.57999995E-02    -2.25791137E-08
  -8.39999989E-02    -2.44087257E-08
  -8.21999982E-02    -2.63023114E-08
  -8.03999975E-02    -2.82524084E-08
  -7.85999969E-02    -3.02500460E-08
  -7.68000036E-02    -3.22846461E-08
  -7.50000030E-02    -3.43439126E-08
  -7.32000023E-02    -3.64137556E-08
  -7.14000016E-02    -3.84782197E-08
  -6.96000010E-02    -4.05193958E-08
  -6.78000003E-02    -4.25173781E-08
  -6.59999996E-02    -4.44502213E-08
  -6.41999990E-02    -4.62939127E-08
  -6.23999983E-02    -4.80223505E-08
  -6.06000014E-02    -4.96073937E-08
  -5.88000007E-02    -5.10188549E-08
  -5.70000000E-02    -5.22245855E-08
  -5.51999994E-02    -5.31905400E-08
  -5.33999987E-02    -5.38808891E-08
  -5.16000018E-02    -5.42581482E-08
  -4.98000011E-02    -5.42833476E-08
  -4.80000004E-02    -5.39162173E-08
  -4.61999997E-02    -5.31154143E-08
  -4.43999991E-02    -5.18387537E-08
  -4.25999984E-02    -5.00435213E-08
  -4.08000015E-02    -4.76867363E-08
  -3.90000008E-02    -4.47254997E-08
  -3.72000001E-02    -4.11173637E-08
  -3.53999995E-02    -3.68207012E-08
  -3.35999988E-02    -3.17951034E-08
  -3.18000019E-02    -2.60018069E-08
  -2.99999993E-02    -1.94041334E-08
  -2.82000005E-02    -1.19679218E-08
  -2.63999999E-02    -3.66198449E-09
  -2.45999992E-02     5.54142865E-09
  -2.28000004E-02     1.56661475E-08
  -2.09999997E-02     2.67317031E-08
  -1.92000009E-02     3.87527948E-08
  -1.74000002E-02     5.17389722E-08
  -1.55999996E-02     6.56941594E-08
  -1.37999998E-02     8.06162817E-08
  -1.20000001E-02     9.64969971E-08
  -1.02000004E-02     1.13321363E-07
  -8.39999970E-03     1.31067594E-07
  -6.59999996E-03     1.49706949E-07
  -4.80000023E-03     1.69203489E-07
  -3.00000003E-03     1.89514111E-07
  -1.20000006E-03     2.10588524E-07
   6.00000028E-04     2.32369388E-07
   2.40000011E-03     2.54792354E-07
   4.19999985E-03     2.77786512E-07
   6.00000005E-03     3.01274468E-07
   7.79999979E-03     3.25172920E-07
   9.60000046E-03     3.49393190E-07
   1.14000002E-02     3.73841573E-07
   1.31999999E-02     3.98420269E-07
   1.49999997E-02     4.23027842E-07
   1.67999994E-02     4.47560240E-07
   1.86000001E-02     4.71911562E-07
   2.04000007E-02     4.95974916E-07
   2.21999995E-02     5.19643436E-07
   2.40000002E-02     5.42811165E-07
   2.58000009E-02     5.65374364E-07
   2.75999997E-02     5.87231909E-07
   2.94000003E-02     6.08286939E-07
   3.11999992E-02     6.28447367E-07
   3.29999998E-02     6.47626848E-07
   3.48000005E-02     6.65745688E-07
   3.66000012E-02     6.82731809E-07
   3.84000018E-02     6.98520921E-07
   4.01999988E-02     7.13057716E-07
   4.19999994E-02     7.26295752E-07
   4.38000001E-02     7.38197684E-07
   4.56000008E-02     7.48735829E-07
   4.74000014E-02     7.57891769E-07
   4.91999984E-02     7.65656296E-07
   5.09999990E-02     7.72028727E-07
   5.27999997E-02     7.77016396E-07
   5.46000004E-02     7.80633570E-07
   5.64000010E-02     7.82900599E-07
   5.82000017E-02     7.83842665E-07
   5.99999987E-02     7.83488076E-07
   6.17999993E-02     7.81866845E-07
   6.36000037E-02     7.79008701E-07
   6.53999969E-02     7.74941100E-07
   6.71999976E-02     7.69687460E-07
   6.89999983E-02     7.63264495E-07
   7.07999989E-02     7.55680446E-07
   7.25999996E-02     7.46932130E-07
   7.44000003E-02     7.37003518E-07
   7.62000009E-02     7.25863174E-07
   7.80000016E-02     7.13461873E-07
   7.98000023E-02     6.99731174E-07
   8.16000029E-02     6.84581380E-07
   8.34000036E-02     6.67900053E-07
   8.51999968E-02     6.49551112E-07
   8.69999975E-02     6.29374256E-07
   8.87999982E-02     6.07183495E-07
   9.05999988E-02     5.82768280E-07
   9.23999995E-02     5.55894587E-07
   9.42000002E-02     5.26304518E-07
   9.60000008E-02     4.93719028E-07
   9.78000015E-02     4.57841168E-07
   9.96000022E-02     4.18357672E-07
  0.101400003         3.74943738E-07
  0.103200004         3.27266747E-07
  0.104999997         2.74992175E-07
  0.106799997         2.17789122E-07
  0.108599998         1.55336565E-07
  0.110399999         8.73309602E-08
  0.112199999         1.34935911E-08
  0.114000000        -6.64203199E-08
  0.115800001        -1.52614120E-07
  0.117600001        -2.45238397E-07
  0.119400002        -3.44384347E-07
  0.121200003        -4.50071724E-07
  0.123000003        -5.62239848E-07
  0.124799997        -6.80737060E-07
  0.126599997        -8.05312197E-07
  0.128399998        -9.35604419E-07
  0.130199999        -1.07113408E-06
  0.131999999        -1.21129426E-06
  0.133800000        -1.35534333E-06
  0.135600001        -1.50239862E-06
  0.137400001        -1.65142910E-06
  0.139200002        -1.80125164E-06
  0.141000003        -1.95052871E-06
  0.142800003        -2.09776613E-06
  0.144600004        -2.24131213E-06
  0.146400005        -2.37936047E-06
  0.148200005        -2.50995322E-06
  0.150000006        -2.63098900E-06
  0.151800007        -2.74022682E-06
  0.153600007        -2.83530130E-06
  0.155399993        -2.91373271E-06
  0.157199994        -2.97294127E-06
  0.158999994        -3.01026557E-06
  0.160799995        -3.02298758E-06
  0.162599996        -3.00834404E-06
  0.164399996        -2.96356234E-06
  0.166199997        -2.88588103E-06
  0.167999998        -2.77258005E-06
  0.169799998        -2.62101753E-06
  0.171599999        -2.42865303E-06
  0.173400000        -2.19308890E-06
  0.175200000        -1.91210938E-06
  0.177000001        -1.58371358E-06
  0.178800002        -1.20615721E-06
  0.180600002        -7.77988760E-07
  0.182400003        -2.98092232E-07
  0.184200004         2.34276882E-07
  0.186000004         8.19442903E-07
  0.187800005         1.45728268E-06
  0.189600006         2.14717875E-06
  0.191400006         2.88798697E-06
  0.193200007         3.67799976E-06
  0.194999993         4.51491633E-06
  0.196799994         5.39581470E-06
  0.198599994         6.31712101E-06
  0.200399995         7.27458928E-06
  0.202199996         8.26328505E-06
  0.203999996         9.27756901E-06
  0.205799997         1.03110879E-05
  0.207599998         1.13567721E-05
  0.209399998         1.24068320E-05
  0.211199999         1.34527691E-05
  0.213000000         1.44853911E-05
  0.214800000         1.54948229E-05
  0.216600001         1.64705434E-05
  0.218400002         1.74014040E-05
  0.220200002         1.82756758E-05
  0.222000003         1.90810933E-05
  0.223800004         1.98049001E-05
  0.225600004         2.04339194E-05
  0.227400005         2.09545997E-05
  0.229200006         2.13530984E-05
  0.231000006         2.16153476E-05
  0.232800007         2.17271390E-05
  0.234599993         2.16742192E-05
  0.236399993         2.14423490E-05
  0.238199994         2.10174239E-05
  0.239999995         2.03855670E-05
  0.241799995         1.95332068E-05
  0.243599996         1.84471955E-05
  0.245399997         1.71149204E-05
  0.247199997         1.55243833E-05
  0.248999998         1.36643157E-05
  0.250800014         1.15242719E-05
  0.252600014         9.09473601E-06
  0.254400015         6.36721779E-06
  0.256199986         3.33433354E-06
  0.257999986        -1.01096100E-08
  0.259799987        -3.67101688E-06
  0.261599988        -7.65191271E-06
  0.263399988        -1.19549159E-05
  0.265199989        -1.65806559E-05
  0.266999990        -2.15281907E-05
  0.268799990        -2.67950090E-05
  0.270599991        -3.23769382E-05
  0.272399992        -3.82681901E-05
  0.274199992        -4.44612415E-05
  0.275999993        -5.09469392E-05
  0.277799994        -5.77144019E-05
  0.279599994        -6.47511042E-05
  0.281399995        -7.20428507E-05
  0.283199996        -7.95738233E-05
  0.284999996        -8.73266254E-05
  0.286799997        -9.52823539E-05
  0.288599998        -1.03420614E-04
  0.290399998        -1.11719630E-04
  0.292199999        -1.20156277E-04
  0.294000000        -1.28706204E-04
  0.295800000        -1.37343945E-04
  0.297600001        -1.46042934E-04
  0.299400002        -1.54775684E-04
  0.301200002        -1.63513861E-04
  0.303000003        -1.72228436E-04
  0.304800004        -1.80889707E-04
  0.306600004        -1.89467522E-04
  0.308400005        -1.97931338E-04
  0.310200006        -2.06250363E-04
  0.312000006        -2.14393629E-04
  0.313800007        -2.22330156E-04
  0.315600008        -2.30029051E-04
  0.317400008        -2.37459608E-04
  0.319200009        -2.44591414E-04
  0.321000010        -2.51394522E-04
  0.322800010        -2.57839420E-04
  0.324600011        -2.63897207E-04
  0.326400012        -2.69539712E-04
  0.328200012        -2.74739461E-04
  0.330000013        -2.79469852E-04
  0.331800014        -2.83705245E-04
  0.333600014        -2.87420931E-04
  0.335399985        -2.90593336E-04
  0.337199986        -2.93199875E-04
  0.338999987        -2.95219186E-04
  0.340799987        -2.96631071E-04
  0.342599988        -2.97416642E-04
  0.344399989        -2.97558232E-04
  0.346199989        -2.97039485E-04
  0.347999990        -2.95845384E-04
  0.349799991        -2.93962337E-04
  0.351599991        -2.91378034E-04
  0.353399992        -2.88081734E-04
  0.355199993        -2.84064066E-04
  0.356999993        -2.79317203E-04
  0.358799994        -2.73834768E-04
  0.360599995        -2.67611991E-04
  0.362399995        -2.60645582E-04
  0.364199996        -2.52933911E-04
  0.365999997        -2.44476978E-04
  0.367799997        -2.35276442E-04
  0.369599998        -2.25335651E-04
  0.371399999        -2.14659769E-04
  0.373199999        -2.03255680E-04
  0.375000000        -1.91132087E-04
  0.376800001        -1.78299597E-04
  0.378600001        -1.64770740E-04
  0.380400002        -1.50559965E-04
  0.382200003        -1.35683760E-04
  0.384000003        -1.20160665E-04
  0.385800004        -1.04011306E-04
  0.387600005        -8.72584424E-05
  0.389400005        -6.99269949E-05
  0.391200006        -5.20441026E-05
  0.393000007        -3.36391313E-05
  0.394800007        -1.47436713E-05
  0.396600008         4.60842466E-06
  0.398400009         2.43810628E-05
  0.400200009         4.45358928E-05
  0.402000010         6.50323782E-05
  0.403800011         8.58277417E-05
  0.405600011         1.06877123E-04
  0.407400012         1.28133528E-04
  0.409200013         1.49547966E-04
  0.411000013         1.71069492E-04
  0.412800014         1.92645355E-04
  0.414600015         2.14221058E-04
  0.416399986         2.35740561E-04
  0.418199986         2.57146312E-04
  0.419999987         2.78379564E-04
  0.421799988         2.99380394E-04
  0.423599988         3.20088002E-04
  0.425399989         3.40440922E-04
  0.427199990         3.60377104E-04
  0.428999990         3.79834353E-04
  0.430799991         3.98750417E-04
  0.432599992         4.17063333E-04
  0.434399992         4.34711517E-04
  0.436199993         4.51634289E-04
  0.437999994         4.67771926E-04
  0.439799994         4.83066076E-04
  0.441599995         4.97459900E-04
  0.443399996         5.10898535E-04
  0.445199996         5.23329189E-04
  0.446999997         5.34701569E-04
  0.448799998         5.44968178E-04
  0.450599998         5.54084254E-04
  0.452399999         5.62008412E-04
  0.454200000         5.68702933E-04
  0.456000000         5.74133475E-04
  0.457800001         5.78269886E-04
  0.459600002         5.81086089E-04
  0.461400002         5.82560257E-04
  0.463200003         5.82675275E-04
  0.465000004         5.81418455E-04
  0.466800004         5.78782172E-04
  0.468600005         5.74763515E-04
  0.470400006         5.69364580E-04
  0.472200006         5.62592584E-04
  0.474000007         5.54459810E-04
  0.475800008         5.44983603E-04
  0.477600008         5.34186373E-04
  0.479400009         5.22095768E-04
  0.481200010         5.08744211E-04
  0.483000010         4.94169246E-04
  0.484800011         4.78412985E-04
  0.486600012         4.61522286E-04
  0.488400012         4.43548604E-04
  0.490200013         4.24547412E-04
  0.492000014         4.04578575E-04
  0.493800014         3.83705716E-04
  0.495599985         3.61996004E-04
  0.497399986         3.39519873E-04
  0.499199986         3.16350983E-04
  0.500999987         2.92565615E-04
  0.502799988         2.68242409E-04
  0.504599988         2.43462171E-04
  0.506399989         2.18307381E-04
  0.508199990         1.92861859E-04
  0.509999990         1.67210426E-04
  0.511799991         1.41438577E-04
  0.513599992         1.15632029E-04
  0.515399992         8.98763246E-05
  0.517199993         6.42565137E-05
  0.518999994         3.88567059E-05
  0.520799994         1.37597581E-05
  0.522599995        -1.09531265E-05
  0.524399996        -3.52027746E-05
  0.526199996        -5.89123993E-05
  0.527999997        -8.20079513E-05
  0.529799998        -1.04418425E-04
  0.531599998        -1.26076178E-04
  0.533399999        -1.46917300E-04
  0.535200000        -1.66881786E-04
  0.537000000        -1.85913901E-04
  0.538800001        -2.03962380E-04
  0.540600002        -2.20980655E-04
  0.542400002        -2.36927051E-04
  0.544200003        -2.51764985E-04
  0.546000004        -2.65463023E-04
  0.547800004        -2.77995132E-04
  0.549600005        -2.89340736E-04
  0.551400006        -2.99484731E-04
  0.553200006        -3.08417511E-04
  0.555000007        -3.16135149E-04
  0.556800008        -3.22639156E-04
  0.558600008        -3.27936548E-04
  0.560400009        -3.32039810E-04
  0.562200010        -3.34966608E-04
  0.564000010        -3.36739875E-04
  0.565800011        -3.37387552E-04
  0.567600012        -3.36942350E-04
  0.569400012        -3.35441699E-04
  0.571200013        -3.32927273E-04
  0.573000014        -3.29444854E-04
  0.574800014        -3.25044151E-04
  0.576600015        -3.19778308E-04
  0.578400016        -3.13703727E-04
  0.580200016        -3.06879636E-04
  0.582000017        -2.99367792E-04
  0.583800018        -2.91232107E-04
  0.585600019        -2.82538240E-04
  0.587400019        -2.73353246E-04
  0.589200020        -2.63745169E-04
  0.591000021        -2.53782520E-04
  0.592800021        -2.43534159E-04
  0.594600022        -2.33068626E-04
  0.596400023        -2.22453877E-04
  0.598200023        -2.11756822E-04
  0.600000024        -2.01043033E-04
  0.601800025        -1.90376348E-04
  0.603600025        -1.79818395E-04
  0.605400026        -1.69428458E-04
  0.607200027        -1.59262956E-04
  0.609000027        -1.49375235E-04
  0.610800028        -1.39815209E-04
  0.612600029        -1.30629182E-04
  0.614400029        -1.21859535E-04
  0.616199970        -1.13544505E-04
  0.617999971        -1.05718005E-04
  0.619799972        -9.84094731E-05
  0.621599972        -9.16437275E-05
  0.623399973        -8.54408208E-05
  0.625199974        -7.98160254E-05
  0.626999974        -7.47797530E-05
  0.628799975        -7.03375481E-05
  0.630599976        -6.64901090E-05
  0.632399976        -6.32333104E-05
  0.634199977        -6.05583082E-05
  0.635999978        -5.84516238E-05
  0.637799978        -5.68952710E-05
  0.639599979        -5.58669235E-05
  0.641399980        -5.53400787E-05
  0.643199980        -5.52842976E-05
  0.644999981        -5.56654013E-05
  0.646799982        -5.64457623E-05
  0.648599982        -5.75845552E-05
  0.650399983        -5.90380587E-05
  0.652199984        -6.07599759E-05
  0.653999984        -6.27017725E-05
  0.655799985        -6.48129935E-05
  0.657599986        -6.70416339E-05
  0.659399986        -6.93344991E-05
  0.661199987        -7.16375653E-05
  0.662999988        -7.38963572E-05
  0.664799988        -7.60562980E-05
  0.666599989        -7.80631308E-05
  0.668399990        -7.98632245E-05
  0.670199990        -8.14039813E-05
  0.671999991        -8.26342002E-05
  0.673799992        -8.35043829E-05
  0.675599992        -8.39671848E-05
  0.677399993        -8.39776185E-05
  0.679199994        -8.34934763E-05
  0.680999994        -8.24756062E-05
  0.682799995        -8.08881960E-05
  0.684599996        -7.86990786E-05
  0.686399996        -7.58799142E-05
  0.688199997        -7.24065321E-05
  0.689999998        -6.82590107E-05
  0.691799998        -6.34219614E-05
  0.693599999        -5.78846702E-05
  0.695400000        -5.16411783E-05
  0.697200000        -4.46904523E-05
  0.699000001        -3.70364360E-05
  0.700800002        -2.86881368E-05
  0.702600002        -1.96596156E-05
  0.704400003        -9.97002644E-06
  0.706200004         3.56404513E-07
  0.708000004         1.12904618E-05
  0.709800005         2.27979926E-05
  0.711600006         3.48400463E-05
  0.713400006         4.73729633E-05
  0.715200007         6.03485823E-05
  0.717000008         7.37144364E-05
  0.718800008         8.74139514E-05
  0.720600009         1.01386700E-04
  0.722400010         1.15568677E-04
  0.724200010         1.29892593E-04
  0.726000011         1.44288220E-04
  0.727800012         1.58682669E-04
  0.729600012         1.73000793E-04
  0.731400013         1.87165555E-04
  0.733200014         2.01098403E-04
  0.735000014         2.14719679E-04
  0.736800015         2.27949015E-04
  0.738600016         2.40705835E-04
  0.740400016         2.52909696E-04
  0.742200017         2.64480797E-04
  0.744000018         2.75340397E-04
  0.745800018         2.85411341E-04
  0.747600019         2.94618454E-04
  0.749400020         3.02888919E-04
  0.751200020         3.10152944E-04
  0.753000021         3.16343911E-04
  0.754800022         3.21399100E-04
  0.756600022         3.25259869E-04
  0.758400023         3.27872054E-04
  0.760200024         3.29186558E-04
  0.762000024         3.29159520E-04
  0.763800025         3.27752612E-04
  0.765600026         3.24933557E-04
  0.767400026         3.20676249E-04
  0.769200027         3.14961042E-04
  0.771000028         3.07774928E-04
  0.772800028         2.99111882E-04
  0.774600029         2.88972835E-04
  0.776400030         2.77366024E-04
  0.778199971         2.64306815E-04
  0.779999971         2.49817938E-04
  0.781799972         2.33929473E-04
  0.783599973         2.16678687E-04
  0.785399973         1.98110138E-04
  0.787199974         1.78275426E-04
  0.788999975         1.57233109E-04
  0.790799975         1.35048569E-04
  0.792599976         1.11793604E-04
  0.794399977         8.75463084E-05
  0.796199977         6.23907836E-05
  0.797999978         3.64167936E-05
  0.799799979         9.71925328E-06
  0.801599979        -1.76019621E-05
  0.803399980        -4.54425281E-05
  0.805199981        -7.36941511E-05
  0.806999981        -1.02245038E-04
  0.808799982        -1.30980407E-04
  0.810599983        -1.59783056E-04
  0.812399983        -1.88533799E-04
  0.814199984        -2.17112160E-04
  0.815999985        -2.45396834E-04
  0.817799985        -2.73266429E-04
  0.819599986        -3.00599786E-04
  0.821399987        -3.27276910E-04
  0.823199987        -3.53179290E-04
  0.824999988        -3.78190569E-04
  0.826799989        -4.02197125E-04
  0.828599989        -4.25088627E-04
  0.830399990        -4.46758611E-04
  0.832199991        -4.67104983E-04
  0.833999991        -4.86030563E-04
  0.835799992        -5.03443589E-04
  0.837599993        -5.19258028E-04
  0.839399993        -5.33394457E-04
  0.841199994        -5.45779883E-04
  0.842999995        -5.56348648E-04
  0.844799995        -5.65042428E-04
  0.846599996        -5.71810873E-04
  0.848399997        -5.76611434E-04
  0.850199997        -5.79410058E-04
  0.851999998        -5.80181077E-04
  0.853799999        -5.78907435E-04
  0.855599999        -5.75580809E-04
  0.857400000        -5.70201722E-04
  0.859200001        -5.62779489E-04
  0.861000001        -5.53332269E-04
  0.862800002        -5.41886897E-04
  0.864600003        -5.28478879E-04
  0.866400003        -5.13152219E-04
  0.868200004        -4.95959306E-04
  0.870000005        -4.76960558E-04
  0.871800005        -4.56224312E-04
  0.873600006        -4.33826295E-04
  0.875400007        -4.09849599E-04
  0.877200007        -3.84383980E-04
  0.879000008        -3.57525685E-04
  0.880800009        -3.29376926E-04
  0.882600009        -3.00045387E-04
  0.884400010        -2.69643875E-04
  0.886200011        -2.38289576E-04
  0.888000011        -2.06103796E-04
  0.889800012        -1.73211243E-04
  0.891600013        -1.39739452E-04
  0.893400013        -1.05818326E-04
  0.895200014        -7.15794740E-05
  0.897000015        -3.71556816E-05
  0.898800015        -2.68018948E-06
  0.900600016         3.17137747E-05
  0.902400017         6.58936842E-05
  0.904200017         9.97282768E-05
  0.906000018         1.33088135E-04
  0.907800019         1.65846330E-04
  0.909600019         1.97878981E-04
  0.911400020         2.29065816E-04
  0.913200021         2.59290682E-04
  0.915000021         2.88442126E-04
  0.916800022         3.16413847E-04
  0.918600023         3.43105261E-04
  0.920400023         3.68421868E-04
  0.922200024         3.92275775E-04
  0.924000025         4.14585986E-04
  0.925800025         4.35278955E-04
  0.927600026         4.54288762E-04
  0.929400027         4.71557520E-04
  0.931200027         4.87035577E-04
  0.933000028         5.00681810E-04
  0.934800029         5.12463856E-04
  0.936600029         5.22358168E-04
  0.938399971         5.30350080E-04
  0.940199971         5.36434178E-04
  0.941999972         5.40613895E-04
  0.943799973         5.42901631E-04
  0.945599973         5.43318980E-04
  0.947399974         5.41896035E-04
  0.949199975         5.38671738E-04
  0.950999975         5.33693412E-04
  0.952799976         5.27016586E-04
  0.954599977         5.18704415E-04
  0.956399977         5.08827856E-04
  0.958199978         4.97464673E-04
  0.959999979         4.84699471E-04
  0.961799979         4.70622879E-04
  0.963599980         4.55331232E-04
  0.965399981         4.38925897E-04
  0.967199981         4.21512639E-04
  0.968999982         4.03201062E-04
  0.970799983         3.84104002E-04
  0.972599983         3.64336738E-04
  0.974399984         3.44016240E-04
  0.976199985         3.23260610E-04
  0.977999985         3.02188186E-04
  0.979799986         2.80917011E-04
  0.981599987         2.59563909E-04
  0.983399987         2.38243781E-04
  0.985199988         2.17068984E-04
  0.986999989         1.96148569E-04
  0.988799989         1.75587556E-04
  0.990599990         1.55486297E-04
  0.992399991         1.35939859E-04
  0.994199991         1.17037373E-04
  0.995999992         9.88615720E-05
  0.997799993         8.14881932E-05
  0.999599993         6.49855065E-05
   1.00139999         4.94139604E-05
   1.00320005         3.48258582E-05
   1.00500000         2.12649720E-05
   1.00680006         8.76639569E-06
   1.00860000        -2.64360756E-06
   1.01040006        -1.29477621E-05
   1.01220000        -2.21377231E-05
   1.01400006        -3.02141088E-05
   1.01580000        -3.71863425E-05
   1.01760006        -4.30724649E-05
   1.01940000        -4.78989314E-05
   1.02119994        -5.17002190E-05
   1.02300000        -5.45185176E-05
   1.02479994        -5.64032707E-05
   1.02660000        -5.74106925E-05
   1.02839994        -5.76031671E-05
   1.03020000        -5.70487318E-05
   1.03199995        -5.58203756E-05
   1.03380001        -5.39953871E-05
   1.03559995        -5.16546570E-05
   1.03740001        -4.88819314E-05
   1.03919995        -4.57630704E-05
   1.04100001        -4.23852835E-05
   1.04279995        -3.88363733E-05
   1.04460001        -3.52039679E-05
   1.04639995        -3.15747457E-05
   1.04820001        -2.80336972E-05
   1.04999995        -2.46634208E-05
   1.05180001        -2.15433811E-05
   1.05359995        -1.87492606E-05
   1.05540001        -1.63523091E-05
   1.05719995        -1.44187643E-05
   1.05900002        -1.30092958E-05
   1.06079996        -1.21785042E-05
   1.06260002        -1.19744991E-05
   1.06439996        -1.24384842E-05
   1.06620002        -1.36044710E-05
   1.06799996        -1.54990012E-05
   1.06980002        -1.81409505E-05
   1.07159996        -2.15414148E-05
   1.07340002        -2.57036190E-05
   1.07519996        -3.06229485E-05
   1.07700002        -3.62869796E-05
   1.07879996        -4.26756269E-05
   1.08060002        -4.97613182E-05
   1.08239996        -5.75092381E-05
   1.08420002        -6.58776262E-05
   1.08599997        -7.48181192E-05
   1.08780003        -8.42761947E-05
   1.08959997        -9.41915641E-05
   1.09140003        -1.04498722E-04
   1.09319997        -1.15127448E-04
   1.09500003        -1.26003404E-04
   1.09679997        -1.37048672E-04
   1.09860003        -1.48182458E-04
   1.10039997        -1.59321658E-04
   1.10220003        -1.70381521E-04
   1.10399997        -1.81276366E-04
   1.10580003        -1.91920160E-04
   1.10759997        -2.02227238E-04
   1.10940003        -2.12112936E-04
   1.11119998        -2.21494265E-04
   1.11300004        -2.30290490E-04
   1.11479998        -2.38423774E-04
   1.11660004        -2.45819770E-04
   1.11839998        -2.52408179E-04
   1.12020004        -2.58123298E-04
   1.12199998        -2.62904534E-04
   1.12380004        -2.66696850E-04
   1.12559998        -2.69451237E-04
   1.12740004        -2.71124998E-04
   1.12919998        -2.71682191E-04
   1.13100004        -2.71093857E-04
   1.13279998        -2.69338343E-04
   1.13460004        -2.66401388E-04
   1.13639998        -2.62276299E-04
   1.13820004        -2.56964035E-04
   1.13999999        -2.50473269E-04
   1.14180005        -2.42820388E-04
   1.14359999        -2.34029358E-04
   1.14540005        -2.24131640E-04
   1.14719999        -2.13166088E-04
   1.14900005        -2.01178598E-04
   1.15079999        -1.88222024E-04
   1.15260005        -1.74355708E-04
   1.15439999        -1.59645191E-04
   1.15620005        -1.44161808E-04