 -0.300000012         1.00000002E-24
 -0.298200011         1.00000002E-24
 -0.296400011         1.00000002E-24
 -0.294600010         1.00000002E-24
 -0.292800009         9.79020665E-20
 -0.291000009         8.72687851E-19
 -0.289200008         4.29872157E-18
 -0.287400007         1.54448864E-17
 -0.285600007         4.51569378E-17
 -0.283800006         1.13796521E-16
 -0.282000005         2.55921449E-16
 -0.280200005         5.25551068E-16
 -0.278400004         1.00139062E-15
 -0.276600003         1.79111342E-15
 -0.274800003         3.03355448E-15
 -0.273000002         4.89747250E-15
 -0.271200001         7.57543408E-15
 -0.269400001         1.12713488E-14
 -0.267600000         1.61802758E-14
 -0.265799999         2.24593192E-14
 -0.263999999         3.01886778E-14
 -0.262199998         3.93223153E-14
 -0.260399997         4.96280331E-14
 -0.258599997         6.06170794E-14
 -0.256799996         7.14639055E-14
 -0.254999995         8.09167661E-14
 -0.253199995         8.72001784E-14
 -0.251399994         8.79103512E-14
 -0.249599993         7.99044533E-14
 -0.247799993         5.91846586E-14
 -0.246000007         2.07774827E-14
 -0.244200006        -4.13914440E-14
 -0.242400005        -1.34627512E-13
 -0.240600005        -2.67603295E-13
 -0.238800004        -4.50501913E-13
 -0.237000003        -6.95170917E-13
 -0.235200003        -1.01528920E-12
 -0.233400002        -1.42655028E-12
 -0.231600001        -1.94686953E-12
 -0.229800001        -2.59661672E-12
 -0.228000000        -3.39888599E-12
 -0.226199999        -4.37980338E-12
 -0.224399999        -5.56888867E-12
 -0.222599998        -6.99946871E-12
 -0.220799997        -8.70915839E-12
 -0.218999997        -1.07404207E-11
 -0.217199996        -1.31411965E-11
 -0.215399995        -1.59656316E-11
 -0.213599995        -1.92749029E-11
 -0.211799994        -2.31381407E-11
 -0.209999993        -2.76334546E-11
 -0.208199993        -3.28490880E-11
 -0.206400007        -3.88847080E-11
 -0.204600006        -4.58527730E-11
 -0.202800006        -5.38801052E-11
 -0.201000005        -6.31095592E-11
 -0.199200004        -7.37018988E-11
 -0.197400004        -8.58378091E-11
 -0.195600003        -9.97201002E-11
 -0.193800002        -1.15576215E-10
 -0.192000002        -1.33660819E-10
 -0.190200001        -1.54258786E-10
 -0.188400000        -1.77688378E-10
 -0.186600000        -2.04304768E-10
 -0.184799999        -2.34503972E-10
 -0.182999998        -2.68726874E-10
 -0.181199998        -3.07464026E-10
 -0.179399997        -3.51260465E-10
 -0.177599996        -4.00721178E-10
 -0.175799996        -4.56516908E-10
 -0.173999995        -5.19390364E-10
 -0.172199994        -5.90162974E-10
 -0.170399994        -6.69741873E-10
 -0.168599993        -7.59127594E-10
 -0.166800007        -8.59421978E-10
 -0.165000007        -9.71836389E-10
 -0.163200006        -1.09770093E-09
 -0.161400005        -1.23847321E-09
 -0.159600005        -1.39574807E-09
 -0.157800004        -1.57126745E-09
 -0.156000003        -1.76693038E-09
 -0.154200003        -1.98480410E-09
 -0.152400002        -2.22713425E-09
 -0.150600001        -2.49635623E-09
 -0.148800001        -2.79510615E-09
 -0.147000000        -3.12623216E-09
 -0.145199999        -3.49280560E-09
 -0.143399999        -3.89813248E-09
 -0.141599998        -4.34576464E-09
 -0.139799997        -4.83951057E-09
 -0.137999997        -5.38344613E-09
 -0.136199996        -5.98192518E-09
 -0.134399995        -6.63958799E-09
 -0.132599995        -7.36137018E-09
 -0.130799994        -8.15251155E-09
 -0.128999993        -9.01856190E-09
 -0.127200007        -9.96538763E-09
 -0.125400007        -1.09991731E-08
 -0.123599999        -1.21264234E-08
 -0.121799998        -1.33539650E-08
 -0.119999997        -1.46889416E-08
 -0.118199997        -1.61388112E-08
 -0.116400003        -1.77113311E-08
 -0.114600003        -1.94145571E-08
 -0.112800002        -2.12568203E-08
 -0.111000001        -2.32467059E-08
 -0.109200001        -2.53930370E-08
 -0.107400000        -2.77048464E-08
 -0.105599999        -3.01913374E-08
 -0.103799999        -3.28618484E-08
 -0.101999998        -3.57258223E-08
 -0.100199997        -3.87927344E-08
  -9.83999968E-02    -4.20720667E-08
  -9.66000035E-02    -4.55732305E-08
  -9.48000029E-02    -4.93055055E-08
  -9.30000022E-02    -5.32779687E-08
  -9.12000015E-02    -5.74994239E-08
  -8.94000009E-02    -6.19783194E-08
  -8.76000002E-02    -6.67226487E-08
  -8.57999995E-02    -7.17398692E-08
  -8.39999989E-02    -7.70368089E-08
  -8.21999982E-02    -8.26195361E-08
  -8.03999975E-02    -8.84933016E-08
  -7.85999969E-02    -9.46623615E-08
  -7.68000036E-02    -1.01129899E-07
  -7.50000030E-02    -1.07897918E-07
  -7.32000023E-02    -1.14967087E-07
  -7.14000016E-02    -1.22336630E-07
  -6.96000010E-02    -1.30004210E-07
  -6.78000003E-02    -1.37965770E-07
  -6.59999996E-02    -1.46215484E-07
  -6.41999990E-02    -1.54745535E-07
  -6.23999983E-02    -1.63546076E-07
  -6.06000014E-02    -1.72605056E-07
  -5.88000007E-02    -1.81908149E-07
  -5.70000000E-02    -1.91438687E-07
  -5.51999994E-02    -2.01177443E-07
  -5.33999987E-02    -2.11102716E-07
  -5.16000018E-02    -2.21190135E-07
  -4.98000011E-02    -2.31412656E-07
  -4.80000004E-02    -2.41740565E-07
  -4.61999997E-02    -2.52141433E-07
  -4.43999991E-02    -2.62580045E-07
  -4.25999984E-02    -2.73018514E-07
  -4.08000015E-02    -2.83416284E-07
  -3.90000008E-02    -2.93730267E-07
  -3.72000001E-02    -3.03914845E-07
  -3.53999995E-02    -3.13922015E-07
  -3.35999988E-02    -3.23701641E-07
  -3.18000019E-02    -3.33201569E-07
  -2.99999993E-02    -3.42367713E-07
  -2.82000005E-02    -3.51144593E-07
  -2.63999999E-02    -3.59475308E-07
  -2.45999992E-02    -3.67301965E-07
  -2.28000004E-02    -3.74566127E-07
  -2.09999997E-02    -3.81208963E-07
  -1.92000009E-02    -3.87171752E-07
  -1.74000002E-02    -3.92396316E-07
  -1.55999996E-02    -3.96825328E-07
  -1.37999998E-02    -4.00402968E-07
  -1.20000001E-02    -4.03075205E-07
  -1.02000004E-02    -4.04790484E-07
  -8.39999970E-03    -4.05499947E-07
  -6.59999996E-03    -4.05158289E-07
  -4.80000023E-03    -4.03723931E-07
  -3.00000003E-03    -4.01159753E-07
  -1.20000006E-03    -3.97433524E-07
   6.00000028E-04    -3.92518302E-07
   2.40000011E-03    -3.86393026E-07
   4.19999985E-03    -3.79042888E-07
   6.00000005E-03    -3.70459844E-07
   7.79999979E-03    -3.60642730E-07
   9.60000046E-03    -3.49597912E-07
   1.14000002E-02    -3.37339372E-07
   1.31999999E-02    -3.23888855E-07
   1.49999997E-02    -3.09276288E-07
   1.67999994E-02    -2.93539642E-07
   1.86000001E-02    -2.76725018E-07
   2.04000007E-02    -2.58886615E-07
   2.21999995E-02    -2.40086536E-07
   2.40000002E-02    -2.20394568E-07
   2.58000009E-02    -1.99887936E-07
   2.75999997E-02    -1.78650737E-07
   2.94000003E-02    -1.56773567E-07
   3.11999992E-02    -1.34352774E-07
   3.29999998E-02    -1.11489918E-07
   3.48000005E-02    -8.82908395E-08
   3.66000012E-02    -6.48648495E-08
   3.84000018E-02    -4.13237409E-08
   4.01999988E-02    -1.77807333E-08
   4.19999994E-02     5.65069325E-09
   4.38000001E-02     2.88579560E-08
   4.56000008E-02     5.17306376E-08
   4.74000014E-02     7.41618180E-08
   4.91999984E-02     9.60493907E-08
   5.09999990E-02     1.17297496E-07
   5.27999997E-02     1.37817821E-07
   5.46000004E-02     1.57531105E-07
   5.64000010E-02     1.76368374E-07
   5.82000017E-02     1.94272346E-07
   5.99999987E-02     2.11198767E-07
   6.17999993E-02     2.27117482E-07
   6.36000037E-02     2.42013698E-07
   6.53999969E-02     2.55888978E-07
   6.71999976E-02     2.68762079E-07
   6.89999983E-02     2.80669894E-07
   7.07999989E-02     2.91667845E-07
   7.25999996E-02     3.01830539E-07
   7.44000003E-02     3.11251881E-07
   7.62000009E-02     3.20045245E-07
   7.80000016E-02     3.28343333E-07
   7.98000023E-02     3.36297745E-07
   8.16000029E-02     3.44078558E-07
   8.34000036E-02     3.51873410E-07
   8.51999968E-02     3.59886371E-07
   8.69999975E-02     3.68336828E-07
   8.87999982E-02     3.77457866E-07
   9.05999988E-02     3.87494708E-07
   9.23999995E-02     3.98702525E-07
   9.42000002E-02     4.11344445E-07
   9.60000008E-02     4.25688967E-07
   9.78000015E-02     4.42007689E-07
   9.96000022E-02     4.60572409E-07
  0.101400003         4.81652307E-07
  0.103200004         5.05510911E-07
  0.104999997         5.32403249E-07
  0.106799997         5.62572495E-07
  0.108599998         5.96246878E-07
  0.110399999         6.33636546E-07
  0.112199999         6.74930504E-07
  0.114000000         7.20293372E-07
  0.115800001         7.69862879E-07
  0.117600001         8.23746461E-07
  0.119400002         8.82019208E-07
  0.121200003         9.44721251E-07
  0.123000003         1.01185572E-06
  0.124799997         1.08338645E-06
  0.126599997         1.15923717E-06
  0.128399998         1.23928999E-06
  0.130199999         1.32338437E-06
  0.131999999         1.41131704E-06
  0.133800000         1.50284200E-06
  0.135600001         1.59767046E-06
  0.137400001         1.69547263E-06
  0.139200002         1.79587869E-06
  0.141000003         1.89847981E-06
  0.142800003         2.00283193E-06
  0.144600004         2.10845724E-06
  0.146400005         2.21484811E-06
  0.148200005         2.32146976E-06
  0.150000006         2.42776491E-06
  0.151800007         2.53315784E-06
  0.153600007         2.63705920E-06
  0.155399993         2.73887099E-06
  0.157199994         2.83799045E-06
  0.158999994         2.93381731E-06
  0.160799995         3.02575745E-06
  0.162599996         3.11322924E-06
  0.164399996         3.19566902E-06
  0.166199997         3.27253565E-06
  0.167999998         3.34331708E-06
  0.169799998         3.40753377E-06
  0.171599999         3.46474553E-06
  0.173400000         3.51455333E-06
  0.175200000         3.55660609E-06
  0.177000001         3.59060232E-06
  0.178800002         3.61629441E-06
  0.180600002         3.63348886E-06
  0.182400003         3.64205152E-06
  0.184200004         3.64190646E-06
  0.186000004         3.63303616E-06
  0.187800005         3.61548246E-06
  0.189600006         3.58934494E-06
  0.191400006         3.55478028E-06
  0.193200007         3.51199765E-06
  0.194999993         3.46125671E-06
  0.196799994         3.40286374E-06
  0.198599994         3.33716616E-06
  0.200399995         3.26454710E-06
  0.202199996         3.18542016E-06
  0.203999996         3.10022233E-06
  0.205799997         3.00940724E-06
  0.207599998         2.91343599E-06
  0.209399998         2.81277198E-06
  0.211199999         2.70787041E-06
  0.213000000         2.59917124E-06
  0.214800000         2.48709057E-06
  0.216600001         2.37201129E-06
  0.218400002         2.25427675E-06
  0.220200002         2.13418139E-06
  0.222000003         2.01196417E-06
  0.223800004         1.88780052E-06
  0.225600004         1.76179685E-06
  0.227400005         1.63398329E-06
  0.229200006         1.50431094E-06
  0.231000006         1.37264715E-06
  0.232800007         1.23877044E-06
  0.234599993         1.10237113E-06
  0.236399993         9.63049388E-07
  0.238199994         8.20314085E-07
  0.239999995         6.73586442E-07
  0.241799995         5.22202242E-07
  0.243599996         3.65414024E-07
  0.245399997         2.02399320E-07
  0.247199997         3.22643849E-08
  0.248999998        -1.45946558E-07
  0.250800014        -3.33242554E-07
  0.252600014        -5.30675152E-07
  0.254400015        -7.39328243E-07
  0.256199986        -9.60304533E-07
  0.257999986        -1.19471531E-06
  0.259799987        -1.44366265E-06
  0.261599988        -1.70822625E-06
  0.263399988        -1.98944917E-06
  0.265199989        -2.28832118E-06
  0.266999990        -2.60576348E-06
  0.268799990        -2.94261099E-06
  0.270599991        -3.29959948E-06
  0.272399992        -3.67734560E-06
  0.274199992        -4.07633524E-06
  0.275999993        -4.49690742E-06
  0.277799994        -4.93923881E-06
  0.279599994        -5.40333076E-06
  0.281399995        -5.88900184E-06
  0.283199996        -6.39587051E-06
  0.284999996        -6.92334697E-06
  0.286799997        -7.47062813E-06
  0.288599998        -8.03668991E-06
  0.290399998        -8.62028082E-06
  0.292199999        -9.21991978E-06
  0.294000000        -9.83389873E-06
  0.295800000        -1.04602796E-05
  0.297600001        -1.10968986E-05
  0.299400002        -1.17413729E-05
  0.301200002        -1.23911077E-05
  0.303000003        -1.30433082E-05
  0.304800004        -1.36949866E-05
  0.306600004        -1.43429797E-05
  0.308400005        -1.49839643E-05
  0.310200006        -1.56144761E-05
  0.312000006        -1.62309279E-05
  0.313800007        -1.68296338E-05
  0.315600008        -1.74068318E-05
  0.317400008        -1.79587059E-05
  0.319200009        -1.84814162E-05
  0.321000010        -1.89711227E-05
  0.322800010        -1.94240201E-05
  0.324600011        -1.98363578E-05
  0.326400012        -2.02044739E-05
  0.328200012        -2.05248252E-05
  0.330000013        -2.07940120E-05
  0.331800014        -2.10088219E-05
  0.333600014        -2.11662355E-05
  0.335399985        -2.12634750E-05
  0.337199986        -2.12980285E-05
  0.338999987        -2.12676605E-05
  0.340799987        -2.11704555E-05
  0.342599988        -2.10048293E-05
  0.344399989        -2.07695539E-05
  0.346199989        -2.04637763E-05
  0.347999990        -2.00870363E-05
  0.349799991        -1.96392702E-05
  0.351599991        -1.91208346E-05
  0.353399992        -1.85325098E-05
  0.355199993        -1.78754981E-05
  0.356999993        -1.71514403E-05
  0.358799994        -1.63623954E-05
  0.360599995        -1.55108519E-05
  0.362399995        -1.45997155E-05
  0.364199996        -1.36322897E-05
  0.365999997        -1.26122695E-05
  0.367799997        -1.15437169E-05
  0.369599998        -1.04310429E-05
  0.371399999        -9.27898054E-06
  0.373199999        -8.09255562E-06
  0.375000000        -6.87706051E-06
  0.376800001        -5.63801632E-06
  0.378600001        -4.38113693E-06
  0.380400002        -3.11229269E-06
  0.382200003        -1.83746658E-06
  0.384000003        -5.62715115E-07
  0.385800004         7.05876630E-07
  0.387600005         1.96224119E-06
  0.389400005         3.20037179E-06
  0.391200006         4.41437078E-06
  0.393000007         5.59849514E-06
  0.394800007         6.74719695E-06
  0.396600008         7.85517295E-06
  0.398400009         8.91740456E-06
  0.400200009         9.92920377E-06
  0.402000010         1.08862505E-05
  0.403800011         1.17846248E-05
  0.405600011         1.26208506E-05
  0.407400012         1.33919184E-05
  0.409200013         1.40953161E-05
  0.411000013         1.47290566E-05
  0.412800014         1.52916928E-05
  0.414600015         1.57823251E-05
  0.416399986         1.62006254E-05
  0.418199986         1.65468391E-05
  0.419999987         1.68217721E-05
  0.421799988         1.70268013E-05
  0.423599988         1.71638567E-05
  0.425399989         1.72354066E-05
  0.427199990         1.72444379E-05
  0.428999990         1.71944321E-05
  0.430799991         1.70893290E-05
  0.432599992         1.69334926E-05
  0.434399992         1.67316757E-05
  0.436199993         1.64889752E-05
  0.437999994         1.62107772E-05
  0.439799994         1.59027131E-05
  0.441599995         1.55705984E-05
  0.443399996         1.52203820E-05
  0.445199996         1.48580839E-05
  0.446999997         1.44897322E-05
  0.448799998         1.41213022E-05
  0.450599998         1.37586603E-05
  0.452399999         1.34074899E-05
  0.454200000         1.30732415E-05
  0.456000000         1.27610629E-05
  0.457800001         1.24757507E-05
  0.459600002         1.22216843E-05
  0.461400002         1.20027880E-05
  0.463200003         1.18224689E-05
  0.465000004         1.16835827E-05
  0.466800004         1.15883931E-05
  0.468600005         1.15385383E-05
  0.470400006         1.15350040E-05
  0.472200006         1.15780995E-05
  0.474000007         1.16674528E-05
  0.475800008         1.18019962E-05
  0.477600008         1.19799643E-05
  0.479400009         1.21989042E-05
  0.481200010         1.24556891E-05
  0.483000010         1.27465428E-05
  0.484800011         1.30670642E-05
  0.486600012         1.34122620E-05
  0.488400012         1.37766019E-05
  0.490200013         1.41540522E-05
  0.492000014         1.45381428E-05
  0.493800014         1.49220232E-05
  0.495599985         1.52985285E-05
  0.497399986         1.56602509E-05
  0.499199986         1.59996125E-05
  0.500999987         1.63089535E-05
  0.502799988         1.65805995E-05
  0.504599988         1.68069564E-05
  0.506399989         1.69805826E-05
  0.508199990         1.70942894E-05
  0.509999990         1.71412048E-05
  0.511799991         1.71148677E-05
  0.513599992         1.70093135E-05
  0.515399992         1.68191327E-05
  0.517199993         1.65395595E-05
  0.518999994         1.61665284E-05
  0.520799994         1.56967471E-05
  0.522599995         1.51277372E-05
  0.524399996         1.44579035E-05
  0.526199996         1.36865574E-05
  0.527999997         1.28139409E-05
  0.529799998         1.18412936E-05
  0.531599998         1.07708202E-05
  0.533399999         9.60572197E-06
  0.535200000         8.35018909E-06
  0.537000000         7.00939063E-06
  0.538800001         5.58944748E-06
  0.540600002         4.09740005E-06
  0.542400002         2.54116640E-06
  0.544200003         9.29501539E-07
  0.546000004        -7.28077623E-07
  0.547800004        -2.42134479E-06
  0.549600005        -4.13945281E-06
  0.551400006        -5.87101022E-06
  0.553200006        -7.60417788E-06
  0.555000007        -9.32675266E-06
  0.556800008        -1.10262808E-05
  0.558600008        -1.26901541E-05
  0.560400009        -1.43057259E-05
  0.562200010        -1.58604125E-05
  0.564000010        -1.73418121E-05
  0.565800011        -1.87378082E-05
  0.567600012        -2.00366885E-05
  0.569400012        -2.12272553E-05
  0.571200013        -2.22989183E-05
  0.573000014        -2.32418097E-05
  0.574800014        -2.40468744E-05
  0.576600015        -2.47059688E-05
  0.578400016        -2.52119371E-05
  0.580200016        -2.55586929E-05
  0.582000017        -2.57412903E-05
  0.583800018        -2.57559768E-05
  0.585600019        -2.56002495E-05
  0.587400019        -2.52728878E-05
  0.589200020        -2.47739972E-05
  0.591000021        -2.41050147E-05
  0.592800021        -2.32687253E-05
  0.594600022        -2.22692470E-05
  0.596400023        -2.11120296E-05
  0.598200023        -1.98038142E-05
  0.600000024        -1.83526172E-05
  0.601800025        -1.67676608E-05
  0.603600025        -1.50593205E-05
  0.605400026        -1.32390605E-05
  0.607200027        -1.13193428E-05
  0.609000027        -9.31355771E-06
  0.610800028        -7.23591438E-06
  0.612600029        -5.10134259E-06
  0.614400029        -2.92537356E-06
  0.616199970        -7.24038955E-07
  0.617999971         1.48626225E-06
  0.619799972         3.68888277E-06
  0.621599972         5.86705301E-06
  0.623399973         8.00401358E-06
  0.625199974         1.00831385E-05
  0.626999974         1.20880713E-05
  0.628799975         1.40028496E-05
  0.630599976         1.58120238E-05
  0.632399976         1.75007917E-05
  0.634199977         1.90551054E-05
  0.635999978         2.04617918E-05
  0.637799978         2.17086490E-05
  0.639599979         2.27845503E-05
  0.641399980         2.36795331E-05
  0.643199980         2.43848881E-05
  0.644999981         2.48932229E-05
  0.646799982         2.51985257E-05
  0.648599982         2.52962254E-05
  0.650399983         2.51832225E-05
  0.652199984         2.48579381E-05
  0.653999984         2.43203121E-05
  0.655799985         2.35718253E-05
  0.657599986         2.26154916E-05
  0.659399986         2.14558477E-05
  0.661199987         2.00989216E-05
  0.662999988         1.85522058E-05
  0.664799988         1.68245933E-05
  0.666599989         1.49263433E-05
  0.668399990         1.28689935E-05
  0.670199990         1.06652906E-05
  0.671999991         8.32911519E-06
  0.673799992         5.87537761E-06
  0.675599992         3.31992464E-06
  0.677399993         6.79428183E-07
  0.679199994        -2.02871706E-06
  0.680999994        -4.78651918E-06
  0.682799995        -7.57550470E-06
  0.684599996        -1.03768398E-05
  0.686399996        -1.31714596E-05
  0.688199997        -1.59401934E-05
  0.689999998        -1.86638918E-05
  0.691799998        -2.13235489E-05
  0.693599999        -2.39004330E-05
  0.695400000        -2.63762031E-05
  0.697200000        -2.87330386E-05
  0.699000001        -3.09537463E-05
  0.700800002        -3.30218754E-05
  0.702600002        -3.49218135E-05
  0.704400003        -3.66389104E-05
  0.706200004        -3.81595491E-05
  0.708000004        -3.94712370E-05
  0.709800005        -4.05626961E-05
  0.711600006        -4.14239148E-05
  0.713400006        -4.20462238E-05
  0.715200007        -4.24223435E-05
  0.717000008        -4.25464314E-05
  0.718800008        -4.24141253E-05
  0.720600009        -4.20225406E-05
  0.722400010        -4.13703310E-05
  0.724200010        -4.04576567E-05
  0.726000011        -3.92862130E-05
  0.727800012        -3.78592013E-05
  0.729600012        -3.61813218E-05
  0.731400013        -3.42587482E-05
  0.733200014        -3.20990875E-05
  0.735000014        -2.97113293E-05
  0.736800015        -2.71058107E-05
  0.738600016        -2.42941551E-05
  0.740400016        -2.12892028E-05
  0.742200017        -1.81049454E-05
  0.744000018        -1.47564515E-05
  0.745800018        -1.12597818E-05
  0.747600019        -7.63190474E-06
  0.749400020        -3.89060961E-06
  0.751200020        -5.44123928E-08
  0.753000021         3.85754538E-06
  0.754800022         7.82558800E-06
  0.756600022         1.18296130E-05
  0.758400023         1.58491912E-05
  0.760200024         1.98636626E-05
  0.762000024         2.38522516E-05
  0.763800025         2.77941635E-05
  0.765600026         3.16686856E-05
  0.767400026         3.54552903E-05
  0.769200027         3.91337453E-05
  0.771000028         4.26841943E-05
  0.772800028         4.60872652E-05
  0.774600029         4.93241714E-05
  0.776400030         5.23767776E-05
  0.778199971         5.52277124E-05
  0.779999971         5.78604486E-05
  0.781799972         6.02593718E-05
  0.783599973         6.24098757E-05
  0.785399973         6.42984160E-05
  0.787199974         6.59125944E-05
  0.788999975         6.72412134E-05
  0.790799975         6.82743485E-05
  0.792599976         6.90033630E-05
  0.794399977         6.94209957E-05
  0.796199977         6.95213894E-05
  0.797999978         6.93001421E-05
  0.799799979         6.87543143E-05
  0.801599979         6.78824654E-05
  0.803399980         6.66846754E-05
  0.805199981         6.51625742E-05
  0.806999981         6.33193195E-05
  0.808799982         6.11596115E-05
  0.810599983         5.86896931E-05
  0.812399983         5.59173313E-05
  0.814199984         5.28518103E-05
  0.815999985         4.95039021E-05
  0.817799985         4.58858194E-05
  0.819599986         4.20112083E-05
  0.821399987         3.78950681E-05
  0.823199987         3.35537297E-05
  0.824999988         2.90047847E-05
  0.826799989         2.42670230E-05
  0.828599989         1.93603664E-05
  0.830399990         1.43057787E-05
  0.832199991         9.12519772E-06
  0.833999991         3.84143868E-06
  0.835799992        -1.52190614E-06
  0.837599993        -6.94056098E-06
  0.839399993        -1.23896780E-05
  0.841199994        -1.78439441E-05
  0.842999995        -2.32777056E-05
  0.844799995        -2.86650775E-05
  0.846599996        -3.39800717E-05
  0.848399997        -3.91967369E-05
  0.850199997        -4.42892706E-05
  0.851999998        -4.92321633E-05
  0.853799999        -5.40003275E-05
  0.855599999        -5.85692324E-05
  0.857400000        -6.29150381E-05
  0.859200001        -6.70147274E-05
  0.861000001        -7.08462467E-05
  0.862800002        -7.43886267E-05
  0.864600003        -7.76221132E-05
  0.866400003        -8.05282762E-05
  0.868200004        -8.30901627E-05
  0.870000005        -8.52923622E-05
  0.871800005        -8.71211596E-05
  0.873600006        -8.85645932E-05
  0.875400007        -8.96125784E-05
  0.877200007        -9.02569809E-05
  0.879000008        -9.04916960E-05
  0.880800009        -9.03126638E-05
  0.882600009        -8.97179998E-05
  0.884400010        -8.87079877E-05
  0.886200011        -8.72851015E-05
  0.888000011        -8.54540704E-05
  0.889800012        -8.32218066E-05
  0.891600013        -8.05974923E-05
  0.893400013        -7.75924782E-05
  0.895200014        -7.42202683E-05
  0.897000015        -7.04965059E-05
  0.898800015        -6.64388645E-05
  0.900600016        -6.20670107E-05
  0.902400017        -5.74024998E-05
  0.904200017        -5.24686584E-05
  0.906000018        -4.72905194E-05
  0.907800019        -4.18946547E-05
  0.909600019        -3.63090512E-05
  0.911400020        -3.05629692E-05
  0.913200021        -2.46867930E-05
  0.915000021        -1.87118676E-05
  0.916800022        -1.26703171E-05
  0.918600023        -6.59487569E-06
  0.920400023        -5.18705178E-07
  0.922200024         5.52479651E-06
  0.924000025         1.15021867E-05
  0.925800025         1.73801727E-05
  0.927600026         2.31258091E-05
  0.929400027         2.87066887E-05
  0.931200027         3.40911429E-05
  0.933000028         3.92484362E-05
  0.934800029         4.41489465E-05
  0.936600029         4.87643592E-05
  0.938399971         5.30678371E-05
  0.940199971         5.70342017E-05
  0.941999972         6.06400754E-05
  0.943799973         6.38640558E-05
  0.945599973         6.66868582E-05
  0.947399974         6.90914167E-05
  0.949199975         7.10630557E-05
  0.950999975         7.25895225E-05
  0.952799976         7.36611546E-05
  0.954599977         7.42708944E-05
  0.956399977         7.44144054E-05
  0.958199978         7.40900578E-05
  0.959999979         7.32990302E-05
  0.961799979         7.20452663E-05
  0.963599980         7.03354963E-05
  0.965399981         6.81792226E-05
  0.967199981         6.55886761E-05
  0.968999982         6.25787579E-05
  0.970799983         5.91669959E-05
  0.972599983         5.53734353E-05
  0.974399984         5.12205515E-05
  0.976199985         4.67331192E-05
  0.977999985         4.19381031E-05
  0.979799986         3.68645051E-05
  0.981599987         3.15431898E-05
  0.983399987         2.60067372E-05
  0.985199988         2.02892370E-05
  0.986999989         1.44261157E-05
  0.988799989         8.45392151E-06
  0.990599990         2.41011116E-06
  0.992399991        -3.66715562E-06
  0.994199991        -9.73925489E-06
  0.995999992        -1.57673221E-05
  0.997799993        -2.17124816E-05
  0.999599993        -2.75360908E-05
   1.00139999        -3.31999727E-05
   1.00320005        -3.86666507E-05
   1.00500000        -4.38995812E-05
   1.00680006        -4.88633850E-05
   1.00860000        -5.35240833E-05
   1.01040006        -5.78493091E-05
   1.01220000        -6.18085178E-05
   1.01400006        -6.53731913E-05
   1.01580000        -6.85170380E-05
   1.01760006        -7.12161636E-05
   1.01940000        -7.34492642E-05
   1.02119994        -7.51977495E-05
   1.02300000        -7.64459110E-05
   1.02479994        -7.71810082E-05
   1.02660000        -7.73934298E-05
   1.02839994        -7.70767365E-05
   1.03020000        -7.62277487E-05
   1.03199995        -7.48466264E-05
   1.03380001        -7.29368185E-05
   1.03559995        -7.05051498E-05
   1.03740001        -6.75617630E-05
   1.03919995        -6.41201332E-05
   1.04100001        -6.01969405E-05
   1.04279995        -5.58120773E-05
   1.04460001        -5.09884885E-05
   1.04639995        -4.57520800E-05
   1.04820001        -4.01315956E-05
   1.04999995        -3.41584273E-05
   1.05180001        -2.78664684E-05
   1.05359995        -2.12918912E-05
   1.05540001        -1.44729665E-05
   1.05719995        -7.44981116E-06
   1.05900002        -2.64161827E-07
   1.06079996         7.04088188E-06
   1.06260002         1.44211326E-05
   1.06439996         2.18315890E-05
   1.06620002         2.92267141E-05
   1.06799996         3.65607302E-05
   1.06980002         4.37879207E-05
   1.07159996         5.08629200E-05
   1.07340002         5.77410174E-05
   1.07519996         6.43784588E-05
   1.07700002         7.07327126E-05
   1.07879996         7.67628007E-05
   1.08060002         8.24295494E-05
   1.08239996         8.76958584E-05
   1.08420002         9.25269560E-05
   1.08599997         9.68906679E-05
   1.08780003         1.00757607E-04
   1.08959997         1.04101418E-04
   1.09140003         1.06898944E-04
   1.09319997         1.09130393E-04
   1.09500003         1.10779511E-04
   1.09679997         1.11833688E-04
   1.09860003         1.12284069E-04
   1.10039997         1.12125599E-04
   1.10220003         1.11357127E-04
   1.10399997         1.09981367E-04
   1.10580003         1.08004941E-04
   1.10759997         1.05438303E-04
   1.10940003         1.02295729E-04
   1.11119998         9.85951920E-05
   1.11300004         9.43582636E-05
   1.11479998         8.96099737E-05
   1.11660004         8.43786402E-05
   1.11839998         7.86957098E-05
   1.12020004         7.25955251E-05
   1.12199998         6.61150698E-05
   1.12380004         5.92937940E-05
   1.12559998         5.21732727E-05
   1.12740004         4.47969651E-05
   1.12919998         3.72099239E-05
   1.13100004         2.94584497E-05
   1.13279998         2.15898253E-05
   1.13460004         1.36519793E-05
   1.13639998         5.69314170E-06
   1.13820004        -2.23846109E-06
   1.13999999        -1.00949301E-05
   1.14180005        -1.78290247E-05
   1.14359999        -2.53944709E-05
   1.14540005        -3.27462767E-05
   1.14719999        -3.98410230E-05
   1.14900005        -4.66371530E-05
   1.15079999        -5.30952348E-05
   1.15260005        -5.91782300E-05
   1.15439999        -6.48517234E-05
   1.15620005        -7.00841338E-05