 -0.300000012         1.00000002E-24
 -0.298200011         1.00000002E-24
 -0.296400011         1.00000002E-24
 -0.294600010         1.00000002E-24
 -0.292800009         1.00000002E-24
 -0.291000009         1.00000002E-24
 -0.289200008         1.00000002E-24
 -0.287400007         1.00000012E-24
 -0.285600007         1.00000032E-24
 -0.283800006         1.00000140E-24
 -0.282000005         1.00000988E-24
 -0.280200005         1.00005682E-24
 -0.278400004         1.00025886E-24
 -0.276600003         1.00098205E-24
 -0.274800003         1.00321384E-24
 -0.273000002         1.00929694E-24
 -0.271200001         1.02417299E-24
 -0.269400001         1.05712952E-24
 -0.267600000         1.12355782E-24
 -0.265799999         1.24515117E-24
 -0.263999999         1.44493571E-24
 -0.262199998         1.73013230E-24
 -0.260399997         2.05070052E-24
 -0.258599997         2.21427359E-24
 -0.256799996         1.72912611E-24
 -0.254999995        -4.63549410E-25
 -0.253199995        -6.41710855E-24
 -0.251399994        -1.98236028E-23
 -0.249599993        -4.69335919E-23
 -0.247799993        -9.78020789E-23
 -0.246000007        -1.87886523E-22
 -0.244200006        -3.39975649E-22
 -0.242400005        -5.86352258E-22
 -0.240600005        -9.70983115E-22
 -0.238800004        -1.55138168E-21
 -0.237000003        -2.39960289E-21
 -0.235200003        -3.60161386E-21
 -0.233400002        -5.25403921E-21
 -0.231600001        -7.45704130E-21
 -0.229800001        -1.03018746E-20
 -0.228000000        -1.38514948E-20
 -0.226199999        -1.81125638E-20
 -0.224399999        -2.29972786E-20
 -0.222599998        -2.82738411E-20
 -0.220799997        -3.35049281E-20
 -0.218999997        -3.79745404E-20
 -0.217199996        -4.06049133E-20
 -0.215399995        -3.98669131E-20
 -0.213599995        -3.36895445E-20
 -0.211799994        -1.93766542E-20
 -0.209999993         6.45822798E-21
 -0.208199993         4.79250094E-20
 -0.206400007         1.09841249E-19
 -0.204600006         1.97648138E-19
 -0.202800006         3.17236509E-19
 -0.201000005         4.74660586E-19
 -0.199200004         6.75717070E-19
 -0.197400004         9.25369226E-19
 -0.195600003         1.22700043E-18
 -0.193800002         1.58148920E-18
 -0.192000002         1.98610511E-18
 -0.190200001         2.43324359E-18
 -0.188400000         2.90903023E-18
 -0.186600000         3.39184666E-18
 -0.184799999         3.85086076E-18
 -0.182999998         4.24465994E-18
 -0.181199998         4.52012473E-18
 -0.179399997         4.61171141E-18
 -0.177599996         4.44133289E-18
 -0.175799996         3.91906552E-18
 -0.173999995         2.94492656E-18
 -0.172199994         1.41198262E-18
 -0.170399994        -7.88941035E-19
 -0.168599993        -3.76270150E-18
 -0.166800007        -7.60118847E-18
 -0.165000007        -1.23724159E-17
 -0.163200006        -1.81072218E-17
 -0.161400005        -2.47835901E-17
 -0.159600005        -3.23086821E-17
 -0.157800004        -4.04988521E-17
 -0.156000003        -4.90580936E-17
 -0.154200003        -5.75555976E-17
 -0.152400002        -6.54032652E-17
 -0.150600001        -7.18343893E-17
 -0.148800001        -7.58848082E-17
 -0.147000000        -7.63783240E-17
 -0.145199999        -7.19181993E-17
 -0.143399999        -6.08868789E-17
 -0.141599998        -4.14562409E-17
 -0.139799997        -1.16108174E-17
 -0.137999997         3.08136590E-17
 -0.136199996         8.80739829E-17
 -0.134399995         1.62443529E-16
 -0.132599995         2.56114652E-16
 -0.130799994         3.71078623E-16
 -0.128999993         5.08982045E-16
 -0.127200007         6.70961056E-16
 -0.125400007         8.57454099E-16
 -0.123599999         1.06799610E-15
 -0.121799998         1.30099888E-15
 -0.119999997         1.55352312E-15
 -0.118199997         1.82104863E-15
 -0.116400003         2.09725379E-15
 -0.114600003         2.37381111E-15
 -0.112800002         2.64021631E-15
 -0.111000001         2.88365781E-15
 -0.109200001         3.08894747E-15
 -0.107400000         3.23852163E-15
 -0.105599999         3.31253177E-15
 -0.103799999         3.28903529E-15
 -0.101999998         3.14430573E-15
 -0.100199997         2.85326691E-15
  -9.83999968E-02     2.39006355E-15
  -9.66000035E-02     1.72877529E-15
  -9.48000029E-02     8.44267438E-16
  -9.30000022E-02    -2.86820205E-16
  -9.12000015E-02    -1.68496273E-15
  -8.94000009E-02    -3.36653118E-15
  -8.76000002E-02    -5.34250531E-15
  -8.57999995E-02    -7.61713775E-15
  -8.39999989E-02    -1.01866291E-14
  -8.21999982E-02    -1.30378513E-14
  -8.03999975E-02    -1.61472042E-14
  -7.85999969E-02    -1.94796351E-14
  -7.68000036E-02    -2.29879558E-14
  -7.50000030E-02    -2.66124471E-14
  -7.32000023E-02    -3.02809366E-14
  -7.14000016E-02    -3.39093208E-14
  -6.96000010E-02    -3.74026778E-14
  -6.78000003E-02    -4.06570123E-14
  -6.59999996E-02    -4.35616678E-14
  -6.41999990E-02    -4.60024915E-14
  -6.23999983E-02    -4.78656963E-14
  -6.06000014E-02    -4.90424928E-14
  -5.88000007E-02    -4.94344081E-14
  -5.70000000E-02    -4.89592531E-14
  -5.51999994E-02    -4.75576237E-14
  -5.33999987E-02    -4.51998126E-14
  -5.16000018E-02    -4.18929722E-14
  -4.98000011E-02    -3.76883041E-14
  -4.80000004E-02    -3.26880247E-14
  -4.61999997E-02    -2.70518369E-14
  -4.43999991E-02    -2.10025766E-14
  -4.25999984E-02    -1.48306931E-14
  -4.08000015E-02    -8.89720697E-15
  -3.90000008E-02    -3.63474713E-15
  -3.72000001E-02     4.53719022E-16
  -3.53999995E-02     2.79877939E-15
  -3.35999988E-02     2.77156274E-15
  -3.18000019E-02    -3.06073079E-16
  -2.99999993E-02    -7.14770362E-15
  -2.82000005E-02    -1.84848593E-14
  -2.63999999E-02    -3.50455715E-14
  -2.45999992E-02    -5.75293800E-14
  -2.28000004E-02    -8.65783953E-14
  -2.09999997E-02    -1.22745130E-13
  -1.92000009E-02    -1.66457248E-13
  -1.74000002E-02    -2.17979755E-13
  -1.55999996E-02    -2.77375480E-13
  -1.37999998E-02    -3.44464474E-13
  -1.20000001E-02    -4.18782955E-13
  -1.02000004E-02    -4.99543983E-13
  -8.39999970E-03    -5.85598844E-13
  -6.59999996E-03    -6.75402822E-13
  -4.80000023E-03    -7.66984891E-13
  -3.00000003E-03    -8.57923216E-13
  -1.20000006E-03    -9.45327475E-13
   6.00000028E-04    -1.02582992E-12
   2.40000011E-03    -1.09558521E-12
   4.19999985E-03    -1.15028104E-12
   6.00000005E-03    -1.18515961E-12
   7.79999979E-03    -1.19505111E-12
   9.60000046E-03    -1.17441994E-12
   1.14000002E-02    -1.11742245E-12
   1.31999999E-02    -1.01797683E-12
   1.49999997E-02    -8.69844181E-13
   1.67999994E-02    -6.66722916E-13
   1.86000001E-02    -4.02347589E-13
   2.04000007E-02    -7.06007857E-14
   2.21999995E-02     3.34373507E-13
   2.40000002E-02     8.18049892E-13
   2.58000009E-02     1.38540102E-12
   2.75999997E-02     2.04077922E-12
   2.94000003E-02     2.78780102E-12
   3.11999992E-02     3.62923775E-12
   3.29999998E-02     4.56691672E-12
   3.48000005E-02     5.60163027E-12
   3.66000012E-02     6.73306896E-12
   3.84000018E-02     7.95975005E-12
   4.01999988E-02     9.27898557E-12
   4.19999994E-02     1.06868585E-11
   4.38000001E-02     1.21782081E-11
   4.56000008E-02     1.37466557E-11
   4.74000014E-02     1.53846259E-11
   4.91999984E-02     1.70834076E-11
   5.09999990E-02     1.88332076E-11
   5.27999997E-02     2.06232410E-11
   5.46000004E-02     2.24418106E-11
   5.64000010E-02     2.42764107E-11
   5.82000017E-02     2.61138229E-11
   5.99999987E-02     2.79402074E-11
   6.17999993E-02     2.97412164E-11
   6.36000037E-02     3.15020579E-11
   6.53999969E-02     3.32075825E-11
   6.71999976E-02     3.48423235E-11
   6.89999983E-02     3.63905260E-11
   7.07999989E-02     3.78361752E-11
   7.25999996E-02     3.91629680E-11
   7.44000003E-02     4.03542512E-11
   7.62000009E-02     4.13929828E-11
   7.80000016E-02     4.22616074E-11
   7.98000023E-02     4.29419798E-11
   8.16000029E-02     4.34152020E-11
   8.34000036E-02     4.36614946E-11
   8.51999968E-02     4.36600547E-11
   8.69999975E-02     4.33889313E-11
   8.87999982E-02     4.28248999E-11
   9.05999988E-02     4.19433759E-11
   9.23999995E-02     4.07183662E-11
   9.42000002E-02     3.91224657E-11
   9.60000008E-02     3.71269335E-11
   9.78000015E-02     3.47018317E-11
   9.96000022E-02     3.18162233E-11
  0.101400003         2.84385102E-11
  0.103200004         2.45368222E-11
  0.104999997         2.00795283E-11
  0.106799997         1.50358424E-11
  0.108599998         9.37652560E-12
  0.110399999         3.07466899E-12
  0.112199999        -3.89343982E-12
  0.114000000        -1.15473985E-11
  0.115800001        -1.99017504E-11
  0.117600001        -2.89650092E-11
  0.119400002        -3.87387344E-11
  0.121200003        -4.92166516E-11
  0.123000003        -6.03838715E-11
  0.124799997        -7.22163024E-11
  0.126599997        -8.46801657E-11
  0.128399998        -9.77318435E-11
  0.130199999        -1.11317976E-10
  0.131999999        -1.25375862E-10
  0.133800000        -1.39834269E-10
  0.135600001        -1.54614641E-10
  0.137400001        -1.69632863E-10
  0.139200002        -1.84801285E-10
  0.141000003        -2.00031450E-10
  0.142800003        -2.15237134E-10
  0.144600004        -2.30338276E-10
  0.146400005        -2.45264781E-10
  0.148200005        -2.59961441E-10
  0.150000006        -2.74392592E-10
  0.151800007        -2.88547769E-10
  0.153600007        -3.02446956E-10
  0.155399993        -3.16146637E-10
  0.157199994        -3.29745120E-10
  0.158999994        -3.43388706E-10
  0.160799995        -3.57276458E-10
  0.162599996        -3.71665726E-10
  0.164399996        -3.86875865E-10
  0.166199997        -4.03292011E-10
  0.167999998        -4.21367247E-10
  0.169799998        -4.41623849E-10
  0.171599999        -4.64652899E-10
  0.173400000        -4.91112206E-10
  0.175200000        -5.21722165E-10
  0.177000001        -5.57259683E-10
  0.178800002        -5.98549765E-10
  0.180600002        -6.46454390E-10
  0.182400003        -7.01859182E-10
  0.184200004        -7.65656871E-10
  0.186000004        -8.38728142E-10
  0.187800005        -9.21919818E-10
  0.189600006        -1.01601993E-09
  0.191400006        -1.12173026E-09
  0.193200007        -1.23963650E-09
  0.194999993        -1.37017508E-09
  0.196799994        -1.51359925E-09
  0.198599994        -1.66994207E-09
  0.200399995        -1.83897952E-09
  0.202199996        -2.02019090E-09
  0.203999996        -2.21272045E-09
  0.205799997        -2.41533904E-09
  0.207599998        -2.62640576E-09
  0.209399998        -2.84383250E-09
  0.211199999        -3.06505177E-09
  0.213000000        -3.28698579E-09
  0.214800000        -3.50602258E-09
  0.216600001        -3.71799613E-09
  0.218400002        -3.91817334E-09
  0.220200002        -4.10124823E-09
  0.222000003        -4.26134594E-09
  0.223800004        -4.39203385E-09
  0.225600004        -4.48634641E-09
  0.227400005        -4.53681759E-09
  0.229200006        -4.53552884E-09
  0.231000006        -4.47416726E-09
  0.232800007        -4.34409930E-09
  0.234599993        -4.13645740E-09
  0.236399993        -3.84224119E-09
  0.238199994        -3.45243034E-09
  0.239999995        -2.95811686E-09
  0.241799995        -2.35064634E-09
  0.243599996        -1.62177483E-09
  0.245399997        -7.63836161E-10
  0.247199997         2.30077610E-10
  0.248999998         1.36592637E-09
  0.250800014         2.64852695E-09
  0.252600014         4.08134948E-09
  0.254400015         5.66630920E-09
  0.256199986         7.40356398E-09
  0.257999986         9.29130461E-09
  0.259799987         1.13255609E-08
  0.261599988         1.35000029E-08
  0.263399988         1.58057745E-08
  0.265199989         1.82313169E-08
  0.266999990         2.07622470E-08
  0.268799990         2.33812205E-08
  0.270599991         2.60678572E-08
  0.272399992         2.87986808E-08
  0.274199992         3.15470956E-08
  0.275999993         3.42834312E-08
  0.277799994         3.69749635E-08
  0.279599994         3.95860802E-08
  0.281399995         4.20784083E-08
  0.283199996         4.44110384E-08
  0.284999996         4.65408156E-08
  0.286799997         4.84226419E-08
  0.288599998         5.00098629E-08
  0.290399998         5.12547338E-08
  0.292199999         5.21088808E-08
  0.294000000         5.25238697E-08
  0.295800000         5.24518171E-08
  0.297600001         5.18460048E-08
  0.299400002         5.06615976E-08
  0.301200002         4.88563572E-08
  0.303000003         4.63913956E-08
  0.304800004         4.32319602E-08
  0.306600004         3.93482118E-08
  0.308400005         3.47160309E-08
  0.310200006         2.93177731E-08
  0.312000006         2.31430697E-08
  0.313800007         1.61895564E-08
  0.315600008         8.46354897E-09
  0.317400008        -1.93058555E-11
  0.319200009        -9.23345311E-09
  0.321000010        -1.91429539E-08
  0.322800010        -2.97010825E-08
  0.324600011        -4.08500362E-08
  0.326400012        -5.25207717E-08
  0.328200012        -6.46329639E-08
  0.330000013        -7.70950948E-08
  0.331800014        -8.98046935E-08
  0.333600014        -1.02648769E-07
  0.335399985        -1.15504314E-07
  0.337199986        -1.28239094E-07
  0.338999987        -1.40712515E-07
  0.340799987        -1.52776664E-07
  0.342599988        -1.64277594E-07
  0.344399989        -1.75056655E-07
  0.346199989        -1.84952057E-07
  0.347999990        -1.93800517E-07
  0.349799991        -2.01439150E-07
  0.351599991        -2.07707302E-07
  0.353399992        -2.12448654E-07
  0.355199993        -2.15513296E-07
  0.356999993        -2.16759830E-07
  0.358799994        -2.16057671E-07
  0.360599995        -2.13289184E-07
  0.362399995        -2.08351793E-07
  0.364199996        -2.01160276E-07
  0.365999997        -1.91648624E-07
  0.367799997        -1.79772115E-07
  0.369599998        -1.65509022E-07
  0.371399999        -1.48862256E-07
  0.373199999        -1.29860823E-07
  0.375000000        -1.08560918E-07
  0.376800001        -8.50469206E-08
  0.378600001        -5.94320255E-08
  0.380400002        -3.18585265E-08
  0.382200003        -2.49786281E-09
  0.384000003         2.84497350E-08
  0.385800004         6.07559585E-08
  0.387600005         9.41654861E-08
  0.389400005         1.28397417E-07
  0.391200006         1.63147121E-07
  0.393000007         1.98088429E-07
  0.394800007         2.32876175E-07
  0.396600008         2.67149034E-07
  0.398400009         3.00532918E-07
  0.400200009         3.32644419E-07
  0.402000010         3.63094614E-07
  0.403800011         3.91493160E-07
  0.405600011         4.17452554E-07
  0.407400012         4.40592515E-07
  0.409200013         4.60544669E-07
  0.411000013         4.76957041E-07
  0.412800014         4.89498518E-07
  0.414600015         4.97863937E-07
  0.416399986         5.01778118E-07
  0.418199986         5.01000443E-07
  0.419999987         4.95328834E-07
  0.421799988         4.84603959E-07
  0.423599988         4.68712216E-07
  0.425399989         4.47589656E-07
  0.427199990         4.21224115E-07
  0.428999990         3.89657743E-07
  0.430799991         3.52988877E-07
  0.432599992         3.11373128E-07
  0.434399992         2.65024084E-07
  0.436199993         2.14213344E-07
  0.437999994         1.59269888E-07
  0.439799994         1.00578880E-07
  0.441599995         3.85797314E-08
  0.443399996        -2.62364015E-08
  0.445199996        -9.33298381E-08
  0.446999997        -1.62116194E-07
  0.448799998        -2.31970731E-07
  0.450599998        -3.02233474E-07
  0.452399999        -3.72214629E-07
  0.454200000        -4.41200598E-07
  0.456000000        -5.08460573E-07
  0.457800001        -5.73253089E-07
  0.459600002        -6.34833384E-07
  0.461400002        -6.92460674E-07
  0.463200003        -7.45405998E-07
  0.465000004        -7.92959383E-07
  0.466800004        -8.34438026E-07
  0.468600005        -8.69193684E-07
  0.470400006        -8.96620065E-07
  0.472200006        -9.16160616E-07
  0.474000007        -9.27314943E-07
  0.475800008        -9.29645807E-07
  0.477600008        -9.22785262E-07
  0.479400009        -9.06440562E-07
  0.481200010        -8.80398943E-07
  0.483000010        -8.44532337E-07
  0.484800011        -7.98801068E-07
  0.486600012        -7.43257203E-07
  0.488400012        -6.78046604E-07
  0.490200013        -6.03410399E-07
  0.492000014        -5.19685955E-07
  0.493800014        -4.27306475E-07
  0.495599985        -3.26799949E-07
  0.497399986        -2.18787278E-07
  0.499199986        -1.03979602E-07
  0.500999987         1.68254299E-08
  0.502799988         1.42748092E-07
  0.504599988         2.72831898E-07
  0.506399989         4.06049452E-07
  0.508199990         5.41309305E-07
  0.509999990         6.77463561E-07
  0.511799991         8.13315694E-07
  0.513599992         9.47629587E-07
  0.515399992         1.07913831E-06
  0.517199993         1.20655432E-06
  0.518999994         1.32857906E-06
  0.520799994         1.44391367E-06
  0.522599995         1.55126929E-06
  0.524399996         1.64937831E-06
  0.526199996         1.73700516E-06
  0.527999997         1.81295729E-06
  0.529799998         1.87609589E-06
  0.531599998         1.92534731E-06
  0.533399999         1.95971302E-06
  0.535200000         1.97828058E-06
  0.537000000         1.98023349E-06
  0.538800001         1.96486053E-06
  0.540600002         1.93156507E-06
  0.542400002         1.87987393E-06
  0.544200003         1.80944551E-06
  0.546000004         1.72007674E-06
  0.547800004         1.61170999E-06
  0.549600005         1.48443803E-06
  0.551400006         1.33851029E-06
  0.553200006         1.17433524E-06
  0.555000007         9.92484502E-07
  0.556800008         7.93694085E-07
  0.558600008         5.78865411E-07
  0.560400009         3.49064948E-07
  0.562200010         1.05522517E-07
  0.564000010        -1.50371321E-07
  0.565800011        -4.17069515E-07
  0.567600012        -6.92873755E-07
  0.569400012        -9.75941248E-07
  0.571200013        -1.26429268E-06
  0.573000014        -1.55582154E-06
  0.574800014        -1.84830560E-06
  0.576600015        -2.13941803E-06
  0.578400016        -2.42674105E-06
  0.580200016        -2.70778196E-06
  0.582000017        -2.97998736E-06
  0.583800018        -3.24076200E-06
  0.585600019        -3.48748586E-06
  0.587400019        -3.71753504E-06
  0.589200020        -3.92830179E-06
  0.591000021        -4.11721567E-06
  0.592800021        -4.28176463E-06
  0.594600022        -4.41952034E-06
  0.596400023        -4.52815993E-06
  0.598200023        -4.60549109E-06
  0.600000024        -4.64947243E-06
  0.601800025        -4.65824087E-06
  0.603600025        -4.63013339E-06
  0.605400026        -4.56371072E-06
  0.607200027        -4.45777914E-06
  0.609000027        -4.31141143E-06
  0.610800028        -4.12397003E-06
  0.612600029        -3.89512161E-06
  0.614400029        -3.62485775E-06
  0.616199970        -3.31350793E-06
  0.617999971        -2.96175472E-06
  0.619799972        -2.57064289E-06
  0.621599972        -2.14158922E-06
  0.623399973        -1.67638575E-06
  0.625199974        -1.17720447E-06
  0.626999974        -6.46594856E-07
  0.628799975        -8.74803376E-08
  0.630599976         4.96849395E-07
  0.632399976         1.10274993E-06
  0.634199977         1.72623743E-06
  0.635999978         2.36300616E-06
  0.637799978         3.00845250E-06
  0.639599979         3.65770029E-06
  0.641399980         4.30563159E-06
  0.643199980         4.94691949E-06
  0.644999981         5.57606381E-06
  0.646799982         6.18743570E-06
  0.648599982         6.77531580E-06
  0.650399983         7.33394381E-06
  0.652199984         7.85756492E-06
  0.653999984         8.34048205E-06
  0.655799985         8.77710409E-06
  0.657599986         9.16200497E-06
  0.659399986         9.48997513E-06
  0.661199987         9.75607236E-06
  0.662999988         9.95568735E-06
  0.664799988         1.00845837E-05
  0.666599989         1.01389587E-05
  0.668399990         1.01154947E-05
  0.670199990         1.00114021E-05
  0.671999991         9.82446909E-06
  0.673799992         9.55310225E-06
  0.675599992         9.19636295E-06
  0.677399993         8.75400110E-06
  0.679199994         8.22648781E-06
  0.680999994         7.61502906E-06
  0.682799995         6.92159119E-06
  0.684599996         6.14890632E-06
  0.686399996         5.30047646E-06
  0.688199997         4.38057259E-06
  0.689999998         3.39422240E-06
  0.691799998         2.34719164E-06
  0.693599999         1.24596113E-06
  0.695400000         9.76929257E-08
  0.697200000        -1.08980919E-06
  0.699000001        -2.30814703E-06
  0.700800002        -3.54838244E-06
  0.702600002        -4.80109838E-06
  0.704400003        -6.05646301E-06
  0.706200004        -7.30430838E-06
  0.708000004        -8.53420624E-06
  0.709800005        -9.73554688E-06
  0.711600006        -1.08976337E-05
  0.713400006        -1.20097693E-05
  0.715200007        -1.30613507E-05
  0.717000008        -1.40419634E-05
  0.718800008        -1.49414764E-05
  0.720600009        -1.57501436E-05
  0.722400010        -1.64586909E-05
  0.724200010        -1.70584208E-05
  0.726000011        -1.75412915E-05
  0.727800012        -1.79000144E-05
  0.729600012        -1.81281284E-05
  0.731400013        -1.82200856E-05
  0.733200014        -1.81713149E-05
  0.735000014        -1.79782910E-05
  0.736800015        -1.76385820E-05
  0.738600016        -1.71509128E-05
  0.740400016        -1.65151887E-05
  0.742200017        -1.57325321E-05
  0.744000018        -1.48052932E-05
  0.745800018        -1.37370671E-05
  0.747600019        -1.25326851E-05
  0.749400020        -1.11981972E-05
  0.751200020        -9.74085378E-06
  0.753000021        -8.16906049E-06
  0.754800022        -6.49233607E-06
  0.756600022        -4.72125112E-06
  0.758400023        -2.86735826E-06
  0.760200024        -9.43114856E-07
  0.762000024         1.03820730E-06
  0.763800025         3.06261904E-06
  0.765600026         5.11552207E-06
  0.767400026         7.18181809E-06
  0.769200027         9.24603228E-06
  0.771000028         1.12924326E-05
  0.772800028         1.33051690E-05
  0.774600029         1.52683915E-05
  0.776400030         1.71663978E-05
  0.778199971         1.89837629E-05
  0.779999971         2.07054727E-05
  0.781799972         2.23170573E-05
  0.783599973         2.38047232E-05
  0.785399973         2.51554757E-05
  0.787199974         2.63572510E-05
  0.788999975         2.73990172E-05
  0.790799975         2.82708897E-05
  0.792599976         2.89642248E-05
  0.794399977         2.94717120E-05
  0.796199977         2.97874540E-05
  0.797999978         2.99070325E-05
  0.799799979         2.98275536E-05
  0.801599979         2.95477075E-05
  0.803399980         2.90677945E-05
  0.805199981         2.83897261E-05
  0.806999981         2.75170441E-05
  0.808799982         2.64548962E-05
  0.810599983         2.52100162E-05
  0.812399983         2.37906825E-05
  0.814199984         2.22066610E-05
  0.815999985         2.04691351E-05
  0.817799985         1.85906265E-05
  0.819599986         1.65849106E-05
  0.821399987         1.44668857E-05
  0.823199987         1.22524798E-05
  0.824999988         9.95850860E-06
  0.826799989         7.60254579E-06
  0.828599989         5.20276944E-06
  0.830399990         2.77781623E-06
  0.832199991         3.46616901E-07
  0.833999991        -2.07176413E-06
  0.835799992        -4.45829755E-06
  0.837599993        -6.79415962E-06
  0.839399993        -9.06089917E-06
  0.841199994        -1.12406133E-05
  0.842999995        -1.33161066E-05
  0.844799995        -1.52710618E-05
  0.846599996        -1.70901967E-05
  0.848399997        -1.87594160E-05
  0.850199997        -2.02659521E-05
  0.851999998        -2.15985056E-05
  0.853799999        -2.27473720E-05
  0.855599999        -2.37045460E-05
  0.857400000        -2.44638322E-05
  0.859200001        -2.50209287E-05
  0.861000001        -2.53734997E-05
  0.862800002        -2.55212290E-05
  0.864600003        -2.54658644E-05
  0.866400003        -2.52112477E-05
  0.868200004        -2.47633088E-05
  0.870000005        -2.41300622E-05
  0.871800005        -2.33215742E-05
  0.873600006        -2.23499228E-05
  0.875400007        -2.12291216E-05
  0.877200007        -1.99750448E-05
  0.879000008        -1.86053257E-05
  0.880800009        -1.71392367E-05
  0.882600009        -1.55975540E-05
  0.884400010        -1.40024167E-05
  0.886200011        -1.23771479E-05
  0.888000011        -1.07460874E-05
  0.889800012        -9.13439908E-06
  0.891600013        -7.56786267E-06
  0.893400013        -6.07266793E-06
  0.895200014        -4.67519112E-06
  0.897000015        -3.40176553E-06
  0.898800015        -2.27845362E-06
  0.900600016        -1.33080448E-06
  0.902400017        -5.83620476E-07
  0.904200017        -6.07167934E-08
  0.906000018         2.15313193E-07
  0.907800019         2.23330389E-07
  0.909600019        -5.61258311E-08
  0.911400020        -6.40618055E-07
  0.913200021        -1.54560496E-06
  0.915000021        -2.78424545E-06
  0.916800022        -4.36721439E-06
  0.918600023        -6.30253817E-06
  0.920400023        -8.59544252E-06
  0.922200024        -1.12482248E-05
  0.924000025        -1.42601366E-05
  0.925800025        -1.76273043E-05
  0.927600026        -2.13426483E-05
  0.929400027        -2.53958515E-05
  0.931200027        -2.97733422E-05
  0.933000028        -3.44582913E-05
  0.934800029        -3.94306444E-05
  0.936600029        -4.46671947E-05
  0.938399971        -5.01416544E-05
  0.940199971        -5.58247702E-05
  0.941999972        -6.16844700E-05
  0.943799973        -6.76860145E-05
  0.945599973        -7.37921655E-05
  0.947399974        -7.99634436E-05
  0.949199975        -8.61583321E-05
  0.950999975        -9.23335247E-05
  0.952799976        -9.84442231E-05
  0.954599977        -1.04444422E-04
  0.956399977        -1.10287197E-04
  0.958199978        -1.15925053E-04
  0.959999979        -1.21310259E-04
  0.961799979        -1.26395171E-04
  0.963599980        -1.31132590E-04
  0.965399981        -1.35476133E-04
  0.967199981        -1.39380601E-04
  0.968999982        -1.42802295E-04
  0.970799983        -1.45699378E-04
  0.972599983        -1.48032224E-04
  0.974399984        -1.49763830E-04
  0.976199985        -1.50859982E-04
  0.977999985        -1.51289729E-04
  0.979799986        -1.51025612E-04
  0.981599987        -1.50043881E-04
  0.983399987        -1.48324805E-04
  0.985199988        -1.45852944E-04
  0.986999989        -1.42617268E-04
  0.988799989        -1.38611358E-04
  0.990599990        -1.33833571E-04
  0.992399991        -1.28287153E-04
  0.994199991        -1.21980265E-04
  0.995999992        -1.14926086E-04
  0.997799993        -1.07142812E-04
  0.999599993        -9.86536106E-05
   1.00139999        -8.94865661E-05
   1.00320005        -7.96745953E-05
   1.00500000        -6.92552931E-05
   1.00680006        -5.82707908E-05
   1.00860000        -4.67675418E-05
   1.01040006        -3.47960886E-05
   1.01220000        -2.24107898E-05
   1.01400006        -9.66953303E-06
   1.01580000         3.36659878E-06
   1.01760006         1.66336758E-05
   1.01940000         3.00652991E-05
   1.02119994         4.35930015E-05
   1.02300000         5.71466662E-05
   1.02479994         7.06549617E-05
   1.02660000         8.40457869E-05
   1.02839994         9.72467533E-05
   1.03020000         1.10185625E-04
   1.03199995         1.22790807E-04
   1.03380001         1.34991817E-04
   1.03559995         1.46719758E-04
   1.03740001         1.57907751E-04
   1.03919995         1.68491446E-04
   1.04100001         1.78409493E-04
   1.04279995         1.87603815E-04
   1.04460001         1.96020192E-04
   1.04639995         2.03608564E-04
   1.04820001         2.10323429E-04
   1.04999995         2.16124143E-04
   1.05180001         2.20975213E-04
   1.05359995         2.24846677E-04
   1.05540001         2.27714219E-04
   1.05719995         2.29559446E-04
   1.05900002         2.30370046E-04
   1.06079996         2.30139893E-04
   1.06260002         2.28869161E-04
   1.06439996         2.26564298E-04
   1.06620002         2.23238167E-04
   1.06799996         2.18909816E-04
   1.06980002         2.13604595E-04
   1.07159996         2.07353864E-04
   1.07340002         2.00194918E-04
   1.07519996         1.92170759E-04
   1.07700002         1.83329830E-04
   1.07879996         1.73725755E-04
   1.08060002         1.63416975E-04
   1.08239996         1.52466499E-04
   1.08420002         1.40941396E-04
   1.08599997         1.28912405E-04
   1.08780003         1.16453557E-04
   1.08959997         1.03641600E-04
   1.09140003         9.05556299E-05
   1.09319997         7.72764688E-05
   1.09500003         6.38862257E-05
   1.09679997         5.04677337E-05
   1.09860003         3.71039969E-05
   1.10039997         2.38776865E-05
   1.10220003         1.08705726E-05
   1.10399997        -1.83700058E-06
   1.10580003        -1.41666487E-05
   1.10759997        -2.60424640E-05
   1.10940003        -3.73915136E-05
   1.11119998        -4.81443312E-05
   1.11300004        -5.82353678E-05
   1.11479998        -6.76034324E-05
   1.11660004        -7.61921037E-05
   1.11839998        -8.39500935E-05
   1.12020004        -9.08316215E-05
   1.12199998        -9.67966625E-05
   1.12380004        -1.01811282E-04
   1.12559998        -1.05847823E-04
   1.12740004        -1.08885084E-04
   1.12919998        -1.10908484E-04
   1.13100004        -1.11910151E-04
   1.13279998        -1.11888963E-04
   1.13460004        -1.10850553E-04
   1.13639998        -1.08807304E-04
   1.13820004        -1.05778214E-04
   1.13999999        -1.01788799E-04
   1.14180005        -9.68709064E-05
   1.14359999        -9.10625095E-05
   1.14540005        -8.44074602E-05
   1.14719999        -7.69551480E-05
   1.14900005        -6.87602296E-05
   1.15079999        -5.98822080E-05
   1.15260005        -5.03850388E-05
   1.15439999        -4.03367376E-05
   1.15620005        -2.98088889E-05