 -0.300000012         1.00000002E-24
 -0.298200011         1.00000002E-24
 -0.296400011         1.00000002E-24
 -0.294600010         1.00000002E-24
 -0.292800009         1.00000002E-24
 -0.291000009         1.00000002E-24
 -0.289200008         1.00000002E-24
 -0.287400007         1.00000002E-24
 -0.285600007         1.00000002E-24
 -0.283800006         1.00000002E-24
 -0.282000005         1.00000012E-24
 -0.280200005         1.00000022E-24
 -0.278400004         1.00000022E-24
 -0.276600003         1.00000022E-24
 -0.274800003         1.00000022E-24
 -0.273000002         1.00000022E-24
 -0.271200001         1.00000022E-24
 -0.269400001         1.00000022E-24
 -0.267600000         1.00000022E-24
 -0.265799999         1.00000022E-24
 -0.263999999         1.00000022E-24
 -0.262199998         1.00000022E-24
 -0.260399997         1.00000022E-24
 -0.258599997         1.00000022E-24
 -0.256799996         1.00000022E-24
 -0.254999995         1.00000022E-24
 -0.253199995         1.00000022E-24
 -0.251399994         1.00000022E-24
 -0.249599993         1.00000022E-24
 -0.247799993         1.00000022E-24
 -0.246000007         1.00000022E-24
 -0.244200006         1.00000022E-24
 -0.242400005         1.00000022E-24
 -0.240600005         1.00000012E-24
 -0.238800004         1.00000002E-24
 -0.237000003         1.00000002E-24
 -0.235200003         1.00000002E-24
 -0.233400002         1.00000002E-24
 -0.231600001         1.00000002E-24
 -0.229800001         1.00000012E-24
 -0.228000000         1.00000032E-24
 -0.226199999         1.00000071E-24
 -0.224399999         1.00000120E-24
 -0.222599998         1.00000209E-24
 -0.220799997         1.00000357E-24
 -0.218999997         1.00000574E-24
 -0.217199996         1.00000909E-24
 -0.215399995         1.00001422E-24
 -0.213599995         1.00002181E-24
 -0.211799994         1.00003295E-24
 -0.209999993         1.00004863E-24
 -0.208199993         1.00007023E-24
 -0.206400007         1.00009892E-24
 -0.204600006         1.00013570E-24
 -0.202800006         1.00018037E-24
 -0.201000005         1.00023096E-24
 -0.199200004         1.00028253E-24
 -0.197400004         1.00032493E-24
 -0.195600003         1.00034012E-24
 -0.193800002         1.00029870E-24
 -0.192000002         1.00015464E-24
 -0.190200001         9.99839191E-25
 -0.188400000         9.99253165E-25
 -0.186600000         9.98257327E-25
 -0.184799999         9.96661166E-25
 -0.182999998         9.94210274E-25
 -0.181199998         9.90573230E-25
 -0.179399997         9.85327897E-25
 -0.177599996         9.77949780E-25
 -0.175799996         9.67803746E-25
 -0.173999995         9.54143239E-25
 -0.172199994         9.36120134E-25
 -0.170399994         9.12812943E-25
 -0.168599993         8.83279273E-25
 -0.166800007         8.46643586E-25
 -0.165000007         8.02232739E-25
 -0.163200006         7.49773340E-25
 -0.161400005         6.89669634E-25
 -0.159600005         6.23382194E-25
 -0.157800004         5.53930338E-25
 -0.156000003         4.86543522E-25
 -0.154200003         4.29486840E-25
 -0.152400002         3.95084887E-25
 -0.150600001         4.00964292E-25
 -0.148800001         4.71527850E-25
 -0.147000000         6.39660240E-25
 -0.145199999         9.48646950E-25
 -0.143399999         1.45426133E-24
 -0.141599998         2.22693974E-24
 -0.139799997         3.35391590E-24
 -0.137999997         4.94112731E-24
 -0.136199996         7.11463474E-24
 -0.134399995         1.00211983E-23
 -0.132599995         1.38275689E-23
 -0.130799994         1.87179038E-23
 -0.128999993         2.48886278E-23
 -0.127200007         3.25398592E-23
 -0.125400007         4.18624659E-23
 -0.123599999         5.30195560E-23
 -0.121799998         6.61212230E-23
 -0.119999997         8.11911610E-23
 -0.118199997         9.81237574E-23
 -0.116400003         1.16630333E-22
 -0.114600003         1.36173245E-22
 -0.112800002         1.55886955E-22
 -0.111000001         1.74485253E-22
 -0.109200001         1.90154845E-22
 -0.107400000         2.00435962E-22
 -0.105599999         2.02091813E-22
 -0.103799999         1.90970187E-22
 -0.101999998         1.61861914E-22
 -0.100199997         1.08363071E-22
  -9.83999968E-02     2.27499675E-23
  -9.66000035E-02    -1.04121221E-22
  -9.48000029E-02    -2.82875676E-22
  -9.30000022E-02    -5.25624307E-22
  -9.12000015E-02    -8.45890121E-22
  -8.94000009E-02    -1.25843221E-21
  -8.76000002E-02    -1.77894036E-21
  -8.57999995E-02    -2.42356912E-21
  -8.39999989E-02    -3.20827978E-21
  -8.21999982E-02    -4.14795575E-21
  -8.03999975E-02    -5.25525615E-21
  -7.85999969E-02    -6.53917617E-21
  -7.68000036E-02    -8.00328100E-21
  -7.50000030E-02    -9.64359308E-21
  -7.32000023E-02    -1.14461085E-20
  -7.14000016E-02    -1.33839439E-20
  -6.96000010E-02    -1.54141133E-20
  -6.78000003E-02    -1.74739675E-20
  -6.59999996E-02    -1.94773343E-20
  -6.41999990E-02    -2.13104441E-20
  -6.23999983E-02    -2.28277179E-20
  -6.06000014E-02    -2.38475751E-20
  -5.88000007E-02    -2.41484135E-20
  -5.70000000E-02    -2.34649652E-20
  -5.51999994E-02    -2.14852829E-20
  -5.33999987E-02    -1.78486108E-20
  -5.16000018E-02    -1.21444888E-20
  -4.98000011E-02    -3.91341410E-21
  -4.80000004E-02     7.35054907E-21
  -4.61999997E-02     2.21948310E-20
  -4.43999991E-02     4.12006579E-20
  -4.25999984E-02     6.49722325E-20
  -4.08000015E-02     9.41223616E-20
  -3.90000008E-02     1.29254260E-19
  -3.72000001E-02     1.70939110E-19
  -3.53999995E-02     2.19689322E-19
  -3.35999988E-02     2.75927264E-19
  -3.18000019E-02     3.39949596E-19
  -2.99999993E-02     4.11887064E-19
  -2.82000005E-02     4.91660646E-19
  -2.63999999E-02     5.78933578E-19
  -2.45999992E-02     6.73061355E-19
  -2.28000004E-02     7.73039160E-19
  -2.09999997E-02     8.77448585E-19
  -1.92000009E-02     9.84405003E-19
  -1.74000002E-02     1.09150680E-18
  -1.55999996E-02     1.19578770E-18
  -1.37999998E-02     1.29367501E-18
  -1.20000001E-02     1.38095435E-18
  -1.02000004E-02     1.45274319E-18
  -8.39999970E-03     1.50347542E-18
  -6.59999996E-03     1.52689704E-18
  -4.80000023E-03     1.51607617E-18
  -3.00000003E-03     1.46342674E-18
  -1.20000006E-03     1.36074675E-18
   6.00000028E-04     1.19927147E-18
   2.40000011E-03     9.69741365E-19
   4.19999985E-03     6.62481560E-19
   6.00000005E-03     2.67492374E-19
   7.79999979E-03    -2.25452961E-19
   9.60000046E-03    -8.26707052E-19
   1.14000002E-02    -1.54664783E-18
   1.31999999E-02    -2.39558536E-18
   1.49999997E-02    -3.38368114E-18
   1.67999994E-02    -4.52088698E-18
   1.86000001E-02    -5.81691067E-18
   2.04000007E-02    -7.28121681E-18
   2.21999995E-02    -8.92306527E-18
   2.40000002E-02    -1.07516018E-17
   2.58000009E-02    -1.27759948E-17
   2.75999997E-02    -1.50056403E-17
   2.94000003E-02    -1.74504107E-17
   3.11999992E-02    -2.01209848E-17
   3.29999998E-02    -2.30292145E-17
   3.48000005E-02    -2.61885531E-17
   3.66000012E-02    -2.96145350E-17
   3.84000018E-02    -3.33252573E-17
   4.01999988E-02    -3.73419272E-17
   4.19999994E-02    -4.16893338E-17
   4.38000001E-02    -4.63963455E-17
   4.56000008E-02    -5.14963143E-17
   4.74000014E-02    -5.70273931E-17
   4.91999984E-02    -6.30327310E-17
   5.09999990E-02    -6.95604632E-17
   5.27999997E-02    -7.66635359E-17
   5.46000004E-02    -8.43992297E-17
   5.64000010E-02    -9.28283921E-17
   5.82000017E-02    -1.02014319E-16
   5.99999987E-02    -1.12021259E-16
   6.17999993E-02    -1.22912475E-16
   6.36000037E-02    -1.34747814E-16
   6.53999969E-02    -1.47580787E-16
   6.71999976E-02    -1.61455107E-16
   6.89999983E-02    -1.76400646E-16
   7.07999989E-02    -1.92428826E-16
   7.25999996E-02    -2.09527324E-16
   7.44000003E-02    -2.27654292E-16
   7.62000009E-02    -2.46731804E-16
   7.80000016E-02    -2.66638772E-16
   7.98000023E-02    -2.87203091E-16
   8.16000029E-02    -3.08193308E-16
   8.34000036E-02    -3.29309390E-16
   8.51999968E-02    -3.50173002E-16
   8.69999975E-02    -3.70316981E-16
   8.87999982E-02    -3.89174052E-16
   9.05999988E-02    -4.06064710E-16
   9.23999995E-02    -4.20184431E-16
   9.42000002E-02    -4.30589622E-16
   9.60000008E-02    -4.36182766E-16
   9.78000015E-02    -4.35696331E-16
   9.96000022E-02    -4.27675326E-16
  0.101400003        -4.10458534E-16
  0.103200004        -3.82158105E-16
  0.104999997        -3.40637476E-16
  0.106799997        -2.83487290E-16
  0.108599998        -2.07999528E-16
  0.110399999        -1.11139511E-16
  0.112199999         1.04844456E-17
  0.114000000         1.60653033E-16
  0.115800001         3.43570275E-16
  0.117600001         5.63899162E-16
  0.119400002         8.26799501E-16
  0.121200003         1.13796558E-15
  0.123000003         1.50366549E-15
  0.124799997         1.93077836E-15
  0.126599997         2.42683071E-15
  0.128399998         3.00002997E-15
  0.130199999         3.65929456E-15
  0.131999999         4.41427409E-15
  0.133800000         5.27536651E-15
  0.135600001         6.25372006E-15
  0.137400001         7.36122368E-15
  0.139200002         8.61048547E-15
  0.141000003         1.00147865E-14
  0.142800003         1.15880147E-14
  0.144600004         1.33445763E-14
  0.146400005         1.52992751E-14
  0.148200005         1.74671695E-14
  0.150000006         1.98633800E-14
  0.151800007         2.25028719E-14
  0.153600007         2.54001938E-14
  0.155399993         2.85691779E-14
  0.157199994         3.20225888E-14
  0.158999994         3.57717362E-14
  0.160799995         3.98260323E-14
  0.162599996         4.41925210E-14
  0.164399996         4.88753460E-14
  0.166199997         5.38751918E-14
  0.167999998         5.91886634E-14
  0.169799998         6.48076766E-14
  0.171599999         7.07187875E-14
  0.173400000         7.69024940E-14
  0.175200000         8.33325447E-14
  0.177000001         8.99752481E-14
  0.178800002         9.67887811E-14
  0.180600002         1.03722484E-13
  0.182400003         1.10716259E-13
  0.184200004         1.17699931E-13
  0.186000004         1.24592719E-13
  0.187800005         1.31302778E-13
  0.189600006         1.37726771E-13
  0.191400006         1.43749609E-13
  0.193200007         1.49244292E-13
  0.194999993         1.54071810E-13
  0.196799994         1.58081298E-13
  0.198599994         1.61110288E-13
  0.200399995         1.62985117E-13
  0.202199996         1.63521554E-13
  0.203999996         1.62525578E-13
  0.205799997         1.59794419E-13
  0.207599998         1.55117699E-13
  0.209399998         1.48278918E-13
  0.211199999         1.39057060E-13
  0.213000000         1.27228509E-13
  0.214800000         1.12569086E-13
  0.216600001         9.48564076E-14
  0.218400002         7.38723996E-14
  0.220200002         4.94061071E-14
  0.222000003         2.12566543E-14
  0.223800004        -1.07635407E-14
  0.225600004        -4.68253162E-14
  0.227400005        -8.70791747E-14
  0.229200006        -1.31651471E-13
  0.231000006        -1.80640347E-13
  0.232800007        -2.34111640E-13
  0.234599993        -2.92094447E-13
  0.236399993        -3.54576692E-13
  0.238199994        -4.21500481E-13
  0.239999995        -4.92757419E-13
  0.241799995        -5.68183901E-13
  0.243599996        -6.47556119E-13
  0.245399997        -7.30585351E-13
  0.247199997        -8.16912998E-13
  0.248999998        -9.06106191E-13
  0.250800014        -9.97652915E-13
  0.252600014        -1.09095784E-12
  0.254400015        -1.18533839E-12
  0.256199986        -1.28002090E-12
  0.257999986        -1.37413735E-12
  0.259799987        -1.46672334E-12
  0.261599988        -1.55671559E-12
  0.263399988        -1.64295151E-12
  0.265199989        -1.72416888E-12
  0.266999990        -1.79900723E-12
  0.268799990        -1.86600995E-12
  0.270599991        -1.92362879E-12
  0.272399992        -1.97022910E-12
  0.274199992        -2.00409654E-12
  0.275999993        -2.02344717E-12
  0.277799994        -2.02643848E-12
  0.279599994        -2.01118332E-12
  0.281399995        -1.97576439E-12
  0.283199996        -1.91825375E-12
  0.284999996        -1.83673346E-12
  0.286799997        -1.72931862E-12
  0.288599998        -1.59418290E-12
  0.290399998        -1.42958746E-12
  0.292199999        -1.23391119E-12
  0.294000000        -1.00568349E-12
  0.295800000        -7.43619359E-13
  0.297600001        -4.46656167E-13
  0.299400002        -1.13991471E-13
  0.301200002         2.54877825E-13
  0.303000003         6.60115571E-13
  0.304800004         1.10150669E-12
  0.306600004         1.57841763E-12
  0.308400005         2.08975849E-12
  0.310200006         2.63394623E-12
  0.312000006         3.20887067E-12
  0.313800007         3.81186489E-12
  0.315600008         4.43967692E-12
  0.317400008         5.08844963E-12
  0.319200009         5.75370264E-12
  0.321000010         6.43032459E-12
  0.322800010         7.11257052E-12
  0.324600011         7.79406574E-12
  0.326400012         8.46782020E-12
  0.328200012         9.12625357E-12
  0.330000013         9.76122568E-12
  0.331800014         1.03640846E-11
  0.333600014         1.09257161E-11
  0.335399985         1.14366077E-11
  0.337199986         1.18869298E-11
  0.338999987         1.22666174E-11
  0.340799987         1.25654660E-11
  0.342599988         1.27732451E-11
  0.344399989         1.28798083E-11
  0.346199989         1.28752226E-11
  0.347999990         1.27498992E-11
  0.349799991         1.24947388E-11
  0.351599991         1.21012748E-11
  0.353399992         1.15618244E-11
  0.355199993         1.08696420E-11
  0.356999993         1.00190715E-11
  0.358799994         9.00570417E-12
  0.360599995         7.82652762E-12
  0.362399995         6.48007169E-12
  0.364199996         4.96654757E-12
  0.365999997         3.28797926E-12
  0.367799997         1.44832204E-12
  0.369599998        -5.46431932E-13
  0.371399999        -2.68816393E-12
  0.373199999        -4.96655798E-12
  0.375000000        -7.36904808E-12
  0.376800001        -9.88078716E-12
  0.378600001        -1.24846470E-11
  0.380400002        -1.51612299E-11
  0.382200003        -1.78889351E-11
  0.384000003        -2.06440212E-11
  0.385800004        -2.34007189E-11
  0.387600005        -2.61313748E-11
  0.389400005        -2.88066238E-11
  0.391200006        -3.13955945E-11
  0.393000007        -3.38661460E-11
  0.394800007        -3.61851382E-11
  0.396600008        -3.83187371E-11
  0.398400009        -4.02327546E-11
  0.400200009        -4.18929960E-11
  0.402000010        -4.32656688E-11
  0.403800011        -4.43177786E-11
  0.405600011        -4.50175834E-11
  0.407400012        -4.53350239E-11
  0.409200013        -4.52422162E-11
  0.411000013        -4.47139097E-11
  0.412800014        -4.37279726E-11
  0.414600015        -4.22658679E-11
  0.416399986        -4.03131209E-11
  0.418199986        -3.78597813E-11
  0.419999987        -3.49008392E-11
  0.421799988        -3.14366450E-11
  0.423599988        -2.74732580E-11
  0.425399989        -2.30227747E-11
  0.427199990        -1.81035898E-11
  0.428999990        -1.27406063E-11
  0.430799991        -6.96536795E-12
  0.432599992        -8.16126897E-13
  0.434399992         5.66217776E-12
  0.436199993         1.24180345E-11
  0.437999994         1.93935562E-11
  0.439799994         2.65247789E-11
  0.441599995         3.37420578E-11
  0.443399996         4.09705846E-11
  0.445199996         4.81309610E-11
  0.446999997         5.51399620E-11
  0.448799998         6.19113164E-11
  0.450599998         6.83566259E-11
  0.452399999         7.43863304E-11
  0.454200000         7.99108418E-11
  0.456000000         8.48416615E-11
  0.457800001         8.90925944E-11
  0.459600002         9.25810331E-11
  0.461400002         9.52292134E-11
  0.463200003         9.69655398E-11
  0.465000004         9.77259315E-11
  0.466800004         9.74550232E-11
  0.468600005         9.61075039E-11
  0.470400006         9.36492620E-11
  0.472200006         9.00584607E-11
  0.474000007         8.53266208E-11
  0.475800008         7.94593974E-11
  0.477600008         7.24774199E-11
  0.479400009         6.44167913E-11
  0.481200010         5.53295500E-11
  0.483000010         4.52838496E-11
  0.484800011         3.43640082E-11
  0.486600012         2.26702754E-11
  0.488400012         1.03184544E-11
  0.490200013        -2.56073960E-12
  0.492000014        -1.58225134E-11
  0.493800014        -2.93090795E-11
  0.495599985        -4.28508340E-11
  0.497399986        -5.62679313E-11
  0.499199986        -6.93717861E-11
  0.500999987        -8.19668985E-11
  0.502799988        -9.38526618E-11
  0.504599988        -1.04825475E-10
  0.506399989        -1.14680647E-10
  0.508199990        -1.23214591E-10
  0.509999990        -1.30226788E-10
  0.511799991        -1.35521802E-10
  0.513599992        -1.38911327E-10
  0.515399992        -1.40215881E-10
  0.517199993        -1.39266446E-10
  0.518999994        -1.35905870E-10
  0.520799994        -1.29990060E-10
  0.522599995        -1.21388857E-10
  0.524399996        -1.09986548E-10
  0.526199996        -9.56821566E-11
  0.527999997        -7.83891563E-11
  0.529799998        -5.80350455E-11
  0.531599998        -3.45602540E-11
  0.533399999        -7.91689457E-12
  0.535200000         2.19330977E-11
  0.537000000         5.50201273E-11
  0.538800001         9.13695369E-11
  0.540600002         1.31004596E-10
  0.542400002         1.73949771E-10
  0.544200003         2.20234372E-10
  0.546000004         2.69896272E-10
  0.547800004         3.22985944E-10
  0.549600005         3.79570708E-10
  0.551400006         4.39738884E-10
  0.553200006         5.03603881E-10
  0.555000007         5.71308278E-10
  0.556800008         6.43027687E-10
  0.558600008         7.18974269E-10
  0.560400009         7.99399713E-10
  0.562200010         8.84597895E-10
  0.564000010         9.74906933E-10
  0.565800011         1.07071008E-09
  0.567600012         1.17243582E-09
  0.569400012         1.28055755E-09
  0.571200013         1.39559186E-09
  0.573000014         1.51809554E-09
  0.574800014         1.64866087E-09
  0.576600015         1.78791015E-09
  0.578400016         1.93648897E-09
  0.580200016         2.09505635E-09
  0.582000017         2.26427543E-09
  0.583800018         2.44480147E-09
  0.585600019         2.63726707E-09
  0.587400019         2.84226842E-09
  0.589200020         3.06034686E-09
  0.591000021         3.29197092E-09
  0.592800021         3.53751650E-09
  0.594600022         3.79724430E-09
  0.596400023         4.07127754E-09
  0.598200023         4.35957670E-09
  0.600000024         4.66191574E-09
  0.601800025         4.97785546E-09
  0.603600025         5.30671596E-09
  0.605400026         5.64755176E-09
  0.607200027         5.99912342E-09
  0.609000027         6.35987174E-09
  0.610800028         6.72789247E-09
  0.612600029         7.10091097E-09
  0.614400029         7.47626050E-09
  0.616199970         7.85085863E-09
  0.617999971         8.22119350E-09
  0.619799972         8.58330207E-09
  0.621599972         8.93276297E-09
  0.623399973         9.26468591E-09
  0.625199974         9.57370805E-09
  0.626999974         9.85399407E-09
  0.628799975         1.00992432E-08
  0.630599976         1.03026983E-08
  0.632399976         1.04571640E-08
  0.634199977         1.05550324E-08
  0.635999978         1.05883107E-08
  0.637799978         1.05486562E-08
  0.639599979         1.04274234E-08
  0.641399980         1.02157118E-08
  0.643199980         9.90442306E-09
  0.644999981         9.48432444E-09
  0.646799982         8.94612118E-09
  0.648599982         8.28052737E-09
  0.650399983         7.47835305E-09
  0.652199984         6.53058851E-09
  0.653999984         5.42849588E-09
  0.655799985         4.16370449E-09
  0.657599986         2.72830802E-09
  0.659399986         1.11496568E-09
  0.661199987        -6.82996992E-10
  0.662999988        -2.67148792E-09
  0.664799988        -4.85554930E-09
  0.666599989        -7.23925941E-09
  0.668399990        -9.82564163E-09
  0.670199990        -1.26165753E-08
  0.671999991        -1.56127165E-08
  0.673799992        -1.88134255E-08
  0.675599992        -2.22167031E-08
  0.677399993        -2.58191371E-08
  0.679199994        -2.96158653E-08
  0.680999994        -3.36005463E-08
  0.682799995        -3.77653464E-08
  0.684599996        -4.21009467E-08
  0.686399996        -4.65965613E-08
  0.688199997        -5.12399758E-08
  0.689999998        -5.60176083E-08
  0.691799998        -6.09145658E-08
  0.693599999        -6.59147616E-08
  0.695400000        -7.10010042E-08
  0.697200000        -7.61551533E-08
  0.699000001        -8.13582517E-08
  0.700800002        -8.65907026E-08
  0.702600002        -9.18324403E-08
  0.704400003        -9.70631504E-08
  0.706200004        -1.02262483E-07
  0.708000004        -1.07410266E-07
  0.709800005        -1.12486781E-07
  0.711600006        -1.17472986E-07
  0.713400006        -1.22350798E-07
  0.715200007        -1.27103363E-07
  0.717000008        -1.31715296E-07
  0.718800008        -1.36173014E-07
  0.720600009        -1.40464948E-07
  0.722400010        -1.44581875E-07
  0.724200010        -1.48517131E-07
  0.726000011        -1.52266935E-07
  0.727800012        -1.55830563E-07
  0.729600012        -1.59210657E-07
  0.731400013        -1.62413428E-07
  0.733200014        -1.65448853E-07
  0.735000014        -1.68330885E-07
  0.736800015        -1.71077673E-07
  0.738600016        -1.73711641E-07
  0.740400016        -1.76259718E-07
  0.742200017        -1.78753453E-07
  0.744000018        -1.81229112E-07
  0.745800018        -1.83727806E-07
  0.747600019        -1.86295594E-07
  0.749400020        -1.88983549E-07
  0.751200020        -1.91847889E-07
  0.753000021        -1.94950076E-07
  0.754800022        -1.98356901E-07
  0.756600022        -2.02140598E-07
  0.758400023        -2.06379013E-07
  0.760200024        -2.11155822E-07
  0.762000024        -2.16560721E-07
  0.763800025        -2.22689749E-07
  0.765600026        -2.29645593E-07
  0.767400026        -2.37538103E-07
  0.769200027        -2.46484717E-07
  0.771000028        -2.56611258E-07
  0.772800028        -2.68052531E-07
  0.774600029        -2.80953316E-07
  0.776400030        -2.95469420E-07
  0.778199971        -3.11768929E-07
  0.779999971        -3.30033572E-07
  0.781799972        -3.50460454E-07
  0.783599973        -3.73263816E-07
  0.785399973        -3.98677173E-07
  0.787199974        -4.26955665E-07
  0.788999975        -4.58378764E-07
  0.790799975        -4.93253083E-07
  0.792599976        -5.31915759E-07
  0.794399977        -5.74737783E-07
  0.796199977        -6.22128198E-07
  0.797999978        -6.74537887E-07
  0.799799979        -7.32464684E-07
  0.801599979        -7.96457812E-07
  0.803399980        -8.67123447E-07
  0.805199981        -9.45130182E-07
  0.806999981        -1.03121511E-06
  0.808799982        -1.12619023E-06
  0.810599983        -1.23094878E-06
  0.812399983        -1.34647257E-06
  0.814199984        -1.47383889E-06
  0.815999985        -1.61422827E-06
  0.817799985        -1.76893195E-06
  0.819599986        -1.93935989E-06
  0.821399987        -2.12704936E-06
  0.823199987        -2.33367223E-06
  0.824999988        -2.56104340E-06
  0.826799989        -2.81112966E-06
  0.828599989        -3.08605695E-06
  0.830399990        -3.38811810E-06
  0.832199991        -3.71978149E-06
  0.833999991        -4.08369715E-06
  0.835799992        -4.48270475E-06
  0.837599993        -4.91983792E-06
  0.839399993        -5.39833172E-06
  0.841199994        -5.92162633E-06
  0.842999995        -6.49337062E-06
  0.844799995        -7.11742632E-06
  0.846599996        -7.79786660E-06
  0.848399997        -8.53897927E-06
  0.850199997        -9.34526270E-06
  0.851999998        -1.02214235E-05
  0.853799999        -1.11723721E-05
  0.855599999        -1.22032161E-05
  0.857400000        -1.33192489E-05
  0.859200001        -1.45259382E-05
  0.861000001        -1.58289149E-05
  0.862800002        -1.72339551E-05
  0.864600003        -1.87469559E-05
  0.866400003        -2.03739182E-05
  0.868200004        -2.21209193E-05
  0.870000005        -2.39940855E-05
  0.871800005        -2.59995577E-05
  0.873600006        -2.81434513E-05
  0.875400007        -3.04318255E-05
  0.877200007        -3.28706374E-05
  0.879000008        -3.54656913E-05
  0.880800009        -3.82225880E-05
  0.882600009        -4.11466826E-05
  0.884400010        -4.42430137E-05
  0.886200011        -4.75162451E-05
  0.888000011        -5.09706115E-05
  0.889800012        -5.46098345E-05
  0.891600013        -5.84370682E-05
  0.893400013        -6.24548120E-05
  0.895200014        -6.66648484E-05
  0.897000015        -7.10681634E-05
  0.898800015        -7.56648369E-05
  0.900600016        -8.04540250E-05
  0.902400017        -8.54338141E-05
  0.904200017        -9.06011846E-05
  0.906000018        -9.59519093E-05
  0.907800019        -1.01480458E-04
  0.909600019        -1.07179956E-04
  0.911400020        -1.13042086E-04
  0.913200021        -1.19057011E-04
  0.915000021        -1.25213322E-04
  0.916800022        -1.31497975E-04
  0.918600023        -1.37896204E-04
  0.920400023        -1.44391510E-04
  0.922200024        -1.50965599E-04
  0.924000025        -1.57598319E-04
  0.925800025        -1.64267709E-04
  0.927600026        -1.70949890E-04
  0.929400027        -1.77619149E-04
  0.931200027        -1.84247881E-04
  0.933000028        -1.90806648E-04
  0.934800029        -1.97264206E-04
  0.936600029        -2.03587537E-04
  0.938399971        -2.09741964E-04
  0.940199971        -2.15691180E-04
  0.941999972        -2.21397349E-04
  0.943799973        -2.26821227E-04
  0.945599973        -2.31922299E-04
  0.947399974        -2.36658932E-04
  0.949199975        -2.40988535E-04
  0.950999975        -2.44867726E-04
  0.952799976        -2.48252472E-04
  0.954599977        -2.51098449E-04
  0.956399977        -2.53361155E-04
  0.958199978        -2.54996150E-04
  0.959999979        -2.55959341E-04
  0.961799979        -2.56207248E-04
  0.963599980        -2.55697290E-04
  0.965399981        -2.54387996E-04
  0.967199981        -2.52239377E-04
  0.968999982        -2.49213219E-04
  0.970799983        -2.45273404E-04
  0.972599983        -2.40386100E-04
  0.974399984        -2.34520165E-04
  0.976199985        -2.27647426E-04
  0.977999985        -2.19742986E-04
  0.979799986        -2.10785453E-04
  0.981599987        -2.00757291E-04
  0.983399987        -1.89645041E-04
  0.985199988        -1.77439564E-04
  0.986999989        -1.64136291E-04
  0.988799989        -1.49735439E-04
  0.990599990        -1.34242160E-04
  0.992399991        -1.17666750E-04
  0.994199991        -1.00024758E-04
  0.995999992        -8.13371080E-05
  0.997799993        -6.16301622E-05
  0.999599993        -4.09357708E-05
   1.00139999        -1.92913158E-05
   1.00320005         3.26035524E-06
   1.00500000         2.66709594E-05
   1.00680006         5.08868834E-05
   1.00860000         7.58492897E-05
   1.01040006         1.01494290E-04
   1.01220000         1.27753141E-04
   1.01400006         1.54552486E-04
   1.01580000         1.81814597E-04
   1.01760006         2.09457678E-04
   1.01940000         2.37396220E-04
   1.02119994         2.65541283E-04
   1.02300000         2.93800986E-04
   1.02479994         3.22080799E-04
   1.02660000         3.50284041E-04
   1.02839994         3.78312310E-04
   1.03020000         4.06065898E-04
   1.03199995         4.33444307E-04
   1.03380001         4.60346753E-04
   1.03559995         4.86672565E-04
   1.03740001         5.12321771E-04
   1.03919995         5.37195592E-04
   1.04100001         5.61196764E-04
   1.04279995         5.84230176E-04
   1.04460001         6.06203219E-04
   1.04639995         6.27026311E-04
   1.04820001         6.46613305E-04
   1.04999995         6.64881838E-04
   1.05180001         6.81753852E-04
   1.05359995         6.97155832E-04
   1.05540001         7.11019151E-04
   1.05719995         7.23280362E-04
   1.05900002         7.33881607E-04
   1.06079996         7.42770615E-04
   1.06260002         7.49901170E-04
   1.06439996         7.55233050E-04
   1.06620002         7.58732320E-04
   1.06799996         7.60371389E-04
   1.06980002         7.60129071E-04
   1.07159996         7.57990580E-04
   1.07340002         7.53947650E-04
   1.07519996         7.47998420E-04
   1.07700002         7.40147429E-04
   1.07879996         7.30405387E-04
   1.08060002         7.18789175E-04
   1.08239996         7.05321785E-04
   1.08420002         6.90032030E-04
   1.08599997         6.72954367E-04
   1.08780003         6.54128671E-04
   1.08959997         6.33600168E-04
   1.09140003         6.11418975E-04
   1.09319997         5.87640097E-04
   1.09500003         5.62322850E-04
   1.09679997         5.35530853E-04
   1.09860003         5.07331628E-04
   1.10039997         4.77796362E-04
   1.10220003         4.46999562E-04
   1.10399997         4.15018760E-04
   1.10580003         3.81934311E-04
   1.10759997         3.47828987E-04
   1.10940003         3.12787743E-04
   1.11119998         2.76897423E-04
   1.11300004         2.40246431E-04
   1.11479998         2.02924537E-04
   1.11660004         1.65022575E-04
   1.11839998         1.26632163E-04
   1.12020004         8.78454666E-05
   1.12199998         4.87549332E-05
   1.12380004         9.45308329E-06
   1.12559998        -2.99677304E-05
   1.12740004        -6.94155387E-05
   1.12919998        -1.08798951E-04
   1.13100004        -1.48027349E-04
   1.13279998        -1.87011130E-04
   1.13460004        -2.25661788E-04
   1.13639998        -2.63892114E-04
   1.13820004        -3.01616412E-04
   1.13999999        -3.38750542E-04
   1.14180005        -3.75212170E-04
   1.14359999        -4.10920737E-04
   1.14540005        -4.45797719E-04
   1.14719999        -4.79766662E-04
   1.14900005        -5.12753264E-04
   1.15079999        -5.44685463E-04
   1.15260005        -5.75493614E-04
   1.15439999        -6.05110487E-04
   1.15620005        -6.33471238E-04