 -0.300000012       0.00000000    
 -0.298200011       0.00000000    
 -0.296400011       1.99255814E-31
 -0.294600010      -7.61626218E-18
 -0.292800009      -5.35632865E-17
 -0.291000009      -2.13958696E-16
 -0.289200008      -6.36717419E-16
 -0.287400007      -1.56732817E-15
 -0.285600007      -3.36726598E-15
 -0.283800006      -6.51648704E-15
 -0.282000005      -1.15902093E-14
 -0.280200005      -1.91998534E-14
 -0.278400004      -2.98888620E-14
 -0.276600003      -4.39762972E-14
 -0.274800003      -6.13445723E-14
 -0.273000002      -8.11723600E-14
 -0.271200001      -1.01618942E-13
 -0.269400001      -1.19472005E-13
 -0.267600000      -1.29775991E-13
 -0.265799999      -1.25462534E-13
 -0.263999999      -9.70069497E-14
 -0.262199998      -3.21360505E-14
 -0.260399997       8.43892285E-14
 -0.258599997       2.70896586E-13
 -0.256799996       5.48815117E-13
 -0.254999995       9.42570891E-13
 -0.253199995       1.47936546E-12
 -0.251399994       2.18884437E-12
 -0.249599993       3.10267567E-12
 -0.247799993       4.25405501E-12
 -0.246000007       5.67717011E-12
 -0.244200006       7.40665689E-12
 -0.242400005       9.47707191E-12
 -0.240600005       1.19224214E-11
 -0.238800004       1.47757744E-11
 -0.237000003       1.80689838E-11
 -0.235200003       2.18325392E-11
 -0.233400002       2.60955632E-11
 -0.231600001       3.08859674E-11
 -0.229800001       3.62307753E-11
 -0.228000000       4.21566185E-11
 -0.226199999       4.86903504E-11
 -0.224399999       5.58598862E-11
 -0.222599998       6.36950909E-11
 -0.220799997       7.22288548E-11
 -0.218999997       8.14981901E-11
 -0.217199996       9.15453754E-11
 -0.215399995       1.02419101E-10
 -0.213599995       1.14175565E-10
 -0.211799994       1.26879354E-10
 -0.209999993       1.40604139E-10
 -0.208199993       1.55433097E-10
 -0.206400007       1.71458972E-10
 -0.204600006       1.88783586E-10
 -0.202800006       2.07516879E-10
 -0.201000005       2.27775354E-10
 -0.199200004       2.49679860E-10
 -0.197400004       2.73352702E-10
 -0.195600003       2.98914005E-10
 -0.193800002       3.26477456E-10
 -0.192000002       3.56145224E-10
 -0.190200001       3.88002214E-10
 -0.188400000       4.22109542E-10
 -0.186600000       4.58497212E-10
 -0.184799999       4.97156427E-10
 -0.182999998       5.38030454E-10
 -0.181199998       5.81004855E-10
 -0.179399997       6.25896501E-10
 -0.177599996       6.72441991E-10
 -0.175799996       7.20283333E-10
 -0.173999995       7.68952901E-10
 -0.172199994       8.17855617E-10
 -0.170399994       8.66249295E-10
 -0.168599993       9.13221998E-10
 -0.166800007       9.57665613E-10
 -0.165000007       9.98246819E-10
 -0.163200006       1.03337272E-09
 -0.161400005       1.06115416E-09
 -0.159600005       1.07936293E-09
 -0.157800004       1.08538367E-09
 -0.156000003       1.07616227E-09
 -0.154200003       1.04814746E-09
 -0.152400002       9.97227412E-10
 -0.150600001       9.18660759E-10
 -0.148800001       8.07001466E-10
 -0.147000000       6.56022958E-10
 -0.145199999       4.58628829E-10
 -0.143399999       2.06761289E-10
 -0.141599998      -1.08690383E-10
 -0.139799997      -4.97993646E-10
 -0.137999997      -9.72670722E-10
 -0.136199996      -1.54561564E-09
 -0.134399995      -2.23119523E-09
 -0.132599995      -3.04536751E-09
 -0.130799994      -4.00579880E-09
 -0.128999993      -5.13197529E-09
 -0.127200007      -6.44532339E-09
 -0.125400007      -7.96932298E-09
 -0.123599999      -9.72961889E-09
 -0.121799998      -1.17541346E-08
 -0.119999997      -1.40731666E-08
 -0.118199997      -1.67194969E-08
 -0.116400003      -1.97284749E-08
 -0.114600003      -2.31381154E-08
 -0.112800002      -2.69891309E-08
 -0.111000001      -3.13250617E-08
 -0.109200001      -3.61922439E-08
 -0.107400000      -4.16398791E-08
 -0.105599999      -4.77200466E-08
 -0.103799999      -5.44876748E-08
 -0.101999998      -6.20005238E-08
 -0.100199997      -7.03191247E-08
  -9.83999968E-02  -7.95067052E-08
  -9.66000035E-02  -8.96290047E-08
  -9.48000029E-02  -1.00754207E-07
  -9.30000022E-02  -1.12952691E-07
  -9.12000015E-02  -1.26296825E-07
  -8.94000009E-02  -1.40860678E-07
  -8.76000002E-02  -1.56719679E-07
  -8.57999995E-02  -1.73950269E-07
  -8.39999989E-02  -1.92629471E-07
  -8.21999982E-02  -2.12834408E-07
  -8.03999975E-02  -2.34641647E-07
  -7.85999969E-02  -2.58126647E-07
  -7.68000036E-02  -2.83363278E-07
  -7.50000030E-02  -3.10422820E-07
  -7.32000023E-02  -3.39373116E-07
  -7.14000016E-02  -3.70278030E-07
  -6.96000010E-02  -4.03196168E-07
  -6.78000003E-02  -4.38180308E-07
  -6.59999996E-02  -4.75275641E-07
  -6.41999990E-02  -5.14519456E-07
  -6.23999983E-02  -5.55939323E-07
  -6.06000014E-02  -5.99552379E-07
  -5.88000007E-02  -6.45363968E-07
  -5.70000000E-02  -6.93366019E-07
  -5.51999994E-02  -7.43536248E-07
  -5.33999987E-02  -7.95836570E-07
  -5.16000018E-02  -8.50212018E-07
  -4.98000011E-02  -9.06589150E-07
  -4.80000004E-02  -9.64875426E-07
  -4.61999997E-02  -1.02495756E-06
  -4.43999991E-02  -1.08670042E-06
  -4.25999984E-02  -1.14994691E-06
  -4.08000015E-02  -1.21451535E-06
  -3.90000008E-02  -1.28020099E-06
  -3.72000001E-02  -1.34677362E-06
  -3.53999995E-02  -1.41397788E-06
  -3.35999988E-02  -1.48153322E-06
  -3.18000019E-02  -1.54913380E-06
  -2.99999993E-02  -1.61644880E-06
  -2.82000005E-02  -1.68312340E-06
  -2.63999999E-02  -1.74877891E-06
  -2.45999992E-02  -1.81301459E-06
  -2.28000004E-02  -1.87540923E-06
  -2.09999997E-02  -1.93552228E-06
  -1.92000009E-02  -1.99289730E-06
  -1.74000002E-02  -2.04706453E-06
  -1.55999996E-02  -2.09754262E-06
  -1.37999998E-02  -2.14384386E-06
  -1.20000001E-02  -2.18547734E-06
  -1.02000004E-02  -2.22195354E-06
  -8.39999970E-03  -2.25278927E-06
  -6.59999996E-03  -2.27751229E-06
  -4.80000023E-03  -2.29566854E-06
  -3.00000003E-03  -2.30682645E-06
  -1.20000006E-03  -2.31058561E-06
   6.00000028E-04  -2.30658225E-06
   2.40000011E-03  -2.29449665E-06
   4.19999985E-03  -2.27406258E-06
   6.00000005E-03  -2.24507335E-06
   7.79999979E-03  -2.20739139E-06
   9.60000046E-03  -2.16095805E-06
   1.14000002E-02  -2.10579992E-06
   1.31999999E-02  -2.04204025E-06
   1.49999997E-02  -1.96990777E-06
   1.67999994E-02  -1.88974593E-06
   1.86000001E-02  -1.80202267E-06
   2.04000007E-02  -1.70733961E-06
   2.21999995E-02  -1.60644208E-06
   2.40000002E-02  -1.50022834E-06
   2.58000009E-02  -1.38975849E-06
   2.75999997E-02  -1.27626436E-06
   2.94000003E-02  -1.16115689E-06
   3.11999992E-02  -1.04603612E-06
   3.29999998E-02  -9.32697219E-07
   3.48000005E-02  -8.23139828E-07
   3.66000012E-02  -7.19573393E-07
   3.84000018E-02  -6.24425070E-07
   4.01999988E-02  -5.40343763E-07
   4.19999994E-02  -4.70205663E-07
   4.38000001E-02  -4.17118116E-07
   4.56000008E-02  -3.84423402E-07
   4.74000014E-02  -3.75700722E-07
   4.91999984E-02  -3.94767227E-07
   5.09999990E-02  -4.45677841E-07
   5.27999997E-02  -5.32725664E-07
   5.46000004E-02  -6.60439696E-07
   5.64000010E-02  -8.33581453E-07
   5.82000017E-02  -1.05714230E-06
   5.99999987E-02  -1.33633353E-06
   6.17999993E-02  -1.67658561E-06
   6.36000037E-02  -2.08353458E-06
   6.53999969E-02  -2.56301473E-06
   6.71999976E-02  -3.12105067E-06
   6.89999983E-02  -3.76383923E-06
   7.07999989E-02  -4.49773825E-06
   7.25999996E-02  -5.32924832E-06
   7.44000003E-02  -6.26500014E-06
   7.62000009E-02  -7.31173395E-06
   7.80000016E-02  -8.47627143E-06
   7.98000023E-02  -9.76550746E-06
   8.16000029E-02  -1.11863656E-05
   8.34000036E-02  -1.27457897E-05
   8.51999968E-02  -1.44507094E-05
   8.69999975E-02  -1.63079967E-05
   8.87999982E-02  -1.83244483E-05
   9.05999988E-02  -2.05067481E-05
   9.23999995E-02  -2.28614135E-05
   9.42000002E-02  -2.53947765E-05
   9.60000008E-02  -2.81129214E-05
   9.78000015E-02  -3.10216492E-05
   9.96000022E-02  -3.41264167E-05
  0.101400003      -3.74322954E-05
  0.103200004      -4.09439126E-05
  0.104999997      -4.46653830E-05
  0.106799997      -4.86002755E-05
  0.108599998      -5.27515149E-05
  0.110399999      -5.71213277E-05
  0.112199999      -6.17111800E-05
  0.114000000      -6.65216940E-05
  0.115800001      -7.15525748E-05
  0.117600001      -7.68025347E-05
  0.119400002      -8.22692091E-05
  0.121200003      -8.79490908E-05
  0.123000003      -9.38374287E-05
  0.124799997      -9.99281328E-05
  0.126599997      -1.06213731E-04
  0.128399998      -1.12685229E-04
  0.130199999      -1.19332093E-04
  0.131999999      -1.26142113E-04
  0.133800000      -1.33101363E-04
  0.135600001      -1.40194097E-04
  0.137400001      -1.47402650E-04
  0.139200002      -1.54707493E-04
  0.141000003      -1.62087032E-04
  0.142800003      -1.69517603E-04
  0.144600004      -1.76973481E-04
  0.146400005      -1.84426739E-04
  0.148200005      -1.91847357E-04
  0.150000006      -1.99203118E-04
  0.151800007      -2.06459605E-04
  0.153600007      -2.13580235E-04
  0.155399993      -2.20526359E-04
  0.157199994      -2.27257187E-04
  0.158999994      -2.33729937E-04
  0.160799995      -2.39899920E-04
  0.162599996      -2.45720585E-04
  0.164399996      -2.51143676E-04
  0.166199997      -2.56119441E-04
  0.167999998      -2.60596658E-04
  0.169799998      -2.64522911E-04
  0.171599999      -2.67844851E-04
  0.173400000      -2.70508346E-04
  0.175200000      -2.72458739E-04
  0.177000001      -2.73641141E-04
  0.178800002      -2.74000777E-04
  0.180600002      -2.73483194E-04
  0.182400003      -2.72034667E-04
  0.184200004      -2.69602635E-04
  0.186000004      -2.66135874E-04
  0.187800005      -2.61584995E-04
  0.189600006      -2.55902822E-04
  0.191400006      -2.49044853E-04
  0.193200007      -2.40969603E-04
  0.194999993      -2.31639002E-04
  0.196799994      -2.21018810E-04
  0.198599994      -2.09079124E-04
  0.200399995      -1.95794681E-04
  0.202199996      -1.81145326E-04
  0.203999996      -1.65116347E-04
  0.205799997      -1.47698927E-04
  0.207599998      -1.28890359E-04
  0.209399998      -1.08694527E-04
  0.211199999      -8.71221346E-05
  0.213000000      -6.41909428E-05
  0.214800000      -3.99260898E-05
  0.216600001      -1.43602392E-05
  0.218400002       1.24662365E-05
  0.220200002       4.05051578E-05
  0.222000003       6.97004434E-05
  0.223800004       9.99881013E-05
  0.225600004       1.31296270E-04
  0.227400005       1.63545250E-04
  0.229200006       1.96647656E-04
  0.231000006       2.30508624E-04
  0.232800007       2.65026029E-04
  0.234599993       3.00090789E-04
  0.236399993       3.35587189E-04
  0.238199994       3.71393340E-04
  0.239999995       4.07381565E-04
  0.241799995       4.43418947E-04
  0.243599996       4.79367853E-04
  0.245399997       5.15086635E-04
  0.247199997       5.50430093E-04
  0.248999998       5.85250265E-04
  0.250800014       6.19397091E-04
  0.252600014       6.52719231E-04
  0.254400015       6.85064704E-04
  0.256199986       7.16281764E-04
  0.257999986       7.46219885E-04
  0.259799987       7.74730113E-04
  0.261599988       8.01666174E-04
  0.263399988       8.26885400E-04
  0.265199989       8.50249256E-04
  0.266999990       8.71624332E-04
  0.268799990       8.90882919E-04
  0.270599991       9.07904236E-04
  0.272399992       9.22574196E-04
  0.274199992       9.34787327E-04
  0.275999993       9.44446248E-04
  0.277799994       9.51463066E-04
  0.279599994       9.55759373E-04
  0.281399995       9.57267242E-04
  0.283199996       9.55929398E-04
  0.284999996       9.51699622E-04
  0.286799997       9.44542757E-04
  0.288599998       9.34435695E-04
  0.290399998       9.21366911E-04
  0.292199999       9.05336638E-04
  0.294000000       8.86357331E-04
  0.295800000       8.64453265E-04
  0.297600001       8.39660701E-04
  0.299400002       8.12027487E-04
  0.301200002       7.81613111E-04
  0.303000003       7.48488121E-04
  0.304800004       7.12734240E-04
  0.306600004       6.74443494E-04
  0.308400005       6.33718271E-04
  0.310200006       5.90670446E-04
  0.312000006       5.45421150E-04
  0.313800007       4.98099835E-04
  0.315600008       4.48844279E-04
  0.317400008       3.97799333E-04
  0.319200009       3.45116772E-04
  0.321000010       2.90954340E-04
  0.322800010       2.35475105E-04
  0.324600011       1.78846880E-04
  0.326400012       1.21241443E-04
  0.328200012       6.28338385E-05
  0.330000013       3.80174311E-06
  0.331800014      -5.56753039E-05
  0.333600014      -1.15416566E-04
  0.335399985      -1.75240712E-04
  0.337199986      -2.34966603E-04
  0.338999987      -2.94413738E-04
  0.340799987      -3.53403069E-04
  0.342599988      -4.11757414E-04
  0.344399989      -4.69302235E-04
  0.346199989      -5.25865937E-04
  0.347999990      -5.81280561E-04
  0.349799991      -6.35382195E-04
  0.351599991      -6.88011467E-04
  0.353399992      -7.39014009E-04
  0.355199993      -7.88240810E-04
  0.356999993      -8.35548504E-04
  0.358799994      -8.80800071E-04
  0.360599995      -9.23864718E-04
  0.362399995      -9.64618579E-04
  0.364199996      -1.00294466E-03
  0.365999997      -1.03873352E-03
  0.367799997      -1.07188278E-03
  0.369599998      -1.10229861E-03
  0.371399999      -1.12989428E-03
  0.373199999      -1.15459203E-03
  0.375000000      -1.17632176E-03
  0.376800001      -1.19502237E-03
  0.378600001      -1.21064100E-03
  0.380400002      -1.22313364E-03
  0.382200003      -1.23246515E-03
  0.384000003      -1.23860931E-03
  0.385800004      -1.24154880E-03
  0.387600005      -1.24127558E-03
  0.389400005      -1.23779033E-03
  0.391200006      -1.23110320E-03
  0.393000007      -1.22123340E-03
  0.394800007      -1.20820885E-03
  0.396600008      -1.19206693E-03
  0.398400009      -1.17285375E-03
  0.400200009      -1.15062448E-03
  0.402000010      -1.12544291E-03
  0.403800011      -1.09738146E-03
  0.405600011      -1.06652128E-03
  0.407400012      -1.03295152E-03
  0.409200013      -9.96769289E-04
  0.411000013      -9.58079763E-04
  0.412800014      -9.16995574E-04
  0.414600015      -8.73636513E-04
  0.416399986      -8.28129181E-04
  0.418199986      -7.80606584E-04
  0.419999987      -7.31208012E-04
  0.421799988      -6.80078170E-04
  0.423599988      -6.27367059E-04
  0.425399989      -5.73229219E-04
  0.427199990      -5.17823559E-04
  0.428999990      -4.61312331E-04
  0.430799991      -4.03861166E-04
  0.432599992      -3.45637876E-04
  0.434399992      -2.86812341E-04
  0.436199993      -2.27555734E-04
  0.437999994      -1.68039798E-04
  0.439799994      -1.08436405E-04
  0.441599995      -4.89168378E-05
  0.443399996       1.03487464E-05
  0.445199996       6.91920650E-05
  0.446999997       1.27447172E-04
  0.448799998       1.84951132E-04
  0.450599998       2.41544520E-04
  0.452399999       2.97072082E-04
  0.454200000       3.51383118E-04
  0.456000000       4.04332124E-04
  0.457800001       4.55779169E-04
  0.459600002       5.05590346E-04
  0.461400002       5.53638209E-04
  0.463200003       5.99802006E-04
  0.465000004       6.43968408E-04
  0.466800004       6.86031126E-04
  0.468600005       7.25891790E-04
  0.470400006       7.63459946E-04
  0.472200006       7.98652938E-04
  0.474000007       8.31396552E-04
  0.475800008       8.61624721E-04
  0.477600008       8.89279530E-04
  0.479400009       9.14311619E-04
  0.481200010       9.36679833E-04
  0.483000010       9.56351170E-04
  0.484800011       9.73300776E-04
  0.486600012       9.87511827E-04
  0.488400012       9.98975593E-04
  0.490200013       1.00769079E-03
  0.492000014       1.01366360E-03
  0.493800014       1.01690774E-03
  0.495599985       1.01744384E-03
  0.497399986       1.01529958E-03
  0.499199986       1.01050886E-03
  0.500999987       1.00311241E-03
  0.502799988       9.93156573E-04
  0.504599988       9.80693731E-04
  0.506399989       9.65782034E-04
  0.508199990       9.48484405E-04
  0.509999990       9.28869122E-04
  0.511799991       9.07009351E-04
  0.513599992       8.82982567E-04
  0.515399992       8.56870436E-04
  0.517199993       8.28759046E-04
  0.518999994       7.98737863E-04
  0.520799994       7.66900019E-04
  0.522599995       7.33342313E-04
  0.524399996       6.98164338E-04
  0.526199996       6.61468541E-04
  0.527999997       6.23360334E-04
  0.529799998       5.83947403E-04
  0.531599998       5.43339702E-04
  0.533399999       5.01649396E-04
  0.535200000       4.58990340E-04
  0.537000000       4.15478047E-04
  0.538800001       3.71229544E-04
  0.540600002       3.26362904E-04
  0.542400002       2.80997279E-04
  0.544200003       2.35252446E-04
  0.546000004       1.89248763E-04
  0.547800004       1.43106779E-04
  0.549600005       9.69470129E-05
  0.551400006       5.08897210E-05
  0.553200006       5.05456910E-06
  0.555000007      -4.04395869E-05
  0.556800008      -8.54750469E-05
  0.558600008      -1.29935535E-04
  0.560400009      -1.73706445E-04
  0.562200010      -2.16675238E-04
  0.564000010      -2.58731685E-04
  0.565800011      -2.99768086E-04
  0.567600012      -3.39679798E-04
  0.569400012      -3.78365337E-04
  0.571200013      -4.15726652E-04
  0.573000014      -4.51669534E-04
  0.574800014      -4.86103760E-04
  0.576600015      -5.18943474E-04
  0.578400016      -5.50107332E-04
  0.580200016      -5.79518790E-04
  0.582000017      -6.07106136E-04
  0.583800018      -6.32803072E-04
  0.585600019      -6.56548480E-04
  0.587400019      -6.78286597E-04
  0.589200020      -6.97967538E-04
  0.591000021      -7.15546950E-04
  0.592800021      -7.30986299E-04
  0.594600022      -7.44252815E-04
  0.596400023      -7.55319663E-04
  0.598200023      -7.64165830E-04
  0.600000024      -7.70776125E-04
  0.601800025      -7.75141176E-04
  0.603600025      -7.77257432E-04
  0.605400026      -7.77126872E-04
  0.607200027      -7.74757063E-04
  0.609000027      -7.70161278E-04
  0.610800028      -7.63357733E-04
  0.612600029      -7.54370179E-04
  0.614400029      -7.43227429E-04
  0.616199970      -7.29963067E-04
  0.617999971      -7.14615628E-04
  0.619799972      -6.97228126E-04
  0.621599972      -6.77848177E-04
  0.623399973      -6.56527816E-04
  0.625199974      -6.33323158E-04
  0.626999974      -6.08294446E-04
  0.628799975      -5.81505883E-04
  0.630599976      -5.53025340E-04
  0.632399976      -5.22924645E-04
  0.634199977      -4.91279061E-04
  0.635999978      -4.58167400E-04
  0.637799978      -4.23671969E-04
  0.639599979      -3.87878245E-04
  0.641399980      -3.50875081E-04
  0.643199980      -3.12754593E-04
  0.644999981      -2.73611891E-04
  0.646799982      -2.33545230E-04
  0.648599982      -1.92655833E-04
  0.650399983      -1.51047891E-04
  0.652199984      -1.08828404E-04
  0.653999984      -6.61071754E-05
  0.655799985      -2.29966299E-05
  0.657599986       2.03881809E-05
  0.659399986       6.39298305E-05
  0.661199987       1.07508597E-04
  0.662999988       1.51002620E-04
  0.664799988       1.94288164E-04
  0.666599989       2.37239787E-04
  0.668399990       2.79730652E-04
  0.670199990       3.21632717E-04
  0.671999991       3.62817140E-04
  0.673799992       4.03154525E-04
  0.675599992       4.42515448E-04
  0.677399993       4.80770745E-04
  0.679199994       5.17791952E-04
  0.680999994       5.53451944E-04
  0.682799995       5.87625080E-04
  0.684599996       6.20188192E-04
  0.686399996       6.51020673E-04
  0.688199997       6.80005469E-04
  0.689999998       7.07029307E-04
  0.691799998       7.31983513E-04
  0.693599999       7.54764536E-04
  0.695400000       7.75274471E-04
  0.697200000       7.93421932E-04
  0.699000001       8.09122284E-04
  0.700800002       8.22298462E-04
  0.702600002       8.32881429E-04
  0.704400003       8.40810826E-04
  0.706200004       8.46035371E-04
  0.708000004       8.48513329E-04
  0.709800005       8.48212978E-04
  0.711600006       8.45113071E-04
  0.713400006       8.39202956E-04
  0.715200007       8.30482983E-04
  0.717000008       8.18964909E-04
  0.718800008       8.04671610E-04
  0.720600009       7.87637488E-04
  0.722400010       7.67908525E-04
  0.724200010       7.45541940E-04
  0.726000011       7.20606360E-04
  0.727800012       6.93181588E-04
  0.729600012       6.63358194E-04
  0.731400013       6.31237228E-04
  0.733200014       5.96929924E-04
  0.735000014       5.60557179E-04
  0.736800015       5.22248796E-04
  0.738600016       4.82143369E-04
  0.740400016       4.40387143E-04
  0.742200017       3.97133583E-04
  0.744000018       3.52542615E-04
  0.745800018       3.06779752E-04
  0.747600019       2.60015251E-04
  0.749400020       2.12423358E-04
  0.751200020       1.64181372E-04
  0.753000021       1.15468756E-04
  0.754800022       6.64661784E-05
  0.756600022       1.73546741E-05
  0.758400023      -3.16852856E-05
  0.760200024      -8.04747033E-05
  0.762000024      -1.28836939E-04
  0.763800025      -1.76598565E-04
  0.765600026      -2.23590207E-04
  0.767400026      -2.69647309E-04
  0.769200027      -3.14610923E-04
  0.771000028      -3.58328456E-04
  0.772800028      -4.00654302E-04
  0.774600029      -4.41450422E-04
  0.776400030      -4.80586954E-04
  0.778199971      -5.17942768E-04
  0.779999971      -5.53405669E-04
  0.781799972      -5.86873211E-04
  0.783599973      -6.18252496E-04
  0.785399973      -6.47460867E-04
  0.787199974      -6.74425683E-04
  0.788999975      -6.99084951E-04
  0.790799975      -7.21386808E-04
  0.792599976      -7.41289987E-04
  0.794399977      -7.58763519E-04
  0.796199977      -7.73786509E-04
  0.797999978      -7.86348362E-04
  0.799799979      -7.96448148E-04
  0.801599979      -8.04094481E-04
  0.803399980      -8.09305173E-04
  0.805199981      -8.12106940E-04
  0.806999981      -8.12535000E-04
  0.808799982      -8.10632482E-04
  0.810599983      -8.06450087E-04
  0.812399983      -8.00045498E-04
  0.814199984      -7.91483093E-04
  0.815999985      -7.80833245E-04
  0.817799985      -7.68171565E-04
  0.819599986      -7.53578963E-04
  0.821399987      -7.37140479E-04
  0.823199987      -7.18944939E-04
  0.824999988      -6.99084660E-04
  0.826799989      -6.77654578E-04
  0.828599989      -6.54751784E-04
  0.830399990      -6.30475173E-04
  0.832199991      -6.04924746E-04
  0.833999991      -5.78201027E-04
  0.835799992      -5.50405239E-04
  0.837599993      -5.21637965E-04
  0.839399993      -4.91999323E-04
  0.841199994      -4.61588410E-04
  0.842999995      -4.30503045E-04
  0.844799995      -3.98839271E-04
  0.846599996      -3.66691122E-04
  0.848399997      -3.34150391E-04
  0.850199997      -3.01306340E-04
  0.851999998      -2.68245523E-04
  0.853799999      -2.35051572E-04
  0.855599999      -2.01805102E-04
  0.857400000      -1.68583487E-04
  0.859200001      -1.35460927E-04
  0.861000001      -1.02508209E-04
  0.862800002      -6.97927680E-05
  0.864600003      -3.73786643E-05
  0.866400003      -5.32660897E-06
  0.868200004       2.63060592E-05
  0.870000005       5.74652295E-05
  0.871800005       8.81000378E-05
  0.873600006       1.18162679E-04
  0.875400007       1.47608385E-04
  0.877200007       1.76395217E-04
  0.879000008       2.04483978E-04
  0.880800009       2.31838101E-04
  0.882600009       2.58423359E-04
  0.884400010       2.84207868E-04
  0.886200011       3.09161813E-04
  0.888000011       3.33257252E-04
  0.889800012       3.56468139E-04
  0.891600013       3.78769968E-04
  0.893400013       4.00139601E-04
  0.895200014       4.20555327E-04
  0.897000015       4.39996453E-04
  0.898800015       4.58443363E-04
  0.900600016       4.75877285E-04
  0.902400017       4.92280175E-04
  0.904200017       5.07634773E-04
  0.906000018       5.21924288E-04
  0.907800019       5.35132422E-04
  0.909600019       5.47243340E-04
  0.911400020       5.58241853E-04
  0.913200021       5.68112824E-04
  0.915000021       5.76841820E-04
  0.916800022       5.84414636E-04
  0.918600023       5.90817595E-04
  0.920400023       5.96037542E-04
  0.922200024       6.00062078E-04
  0.924000025       6.02879154E-04
  0.925800025       6.04477711E-04
  0.927600026       6.04847679E-04
  0.929400027       6.03979861E-04
  0.931200027       6.01866457E-04
  0.933000028       5.98500948E-04
  0.934800029       5.93878445E-04
  0.936600029       5.87995572E-04
  0.938399971       5.80851163E-04
  0.940199971       5.72445861E-04
  0.941999972       5.62782865E-04
  0.943799973       5.51867590E-04
  0.945599973       5.39708359E-04
  0.947399974       5.26316231E-04
  0.949199975       5.11705468E-04
  0.950999975       4.95893299E-04
  0.952799976       4.78900474E-04
  0.954599977       4.60751209E-04
  0.956399977       4.41473472E-04
  0.958199978       4.21098870E-04
  0.959999979       3.99662938E-04
  0.961799979       3.77205171E-04
  0.963599980       3.53768992E-04
  0.965399981       3.29401839E-04
  0.967199981       3.04155226E-04
  0.968999982       2.78084626E-04
  0.970799983       2.51249468E-04
  0.972599983       2.23713083E-04
  0.974399984       1.95542583E-04
  0.976199985       1.66808692E-04
  0.977999985       1.37585652E-04
  0.979799986       1.07950997E-04
  0.981599987       7.79852853E-05
  0.983399987       4.77719113E-05
  0.985199988       1.73968292E-05
  0.986999989      -1.30517592E-05
  0.988799989      -4.34837530E-05
  0.990599990      -7.38074814E-05
  0.992399991      -1.03930099E-04
  0.994199991      -1.33757960E-04
  0.995999992      -1.63197023E-04
  0.997799993      -1.92153340E-04
  0.999599993      -2.20533417E-04
   1.00139999      -2.48244731E-04
   1.00320005      -2.75196187E-04
   1.00500000      -3.01298540E-04
   1.00680006      -3.26464971E-04
   1.00860000      -3.50611430E-04
   1.01040006      -3.73657240E-04
   1.01220000      -3.95525480E-04
   1.01400006      -4.16143390E-04
   1.01580000      -4.35442955E-04
   1.01760006      -4.53361165E-04
   1.01940000      -4.69840510E-04
   1.02119994      -4.84829419E-04
   1.02300000      -4.98282432E-04
   1.02479994      -5.10160637E-04
   1.02660000      -5.20431902E-04
   1.02839994      -5.29071142E-04
   1.03020000      -5.36060485E-04
   1.03199995      -5.41389396E-04
   1.03380001      -5.45054849E-04
   1.03559995      -5.47061441E-04
   1.03740001      -5.47421456E-04
   1.03919995      -5.46154333E-04
   1.04100001      -5.43287199E-04
   1.04279995      -5.38854511E-04
   1.04460001      -5.32897655E-04
   1.04639995      -5.25464944E-04
   1.04820001      -5.16611268E-04
   1.04999995      -5.06397686E-04
   1.05180001      -4.94890963E-04
   1.05359995      -4.82163305E-04
   1.05540001      -4.68291750E-04
   1.05719995      -4.53357585E-04
   1.05900002      -4.37445968E-04
   1.06079996      -4.20645170E-04
   1.06260002      -4.03045997E-04
   1.06439996      -3.84741114E-04
   1.06620002      -3.65824526E-04
   1.06799996      -3.46390560E-04
   1.06980002      -3.26533744E-04
   1.07159996      -3.06347589E-04
   1.07340002      -2.85924179E-04
   1.07519996      -2.65353534E-04
   1.07700002      -2.44722876E-04
   1.07879996      -2.24116156E-04
   1.08060002      -2.03613235E-04
   1.08239996      -1.83289609E-04
   1.08420002      -1.63215882E-04
   1.08599997      -1.43457088E-04
   1.08780003      -1.24072598E-04
   1.08959997      -1.05115585E-04
   1.09140003      -8.66328628E-05
   1.09319997      -6.86646672E-05
   1.09500003      -5.12444676E-05
   1.09679997      -3.43989595E-05
   1.09860003      -1.81480100E-05
   1.10039997      -2.50478797E-06
   1.10220003       1.25241286E-05
   1.10399997       2.69385218E-05
   1.10580003       4.07442894E-05
   1.10759997       5.39530556E-05
   1.10940003       6.65818152E-05
   1.11119998       7.86524397E-05
   1.11300004       9.01911990E-05
   1.11479998       1.01228172E-04
   1.11660004       1.11796704E-04
   1.11839998       1.21932753E-04
   1.12020004       1.31674227E-04
   1.12199998       1.41060358E-04
   1.12380004       1.50130989E-04
   1.12559998       1.58925905E-04
   1.12740004       1.67484119E-04
   1.12919998       1.75843335E-04
   1.13100004       1.84039192E-04
   1.13279998       1.92104635E-04
   1.13460004       2.00069437E-04
   1.13639998       2.07959645E-04
   1.13820004       2.15797030E-04
   1.13999999       2.23598734E-04
   1.14180005       2.31376864E-04
   1.14359999       2.39138244E-04
   1.14540005       2.46884068E-04
   1.14719999       2.54609884E-04
   1.14900005       2.62305432E-04
   1.15079999       2.69954646E-04
   1.15260005       2.77535786E-04
   1.15439999       2.85021379E-04
   1.15620005       2.92378711E-04
   1.15799999       2.99569889E-04
   1.15980005       3.06552392E-04
   1.16159999       3.13279335E-04
   1.16340005       3.19699990E-04
   1.16520000       3.25760455E-04
   1.16700006       3.31404066E-04
   1.16880000       3.36572091E-04
   1.17060006       3.41204490E-04
   1.17240000       3.45240522E-04
   1.17420006       3.48619476E-04
   1.17600000       3.51281342E-04
   1.17780006       3.53167736E-04
   1.17960000       3.54222371E-04
   1.18139994       3.54391988E-04
   1.18320000       3.53626820E-04
   1.18499994       3.51881637E-04
   1.18680000       3.49115959E-04
   1.18859994       3.45295091E-04
   1.19040000       3.40390165E-04
   1.19219995       3.34379030E-04
   1.19400001       3.27246526E-04
   1.19579995       3.18984879E-04
   1.19760001       3.09593859E-04
   1.19939995       2.99081265E-04
   1.20120001       2.87462841E-04
   1.20299995       2.74762511E-04
   1.20480001       2.61012232E-04
   1.20659995       2.46252050E-04
   1.20840001       2.30529768E-04
   1.21019995       2.13900974E-04
   1.21200001       1.96428446E-04
   1.21379995       1.78181988E-04
   1.21560001       1.59237869E-04
   1.21739995       1.39678392E-04
   1.21920002       1.19591365E-04
   1.22099996       9.90693952E-05
   1.22280002       7.82092975E-05
   1.22459996       5.71114215E-05
   1.22640002       3.58788930E-05
   1.22819996       1.46168595E-05
   1.23000002      -6.56823158E-06
   1.23179996      -2.75694601E-05
   1.23360002      -4.82801734E-05
   1.23539996      -6.85947598E-05
   1.23720002      -8.84094552E-05
   1.23899996      -1.07623069E-04
   1.24080002      -1.26137718E-04