 -0.300000012         1.00000002E-24
 -0.298200011         1.00000002E-24
 -0.296400011         1.00000002E-24
 -0.294600010         1.00000002E-24
 -0.292800009         1.00000002E-24
 -0.291000009         1.00000002E-24
 -0.289200008         1.00000002E-24
 -0.287400007         1.00000012E-24
 -0.285600007         1.00000022E-24
 -0.283800006         1.00000022E-24
 -0.282000005         1.00000022E-24
 -0.280200005         1.00000022E-24
 -0.278400004         1.00000022E-24
 -0.276600003         1.00000022E-24
 -0.274800003         1.00000022E-24
 -0.273000002         1.00000022E-24
 -0.271200001         1.00000022E-24
 -0.269400001         1.00000012E-24
 -0.267600000         1.00000002E-24
 -0.265799999         1.00000002E-24
 -0.263999999         1.00000002E-24
 -0.262199998         1.00000002E-24
 -0.260399997         1.00000002E-24
 -0.258599997         1.00000002E-24
 -0.256799996         1.00000002E-24
 -0.254999995         1.00000012E-24
 -0.253199995         1.00000022E-24
 -0.251399994         1.00000041E-24
 -0.249599993         1.00000041E-24
 -0.247799993         1.00000041E-24
 -0.246000007         1.00000041E-24
 -0.244200006         1.00000032E-24
 -0.242400005         1.00000022E-24
 -0.240600005         1.00000012E-24
 -0.238800004         1.00000002E-24
 -0.237000003         9.99999822E-25
 -0.235200003         9.99999724E-25
 -0.233400002         9.99999724E-25
 -0.231600001         9.99999724E-25
 -0.229800001         9.99999822E-25
 -0.228000000         1.00000002E-24
 -0.226199999         1.00000022E-24
 -0.224399999         1.00000041E-24
 -0.222599998         1.00000071E-24
 -0.220799997         1.00000091E-24
 -0.218999997         1.00000101E-24
 -0.217199996         1.00000101E-24
 -0.215399995         1.00000091E-24
 -0.213599995         1.00000071E-24
 -0.211799994         1.00000041E-24
 -0.209999993         1.00000022E-24
 -0.208199993         1.00000002E-24
 -0.206400007         9.99999921E-25
 -0.204600006         9.99999724E-25
 -0.202800006         9.99999724E-25
 -0.201000005         9.99999921E-25
 -0.199200004         1.00000002E-24
 -0.197400004         1.00000022E-24
 -0.195600003         1.00000032E-24
 -0.193800002         1.00000041E-24
 -0.192000002         1.00000041E-24
 -0.190200001         1.00000032E-24
 -0.188400000         1.00000012E-24
 -0.186600000         9.99999822E-25
 -0.184799999         9.99999625E-25
 -0.182999998         9.99999329E-25
 -0.181199998         9.99999231E-25
 -0.179399997         9.99999132E-25
 -0.177599996         9.99999329E-25
 -0.175799996         9.99999527E-25
 -0.173999995         9.99999822E-25
 -0.172199994         1.00000012E-24
 -0.170399994         1.00000051E-24
 -0.168599993         1.00000081E-24
 -0.166800007         1.00000091E-24
 -0.165000007         1.00000101E-24
 -0.163200006         1.00000081E-24
 -0.161400005         1.00000051E-24
 -0.159600005         1.00000022E-24
 -0.157800004         9.99999921E-25
 -0.156000003         9.99999527E-25
 -0.154200003         9.99999231E-25
 -0.152400002         9.99999132E-25
 -0.150600001         9.99999231E-25
 -0.148800001         9.99999428E-25
 -0.147000000         9.99999822E-25
 -0.145199999         1.00000022E-24
 -0.143399999         1.00000061E-24
 -0.141599998         1.00000091E-24
 -0.139799997         1.00000101E-24
 -0.137999997         1.00000110E-24
 -0.136199996         1.00000091E-24
 -0.134399995         1.00000071E-24
 -0.132599995         1.00000041E-24
 -0.130799994         1.00000002E-24
 -0.128999993         9.99999625E-25
 -0.127200007         9.99999428E-25
 -0.125400007         9.99999329E-25
 -0.123599999         9.99999428E-25
 -0.121799998         9.99999527E-25
 -0.119999997         9.99999724E-25
 -0.118199997         9.99999921E-25
 -0.116400003         1.00000022E-24
 -0.114600003         1.00000041E-24
 -0.112800002         1.00000051E-24
 -0.111000001         1.00000041E-24
 -0.109200001         1.00000022E-24
 -0.107400000         1.00000002E-24
 -0.105599999         9.99999822E-25
 -0.103799999         9.99999527E-25
 -0.101999998         9.99999329E-25
 -0.100199997         9.99999329E-25
  -9.83999968E-02     9.99999527E-25
  -9.66000035E-02     9.99999822E-25
  -9.48000029E-02     1.00000032E-24
  -9.30000022E-02     1.00000071E-24
  -9.12000015E-02     1.00000110E-24
  -8.94000009E-02     1.00000150E-24
  -8.76000002E-02     1.00000170E-24
  -8.57999995E-02     1.00000160E-24
  -8.39999989E-02     1.00000140E-24
  -8.21999982E-02     1.00000110E-24
  -8.03999975E-02     1.00000051E-24
  -7.85999969E-02     9.99999921E-25
  -7.68000036E-02     9.99999329E-25
  -7.50000030E-02     9.99998935E-25
  -7.32000023E-02     9.99998639E-25
  -7.14000016E-02     9.99998540E-25
  -6.96000010E-02     9.99998540E-25
  -6.78000003E-02     9.99998836E-25
  -6.59999996E-02     9.99999428E-25
  -6.41999990E-02     1.00000022E-24
  -6.23999983E-02     1.00000091E-24
  -6.06000014E-02     1.00000150E-24
  -5.88000007E-02     1.00000199E-24
  -5.70000000E-02     1.00000229E-24
  -5.51999994E-02     1.00000229E-24
  -5.33999987E-02     1.00000209E-24
  -5.16000018E-02     1.00000160E-24
  -4.98000011E-02     1.00000110E-24
  -4.80000004E-02     1.00000061E-24
  -4.61999997E-02     1.00000012E-24
  -4.43999991E-02     9.99999822E-25
  -4.25999984E-02     9.99999527E-25
  -4.08000015E-02     9.99999428E-25
  -3.90000008E-02     9.99999329E-25
  -3.72000001E-02     9.99999329E-25
  -3.53999995E-02     9.99999428E-25
  -3.35999988E-02     9.99999527E-25
  -3.18000019E-02     9.99999625E-25
  -2.99999993E-02     9.99999625E-25
  -2.82000005E-02     9.99999724E-25
  -2.63999999E-02     9.99999724E-25
  -2.45999992E-02     9.99999724E-25
  -2.28000004E-02     9.99999724E-25
  -2.09999997E-02     9.99999625E-25
  -1.92000009E-02     9.99999724E-25
  -1.74000002E-02     9.99999822E-25
  -1.55999996E-02     1.00000002E-24
  -1.37999998E-02     1.00000022E-24
  -1.20000001E-02     1.00000051E-24
  -1.02000004E-02     1.00000061E-24
  -8.39999970E-03     1.00000071E-24
  -6.59999996E-03     1.00000061E-24
  -4.80000023E-03     1.00000041E-24
  -3.00000003E-03     1.00000032E-24
  -1.20000006E-03     9.99999921E-25
   6.00000028E-04     9.99999625E-25
   2.40000011E-03     9.99999329E-25
   4.19999985E-03     9.99999132E-25
   6.00000005E-03     9.99999033E-25
   7.79999979E-03     9.99999033E-25
   9.60000046E-03     9.99999231E-25
   1.14000002E-02     9.99999625E-25
   1.31999999E-02     1.00000002E-24
   1.49999997E-02     1.00000051E-24
   1.67999994E-02     1.00000101E-24
   1.86000001E-02     1.00000140E-24
   2.04000007E-02     1.00000160E-24
   2.21999995E-02     1.00000170E-24
   2.40000002E-02     1.00000140E-24
   2.58000009E-02     1.00000101E-24
   2.75999997E-02     1.00000051E-24
   2.94000003E-02     9.99999822E-25
   3.11999992E-02     9.99999329E-25
   3.29999998E-02     9.99998935E-25
   3.48000005E-02     9.99998738E-25
   3.66000012E-02     9.99998639E-25
   3.84000018E-02     9.99998935E-25
   4.01999988E-02     9.99999231E-25
   4.19999994E-02     9.99999724E-25
   4.38000001E-02     1.00000022E-24
   4.56000008E-02     1.00000051E-24
   4.74000014E-02     1.00000081E-24
   4.91999984E-02     1.00000091E-24
   5.09999990E-02     1.00000071E-24
   5.27999997E-02     1.00000041E-24
   5.46000004E-02     1.00000002E-24
   5.64000010E-02     9.99999527E-25
   5.82000017E-02     9.99999132E-25
   5.99999987E-02     9.99999033E-25
   6.17999993E-02     9.99999033E-25
   6.36000037E-02     9.99999231E-25
   6.53999969E-02     9.99999625E-25
   6.71999976E-02     1.00000012E-24
   6.89999983E-02     1.00000081E-24
   7.07999989E-02     1.00000130E-24
   7.25999996E-02     1.00000150E-24
   7.44000003E-02     1.00000150E-24
   7.62000009E-02     1.00000120E-24
   7.80000016E-02     1.00000061E-24
   7.98000023E-02     9.99999822E-25
   8.16000029E-02     9.99999033E-25
   8.34000036E-02     9.99998442E-25
   8.51999968E-02     9.99998047E-25
   8.69999975E-02     9.99997949E-25
   8.87999982E-02     9.99998146E-25
   9.05999988E-02     9.99998738E-25
   9.23999995E-02     9.99999625E-25
   9.42000002E-02     1.00000061E-24
   9.60000008E-02     1.00000170E-24
   9.78000015E-02     1.00000258E-24
   9.96000022E-02     1.00000308E-24
  0.101400003         1.00000327E-24
  0.103200004         1.00000308E-24
  0.104999997         1.00000248E-24
  0.106799997         1.00000160E-24
  0.108599998         1.00000061E-24
  0.110399999         9.99999724E-25
  0.112199999         9.99998935E-25
  0.114000000         9.99998540E-25
  0.115800001         9.99998442E-25
  0.117600001         9.99998836E-25
  0.119400002         9.99999527E-25
  0.121200003         1.00000051E-24
  0.123000003         1.00000150E-24
  0.124799997         1.00000248E-24
  0.126599997         1.00000308E-24
  0.128399998         1.00000327E-24
  0.130199999         1.00000288E-24
  0.131999999         1.00000199E-24
  0.133800000         1.00000071E-24
  0.135600001         9.99999329E-25
  0.137400001         9.99997949E-25
  0.139200002         9.99996765E-25
  0.141000003         9.99995977E-25
  0.142800003         9.99995878E-25
  0.144600004         9.99996272E-25
  0.146400005         9.99997357E-25
  0.148200005         9.99998639E-25
  0.150000006         1.00000022E-24
  0.151800007         1.00000179E-24
  0.153600007         1.00000308E-24
  0.155399993         1.00000396E-24
  0.157199994         1.00000436E-24
  0.158999994         1.00000406E-24
  0.160799995         1.00000337E-24
  0.162599996         1.00000219E-24
  0.164399996         1.00000081E-24
  0.166199997         9.99999527E-25
  0.167999998         9.99998245E-25
  0.169799998         9.99997259E-25
  0.171599999         9.99996765E-25
  0.173400000         9.99996667E-25
  0.175200000         9.99997061E-25
  0.177000001         9.99997752E-25
  0.178800002         9.99998540E-25
  0.180600002         9.99999428E-25
  0.182400003         1.00000012E-24
  0.184200004         1.00000081E-24
  0.186000004         1.00000110E-24
  0.187800005         1.00000120E-24
  0.189600006         1.00000101E-24
  0.191400006         1.00000071E-24
  0.193200007         1.00000032E-24
  0.194999993         1.00000012E-24
  0.196799994         1.00000012E-24
  0.198599994         1.00000022E-24
  0.200399995         1.00000061E-24
  0.202199996         1.00000101E-24
  0.203999996         1.00000150E-24
  0.205799997         1.00000170E-24
  0.207599998         1.00000179E-24
  0.209399998         1.00000160E-24
  0.211199999         1.00000091E-24
  0.213000000         1.00000002E-24
  0.214800000         9.99998836E-25
  0.216600001         9.99997752E-25
  0.218400002         9.99996765E-25
  0.220200002         9.99995977E-25
  0.222000003         9.99995681E-25
  0.223800004         9.99995779E-25
  0.225600004         9.99996371E-25
  0.227400005         9.99997456E-25
  0.229200006         9.99998836E-25
  0.231000006         1.00000032E-24
  0.232800007         1.00000170E-24
  0.234599993         1.00000258E-24
  0.236399993         1.00000308E-24
  0.238199994         1.00000288E-24
  0.239999995         1.00000209E-24
  0.241799995         1.00000061E-24
  0.243599996         9.99998738E-25
  0.245399997         9.99996568E-25
  0.247199997         9.99994399E-25
  0.248999998         9.99992525E-25
  0.250800014         9.99990948E-25
  0.252600014         9.99989863E-25
  0.254400015         9.99989370E-25
  0.256199986         9.99989567E-25
  0.257999986         9.99990159E-25
  0.259799987         9.99990948E-25
  0.261599988         9.99991934E-25
  0.263399988         9.99992821E-25
  0.265199989         9.99993511E-25
  0.266999990         9.99993906E-25
  0.268799990         9.99994300E-25
  0.270599991         9.99994793E-25
  0.272399992         9.99995779E-25
  0.274199992         9.99997554E-25
  0.275999993         1.00000041E-24
  0.277799994         1.00000485E-24
  0.279599994         1.00001146E-24
  0.281399995         1.00002043E-24
  0.283199996         1.00003217E-24
  0.284999996         1.00004706E-24
  0.286799997         1.00006520E-24
  0.288599998         1.00008689E-24
  0.290399998         1.00011253E-24
  0.292199999         1.00014201E-24
  0.294000000         1.00017554E-24
  0.295800000         1.00021321E-24
  0.297600001         1.00025512E-24
  0.299400002         1.00030107E-24
  0.301200002         1.00035096E-24
  0.303000003         1.00040411E-24
  0.304800004         1.00045983E-24
  0.306600004         1.00051682E-24
  0.308400005         1.00057352E-24
  0.310200006         1.00062746E-24
  0.312000006         1.00067607E-24
  0.313800007         1.00071581E-24
  0.315600008         1.00074244E-24
  0.317400008         1.00075102E-24
  0.319200009         1.00073583E-24
  0.321000010         1.00069027E-24
  0.322800010         1.00060695E-24
  0.324600011         1.00047758E-24
  0.326400012         1.00029328E-24
  0.328200012         1.00004420E-24
  0.330000013         9.99719284E-25
  0.331800014         9.99307400E-25
  0.333600014         9.98796415E-25
  0.335399985         9.98174102E-25
  0.337199986         9.97428234E-25
  0.338999987         9.96546781E-25
  0.340799987         9.95518698E-25
  0.342599988         9.94334322E-25
  0.344399989         9.92986060E-25
  0.346199989         9.91469179E-25
  0.347999990         9.89782693E-25
  0.349799991         9.87930546E-25
  0.351599991         9.85922501E-25
  0.353399992         9.83775024E-25
  0.355199993         9.81513360E-25
  0.356999993         9.79171824E-25
  0.358799994         9.76795873E-25
  0.360599995         9.74442997E-25
  0.362399995         9.72184587E-25
  0.364199996         9.70106629E-25
  0.365999997         9.68311477E-25
  0.367799997         9.66918447E-25
  0.369599998         9.66064900E-25
  0.371399999         9.65906832E-25
  0.373199999         9.66618877E-25
  0.375000000         9.68394307E-25
  0.376800001         9.71444044E-25
  0.378600001         9.75994884E-25
  0.380400002         9.82288120E-25
  0.382200003         9.90576189E-25
  0.384000003         1.00111862E-24
  0.385800004         1.01417792E-24
  0.387600005         1.03001282E-24
  0.389400005         1.04887212E-24
  0.391200006         1.07098616E-24
  0.393000007         1.09655847E-24
  0.394800007         1.12575451E-24
  0.396600008         1.15869162E-24
  0.398400009         1.19542660E-24
  0.400200009         1.23594279E-24
  0.402000010         1.28013735E-24
  0.403800011         1.32780722E-24
  0.405600011         1.37863639E-24
  0.407400012         1.43218230E-24
  0.409200013         1.48786444E-24
  0.411000013         1.54495361E-24
  0.412800014         1.60256324E-24
  0.414600015         1.65964304E-24
  0.416399986         1.71497671E-24
  0.418199986         1.76718293E-24
  0.419999987         1.81472028E-24
  0.421799988         1.85589941E-24
  0.423599988         1.88889864E-24
  0.425399989         1.91178784E-24
  0.427199990         1.92255875E-24
  0.428999990         1.91916152E-24
  0.430799991         1.89955103E-24
  0.432599992         1.86173777E-24
  0.434399992         1.80384918E-24
  0.436199993         1.72419376E-24
  0.437999994         1.62133448E-24
  0.439799994         1.49416478E-24
  0.441599995         1.34198690E-24
  0.443399996         1.16459220E-24
  0.445199996         9.62337138E-25
  0.446999997         7.36216273E-25
  0.448799998         4.87924719E-25
  0.450599998         2.19907920E-25
  0.452399999        -6.46077636E-26
  0.454200000        -3.61605235E-25
  0.456000000        -6.66298840E-25
  0.457800001        -9.73187919E-25
  0.459600002        -1.27615458E-24
  0.461400002        -1.56860534E-24
  0.463200003        -1.84366674E-24
  0.465000004        -2.09444069E-24
  0.466800004        -2.31432305E-24
  0.468600005        -2.49739084E-24
  0.470400006        -2.63886042E-24
  0.472200006        -2.73562112E-24
  0.474000007        -2.78683929E-24
  0.475800008        -2.79463896E-24
  0.477600008        -2.76484585E-24
  0.479400009        -2.70779306E-24
  0.481200010        -2.63917518E-24
  0.483000010        -2.58094166E-24
  0.484800011        -2.56220129E-24
  0.486600012        -2.62012715E-24
  0.488400012        -2.80082579E-24
  0.490200013        -3.16014582E-24
  0.492000014        -3.76438271E-24
  0.493800014        -4.69085054E-24
  0.495599985        -6.02826047E-24
  0.497399986        -7.87686528E-24
  0.499199986        -1.03483176E-23
  0.500999987        -1.35651827E-23
  0.502799988        -1.76600366E-23
  0.504599988        -2.27741130E-23
  0.506399989        -2.90554101E-23
  0.508199990        -3.66562237E-23
  0.509999990        -4.57300300E-23
  0.511799991        -5.64276686E-23
  0.513599992        -6.88928069E-23
  0.515399992        -8.32565882E-23
  0.517199993        -9.96315357E-23
  0.518999994        -1.18104569E-22
  0.520799994        -1.38729319E-22
  0.522599995        -1.61517554E-22
  0.524399996        -1.86429920E-22
  0.526199996        -2.13366024E-22
  0.527999997        -2.42153893E-22
  0.529799998        -2.72539124E-22
  0.531599998        -3.04173532E-22
  0.533399999        -3.36603995E-22
  0.535200000        -3.69261044E-22
  0.537000000        -4.01448285E-22
  0.538800001        -4.32332228E-22
  0.540600002        -4.60932967E-22
  0.542400002        -4.86116689E-22
  0.544200003        -5.06589611E-22
  0.546000004        -5.20893918E-22
  0.547800004        -5.27406956E-22
  0.549600005        -5.24342591E-22
  0.551400006        -5.09756868E-22
  0.553200006        -4.81557148E-22
  0.555000007        -4.37515789E-22
  0.556800008        -3.75289027E-22
  0.558600008        -2.92440583E-22
  0.560400009        -1.86471433E-22
  0.562200010        -5.48554688E-23
  0.564000010         1.04918911E-22
  0.565800011         2.95300374E-22
  0.567600012         5.18619626E-22
  0.569400012         7.77028093E-22
  0.571200013         1.07242997E-21
  0.573000014         1.40640848E-21
  0.574800014         1.78014478E-21
  0.576600015         2.19433407E-21
  0.578400016         2.64909438E-21
  0.580200016         3.14387400E-21
  0.582000017         3.67735379E-21
  0.583800018         4.24734949E-21
  0.585600019         4.85071394E-21
  0.587400019         5.48323771E-21
  0.589200020         6.13955786E-21
  0.591000021         6.81306504E-21
  0.592800021         7.49582508E-21
  0.594600022         8.17850031E-21
  0.596400023         8.85028972E-21
  0.598200023         9.49887687E-21
  0.600000024         1.01104000E-20
  0.601800025         1.06694336E-20
  0.603600025         1.11589952E-20
  0.605400026         1.15605712E-20
  0.607200027         1.18541735E-20
  0.609000027         1.20184197E-20
  0.610800028         1.20306408E-20
  0.612600029         1.18670336E-20
  0.614400029         1.15028277E-20
  0.616199970         1.09125067E-20
  0.617999971         1.00700548E-20
  0.619799972         8.94924120E-21
  0.621599972         7.52395892E-21
  0.623399973         5.76857786E-21
  0.625199974         3.65835328E-21
  0.626999974         1.16988259E-21
  0.628799975        -1.71841643E-21
  0.630599976        -5.02579107E-21
  0.632399976        -8.76857897E-21
  0.634199977        -1.29596220E-20
  0.635999978        -1.76076525E-20
  0.637799978        -2.27166107E-20
  0.639599979        -2.82849984E-20
  0.641399980        -3.43051575E-20
  0.643199980        -4.07625591E-20
  0.644999981        -4.76350826E-20
  0.646799982        -5.48922677E-20
  0.648599982        -6.24946197E-20
  0.650399983        -7.03928504E-20
  0.652199984        -7.85272024E-20
  0.653999984        -8.68267837E-20
  0.655799985        -9.52088892E-20
  0.657599986        -1.03578509E-19
  0.659399986        -1.11827749E-19
  0.661199987        -1.19835361E-19
  0.662999988        -1.27466503E-19
  0.664799988        -1.34572437E-19
  0.666599989        -1.40990441E-19
  0.668399990        -1.46543821E-19
  0.670199990        -1.51042236E-19
  0.671999991        -1.54282018E-19
  0.673799992        -1.56046821E-19
  0.675599992        -1.56108498E-19
  0.677399993        -1.54228278E-19
  0.679199994        -1.50158200E-19
  0.680999994        -1.43642757E-19
  0.682799995        -1.34421257E-19
  0.684599996        -1.22230179E-19
  0.686399996        -1.06806026E-19
  0.688199997        -8.78887802E-20
  0.689999998        -6.52256664E-20
  0.691799998        -3.85753708E-20
  0.693599999        -7.71283479E-21
  0.695400000         2.75654223E-20
  0.697200000         6.74356926E-20
  0.699000001         1.12040696E-19
  0.700800002         1.61483001E-19
  0.702600002         2.15817561E-19
  0.704400003         2.75044404E-19
  0.706200004         3.39100443E-19
  0.708000004         4.07851146E-19
  0.709800005         4.81082040E-19
  0.711600006         5.58490119E-19
  0.713400006         6.39674898E-19
  0.715200007         7.24129935E-19
  0.717000008         8.11234173E-19
  0.718800008         9.00244442E-19
  0.720600009         9.90287601E-19
  0.722400010         1.08035423E-18
  0.724200010         1.16929259E-18
  0.726000011         1.25580482E-18
  0.727800012         1.33844410E-18
  0.729600012         1.41561291E-18
  0.731400013         1.48556489E-18
  0.733200014         1.54640764E-18
  0.735000014         1.59610848E-18
  0.736800015         1.63250349E-18
  0.738600016         1.65330926E-18
  0.740400016         1.65613822E-18
  0.742200017         1.63851782E-18
  0.744000018         1.59791225E-18
  0.745800018         1.53175052E-18
  0.747600019         1.43745586E-18
  0.749400020         1.31248231E-18
  0.751200020         1.15435298E-18
  0.753000021         9.60703487E-19
  0.754800022         7.29330316E-19
  0.756600022         4.58241774E-19
  0.758400023         1.45713616E-19
  0.760200024        -2.09652881E-19
  0.762000024        -6.08869296E-19
  0.763800025        -1.05249655E-18
  0.765600026        -1.54057964E-18
  0.767400026        -2.07258043E-18
  0.769200027        -2.64731276E-18
  0.771000028        -3.26287472E-18
  0.772800028        -3.91658770E-18
  0.774600029        -4.60493474E-18
  0.776400030        -5.32350198E-18
  0.778199971        -6.06692973E-18
  0.779999971        -6.82886896E-18
  0.781799972        -7.60194286E-18
  0.783599973        -8.37772247E-18
  0.785399973        -9.14671092E-18
  0.787199974        -9.89834017E-18
  0.788999975        -1.06209809E-17
  0.790799975        -1.13019705E-17
  0.792599976        -1.19276566E-17
  0.794399977        -1.24834541E-17
  0.796199977        -1.29539288E-17
  0.797999978        -1.33228927E-17
  0.799799979        -1.35735260E-17
  0.801599979        -1.36885190E-17
  0.803399980        -1.36502279E-17
  0.805199981        -1.34408652E-17
  0.806999981        -1.30427076E-17
  0.808799982        -1.24383140E-17
  0.810599983        -1.16107777E-17
  0.812399983        -1.05440010E-17
  0.814199984        -9.22296291E-18
  0.815999985        -7.63404160E-18
  0.817799985        -5.76531900E-18
  0.819599986        -3.60691568E-18
  0.821399987        -1.15133460E-18
  0.823199987         1.60619305E-18
  0.824999988         4.66736123E-18
  0.826799989         8.03042655E-18
  0.828599989         1.16898653E-17
  0.830399990         1.56360164E-17
  0.832199991         1.98547716E-17
  0.833999991         2.43272412E-17
  0.835799992         2.90294602E-17
  0.837599993         3.39321366E-17
  0.839399993         3.90003781E-17
  0.841199994         4.41935337E-17
  0.842999995         4.94649970E-17
  0.844799995         5.47621226E-17
  0.846599996         6.00261412E-17
  0.848399997         6.51921753E-17
  0.850199997         7.01893190E-17
  0.851999998         7.49407238E-17
  0.853799999         7.93639034E-17
  0.855599999         8.33709251E-17
  0.857400000         8.68688800E-17
  0.859200001         8.97603130E-17
  0.861000001         9.19438581E-17
  0.862800002         9.33148471E-17
  0.864600003         9.37661833E-17
  0.866400003         9.31892017E-17
  0.868200004         9.14747474E-17
  0.870000005         8.85142217E-17
  0.871800005         8.42009711E-17
  0.873600006         7.84316378E-17
  0.875400007         7.11076483E-17
  0.877200007         6.21369076E-17
  0.879000008         5.14355695E-17
  0.880800009         3.89298758E-17
  0.882600009         2.45582231E-17
  0.884400010         8.27319910E-18
  0.886200011        -9.95612783E-18
  0.888000011        -3.01420115E-17
  0.889800012        -5.22756541E-17
  0.891600013        -7.63247955E-17
  0.893400013        -1.02231378E-16
  0.895200014        -1.29908967E-16
  0.897000015        -1.59240526E-16
  0.898800015        -1.90076033E-16
  0.900600016        -2.22230237E-16
  0.902400017        -2.55480622E-16
  0.904200017        -2.89565466E-16
  0.906000018        -3.24182246E-16
  0.907800019        -3.58986274E-16
  0.909600019        -3.93589688E-16
  0.911400020        -4.27560977E-16
  0.913200021        -4.60424664E-16
  0.915000021        -4.91662021E-16
  0.916800022        -5.20711810E-16
  0.918600023        -5.46972373E-16
  0.920400023        -5.69803881E-16
  0.922200024        -5.88531727E-16
  0.924000025        -6.02450860E-16
  0.925800025        -6.10830716E-16
  0.927600026        -6.12921352E-16
  0.929400027        -6.07961127E-16
  0.931200027        -5.95184376E-16
  0.933000028        -5.73831364E-16
  0.934800029        -5.43158607E-16
  0.936600029        -5.02450680E-16
  0.938399971        -4.51032815E-16
  0.940199971        -3.88284959E-16
  0.941999972        -3.13656592E-16
  0.943799973        -2.26682666E-16
  0.945599973        -1.27000467E-16
  0.947399974        -1.43661933E-17
  0.949199975         1.11326427E-16
  0.950999975         2.50028271E-16
  0.952799976         4.01516169E-16
  0.954599977         5.65375487E-16
  0.956399977         7.40981511E-16
  0.958199978         9.27483395E-16
  0.959999979         1.12378773E-15
  0.961799979         1.32854460E-15
  0.963599980         1.54013449E-15
  0.965399981         1.75665845E-15
  0.967199981         1.97593072E-15
  0.968999982         2.19547382E-15
  0.970799983         2.41251818E-15
  0.972599983         2.62400600E-15
  0.974399984         2.82659765E-15
  0.976199985         3.01668603E-15
  0.977999985         3.19041312E-15
  0.979799986         3.34369411E-15
  0.981599987         3.47224809E-15
  0.983399987         3.57163301E-15
  0.985199988         3.63728822E-15
  0.986999989         3.66458344E-15
  0.988799989         3.64887479E-15
  0.990599990         3.58556797E-15
  0.992399991         3.47018599E-15
  0.994199991         3.29844349E-15
  0.995999992         3.06632851E-15
  0.997799993         2.77019013E-15
  0.999599993         2.40682464E-15
   1.00139999         1.97357300E-15
   1.00320005         1.46841939E-15
   1.00500000         8.90085197E-16
   1.00680006         2.38132910E-16
   1.00860000        -4.86938066E-16
   1.01040006        -1.28359638E-15
   1.01220000        -2.14918474E-15
   1.01400006        -3.07983488E-15
   1.01580000        -4.07039099E-15
   1.01760006        -5.11434004E-15
   1.01940000        -6.20375867E-15
   1.02119994        -7.32926683E-15
   1.02300000        -8.48000428E-15
   1.02479994        -9.64362596E-15
   1.02660000        -1.08063040E-14
   1.02839994        -1.19527750E-14
   1.03020000        -1.30663887E-14
   1.03199995        -1.41291957E-14
   1.03380001        -1.51220555E-14
   1.03559995        -1.60247792E-14
   1.03740001        -1.68162925E-14
   1.03919995        -1.74748437E-14
   1.04100001        -1.79782167E-14
   1.04279995        -1.83039974E-14
   1.04460001        -1.84298564E-14
   1.04639995        -1.83338655E-14
   1.04820001        -1.79948270E-14
   1.04999995        -1.73926645E-14
   1.05180001        -1.65087687E-14
   1.05359995        -1.53264310E-14
   1.05540001        -1.38312349E-14
   1.05719995        -1.20115159E-14
   1.05900002        -9.85875030E-15
   1.06079996        -7.36800672E-15
   1.06260002        -4.53835425E-15
   1.06439996        -1.37327684E-15
   1.06620002         2.11894440E-15
   1.06799996         5.92489298E-15
   1.06980002         1.00256844E-14
   1.07159996         1.43967056E-14
   1.07340002         1.90073770E-14
   1.07519996         2.38210246E-14
   1.07700002         2.87947665E-14
   1.07879996         3.38795086E-14
   1.08060002         3.90200228E-14
   1.08239996         4.41551093E-14
   1.08420002         4.92178320E-14
   1.08599997         5.41359323E-14
   1.08780003         5.88322522E-14
   1.08959997         6.32253378E-14
   1.09140003         6.72301096E-14
   1.09319997         7.07586862E-14
   1.09500003         7.37213093E-14
   1.09679997         7.60273463E-14
   1.09860003         7.75864494E-14
   1.10039997         7.83097545E-14
   1.10220003         7.81112032E-14
   1.10399997         7.69089992E-14
   1.10580003         7.46269772E-14
   1.10759997         7.11962566E-14
   1.10940003         6.65566913E-14
   1.11119998         6.06585230E-14
   1.11300004         5.34639573E-14
   1.11479998         4.49487181E-14
   1.11660004         3.51035051E-14
   1.11839998         2.39355807E-14
   1.12020004         1.14700509E-14
   1.12199998        -2.24894807E-15
   1.12380004        -1.71570911E-14
   1.12559998        -3.31689395E-14
   1.12740004        -5.01772797E-14
   1.12919998        -6.80526260E-14
   1.13100004        -8.66429527E-14
   1.13279998        -1.05773822E-13
   1.13460004        -1.25248688E-13
   1.13639998        -1.44849668E-13
   1.13820004        -1.64338473E-13
   1.13999999        -1.83457809E-13
   1.14180005        -2.01933197E-13
   1.14359999        -2.19475059E-13
   1.14540005        -2.35781230E-13
   1.14719999        -2.50539850E-13
   1.14900005        -2.63432613E-13
   1.15079999        -2.74138378E-13
   1.15260005        -2.82337142E-13
   1.15439999        -2.87714270E-13
   1.15620005        -2.89965046E-13