 -0.300000012         1.00000002E-24
 -0.298200011         1.00000002E-24
 -0.296400011         1.00000002E-24
 -0.294600010         8.87910576E-25
 -0.292800009         9.79011747E-20
 -0.291000009         8.72684128E-19
 -0.289200008         4.29870503E-18
 -0.287400007         1.54448434E-17
 -0.285600007         4.51568584E-17
 -0.283800006         1.13796349E-16
 -0.282000005         2.55921105E-16
 -0.280200005         5.25550592E-16
 -0.278400004         1.00139009E-15
 -0.276600003         1.79111279E-15
 -0.274800003         3.03355321E-15
 -0.273000002         4.89747039E-15
 -0.271200001         7.57543069E-15
 -0.269400001         1.12713438E-14
 -0.267600000         1.61802690E-14
 -0.265799999         2.24593039E-14
 -0.263999999         3.01886540E-14
 -0.262199998         3.93222950E-14
 -0.260399997         4.96280026E-14
 -0.258599997         6.06170320E-14
 -0.256799996         7.14638377E-14
 -0.254999995         8.09166712E-14
 -0.253199995         8.72000700E-14
 -0.251399994         8.79102021E-14
 -0.249599993         7.99042703E-14
 -0.247799993         5.91844079E-14
 -0.246000007         2.07771541E-14
 -0.244200006        -4.13918879E-14
 -0.242400005        -1.34628081E-13
 -0.240600005        -2.67603919E-13
 -0.238800004        -4.50502699E-13
 -0.237000003        -6.95171893E-13
 -0.235200003        -1.01529028E-12
 -0.233400002        -1.42655202E-12
 -0.231600001        -1.94687192E-12
 -0.229800001        -2.59662018E-12
 -0.228000000        -3.39889054E-12
 -0.226199999        -4.37980945E-12
 -0.224399999        -5.56889647E-12
 -0.222599998        -6.99947782E-12
 -0.220799997        -8.70917227E-12
 -0.218999997        -1.07404381E-11
 -0.217199996        -1.31412173E-11
 -0.215399995        -1.59656594E-11
 -0.213599995        -1.92749410E-11
 -0.211799994        -2.31381893E-11
 -0.209999993        -2.76335135E-11
 -0.208199993        -3.28491644E-11
 -0.206400007        -3.88848016E-11
 -0.204600006        -4.58528909E-11
 -0.202800006        -5.38802544E-11
 -0.201000005        -6.31097535E-11
 -0.199200004        -7.37021486E-11
 -0.197400004        -8.58381213E-11
 -0.195600003        -9.97205096E-11
 -0.193800002        -1.15576729E-10
 -0.192000002        -1.33661471E-10
 -0.190200001        -1.54259605E-10
 -0.188400000        -1.77689405E-10
 -0.186600000        -2.04306086E-10
 -0.184799999        -2.34505582E-10
 -0.182999998        -2.68728900E-10
 -0.181199998        -3.07466552E-10
 -0.179399997        -3.51263629E-10
 -0.177599996        -4.00725120E-10
 -0.175799996        -4.56521848E-10
 -0.173999995        -5.19396581E-10
 -0.172199994        -5.90170801E-10
 -0.170399994        -6.69751699E-10
 -0.168599993        -7.59139918E-10
 -0.166800007        -8.59437299E-10
 -0.165000007        -9.71855596E-10
 -0.163200006        -1.09772480E-09
 -0.161400005        -1.23850274E-09
 -0.159600005        -1.39578471E-09
 -0.157800004        -1.57131275E-09
 -0.156000003        -1.76698667E-09
 -0.154200003        -1.98487360E-09
 -0.152400002        -2.22722041E-09
 -0.150600001        -2.49646281E-09
 -0.148800001        -2.79523760E-09
 -0.147000000        -3.12639403E-09
 -0.145199999        -3.49300455E-09
 -0.143399999        -3.89837718E-09
 -0.141599998        -4.34606484E-09
 -0.139799997        -4.83987916E-09
 -0.137999997        -5.38389866E-09
 -0.136199996        -5.98247896E-09
 -0.134399995        -6.64026478E-09
 -0.132599995        -7.36219796E-09
 -0.130799994        -8.15352319E-09
 -0.128999993        -9.01979647E-09
 -0.127200007        -9.96689220E-09
 -0.125400007        -1.10010054E-08
 -0.123599999        -1.21286519E-08
 -0.121799998        -1.33566740E-08
 -0.119999997        -1.46922305E-08
 -0.118199997        -1.61428009E-08
 -0.116400003        -1.77161645E-08
 -0.114600003        -1.94204084E-08
 -0.112800002        -2.12638955E-08
 -0.111000001        -2.32552519E-08
 -0.109200001        -2.54033505E-08
 -0.107400000        -2.77172827E-08
 -0.105599999        -3.02063121E-08
 -0.103799999        -3.28798677E-08
 -0.101999998        -3.57474796E-08
 -0.100199997        -3.88187367E-08
  -9.83999968E-02    -4.21032595E-08
  -9.66000035E-02    -4.56106051E-08
  -9.48000029E-02    -4.93502377E-08
  -9.30000022E-02    -5.33314584E-08
  -9.12000015E-02    -5.75633265E-08
  -8.94000009E-02    -6.20545748E-08
  -8.76000002E-02    -6.68135698E-08
  -8.57999995E-02    -7.18481630E-08
  -8.39999989E-02    -7.71656516E-08
  -8.21999982E-02    -8.27726794E-08
  -8.03999975E-02    -8.86751366E-08
  -7.85999969E-02    -9.48780468E-08
  -7.68000036E-02    -1.01385496E-07
  -7.50000030E-02    -1.08200496E-07
  -7.32000023E-02    -1.15324923E-07
  -7.14000016E-02    -1.22759403E-07
  -6.96000010E-02    -1.30503182E-07
  -6.78000003E-02    -1.38554100E-07
  -6.59999996E-02    -1.46908448E-07
  -6.41999990E-02    -1.55560912E-07
  -6.23999983E-02    -1.64504499E-07
  -6.06000014E-02    -1.73730498E-07
  -5.88000007E-02    -1.83228380E-07
  -5.70000000E-02    -1.92985823E-07
  -5.51999994E-02    -2.02988701E-07
  -5.33999987E-02    -2.13221000E-07
  -5.16000018E-02    -2.23664998E-07
  -4.98000011E-02    -2.34301211E-07
  -4.80000004E-02    -2.45108566E-07
  -4.61999997E-02    -2.56064368E-07
  -4.43999991E-02    -2.67144713E-07
  -4.25999984E-02    -2.78324535E-07
  -4.08000015E-02    -2.89577741E-07
  -3.90000008E-02    -3.00877787E-07
  -3.72000001E-02    -3.12197756E-07
  -3.53999995E-02    -3.23510903E-07
  -3.35999988E-02    -3.34791139E-07
  -3.18000019E-02    -3.46013337E-07
  -2.99999993E-02    -3.57154221E-07
  -2.82000005E-02    -3.68192673E-07
  -2.63999999E-02    -3.79110816E-07
  -2.45999992E-02    -3.89894467E-07
  -2.28000004E-02    -4.00534361E-07
  -2.09999997E-02    -4.11026690E-07
  -1.92000009E-02    -4.21374551E-07
  -1.74000002E-02    -4.31588774E-07
  -1.55999996E-02    -4.41689309E-07
  -1.37999998E-02    -4.51706399E-07
  -1.20000001E-02    -4.61682077E-07
  -1.02000004E-02    -4.71671569E-07
  -8.39999970E-03    -4.81744905E-07
  -6.59999996E-03    -4.91988430E-07
  -4.80000023E-03    -5.02506794E-07
  -3.00000003E-03    -5.13424652E-07
  -1.20000006E-03    -5.24888549E-07
   6.00000028E-04    -5.37069070E-07
   2.40000011E-03    -5.50162895E-07
   4.19999985E-03    -5.64394895E-07
   6.00000005E-03    -5.80020412E-07
   7.79999979E-03    -5.97327585E-07
   9.60000046E-03    -6.16639852E-07
   1.14000002E-02    -6.38318170E-07
   1.31999999E-02    -6.62763739E-07
   1.49999997E-02    -6.90420563E-07
   1.67999994E-02    -7.21777724E-07
   1.86000001E-02    -7.57372277E-07
   2.04000007E-02    -7.97791813E-07
   2.21999995E-02    -8.43677071E-07
   2.40000002E-02    -8.95724440E-07
   2.58000009E-02    -9.54688744E-07
   2.75999997E-02    -1.02138540E-06
   2.94000003E-02    -1.09669350E-06
   3.11999992E-02    -1.18155765E-06
   3.29999998E-02    -1.27699036E-06
   3.48000005E-02    -1.38407472E-06
   3.66000012E-02    -1.50396556E-06
   3.84000018E-02    -1.63789196E-06
   4.01999988E-02    -1.78715857E-06
   4.19999994E-02    -1.95314760E-06
   4.38000001E-02    -2.13731892E-06
   4.56000008E-02    -2.34121171E-06
   4.74000014E-02    -2.56644535E-06
   4.91999984E-02    -2.81471830E-06
   5.09999990E-02    -3.08780932E-06
   5.27999997E-02    -3.38757604E-06
   5.46000004E-02    -3.71595365E-06
   5.64000010E-02    -4.07495327E-06
   5.82000017E-02    -4.46666081E-06
   5.99999987E-02    -4.89323247E-06
   6.17999993E-02    -5.35689242E-06
   6.36000037E-02    -5.85992757E-06
   6.53999969E-02    -6.40468397E-06
   6.71999976E-02    -6.99355905E-06
   6.89999983E-02    -7.62899754E-06
   7.07999989E-02    -8.31348098E-06
   7.25999996E-02    -9.04952049E-06
   7.44000003E-02    -9.83964946E-06
   7.62000009E-02    -1.06864100E-05
   7.80000016E-02    -1.15923413E-05
   7.98000023E-02    -1.25599681E-05
   8.16000029E-02    -1.35917871E-05
   8.34000036E-02    -1.46902512E-05
   8.51999968E-02    -1.58577532E-05
   8.69999975E-02    -1.70966068E-05
   8.87999982E-02    -1.84090350E-05
   9.05999988E-02    -1.97971385E-05
   9.23999995E-02    -2.12628856E-05
   9.42000002E-02    -2.28080808E-05
   9.60000008E-02    -2.44343482E-05
   9.78000015E-02    -2.61431051E-05
   9.96000022E-02    -2.79355336E-05
  0.101400003        -2.98125633E-05
  0.103200004        -3.17748272E-05
  0.104999997        -3.38226491E-05
  0.106799997        -3.59560145E-05
  0.108599998        -3.81745231E-05
  0.110399999        -4.04773818E-05
  0.112199999        -4.28633684E-05
  0.114000000        -4.53307912E-05
  0.115800001        -4.78774637E-05
  0.117600001        -5.05006901E-05
  0.119400002        -5.31972146E-05
  0.121200003        -5.59632063E-05
  0.123000003        -5.87942304E-05
  0.124799997        -6.16852267E-05
  0.126599997        -6.46304761E-05
  0.128399998        -6.76235868E-05
  0.130199999        -7.06574792E-05
  0.131999999        -7.37243608E-05
  0.133800000        -7.68156970E-05
  0.135600001        -7.99222471E-05
  0.137400001        -8.30340068E-05
  0.139200002        -8.61402295E-05
  0.141000003        -8.92294265E-05
  0.142800003        -9.22893669E-05
  0.144600004        -9.53070848E-05
  0.146400005        -9.82689089E-05
  0.148200005        -1.01160455E-04
  0.150000006        -1.03966653E-04
  0.151800007        -1.06671810E-04
  0.153600007        -1.09259607E-04
  0.155399993        -1.11713154E-04
  0.157199994        -1.14015042E-04
  0.158999994        -1.16147392E-04
  0.160799995        -1.18091899E-04
  0.162599996        -1.19829907E-04
  0.164399996        -1.21342477E-04
  0.166199997        -1.22610450E-04
  0.167999998        -1.23614547E-04
  0.169799998        -1.24335435E-04
  0.171599999        -1.24753802E-04
  0.173400000        -1.24850485E-04
  0.175200000        -1.24606522E-04
  0.177000001        -1.24003331E-04
  0.178800002        -1.23022692E-04
  0.180600002        -1.21646983E-04
  0.182400003        -1.19859171E-04
  0.184200004        -1.17643001E-04
  0.186000004        -1.14983079E-04
  0.187800005        -1.11864982E-04
  0.189600006        -1.08275373E-04
  0.191400006        -1.04202089E-04
  0.193200007        -9.96343006E-05
  0.194999993        -9.45625798E-05
  0.196799994        -8.89789953E-05
  0.198599994        -8.28772390E-05
  0.200399995        -7.62527197E-05
  0.202199996        -6.91026507E-05
  0.203999996        -6.14261226E-05
  0.205799997        -5.32242047E-05
  0.207599998        -4.45000151E-05
  0.209399998        -3.52587849E-05
  0.211199999        -2.55079358E-05
  0.213000000        -1.52571029E-05
  0.214800000        -4.51821506E-06
  0.216600001         6.69449264E-06
  0.218400002         1.83644315E-05
  0.220200002         3.04726545E-05
  0.222000003         4.29978354E-05
  0.223800004         5.59162690E-05
  0.225600004         6.92018948E-05
  0.227400005         8.28263001E-05
  0.229200006         9.67587330E-05
  0.231000006         1.10966204E-04
  0.232800007         1.25413455E-04
  0.234599993         1.40063086E-04
  0.236399993         1.54875583E-04
  0.238199994         1.69809413E-04
  0.239999995         1.84821110E-04
  0.241799995         1.99865448E-04
  0.243599996         2.14895408E-04
  0.245399997         2.29862446E-04
  0.247199997         2.44716532E-04
  0.248999998         2.59406370E-04
  0.250800014         2.73879414E-04
  0.252600014         2.88082287E-04
  0.254400015         3.01960623E-04
  0.256199986         3.15459532E-04
  0.257999986         3.28523660E-04
  0.259799987         3.41097359E-04
  0.261599988         3.53125011E-04
  0.263399988         3.64551175E-04
  0.265199989         3.75320757E-04
  0.266999990         3.85379302E-04
  0.268799990         3.94673349E-04
  0.270599991         4.03150392E-04
  0.272399992         4.10759414E-04
  0.274199992         4.17450967E-04
  0.275999993         4.23177524E-04
  0.277799994         4.27893567E-04
  0.279599994         4.31556138E-04
  0.281399995         4.34124784E-04
  0.283199996         4.35562019E-04
  0.284999996         4.35833499E-04
  0.286799997         4.34908317E-04
  0.288599998         4.32759203E-04
  0.290399998         4.29362728E-04
  0.292199999         4.24699625E-04
  0.294000000         4.18754935E-04
  0.295800000         4.11518209E-04
  0.297600001         4.02983744E-04
  0.299400002         3.93150636E-04
  0.301200002         3.82023165E-04
  0.303000003         3.69610614E-04
  0.304800004         3.55927652E-04
  0.306600004         3.40994215E-04
  0.308400005         3.24835681E-04
  0.310200006         3.07482871E-04
  0.312000006         2.88972107E-04
  0.313800007         2.69345008E-04
  0.315600008         2.48648692E-04
  0.317400008         2.26935503E-04
  0.319200009         2.04262877E-04
  0.321000010         1.80693300E-04
  0.322800010         1.56294074E-04
  0.324600011         1.31137087E-04
  0.326400012         1.05298554E-04
  0.328200012         7.88587568E-05
  0.330000013         5.19017340E-05
  0.331800014         2.45149095E-05
  0.333600014        -3.21126186E-06
  0.335399985        -3.11836848E-05
  0.337199986        -5.93070508E-05
  0.338999987        -8.74842663E-05
  0.340799987        -1.15616931E-04
  0.342599988        -1.43605808E-04
  0.344399989        -1.71351290E-04
  0.346199989        -1.98753885E-04
  0.347999990        -2.25714815E-04
  0.349799991        -2.52136379E-04
  0.351599991        -2.77922576E-04
  0.353399992        -3.02979490E-04
  0.355199993        -3.27215908E-04
  0.356999993        -3.50543647E-04
  0.358799994        -3.72878130E-04
  0.360599995        -3.94138799E-04
  0.362399995        -4.14249487E-04
  0.364199996        -4.33138805E-04
  0.365999997        -4.50740685E-04
  0.367799997        -4.66994330E-04
  0.369599998        -4.81844880E-04
  0.371399999        -4.95243410E-04
  0.373199999        -5.07147401E-04
  0.375000000        -5.17520530E-04
  0.376800001        -5.26333286E-04
  0.378600001        -5.33562561E-04
  0.380400002        -5.39192173E-04
  0.382200003        -5.43212518E-04
  0.384000003        -5.45620685E-04
  0.385800004        -5.46420400E-04
  0.387600005        -5.45621850E-04
  0.389400005        -5.43241506E-04
  0.391200006        -5.39302011E-04
  0.393000007        -5.33831830E-04
  0.394800007        -5.26865246E-04
  0.396600008        -5.18441841E-04
  0.398400009        -5.08606143E-04
  0.400200009        -4.97407396E-04
  0.402000010        -4.84899414E-04
  0.403800011        -4.71139821E-04
  0.405600011        -4.56189853E-04
  0.407400012        -4.40114032E-04
  0.409200013        -4.22979647E-04
  0.411000013        -4.04856459E-04
  0.412800014        -3.85816151E-04
  0.414600015        -3.65932123E-04
  0.416399986        -3.45279026E-04
  0.418199986        -3.23932298E-04
  0.419999987        -3.01967957E-04
  0.421799988        -2.79462169E-04
  0.423599988        -2.56490923E-04
  0.425399989        -2.33129773E-04
  0.427199990        -2.09453458E-04
  0.428999990        -1.85535711E-04
  0.430799991        -1.61449076E-04
  0.432599992        -1.37264549E-04
  0.434399992        -1.13051472E-04
  0.436199993        -8.88773720E-05
  0.437999994        -6.48077694E-05
  0.439799994        -4.09061249E-05
  0.441599995        -1.72336859E-05
  0.443399996         6.15058025E-06
  0.445199996         2.91900269E-05
  0.446999997         5.18303568E-05
  0.448799998         7.40196847E-05
  0.450599998         9.57084994E-05
  0.452399999         1.16849696E-04
  0.454200000         1.37398514E-04
  0.456000000         1.57312577E-04
  0.457800001         1.76551795E-04
  0.459600002         1.95078348E-04
  0.461400002         2.12856685E-04
  0.463200003         2.29853424E-04
  0.465000004         2.46037322E-04
  0.466800004         2.61379319E-04
  0.468600005         2.75852421E-04
  0.470400006         2.89431657E-04
  0.472200006         3.02094093E-04
  0.474000007         3.13818862E-04
  0.475800008         3.24587076E-04
  0.477600008         3.34381883E-04
  0.479400009         3.43188382E-04
  0.481200010         3.50993796E-04
  0.483000010         3.57787299E-04
  0.484800011         3.63560219E-04
  0.486600012         3.68306006E-04
  0.488400012         3.72020295E-04
  0.490200013         3.74700874E-04
  0.492000014         3.76347802E-04
  0.493800014         3.76963522E-04
  0.495599985         3.76552780E-04
  0.497399986         3.75122821E-04
  0.499199986         3.72683367E-04
  0.500999987         3.69246583E-04
  0.502799988         3.64827312E-04
  0.504599988         3.59442958E-04
  0.506399989         3.53113574E-04
  0.508199990         3.45861888E-04
  0.509999990         3.37713311E-04
  0.511799991         3.28695896E-04
  0.513599992         3.18840379E-04
  0.515399992         3.08180082E-04
  0.517199993         2.96750950E-04
  0.518999994         2.84591428E-04
  0.520799994         2.71742378E-04
  0.522599995         2.58247048E-04
  0.524399996         2.44150899E-04
  0.526199996         2.29501515E-04
  0.527999997         2.14348416E-04
  0.529799998         1.98742971E-04
  0.531599998         1.82738222E-04
  0.533399999         1.66388578E-04
  0.535200000         1.49749758E-04
  0.537000000         1.32878515E-04
  0.538800001         1.15832394E-04
  0.540600002         9.86695231E-05
  0.542400002         8.14483865E-05
  0.544200003         6.42275481E-05
  0.546000004         4.70654013E-05
  0.547800004         3.00199499E-05
  0.549600005         1.31484903E-05
  0.551400006        -3.49259744E-06
  0.553200006        -1.98481066E-05
  0.555000007        -3.58642792E-05
  0.556800008        -5.14890417E-05
  0.558600008        -6.66722408E-05
  0.560400009        -8.13658698E-05
  0.562200010        -9.55243013E-05
  0.564000010        -1.09104476E-04
  0.565800011        -1.22066129E-04
  0.567600012        -1.34371934E-04
  0.569400012        -1.45987739E-04
  0.571200013        -1.56882612E-04
  0.573000014        -1.67029095E-04
  0.574800014        -1.76403220E-04
  0.576600015        -1.84984674E-04
  0.578400016        -1.92756852E-04
  0.580200016        -1.99706948E-04
  0.582000017        -2.05825912E-04
  0.583800018        -2.11108607E-04
  0.585600019        -2.15553679E-04
  0.587400019        -2.19163645E-04
  0.589200020        -2.21944734E-04
  0.591000021        -2.23906973E-04
  0.592800021        -2.25063952E-04
  0.594600022        -2.25432901E-04
  0.596400023        -2.25034397E-04
  0.598200023        -2.23892377E-04
  0.600000024        -2.22033865E-04
  0.601800025        -2.19488909E-04
  0.603600025        -2.16290326E-04
  0.605400026        -2.12473518E-04
  0.607200027        -2.08076250E-04
  0.609000027        -2.03138479E-04
  0.610800028        -1.97702073E-04
  0.612600029        -1.91810512E-04
  0.614400029        -1.85508703E-04
  0.616199970        -1.78842660E-04
  0.617999971        -1.71859298E-04
  0.619799972        -1.64606041E-04
  0.621599972        -1.57130606E-04
  0.623399973        -1.49480751E-04
  0.625199974        -1.41703887E-04
  0.626999974        -1.33846857E-04
  0.628799975        -1.25955630E-04
  0.630599976        -1.18075026E-04
  0.632399976        -1.10248424E-04
  0.634199977        -1.02517508E-04
  0.635999978        -9.49220193E-05
  0.637799978        -8.74994803E-05
  0.639599979        -8.02849754E-05
  0.641399980        -7.33109409E-05
  0.643199980        -6.66069682E-05
  0.644999981        -6.01996035E-05
  0.646799982        -5.41122099E-05
  0.648599982        -4.83648073E-05
  0.650399983        -4.29739557E-05
  0.652199984        -3.79526864E-05
  0.653999984        -3.33104254E-05
  0.655799985        -2.90529333E-05
  0.657599986        -2.51823349E-05
  0.659399986        -2.16970839E-05
  0.661199987        -1.85920471E-05
  0.662999988        -1.58585553E-05
  0.664799988        -1.34845050E-05
  0.666599989        -1.14544900E-05
  0.668399990        -9.74995055E-06
  0.670199990        -8.34936054E-06
  0.671999991        -7.22841924E-06
  0.673799992        -6.36028744E-06
  0.675599992        -5.71584087E-06
  0.677399993        -5.26391887E-06
  0.679199994        -4.97163592E-06
  0.680999994        -4.80466679E-06
  0.682799995        -4.72757347E-06
  0.684599996        -4.70413215E-06
  0.686399996        -4.69766655E-06
  0.688199997        -4.67139262E-06
  0.689999998        -4.58875820E-06
  0.691799998        -4.41378097E-06
  0.693599999        -4.11139490E-06
  0.695400000        -3.64779885E-06
  0.697200000        -2.99075805E-06
  0.699000001        -2.10990652E-06
  0.700800002        -9.77076752E-07
  0.702600002         4.33454034E-07
  0.704400003         2.14468946E-06
  0.706200004         4.17668707E-06
  0.708000004         6.54635187E-06
  0.709800005         9.26725079E-06
  0.711600006         1.23494656E-05
  0.713400006         1.57994491E-05
  0.715200007         1.96199562E-05
  0.717000008         2.38099819E-05
  0.718800008         2.83647114E-05
  0.720600009         3.32755480E-05
  0.722400010         3.85301391E-05
  0.724200010         4.41124539E-05
  0.726000011         5.00028764E-05
  0.727800012         5.61783418E-05
  0.729600012         6.26125038E-05
  0.731400013         6.92759204E-05
  0.733200014         7.61362753E-05
  0.735000014         8.31586003E-05
  0.736800015         9.03055698E-05
  0.738600016         9.75377698E-05
  0.740400016         1.04813989E-04
  0.742200017         1.12091555E-04
  0.744000018         1.19326622E-04
  0.745800018         1.26474537E-04
  0.747600019         1.33490204E-04
  0.749400020         1.40328309E-04
  0.751200020         1.46943785E-04
  0.753000021         1.53292116E-04
  0.754800022         1.59329604E-04
  0.756600022         1.65013756E-04
  0.758400023         1.70303567E-04
  0.760200024         1.75159832E-04
  0.762000024         1.79545343E-04
  0.763800025         1.83425291E-04
  0.765600026         1.86767371E-04
  0.767400026         1.89542043E-04
  0.769200027         1.91722793E-04
  0.771000028         1.93286134E-04
  0.772800028         1.94211942E-04
  0.774600029         1.94483451E-04
  0.776400030         1.94087363E-04
  0.778199971         1.93013970E-04
  0.779999971         1.91257102E-04
  0.781799972         1.88814243E-04
  0.783599973         1.85686426E-04
  0.785399973         1.81878291E-04
  0.787199974         1.77397960E-04
  0.788999975         1.72256972E-04
  0.790799975         1.66470214E-04
  0.792599976         1.60055803E-04
  0.794399977         1.53034896E-04
  0.796199977         1.45431608E-04
  0.797999978         1.37272873E-04
  0.799799979         1.28588144E-04
  0.801599979         1.19409349E-04
  0.803399980         1.09770604E-04
  0.805199981         9.97081079E-05
  0.806999981         8.92598619E-05
  0.808799982         7.84654767E-05
  0.810599983         6.73660179E-05
  0.812399983         5.60037370E-05
  0.814199984         4.44219113E-05
  0.815999985         3.26646150E-05
  0.817799985         2.07765061E-05
  0.819599986         8.80265543E-06
  0.821399987        -3.21167499E-06
  0.823199987        -1.52212224E-05
  0.824999988        -2.71808985E-05
  0.826799989        -3.90459645E-05
  0.828599989        -5.07722179E-05
  0.830399990        -6.23161613E-05
  0.832199991        -7.36351649E-05
  0.833999991        -8.46876210E-05
  0.835799992        -9.54330681E-05
  0.837599993        -1.05832376E-04
  0.839399993        -1.15847855E-04
  0.841199994        -1.25443403E-04
  0.842999995        -1.34584596E-04
  0.844799995        -1.43238867E-04
  0.846599996        -1.51375556E-04
  0.848399997        -1.58966068E-04
  0.850199997        -1.65983947E-04
  0.851999998        -1.72404965E-04
  0.853799999        -1.78207250E-04
  0.855599999        -1.83371303E-04
  0.857400000        -1.87880170E-04
  0.859200001        -1.91719402E-04
  0.861000001        -1.94877197E-04
  0.862800002        -1.97344416E-04
  0.864600003        -1.99114627E-04
  0.866400003        -2.00184135E-04
  0.868200004        -2.00552036E-04
  0.870000005        -2.00220180E-04
  0.871800005        -1.99193237E-04
  0.873600006        -1.97478643E-04
  0.875400007        -1.95086555E-04
  0.877200007        -1.92029896E-04
  0.879000008        -1.88324237E-04
  0.880800009        -1.83987824E-04
  0.882600009        -1.79041395E-04
  0.884400010        -1.73508161E-04
  0.886200011        -1.67413731E-04
  0.888000011        -1.60785916E-04
  0.889800012        -1.53654721E-04
  0.891600013        -1.46052058E-04
  0.893400013        -1.38011746E-04
  0.895200014        -1.29569220E-04
  0.897000015        -1.20761419E-04
  0.898800015        -1.11626650E-04
  0.900600016        -1.02204263E-04
  0.902400017        -9.25345958E-05
  0.904200017        -8.26586474E-05
  0.906000018        -7.26179496E-05
  0.907800019        -6.24543172E-05
  0.909600019        -5.22096416E-05
  0.911400020        -4.19256576E-05
  0.913200021        -3.16437363E-05
  0.915000021        -2.14046977E-05
  0.916800022        -1.12485714E-05
  0.918600023        -1.21440837E-06
  0.920400023         8.65991296E-06
  0.922200024         1.83378761E-05
  0.924000025         2.77844974E-05
  0.925800025         3.69664886E-05
  0.927600026         4.58523900E-05
  0.929400027         5.44127324E-05
  0.931200027         6.26201290E-05
  0.933000028         7.04493868E-05
  0.934800029         7.78775866E-05
  0.936600029         8.48841519E-05
  0.938399971         9.14509001E-05
  0.940199971         9.75620715E-05
  0.941999972         1.03204351E-04
  0.943799973         1.08366847E-04
  0.945599973         1.13041082E-04
  0.947399974         1.17220967E-04
  0.949199975         1.20902732E-04
  0.950999975         1.24084880E-04
  0.952799976         1.26768078E-04
  0.954599977         1.28955100E-04
  0.956399977         1.30650718E-04
  0.958199978         1.31861554E-04
  0.959999979         1.32596033E-04
  0.961799979         1.32864181E-04
  0.963599980         1.32677538E-04
  0.965399981         1.32049056E-04
  0.967199981         1.30992878E-04
  0.968999982         1.29524269E-04
  0.970799983         1.27659499E-04
  0.972599983         1.25415667E-04
  0.974399984         1.22810568E-04
  0.976199985         1.19862663E-04
  0.977999985         1.16590825E-04
  0.979799986         1.13014357E-04
  0.981599987         1.09152810E-04
  0.983399987         1.05025945E-04
  0.985199988         1.00653597E-04
  0.986999989         9.60556281E-05
  0.988799989         9.12518881E-05
  0.990599990         8.62620873E-05
  0.992399991         8.11057907E-05
  0.994199991         7.58023743E-05
  0.995999992         7.03710029E-05
  0.997799993         6.48305577E-05
  0.999599993         5.91996795E-05
   1.00139999         5.34966930E-05
   1.00320005         4.77396243E-05
   1.00500000         4.19461867E-05
   1.00680006         3.61337661E-05
   1.00860000         3.03194338E-05
   1.01040006         2.45199317E-05
   1.01220000         1.87516398E-05
   1.01400006         1.30305934E-05
   1.01580000         7.37248274E-06
   1.01760006         1.79262213E-06
   1.01940000        -3.69406371E-06
   1.02119994        -9.07305912E-06
   1.02300000        -1.43302650E-05
   1.02479994        -1.94520526E-05
   1.02660000        -2.44252715E-05
   1.02839994        -2.92372988E-05
   1.03020000        -3.38760692E-05
   1.03199995        -3.83301340E-05
   1.03380001        -4.25886828E-05
   1.03559995        -4.66416204E-05
   1.03740001        -5.04796044E-05
   1.03919995        -5.40941073E-05
   1.04100001        -5.74774640E-05
   1.04279995        -6.06229296E-05
   1.04460001        -6.35247270E-05
   1.04639995        -6.61780869E-05
   1.04820001        -6.85793202E-05
   1.04999995        -7.07258150E-05
   1.05180001        -7.26161234E-05
   1.05359995        -7.42499178E-05
   1.05540001        -7.56280497E-05
   1.05719995        -7.67525853E-05
   1.05900002        -7.76267334E-05
   1.06079996        -7.82548741E-05
   1.06260002        -7.86425444E-05
   1.06439996        -7.87963945E-05
   1.06620002        -7.87241515E-05
   1.06799996        -7.84345393E-05
   1.06980002        -7.79372422E-05
   1.07159996        -7.72428393E-05
   1.07340002        -7.63626740E-05
   1.07519996        -7.53087879E-05
   1.07700002        -7.40938412E-05
   1.07879996        -7.27309452E-05
   1.08060002        -7.12336187E-05
   1.08239996        -6.96155912E-05
   1.08420002        -6.78907236E-05
   1.08599997        -6.60728765E-05
   1.08780003        -6.41757651E-05
   1.08959997        -6.22128573E-05
   1.09140003        -6.01972388E-05
   1.09319997        -5.81414824E-05
   1.09500003        -5.60575609E-05
   1.09679997        -5.39567191E-05
   1.09860003        -5.18493871E-05
   1.10039997        -4.97450819E-05
   1.10220003        -4.76523455E-05
   1.10399997        -4.55786612E-05
   1.10580003        -4.35304100E-05
   1.10759997        -4.15128306E-05
   1.10940003        -3.95300012E-05
   1.11119998        -3.75848031E-05
   1.11300004        -3.56789387E-05
   1.11479998        -3.38129539E-05
   1.11660004        -3.19862629E-05
   1.11839998        -3.01971813E-05
   1.12020004        -2.84430080E-05
   1.12199998        -2.67200758E-05
   1.12380004        -2.50238481E-05
   1.12559998        -2.33489955E-05
   1.12740004        -2.16894987E-05
   1.12919998        -2.00387785E-05
   1.13100004        -1.83897791E-05
   1.13279998        -1.67351118E-05
   1.13460004        -1.50671603E-05
   1.13639998        -1.33782178E-05
   1.13820004        -1.16606043E-05
   1.13999999        -9.90679291E-06
   1.14180005        -8.10952952E-06
   1.14359999        -6.26194742E-06
   1.14540005        -4.35768334E-06
   1.14719999        -2.39097244E-06
   1.14900005        -3.56753475E-07
   1.15079999         1.74924969E-06
   1.15260005         3.93044502E-06
   1.15439999         6.18931335E-06
   1.15620005         8.52734865E-06