 -0.300000012       0.00000000    
 -0.298200011       0.00000000    
 -0.296400011       0.00000000    
 -0.294600010       0.00000000    
 -0.292800009       0.00000000    
 -0.291000009       0.00000000    
 -0.289200008       0.00000000    
 -0.287400007       0.00000000    
 -0.285600007       7.24407504E-32
 -0.283800006       1.15711122E-30
 -0.282000005       9.69895536E-30
 -0.280200005       5.66746354E-29
 -0.278400004       2.58827266E-28
 -0.276600003       9.82069234E-28
 -0.274800003       3.21385554E-27
 -0.273000002       9.29693993E-27
 -0.271200001       2.41730216E-26
 -0.269400001       5.71294485E-26
 -0.267600000       1.23557669E-25
 -0.265799999       2.45151000E-25
 -0.263999999       4.44935448E-25
 -0.262199998       7.30131887E-25
 -0.260399997       1.05069981E-24
 -0.258599997       1.21427249E-24
 -0.256799996       7.29124364E-25
 -0.254999995      -1.46355135E-24
 -0.253199995      -7.41711083E-24
 -0.251399994      -2.08236039E-23
 -0.249599993      -4.79335899E-23
 -0.247799993      -9.88020831E-23
 -0.246000007      -1.88886521E-22
 -0.244200006      -3.40975622E-22
 -0.242400005      -5.87352155E-22
 -0.240600005      -9.71982961E-22
 -0.238800004      -1.55238143E-21
 -0.237000003      -2.40060254E-21
 -0.235200003      -3.60261350E-21
 -0.233400002      -5.25503885E-21
 -0.231600001      -7.45804135E-21
 -0.229800001      -1.03028754E-20
 -0.228000000      -1.38524965E-20
 -0.226199999      -1.81135655E-20
 -0.224399999      -2.29982803E-20
 -0.222599998      -2.82748460E-20
 -0.220799997      -3.35059330E-20
 -0.218999997      -3.79755485E-20
 -0.217199996      -4.06059182E-20
 -0.215399995      -3.98679180E-20
 -0.213599995      -3.36905526E-20
 -0.211799994      -1.93776526E-20
 -0.209999993       6.45723480E-21
 -0.208199993       4.79240077E-20
 -0.206400007       1.09840254E-19
 -0.204600006       1.97647117E-19
 -0.202800006       3.17235449E-19
 -0.201000005       4.74659500E-19
 -0.199200004       6.75715932E-19
 -0.197400004       9.25367985E-19
 -0.195600003       1.22699919E-18
 -0.193800002       1.58148785E-18
 -0.192000002       1.98610387E-18
 -0.190200001       2.43324255E-18
 -0.188400000       2.90902919E-18
 -0.186600000       3.39184604E-18
 -0.184799999       3.85086035E-18
 -0.182999998       4.24465912E-18
 -0.181199998       4.52012349E-18
 -0.179399997       4.61170935E-18
 -0.177599996       4.44132999E-18
 -0.175799996       3.91906097E-18
 -0.173999995       2.94492077E-18
 -0.172199994       1.41197621E-18
 -0.170399994      -7.88947446E-19
 -0.168599993      -3.76270729E-18
 -0.166800007      -7.60119343E-18
 -0.165000007      -1.23724184E-17
 -0.163200006      -1.81072218E-17
 -0.161400005      -2.47835868E-17
 -0.159600005      -3.23086788E-17
 -0.157800004      -4.04988455E-17
 -0.156000003      -4.90580870E-17
 -0.154200003      -5.75555910E-17
 -0.152400002      -6.54032586E-17
 -0.150600001      -7.18343827E-17
 -0.148800001      -7.58847950E-17
 -0.147000000      -7.63783042E-17
 -0.145199999      -7.19181596E-17
 -0.143399999      -6.08868061E-17
 -0.141599998      -4.14561284E-17
 -0.139799997      -1.16106603E-17
 -0.137999997       3.08138476E-17
 -0.136199996       8.80742013E-17
 -0.134399995       1.62443780E-16
 -0.132599995       2.56114944E-16
 -0.130799994       3.71078887E-16
 -0.128999993       5.08982310E-16
 -0.127200007       6.70961267E-16
 -0.125400007       8.57454205E-16
 -0.123599999       1.06799600E-15
 -0.121799998       1.30099856E-15
 -0.119999997       1.55352248E-15
 -0.118199997       1.82104778E-15
 -0.116400003       2.09725273E-15
 -0.114600003       2.37380983E-15
 -0.112800002       2.64021461E-15
 -0.111000001       2.88365591E-15
 -0.109200001       3.08894599E-15
 -0.107400000       3.23852015E-15
 -0.105599999       3.31253008E-15
 -0.103799999       3.28903359E-15
 -0.101999998       3.14430383E-15
 -0.100199997       2.85326458E-15
  -9.83999968E-02   2.39006101E-15
  -9.66000035E-02   1.72877275E-15
  -9.48000029E-02   8.44265638E-16
  -9.30000022E-02  -2.86821979E-16
  -9.12000015E-02  -1.68496325E-15
  -8.94000009E-02  -3.36653075E-15
  -8.76000002E-02  -5.34250446E-15
  -8.57999995E-02  -7.61713605E-15
  -8.39999989E-02  -1.01866274E-14
  -8.21999982E-02  -1.30378505E-14
  -8.03999975E-02  -1.61472008E-14
  -7.85999969E-02  -1.94796334E-14
  -7.68000036E-02  -2.29879507E-14
  -7.50000030E-02  -2.66124403E-14
  -7.32000023E-02  -3.02809332E-14
  -7.14000016E-02  -3.39093174E-14
  -6.96000010E-02  -3.74026778E-14
  -6.78000003E-02  -4.06570123E-14
  -6.59999996E-02  -4.35616746E-14
  -6.41999990E-02  -4.60024949E-14
  -6.23999983E-02  -4.78657031E-14
  -6.06000014E-02  -4.90424995E-14
  -5.88000007E-02  -4.94344149E-14
  -5.70000000E-02  -4.89592633E-14
  -5.51999994E-02  -4.75576304E-14
  -5.33999987E-02  -4.51998194E-14
  -5.16000018E-02  -4.18929824E-14
  -4.98000011E-02  -3.76883142E-14
  -4.80000004E-02  -3.26880382E-14
  -4.61999997E-02  -2.70518420E-14
  -4.43999991E-02  -2.10025733E-14
  -4.25999984E-02  -1.48306829E-14
  -4.08000015E-02  -8.89719173E-15
  -3.90000008E-02  -3.63472299E-15
  -3.72000001E-02   4.53739509E-16
  -3.53999995E-02   2.79880925E-15
  -3.35999988E-02   2.77159260E-15
  -3.18000019E-02  -3.06042718E-16
  -2.99999993E-02  -7.14767990E-15
  -2.82000005E-02  -1.84848339E-14
  -2.63999999E-02  -3.50455715E-14
  -2.45999992E-02  -5.75293868E-14
  -2.28000004E-02  -8.65784088E-14
  -2.09999997E-02  -1.22745157E-13
  -1.92000009E-02  -1.66457275E-13
  -1.74000002E-02  -2.17979782E-13
  -1.55999996E-02  -2.77375589E-13
  -1.37999998E-02  -3.44464610E-13
  -1.20000001E-02  -4.18783281E-13
  -1.02000004E-02  -4.99544308E-13
  -8.39999970E-03  -5.85599223E-13
  -6.59999996E-03  -6.75403255E-13
  -4.80000023E-03  -7.66985379E-13
  -3.00000003E-03  -8.57923704E-13
  -1.20000006E-03  -9.45328017E-13
   6.00000028E-04  -1.02583046E-12
   2.40000011E-03  -1.09558575E-12
   4.19999985E-03  -1.15028148E-12
   6.00000005E-03  -1.18515993E-12
   7.79999979E-03  -1.19505122E-12
   9.60000046E-03  -1.17442004E-12
   1.14000002E-02  -1.11742256E-12
   1.31999999E-02  -1.01797661E-12
   1.49999997E-02  -8.69843802E-13
   1.67999994E-02  -6.66721723E-13
   1.86000001E-02  -4.02345963E-13
   2.04000007E-02  -7.05982988E-14
   2.21999995E-02   3.34376840E-13
   2.40000002E-02   8.18054012E-13
   2.58000009E-02   1.38540579E-12
   2.75999997E-02   2.04078464E-12
   2.94000003E-02   2.78780601E-12
   3.11999992E-02   3.62924296E-12
   3.29999998E-02   4.56692193E-12
   3.48000005E-02   5.60163851E-12
   3.66000012E-02   6.73307850E-12
   3.84000018E-02   7.95976132E-12
   4.01999988E-02   9.27900118E-12
   4.19999994E-02   1.06868759E-11
   4.38000001E-02   1.21782280E-11
   4.56000008E-02   1.37466774E-11
   4.74000014E-02   1.53846484E-11
   4.91999984E-02   1.70834319E-11
   5.09999990E-02   1.88332318E-11
   5.27999997E-02   2.06232670E-11
   5.46000004E-02   2.24418418E-11
   5.64000010E-02   2.42764420E-11
   5.82000017E-02   2.61138489E-11
   5.99999987E-02   2.79402335E-11
   6.17999993E-02   2.97412373E-11
   6.36000037E-02   3.15020787E-11
   6.53999969E-02   3.32076033E-11
   6.71999976E-02   3.48423339E-11
   6.89999983E-02   3.63905364E-11
   7.07999989E-02   3.78361717E-11
   7.25999996E-02   3.91629403E-11
   7.44000003E-02   4.03541957E-11
   7.62000009E-02   4.13928995E-11
   7.80000016E-02   4.22614929E-11
   7.98000023E-02   4.29418272E-11
   8.16000029E-02   4.34150112E-11
   8.34000036E-02   4.36612656E-11
   8.51999968E-02   4.36597945E-11
   8.69999975E-02   4.33886503E-11
   8.87999982E-02   4.28246015E-11
   9.05999988E-02   4.19430636E-11
   9.23999995E-02   4.07180505E-11
   9.42000002E-02   3.91221465E-11
   9.60000008E-02   3.71266178E-11
   9.78000015E-02   3.47015194E-11
   9.96000022E-02   3.18159249E-11
  0.101400003       2.84382483E-11
  0.103200004       2.45366193E-11
  0.104999997       2.00794104E-11
  0.106799997       1.50358424E-11
  0.108599998       9.37667912E-12
  0.110399999       3.07499946E-12
  0.112199999      -3.89290379E-12
  0.114000000      -1.15466438E-11
  0.115800001      -1.99007599E-11
  0.117600001      -2.89637758E-11
  0.119400002      -3.87372565E-11
  0.121200003      -4.92149273E-11
  0.123000003      -6.03819217E-11
  0.124799997      -7.22141583E-11
  0.126599997      -8.46778481E-11
  0.128399998      -9.77293871E-11
  0.130199999      -1.11315422E-10
  0.131999999      -1.25373226E-10
  0.133800000      -1.39831591E-10
  0.135600001      -1.54611976E-10
  0.137400001      -1.69630268E-10
  0.139200002      -1.84798774E-10
  0.141000003      -2.00029077E-10
  0.142800003      -2.15235066E-10
  0.144600004      -2.30336625E-10
  0.146400005      -2.45263670E-10
  0.148200005      -2.59960997E-10
  0.150000006      -2.74392925E-10
  0.151800007      -2.88548879E-10
  0.153600007      -3.02448927E-10
  0.155399993      -3.16149495E-10
  0.157199994      -3.29748895E-10
  0.158999994      -3.43393314E-10
  0.160799995      -3.57281982E-10
  0.162599996      -3.71672082E-10
  0.164399996      -3.86882998E-10
  0.166199997      -4.03299866E-10
  0.167999998      -4.21375795E-10
  0.169799998      -4.41633008E-10
  0.171599999      -4.64662558E-10
  0.173400000      -4.91122143E-10
  0.175200000      -5.21732213E-10
  0.177000001      -5.57269675E-10
  0.178800002      -5.98559424E-10
  0.180600002      -6.46463549E-10
  0.182400003      -7.01867509E-10
  0.184200004      -7.65664088E-10
  0.186000004      -8.38733916E-10
  0.187800005      -9.21923982E-10
  0.189600006      -1.01602227E-09
  0.191400006      -1.12173060E-09
  0.193200007      -1.23963462E-09
  0.194999993      -1.37017098E-09
  0.196799994      -1.51359281E-09
  0.198599994      -1.66993352E-09
  0.200399995      -1.83896864E-09
  0.202199996      -2.02017802E-09
  0.203999996      -2.21270557E-09
  0.205799997      -2.41532239E-09
  0.207599998      -2.62638711E-09
  0.209399998      -2.84381230E-09
  0.211199999      -3.06503045E-09
  0.213000000      -3.28696359E-09
  0.214800000      -3.50599971E-09
  0.216600001      -3.71797282E-09
  0.218400002      -3.91814980E-09
  0.220200002      -4.10122514E-09
  0.222000003      -4.26132329E-09
  0.223800004      -4.39201298E-09
  0.225600004      -4.48632731E-09
  0.227400005      -4.53680116E-09
  0.229200006      -4.53551507E-09
  0.231000006      -4.47415660E-09
  0.232800007      -4.34409175E-09
  0.234599993      -4.13645296E-09
  0.236399993      -3.84223897E-09
  0.238199994      -3.45243034E-09
  0.239999995      -2.95811908E-09
  0.241799995      -2.35065101E-09
  0.243599996      -1.62178171E-09
  0.245399997      -7.63845764E-10
  0.247199997       2.30065078E-10
  0.248999998       1.36591072E-09
  0.250800014       2.64850719E-09
  0.252600014       4.08132550E-09
  0.254400015       5.66628122E-09
  0.256199986       7.40353157E-09
  0.257999986       9.29126909E-09
  0.259799987       1.13255201E-08
  0.261599988       1.34999576E-08
  0.263399988       1.58057265E-08
  0.265199989       1.82312689E-08
  0.266999990       2.07621955E-08
  0.268799990       2.33811690E-08
  0.270599991       2.60678057E-08
  0.272399992       2.87986293E-08
  0.274199992       3.15470494E-08
  0.275999993       3.42833779E-08
  0.277799994       3.69749138E-08
  0.279599994       3.95860340E-08
  0.281399995       4.20783657E-08
  0.283199996       4.44110029E-08
  0.284999996       4.65407872E-08
  0.286799997       4.84226206E-08
  0.288599998       5.00098523E-08
  0.290399998       5.12547302E-08
  0.292199999       5.21088879E-08
  0.294000000       5.25238910E-08
  0.295800000       5.24518491E-08
  0.297600001       5.18460546E-08
  0.299400002       5.06616615E-08
  0.301200002       4.88564424E-08
  0.303000003       4.63914986E-08
  0.304800004       4.32320810E-08
  0.306600004       3.93483468E-08
  0.308400005       3.47161766E-08
  0.310200006       2.93179276E-08
  0.312000006       2.31432296E-08
  0.313800007       1.61897162E-08
  0.315600008       8.46370352E-09
  0.317400008      -1.91585497E-11
  0.319200009      -9.23331545E-09
  0.321000010      -1.91428278E-08
  0.322800010      -2.97009688E-08
  0.324600011      -4.08499368E-08
  0.326400012      -5.25207007E-08
  0.328200012      -6.46329283E-08
  0.330000013      -7.70950876E-08
  0.331800014      -8.98047219E-08
  0.333600014      -1.02648819E-07
  0.335399985      -1.15504392E-07
  0.337199986      -1.28239222E-07
  0.338999987      -1.40712686E-07
  0.340799987      -1.52776877E-07
  0.342599988      -1.64277864E-07
  0.344399989      -1.75056954E-07
  0.346199989      -1.84952384E-07
  0.347999990      -1.93800872E-07
  0.349799991      -2.01439533E-07
  0.351599991      -2.07707714E-07
  0.353399992      -2.12449095E-07
  0.355199993      -2.15513708E-07
  0.356999993      -2.16760242E-07
  0.358799994      -2.16058069E-07
  0.360599995      -2.13289510E-07
  0.362399995      -2.08352077E-07
  0.364199996      -2.01160503E-07
  0.365999997      -1.91648780E-07
  0.367799997      -1.79772201E-07
  0.369599998      -1.65509036E-07
  0.371399999      -1.48862199E-07
  0.373199999      -1.29860666E-07
  0.375000000      -1.08560684E-07
  0.376800001      -8.50466009E-08
  0.378600001      -5.94316028E-08
  0.380400002      -3.18580078E-08
  0.382200003      -2.49725285E-09
  0.384000003       2.84504225E-08
  0.385800004       6.07567046E-08
  0.387600005       9.41662677E-08
  0.389400005       1.28398241E-07
  0.391200006       1.63147945E-07
  0.393000007       1.98089253E-07
  0.394800007       2.32876943E-07
  0.396600008       2.67149773E-07
  0.398400009       3.00533600E-07
  0.400200009       3.32644987E-07
  0.402000010       3.63095069E-07
  0.403800011       3.91493501E-07
  0.405600011       4.17452782E-07
  0.407400012       4.40592657E-07
  0.409200013       4.60544641E-07
  0.411000013       4.76956814E-07
  0.412800014       4.89498234E-07
  0.414600015       4.97863482E-07
  0.416399986       5.01777492E-07
  0.418199986       5.00999647E-07
  0.419999987       4.95327981E-07
  0.421799988       4.84602879E-07
  0.423599988       4.68711107E-07
  0.425399989       4.47588462E-07
  0.427199990       4.21222836E-07
  0.428999990       3.89656435E-07
  0.430799991       3.52987570E-07
  0.432599992       3.11371792E-07
  0.434399992       2.65022777E-07
  0.436199993       2.14212051E-07
  0.437999994       1.59268666E-07
  0.439799994       1.00577758E-07
  0.441599995       3.85787615E-08
  0.443399996      -2.62371813E-08
  0.445199996      -9.33303923E-08
  0.446999997      -1.62116478E-07
  0.448799998      -2.31970745E-07
  0.450599998      -3.02233218E-07
  0.452399999      -3.72214060E-07
  0.454200000      -4.41199745E-07
  0.456000000      -5.08459436E-07
  0.457800001      -5.73251668E-07
  0.459600002      -6.34831792E-07
  0.461400002      -6.92458968E-07
  0.463200003      -7.45404122E-07
  0.465000004      -7.92957394E-07
  0.466800004      -8.34435923E-07
  0.468600005      -8.69191467E-07
  0.470400006      -8.96617792E-07
  0.472200006      -9.16158228E-07
  0.474000007      -9.27312612E-07
  0.475800008      -9.29643591E-07
  0.477600008      -9.22783272E-07
  0.479400009      -9.06438800E-07
  0.481200010      -8.80397465E-07
  0.483000010      -8.44531144E-07
  0.484800011      -7.98800215E-07
  0.486600012      -7.43256692E-07
  0.488400012      -6.78046320E-07
  0.490200013      -6.03410456E-07
  0.492000014      -5.19686353E-07
  0.493800014      -4.27307072E-07
  0.495599985      -3.26800716E-07
  0.497399986      -2.18788230E-07
  0.499199986      -1.03980739E-07
  0.500999987       1.68241279E-08
  0.502799988       1.42746671E-07
  0.504599988       2.72830306E-07
  0.506399989       4.06047690E-07
  0.508199990       5.41307429E-07
  0.509999990       6.77461571E-07
  0.511799991       8.13313591E-07
  0.513599992       9.47627541E-07
  0.515399992       1.07913638E-06
  0.517199993       1.20655250E-06
  0.518999994       1.32857747E-06
  0.520799994       1.44391231E-06
  0.522599995       1.55126816E-06
  0.524399996       1.64937740E-06
  0.526199996       1.73700437E-06
  0.527999997       1.81295650E-06
  0.529799998       1.87609510E-06
  0.531599998       1.92534662E-06
  0.533399999       1.95971234E-06
  0.535200000       1.97827990E-06
  0.537000000       1.98023258E-06
  0.538800001       1.96485939E-06
  0.540600002       1.93156370E-06
  0.542400002       1.87987268E-06
  0.544200003       1.80944437E-06
  0.546000004       1.72007583E-06
  0.547800004       1.61170908E-06
  0.549600005       1.48443746E-06
  0.551400006       1.33850995E-06
  0.553200006       1.17433513E-06
  0.555000007       9.92484502E-07
  0.556800008       7.93694142E-07
  0.558600008       5.78865581E-07
  0.560400009       3.49065118E-07
  0.562200010       1.05522780E-07
  0.564000010      -1.50371022E-07
  0.565800011      -4.17069089E-07
  0.567600012      -6.92873243E-07
  0.569400012      -9.75940452E-07
  0.571200013      -1.26429165E-06
  0.573000014      -1.55582018E-06
  0.574800014      -1.84830390E-06
  0.576600015      -2.13941598E-06
  0.578400016      -2.42673900E-06
  0.580200016      -2.70777969E-06
  0.582000017      -2.97998508E-06
  0.583800018      -3.24075950E-06
  0.585600019      -3.48748358E-06
  0.587400019      -3.71753254E-06
  0.589200020      -3.92829998E-06
  0.591000021      -4.11721339E-06
  0.592800021      -4.28176281E-06
  0.594600022      -4.41951943E-06
  0.596400023      -4.52816039E-06
  0.598200023      -4.60549199E-06
  0.600000024      -4.64947425E-06
  0.601800025      -4.65824314E-06
  0.603600025      -4.63013612E-06
  0.605400026      -4.56371390E-06
  0.607200027      -4.45778187E-06
  0.609000027      -4.31141552E-06
  0.610800028      -4.12397412E-06
  0.612600029      -3.89512616E-06
  0.614400029      -3.62486298E-06
  0.616199970      -3.31351384E-06
  0.617999971      -2.96176154E-06
  0.619799972      -2.57065062E-06
  0.621599972      -2.14159741E-06
  0.623399973      -1.67639473E-06
  0.625199974      -1.17721379E-06
  0.626999974      -6.46604121E-07
  0.628799975      -8.74891981E-08
  0.630599976       4.96841437E-07
  0.632399976       1.10274300E-06
  0.634199977       1.72623118E-06
  0.635999978       2.36300116E-06
  0.637799978       3.00844840E-06
  0.639599979       3.65769688E-06
  0.641399980       4.30562886E-06
  0.643199980       4.94691722E-06
  0.644999981       5.57606245E-06
  0.646799982       6.18743525E-06
  0.648599982       6.77531671E-06
  0.650399983       7.33394654E-06
  0.652199984       7.85756856E-06
  0.653999984       8.34048751E-06
  0.655799985       8.77711136E-06
  0.657599986       9.16201407E-06
  0.659399986       9.48998422E-06
  0.661199987       9.75608418E-06
  0.662999988       9.95570008E-06
  0.664799988       1.00845955E-05
  0.666599989       1.01389724E-05
  0.668399990       1.01155083E-05
  0.670199990       1.00114157E-05
  0.671999991       9.82448273E-06
  0.673799992       9.55311498E-06
  0.675599992       9.19637387E-06
  0.677399993       8.75401292E-06
  0.679199994       8.22649872E-06
  0.680999994       7.61503998E-06
  0.682799995       6.92160120E-06
  0.684599996       6.14891587E-06
  0.686399996       5.30048601E-06
  0.688199997       4.38058123E-06
  0.689999998       3.39423013E-06
  0.691799998       2.34719823E-06
  0.693599999       1.24596659E-06
  0.695400000       9.76973098E-08
  0.697200000      -1.08980578E-06
  0.699000001      -2.30814521E-06
  0.700800002      -3.54838176E-06
  0.702600002      -4.80109838E-06
  0.704400003      -6.05646528E-06
  0.706200004      -7.30431248E-06
  0.708000004      -8.53421170E-06
  0.709800005      -9.73555507E-06
  0.711600006      -1.08976437E-05
  0.713400006      -1.20097811E-05
  0.715200007      -1.30613635E-05
  0.717000008      -1.40419779E-05
  0.718800008      -1.49414918E-05
  0.720600009      -1.57501599E-05
  0.722400010      -1.64587091E-05
  0.724200010      -1.70584408E-05
  0.726000011      -1.75413134E-05
  0.727800012      -1.79000381E-05
  0.729600012      -1.81281539E-05
  0.731400013      -1.82201111E-05
  0.733200014      -1.81713403E-05
  0.735000014      -1.79783128E-05
  0.736800015      -1.76386038E-05
  0.738600016      -1.71509328E-05
  0.740400016      -1.65152105E-05
  0.742200017      -1.57325539E-05
  0.744000018      -1.48053141E-05
  0.745800018      -1.37370889E-05
  0.747600019      -1.25327060E-05
  0.749400020      -1.11982172E-05
  0.751200020      -9.74087015E-06
  0.753000021      -8.16907323E-06
  0.754800022      -6.49234380E-06
  0.756600022      -4.72125339E-06
  0.758400023      -2.86735553E-06
  0.760200024      -9.43107409E-07
  0.762000024       1.03821890E-06
  0.763800025       3.06263496E-06
  0.765600026       5.11554117E-06
  0.767400026       7.18184083E-06
  0.769200027       9.24605592E-06
  0.771000028       1.12924590E-05
  0.772800028       1.33051963E-05
  0.774600029       1.52684224E-05
  0.776400030       1.71664324E-05
  0.778199971       1.89837992E-05
  0.779999971       2.07055109E-05
  0.781799972       2.23170973E-05
  0.783599973       2.38047633E-05
  0.785399973       2.51555211E-05
  0.787199974       2.63572983E-05
  0.788999975       2.73990627E-05
  0.790799975       2.82709334E-05
  0.792599976       2.89642649E-05
  0.794399977       2.94717483E-05
  0.796199977       2.97874831E-05
  0.797999978       2.99070543E-05
  0.799799979       2.98275718E-05
  0.801599979       2.95477221E-05
  0.803399980       2.90678017E-05
  0.805199981       2.83897261E-05
  0.806999981       2.75170387E-05
  0.808799982       2.64548835E-05
  0.810599983       2.52100017E-05
  0.812399983       2.37906625E-05
  0.814199984       2.22066392E-05
  0.815999985       2.04691114E-05
  0.817799985       1.85906065E-05
  0.819599986       1.65848869E-05
  0.821399987       1.44668611E-05
  0.823199987       1.22524534E-05
  0.824999988       9.95847950E-06
  0.826799989       7.60251305E-06
  0.828599989       5.20273261E-06
  0.830399990       2.77777485E-06
  0.832199991       3.46572250E-07
  0.833999991      -2.07181097E-06
  0.835799992      -4.45834530E-06
  0.837599993      -6.79420691E-06
  0.839399993      -9.06094465E-06
  0.841199994      -1.12406551E-05
  0.842999995      -1.33161448E-05
  0.844799995      -1.52710982E-05
  0.846599996      -1.70902258E-05
  0.848399997      -1.87594396E-05
  0.850199997      -2.02659703E-05
  0.851999998      -2.15985201E-05
  0.853799999      -2.27473829E-05
  0.855599999      -2.37045533E-05
  0.857400000      -2.44638359E-05
  0.859200001      -2.50209305E-05
  0.861000001      -2.53734979E-05
  0.862800002      -2.55212235E-05
  0.864600003      -2.54658553E-05
  0.866400003      -2.52112350E-05
  0.868200004      -2.47632888E-05
  0.870000005      -2.41300368E-05
  0.871800005      -2.33215433E-05
  0.873600006      -2.23498864E-05
  0.875400007      -2.12290815E-05
  0.877200007      -1.99750011E-05
  0.879000008      -1.86052803E-05
  0.880800009      -1.71391894E-05
  0.882600009      -1.55975085E-05
  0.884400010      -1.40023694E-05
  0.886200011      -1.23770997E-05
  0.888000011      -1.07460382E-05
  0.889800012      -9.13434724E-06
  0.891600013      -7.56780810E-06
  0.893400013      -6.07261063E-06
  0.895200014      -4.67513064E-06
  0.897000015      -3.40170368E-06
  0.898800015      -2.27838905E-06
  0.900600016      -1.33073820E-06
  0.902400017      -5.83553742E-07
  0.904200017      -6.06501231E-08
  0.906000018       2.15378563E-07
  0.907800019       2.23392775E-07
  0.909600019      -5.60669449E-08
  0.911400020      -6.40563826E-07
  0.913200021      -1.54555619E-06
  0.915000021      -2.78420225E-06
  0.916800022      -4.36717710E-06
  0.918600023      -6.30250724E-06
  0.920400023      -8.59541797E-06
  0.922200024      -1.12482066E-05
  0.924000025      -1.42601266E-05
  0.925800025      -1.76273006E-05
  0.927600026      -2.13426538E-05
  0.929400027      -2.53958697E-05
  0.931200027      -2.97733714E-05
  0.933000028      -3.44583277E-05
  0.934800029      -3.94306880E-05
  0.936600029      -4.46672493E-05
  0.938399971      -5.01417198E-05
  0.940199971      -5.58248466E-05
  0.941999972      -6.16845500E-05
  0.943799973      -6.76860946E-05
  0.945599973      -7.37922528E-05
  0.947399974      -7.99635382E-05
  0.949199975      -8.61584194E-05
  0.950999975      -9.23336192E-05
  0.952799976      -9.84443177E-05
  0.954599977      -1.04444509E-04
  0.956399977      -1.10287277E-04
  0.958199978      -1.15925133E-04
  0.959999979      -1.21310339E-04
  0.961799979      -1.26395229E-04
  0.963599980      -1.31132663E-04
  0.965399981      -1.35476206E-04
  0.967199981      -1.39380674E-04
  0.968999982      -1.42802368E-04
  0.970799983      -1.45699451E-04
  0.972599983      -1.48032297E-04
  0.974399984      -1.49763902E-04
  0.976199985      -1.50860054E-04
  0.977999985      -1.51289802E-04
  0.979799986      -1.51025655E-04
  0.981599987      -1.50043896E-04
  0.983399987      -1.48324805E-04
  0.985199988      -1.45852930E-04
  0.986999989      -1.42617224E-04
  0.988799989      -1.38611300E-04
  0.990599990      -1.33833499E-04
  0.992399991      -1.28287065E-04
  0.994199991      -1.21980185E-04
  0.995999992      -1.14926021E-04
  0.997799993      -1.07142761E-04
  0.999599993      -9.86535742E-05
   1.00139999      -8.94865443E-05
   1.00320005      -7.96745735E-05
   1.00500000      -6.92552785E-05
   1.00680006      -5.82707798E-05
   1.00860000      -4.67675309E-05
   1.01040006      -3.47960740E-05
   1.01220000      -2.24107698E-05
   1.01400006      -9.66951029E-06
   1.01580000       3.36662129E-06
   1.01760006       1.66336904E-05
   1.01940000       3.00652991E-05
   1.02119994       4.35929796E-05
   1.02300000       5.71466262E-05
   1.02479994       7.06549035E-05
   1.02660000       8.40456996E-05
   1.02839994       9.72466514E-05
   1.03020000       1.10185523E-04
   1.03199995       1.22790720E-04
   1.03380001       1.34991729E-04
   1.03559995       1.46719671E-04
   1.03740001       1.57907692E-04
   1.03919995       1.68491431E-04
   1.04100001       1.78409478E-04
   1.04279995       1.87603815E-04
   1.04460001       1.96020206E-04
   1.04639995       2.03608608E-04
   1.04820001       2.10323458E-04
   1.04999995       2.16124143E-04
   1.05180001       2.20975213E-04
   1.05359995       2.24846663E-04
   1.05540001       2.27714190E-04
   1.05719995       2.29559417E-04
   1.05900002       2.30370031E-04
   1.06079996       2.30139907E-04
   1.06260002       2.28869190E-04
   1.06439996       2.26564371E-04
   1.06620002       2.23238254E-04
   1.06799996       2.18909932E-04
   1.06980002       2.13604726E-04
   1.07159996       2.07353994E-04
   1.07340002       2.00195063E-04
   1.07519996       1.92170890E-04
   1.07700002       1.83329961E-04
   1.07879996       1.73725872E-04
   1.08060002       1.63417091E-04
   1.08239996       1.52466600E-04
   1.08420002       1.40941484E-04
   1.08599997       1.28912492E-04
   1.08780003       1.16453622E-04
   1.08959997       1.03641680E-04
   1.09140003       9.05557099E-05
   1.09319997       7.72765561E-05
   1.09500003       6.38863203E-05
   1.09679997       5.04678246E-05
   1.09860003       3.71040878E-05
   1.10039997       2.38777702E-05
   1.10220003       1.08706499E-05
   1.10399997      -1.83693680E-06
   1.10580003      -1.41666005E-05
   1.10759997      -2.60424295E-05
   1.10940003      -3.73914954E-05
   1.11119998      -4.81443167E-05
   1.11300004      -5.82353532E-05
   1.11479998      -6.76034251E-05
   1.11660004      -7.61920892E-05
   1.11839998      -8.39500790E-05
   1.12020004      -9.08315997E-05
   1.12199998      -9.67966480E-05
   1.12380004      -1.01811267E-04
   1.12559998      -1.05847816E-04
   1.12740004      -1.08885069E-04
   1.12919998      -1.10908477E-04
   1.13100004      -1.11910143E-04
   1.13279998      -1.11888941E-04
   1.13460004      -1.10850531E-04
   1.13639998      -1.08807260E-04
   1.13820004      -1.05778156E-04
   1.13999999      -1.01788726E-04
   1.14180005      -9.68708191E-05
   1.14359999      -9.10624076E-05
   1.14540005      -8.44073438E-05
   1.14719999      -7.69550243E-05
   1.14900005      -6.87601059E-05
   1.15079999      -5.98820734E-05
   1.15260005      -5.03849114E-05
   1.15439999      -4.03366248E-05
   1.15620005      -2.98087925E-05
   1.15799999      -1.88760969E-05
   1.15980005      -7.61581987E-06
   1.16159999       3.89268143E-06
   1.16340005       1.55684866E-05
   1.16520000       2.73296573E-05
   1.16700006       3.90937857E-05
   1.16880000       5.07785153E-05
   1.17060006       6.23021187E-05
   1.17240000       7.35839785E-05
   1.17420006       8.45451796E-05
   1.17600000       9.51089460E-05
   1.17780006       1.05201216E-04
   1.17960000       1.14751077E-04
   1.18139994       1.23691207E-04
   1.18320000       1.31958281E-04
   1.18499994       1.39493452E-04
   1.18680000       1.46242644E-04
   1.18859994       1.52156907E-04
   1.19040000       1.57192699E-04
   1.19219995       1.61312215E-04
   1.19400001       1.64483456E-04
   1.19579995       1.66680591E-04
   1.19760001       1.67883933E-04
   1.19939995       1.68080165E-04
   1.20120001       1.67262304E-04
   1.20299995       1.65429723E-04
   1.20480001       1.62588185E-04
   1.20659995       1.58749725E-04
   1.20840001       1.53932488E-04
   1.21019995       1.48160703E-04
   1.21200001       1.41464407E-04
   1.21379995       1.33879206E-04
   1.21560001       1.25446095E-04
   1.21739995       1.16211100E-04
   1.21920002       1.06224979E-04
   1.22099996       9.55428695E-05
   1.22280002       8.42239460E-05
   1.22459996       7.23309713E-05
   1.22640002       5.99299274E-05
   1.22819996       4.70895793E-05
   1.23000002       3.38810059E-05
   1.23179996       2.03771779E-05
   1.23360002       6.65247217E-06
   1.23539996      -7.21777769E-06
   1.23720002      -2.11577535E-05
   1.23899996      -3.50916089E-05
   1.24080002      -4.89439371E-05