 -0.300000012       0.00000000    
 -0.298200011       0.00000000    
 -0.296400011       0.00000000    
 -0.294600010       0.00000000    
 -0.292800009       0.00000000    
 -0.291000009       0.00000000    
 -0.289200008       0.00000000    
 -0.287400007       0.00000000    
 -0.285600007       9.87401854E-32
 -0.283800006       1.64528509E-30
 -0.282000005       1.44820483E-29
 -0.280200005       8.94828881E-29
 -0.278400004       4.35304656E-28
 -0.276600003       1.77336143E-27
 -0.274800003       6.28568529E-27
 -0.273000002       1.98904914E-26
 -0.271200001       5.72334734E-26
 -0.269400001       1.51803672E-25
 -0.267600000       3.75025140E-25
 -0.265799999       8.69980655E-25
 -0.263999999       1.90730928E-24
 -0.262199998       3.97213712E-24
 -0.260399997       7.89045972E-24
 -0.258599997       1.49992877E-23
 -0.256799996       2.73543325E-23
 -0.254999995       4.79484015E-23
 -0.253199995       8.08783998E-23
 -0.251399994       1.31344154E-22
 -0.249599993       2.05283014E-22
 -0.247799993       3.08336723E-22
 -0.246000007       4.43710455E-22
 -0.244200006       6.08319093E-22
 -0.242400005       7.86434041E-22
 -0.240600005       9.39857112E-22
 -0.238800004       9.93487638E-22
 -0.237000003       8.15039021E-22
 -0.235200003       1.87675449E-22
 -0.233400002      -1.22550958E-21
 -0.231600001      -3.92584119E-21
 -0.229800001      -8.63221211E-21
 -0.228000000      -1.63419159E-20
 -0.226199999      -2.83965417E-20
 -0.224399999      -4.65482448E-20
 -0.222599998      -7.30191682E-20
 -0.220799997      -1.10543693E-19
 -0.218999997      -1.62379406E-19
 -0.217199996      -2.32268852E-19
 -0.215399995      -3.24329453E-19
 -0.213599995      -4.42844583E-19
 -0.211799994      -5.91924294E-19
 -0.209999993      -7.75000250E-19
 -0.208199993      -9.94115897E-19
 -0.206400007      -1.24897097E-18
 -0.204600006      -1.53567983E-18
 -0.202800006      -1.84520420E-18
 -0.201000005      -2.16142563E-18
 -0.199200004      -2.45883283E-18
 -0.197400004      -2.69981309E-18
 -0.195600003      -2.83154760E-18
 -0.193800002      -2.78254542E-18
 -0.192000002      -2.45887213E-18
 -0.190200001      -1.74016384E-18
 -0.188400000      -4.75568985E-19
 -0.186600000       1.52019398E-18
 -0.184799999       4.47043186E-18
 -0.182999998       8.63940519E-18
 -0.181199998       1.43342244E-17
 -0.179399997       2.19052812E-17
 -0.177599996       3.17447004E-17
 -0.175799996       4.42822174E-17
 -0.173999995       5.99778736E-17
 -0.172199994       7.93108051E-17
 -0.170399994       1.02763414E-16
 -0.168599993       1.30800151E-16
 -0.166800007       1.63840087E-16
 -0.165000007       2.02222724E-16
 -0.163200006       2.46166039E-16
 -0.161400005       2.95716645E-16
 -0.159600005       3.50690990E-16
 -0.157800004       4.10607903E-16
 -0.156000003       4.74612042E-16
 -0.154200003       5.41388784E-16
 -0.152400002       6.09070264E-16
 -0.150600001       6.75134916E-16
 -0.148800001       7.36299907E-16
 -0.147000000       7.88409744E-16
 -0.145199999       8.26321774E-16
 -0.143399999       8.43792411E-16
 -0.141599998       8.33366018E-16
 -0.139799997       7.86269874E-16
 -0.137999997       6.92319785E-16
 -0.136199996       5.39839032E-16
 -0.134399995       3.15596323E-16
 -0.132599995       4.76545699E-18
 -0.130799994      -4.09087691E-16
 -0.128999993      -9.43987938E-16
 -0.127200007      -1.61949682E-15
 -0.125400007      -2.45662319E-15
 -0.123599999      -3.47769070E-15
 -0.121799998      -4.70616291E-15
 -0.119999997      -6.16642442E-15
 -0.118199997      -7.88352114E-15
 -0.116400003      -9.88284924E-15
 -0.114600003      -1.21898146E-14
 -0.112800002      -1.48294497E-14
 -0.111000001      -1.78259964E-14
 -0.109200001      -2.12024832E-14
 -0.107400000      -2.49802586E-14
 -0.105599999      -2.91785368E-14
 -0.103799999      -3.38139584E-14
 -0.101999998      -3.89001135E-14
 -0.100199997      -4.44471594E-14
  -9.83999968E-02  -5.04614152E-14
  -9.66000035E-02  -5.69450222E-14
  -9.48000029E-02  -6.38956797E-14
  -9.30000022E-02  -7.13063777E-14
  -9.12000015E-02  -7.91652375E-14
  -8.94000009E-02  -8.74553929E-14
  -8.76000002E-02  -9.61549295E-14
  -8.57999995E-02  -1.05236817E-13
  -8.39999989E-02  -1.14668922E-13
  -8.21999982E-02  -1.24413948E-13
  -8.03999975E-02  -1.34429387E-13
  -7.85999969E-02  -1.44667291E-13
  -7.68000036E-02  -1.55073952E-13
  -7.50000030E-02  -1.65589317E-13
  -7.32000023E-02  -1.76146126E-13
  -7.14000016E-02  -1.86668606E-13
  -6.96000010E-02  -1.97070631E-13
  -6.78000003E-02  -2.07253350E-13
  -6.59999996E-02  -2.17101863E-13
  -6.41999990E-02  -2.26481133E-13
  -6.23999983E-02  -2.35230726E-13
  -6.06000014E-02  -2.43158331E-13
  -5.88000007E-02  -2.50031766E-13
  -5.70000000E-02  -2.55569546E-13
  -5.51999994E-02  -2.59429549E-13
  -5.33999987E-02  -2.61195633E-13
  -5.16000018E-02  -2.60362153E-13
  -4.98000011E-02  -2.56316317E-13
  -4.80000004E-02  -2.48317642E-13
  -4.61999997E-02  -2.35475186E-13
  -4.43999991E-02  -2.16721511E-13
  -4.25999984E-02  -1.90784251E-13
  -4.08000015E-02  -1.56154210E-13
  -3.90000008E-02  -1.11050654E-13
  -3.72000001E-02  -5.33834587E-14
  -3.53999995E-02   1.92878906E-14
  -3.35999988E-02   1.09798252E-13
  -3.18000019E-02   2.21423587E-13
  -2.99999993E-02   3.57930645E-13
  -2.82000005E-02   5.23628775E-13
  -2.63999999E-02   7.23424250E-13
  -2.45999992E-02   9.62875829E-13
  -2.28000004E-02   1.24825226E-12
  -2.09999997E-02   1.58658893E-12
  -1.92000009E-02   1.98574577E-12
  -1.74000002E-02   2.45446480E-12
  -1.55999996E-02   3.00242275E-12
  -1.37999998E-02   3.64028469E-12
  -1.20000001E-02   4.37975090E-12
  -1.02000004E-02   5.23360001E-12
  -8.39999970E-03   6.21572498E-12
  -6.59999996E-03   7.34115980E-12
  -4.80000023E-03   8.62610157E-12
  -3.00000003E-03   1.00879123E-11
  -1.20000006E-03   1.17451179E-11
   6.00000028E-04   1.36173867E-11
   2.40000011E-03   1.57254904E-11
   4.19999985E-03   1.80912542E-11
   6.00000005E-03   2.07374725E-11
   7.79999979E-03   2.36878208E-11
   9.60000046E-03   2.69667240E-11
   1.14000002E-02   3.05992107E-11
   1.31999999E-02   3.46107414E-11
   1.49999997E-02   3.90269934E-11
   1.67999994E-02   4.38736131E-11
   1.86000001E-02   4.91759584E-11
   2.04000007E-02   5.49587841E-11
   2.21999995E-02   6.12458903E-11
   2.40000002E-02   6.80597245E-11
   2.58000009E-02   7.54210097E-11
   2.75999997E-02   8.33482242E-11
   2.94000003E-02   9.18571191E-11
   3.11999992E-02   1.00960192E-10
   3.29999998E-02   1.10666080E-10
   3.48000005E-02   1.20978977E-10
   3.66000012E-02   1.31897965E-10
   3.84000018E-02   1.43416307E-10
   4.01999988E-02   1.55520735E-10
   4.19999994E-02   1.68190767E-10
   4.38000001E-02   1.81397841E-10
   4.56000008E-02   1.95104558E-10
   4.74000014E-02   2.09263981E-10
   4.91999984E-02   2.23818700E-10
   5.09999990E-02   2.38700115E-10
   5.27999997E-02   2.53827653E-10
   5.46000004E-02   2.69107986E-10
   5.64000010E-02   2.84434309E-10
   5.82000017E-02   2.99685693E-10
   5.99999987E-02   3.14726495E-10
   6.17999993E-02   3.29405808E-10
   6.36000037E-02   3.43556961E-10
   6.53999969E-02   3.56997376E-10
   6.71999976E-02   3.69528297E-10
   6.89999983E-02   3.80934673E-10
   7.07999989E-02   3.90985494E-10
   7.25999996E-02   3.99434014E-10
   7.44000003E-02   4.06018330E-10
   7.62000009E-02   4.10462164E-10
   7.80000016E-02   4.12475998E-10
   7.98000023E-02   4.11758350E-10
   8.16000029E-02   4.07997330E-10
   8.34000036E-02   4.00872807E-10
   8.51999968E-02   3.90058402E-10
   8.69999975E-02   3.75224490E-10
   8.87999982E-02   3.56040836E-10
   9.05999988E-02   3.32180228E-10
   9.23999995E-02   3.03322006E-10
   9.42000002E-02   2.69156419E-10
   9.60000008E-02   2.29388883E-10
   9.78000015E-02   1.83745005E-10
   9.96000022E-02   1.31975708E-10
  0.101400003       7.38627909E-11
  0.103200004       9.22475724E-12
  0.104999997      -6.20770657E-11
  0.106799997      -1.40132239E-10
  0.108599998      -2.24974692E-10
  0.110399999      -3.16576071E-10
  0.112199999      -4.14839219E-10
  0.114000000      -5.19591370E-10
  0.115800001      -6.30577701E-10
  0.117600001      -7.47455098E-10
  0.119400002      -8.69786354E-10
  0.121200003      -9.97033900E-10
  0.123000003      -1.12855580E-09
  0.124799997      -1.26360045E-09
  0.126599997      -1.40130318E-09
  0.128399998      -1.54068436E-09
  0.130199999      -1.68064629E-09
  0.131999999      -1.81997406E-09
  0.133800000      -1.95733563E-09
  0.135600001      -2.09128448E-09
  0.137400001      -2.22026286E-09
  0.139200002      -2.34260789E-09
  0.141000003      -2.45655785E-09
  0.142800003      -2.56026245E-09
  0.144600004      -2.65179345E-09
  0.146400005      -2.72915712E-09
  0.148200005      -2.79030932E-09
  0.150000006      -2.83317458E-09
  0.151800007      -2.85566237E-09
  0.153600007      -2.85569013E-09
  0.155399993      -2.83120638E-09
  0.157199994      -2.78021539E-09
  0.158999994      -2.70080402E-09
  0.160799995      -2.59117061E-09
  0.162599996      -2.44965381E-09
  0.164399996      -2.27476482E-09
  0.166199997      -2.06521866E-09
  0.167999998      -1.81996707E-09
  0.169799998      -1.53823099E-09
  0.171599999      -1.21953314E-09
  0.173400000      -8.63730865E-10
  0.175200000      -4.71046702E-10
  0.177000001      -4.20986371E-11
  0.178800002       4.22072016E-10
  0.180600002       9.19975207E-10
  0.182400003       1.44964940E-09
  0.184200004       2.00864236E-09
  0.186000004       2.59399680E-09
  0.187800005       3.20223870E-09
  0.189600006       3.82937149E-09
  0.191400006       4.47087878E-09
  0.193200007       5.12172704E-09
  0.194999993       5.77637982E-09
  0.196799994       6.42881748E-09
  0.198599994       7.07256342E-09
  0.200399995       7.70071917E-09
  0.202199996       8.30600388E-09
  0.203999996       8.88080720E-09
  0.205799997       9.41724476E-09
  0.207599998       9.90722704E-09
  0.209399998       1.03425268E-08
  0.211199999       1.07148637E-08
  0.213000000       1.10159935E-08
  0.214800000       1.12377982E-08
  0.216600001       1.13723893E-08
  0.218400002       1.14122125E-08
  0.220200002       1.13501564E-08
  0.222000003       1.11796670E-08
  0.223800004       1.08948610E-08
  0.225600004       1.04906448E-08
  0.227400005       9.96282790E-09
  0.229200006       9.30823596E-09
  0.231000006       8.52482707E-09
  0.232800007       7.61178764E-09
  0.234599993       6.56964261E-09
  0.236399993       5.40033840E-09
  0.238199994       4.10732692E-09
  0.239999995       2.69563305E-09
  0.241799995       1.17191379E-09
  0.243599996      -4.55505883E-10
  0.245399997      -2.17660578E-09
  0.247199997      -3.97966682E-09
  0.248999998      -5.85128390E-09
  0.250800014      -7.77639908E-09
  0.252600014      -9.73836300E-09
  0.254400015      -1.17190098E-08
  0.256199986      -1.36987586E-08
  0.257999986      -1.56567452E-08
  0.259799987      -1.75709687E-08
  0.261599988      -1.94184633E-08
  0.263399988      -2.11755040E-08
  0.265199989      -2.28178152E-08
  0.266999990      -2.43208156E-08
  0.268799990      -2.56598849E-08
  0.270599991      -2.68106337E-08
  0.272399992      -2.77492038E-08
  0.274199992      -2.84525701E-08
  0.275999993      -2.88988709E-08
  0.277799994      -2.90677189E-08
  0.279599994      -2.89405371E-08
  0.281399995      -2.85008959E-08
  0.283199996      -2.77348278E-08
  0.284999996      -2.66311577E-08
  0.286799997      -2.51818015E-08
  0.288599998      -2.33820625E-08
  0.290399998      -2.12308944E-08
  0.292199999      -1.87311571E-08
  0.294000000      -1.58898210E-08
  0.295800000      -1.27181536E-08
  0.297600001      -9.23185794E-09
  0.299400002      -5.45117596E-09
  0.301200002      -1.40094336E-09
  0.303000003       2.88940827E-09
  0.304800004       7.38589634E-09
  0.306600004       1.20500925E-08
  0.308400005       1.68392784E-08
  0.310200006       2.17066667E-08
  0.312000006       2.66016791E-08
  0.313800007       3.14702717E-08
  0.315600008       3.62553436E-08
  0.317400008       4.08971843E-08
  0.319200009       4.53339766E-08
  0.321000010       4.95023720E-08
  0.322800010       5.33380842E-08
  0.324600011       5.67765603E-08
  0.326400012       5.97536598E-08
  0.328200012       6.22064107E-08
  0.330000013       6.40737312E-08
  0.331800014       6.52972716E-08
  0.333600014       6.58221211E-08
  0.335399985       6.55976820E-08
  0.337199986       6.45784226E-08
  0.338999987       6.27246735E-08
  0.340799987       6.00033871E-08
  0.342599988       5.63888669E-08
  0.344399989       5.18634309E-08
  0.346199989       4.64180872E-08
  0.347999990       4.00530844E-08
  0.349799991       3.27784129E-08
  0.351599991       2.46142431E-08
  0.353399992       1.55912669E-08
  0.355199993       5.75092995E-09
  0.356999993      -4.85442131E-09
  0.358799994      -1.61615006E-08
  0.360599995      -2.80961743E-08
  0.362399995      -4.05736422E-08
  0.364199996      -5.34987805E-08
  0.365999997      -6.67665674E-08
  0.367799997      -8.02626658E-08
  0.369599998      -9.38641094E-08
  0.371399999      -1.07440115E-07
  0.373199999      -1.20853031E-07
  0.375000000      -1.33959347E-07
  0.376800001      -1.46610930E-07
  0.378600001      -1.58656150E-07
  0.380400002      -1.69941359E-07
  0.382200003      -1.80312227E-07
  0.384000003      -1.89615307E-07
  0.385800004      -1.97699492E-07
  0.387600005      -2.04417731E-07
  0.389400005      -2.09628567E-07
  0.391200006      -2.13197751E-07
  0.393000007      -2.14999972E-07
  0.394800007      -2.14920377E-07
  0.396600008      -2.12856193E-07
  0.398400009      -2.08718191E-07
  0.400200009      -2.02432219E-07
  0.402000010      -1.93940423E-07
  0.403800011      -1.83202630E-07
  0.405600011      -1.70197367E-07
  0.407400012      -1.54922901E-07
  0.409200013      -1.37398033E-07
  0.411000013      -1.17662786E-07
  0.412800014      -9.57788941E-08
  0.414600015      -7.18300441E-08
  0.416399986      -4.59220324E-08
  0.418199986      -1.81826216E-08
  0.419999987       1.12387841E-08
  0.421799988       4.21716742E-08
  0.423599988       7.44251878E-08
  0.425399989       1.07789070E-07
  0.427199990       1.42034921E-07
  0.428999990       1.76917510E-07
  0.430799991       2.12176388E-07
  0.432599992       2.47537713E-07
  0.434399992       2.82716201E-07
  0.436199993       3.17417260E-07
  0.437999994       3.51339196E-07
  0.439799994       3.84175735E-07
  0.441599995       4.15618530E-07
  0.443399996       4.45359717E-07
  0.445199996       4.73094644E-07
  0.446999997       4.98524685E-07
  0.448799998       5.21359937E-07
  0.450599998       5.41321867E-07
  0.452399999       5.58146326E-07
  0.454200000       5.71585929E-07
  0.456000000       5.81412849E-07
  0.457800001       5.87421084E-07
  0.459600002       5.89429249E-07
  0.461400002       5.87282216E-07
  0.463200003       5.80853623E-07
  0.465000004       5.70047405E-07
  0.466800004       5.54799612E-07
  0.468600005       5.35079437E-07
  0.470400006       5.10890743E-07
  0.472200006       4.82272412E-07
  0.474000007       4.49299250E-07
  0.475800008       4.12082159E-07
  0.477600008       3.70767822E-07
  0.479400009       3.25538622E-07
  0.481200010       2.76611729E-07
  0.483000010       2.24238178E-07
  0.484800011       1.68701519E-07
  0.486600012       1.10316186E-07
  0.488400012       4.94256120E-08
  0.490200013      -1.36000455E-08
  0.492000014      -7.83663197E-08
  0.493800014      -1.44457189E-07
  0.495599985      -2.11438021E-07
  0.497399986      -2.78858721E-07
  0.499199986      -3.46257082E-07
  0.500999987      -4.13162240E-07
  0.502799988      -4.79098389E-07
  0.504599988      -5.43588328E-07
  0.506399989      -6.06157357E-07
  0.508199990      -6.66336973E-07
  0.509999990      -7.23668904E-07
  0.511799991      -7.77708522E-07
  0.513599992      -8.28028760E-07
  0.515399992      -8.74223474E-07
  0.517199993      -9.15911301E-07
  0.518999994      -9.52738162E-07
  0.520799994      -9.84381131E-07
  0.522599995      -1.01055082E-06
  0.524399996      -1.03099376E-06
  0.526199996      -1.04549508E-06
  0.527999997      -1.05388051E-06
  0.529799998      -1.05601737E-06
  0.531599998      -1.05181641E-06
  0.533399999      -1.04123274E-06
  0.535200000      -1.02426588E-06
  0.537000000      -1.00096065E-06
  0.538800001      -9.71406280E-07
  0.540600002      -9.35736239E-07
  0.542400002      -8.94126970E-07
  0.544200003      -8.46797036E-07
  0.546000004      -7.94004848E-07
  0.547800004      -7.36047184E-07
  0.549600005      -6.73256295E-07
  0.551400006      -6.05997798E-07
  0.553200006      -5.34667436E-07
  0.555000007      -4.59687982E-07
  0.556800008      -3.81506140E-07
  0.558600008      -3.00588596E-07
  0.560400009      -2.17418744E-07
  0.562200010      -1.32492616E-07
  0.564000010      -4.63152894E-08
  0.565800011       4.06031191E-08
  0.567600012       1.27751179E-07
  0.569400012       2.14619988E-07
  0.571200013       3.00706802E-07
  0.573000014       3.85518604E-07
  0.574800014       4.68575536E-07
  0.576600015       5.49413983E-07
  0.578400016       6.27589486E-07
  0.580200016       7.02679642E-07
  0.582000017       7.74286150E-07
  0.583800018       8.42037196E-07
  0.585600019       9.05589104E-07
  0.587400019       9.64627816E-07
  0.589200020       1.01886963E-06
  0.591000021       1.06806260E-06
  0.592800021       1.11198631E-06
  0.594600022       1.15045202E-06
  0.596400023       1.18330263E-06
  0.598200023       1.21041182E-06
  0.600000024       1.23168309E-06
  0.601800025       1.24704877E-06
  0.603600025       1.25646875E-06
  0.605400026       1.25992813E-06
  0.607200027       1.25743588E-06
  0.609000027       1.24902294E-06
  0.610800028       1.23473978E-06
  0.612600029       1.21465462E-06
  0.614400029       1.18885066E-06
  0.616199970       1.15742489E-06
  0.617999971       1.12048485E-06
  0.619799972       1.07814742E-06
  0.621599972       1.03053674E-06
  0.623399973       9.77782634E-07
  0.625199974       9.20018977E-07
  0.626999974       8.57382418E-07
  0.628799975       7.90011882E-07
  0.630599976       7.18047318E-07
  0.632399976       6.41630152E-07
  0.634199977       5.60902436E-07
  0.635999978       4.76008040E-07
  0.637799978       3.87092598E-07
  0.639599979       2.94305153E-07
  0.641399980       1.97799153E-07
  0.643199980       9.77342083E-08
  0.644999981      -5.72200509E-09
  0.646799982      -1.12391525E-07
  0.648599982      -2.22083685E-07
  0.650399983      -3.34592471E-07
  0.652199984      -4.49693971E-07
  0.653999984      -5.67143331E-07
  0.655799985      -6.86672308E-07
  0.657599986      -8.07985941E-07
  0.659399986      -9.30760621E-07
  0.661199987      -1.05464085E-06
  0.662999988      -1.17923742E-06
  0.664799988      -1.30412513E-06
  0.666599989      -1.42884164E-06
  0.668399990      -1.55288535E-06
  0.670199990      -1.67571568E-06
  0.671999991      -1.79675226E-06
  0.673799992      -1.91537561E-06
  0.675599992      -2.03092759E-06
  0.677399993      -2.14271404E-06
  0.679199994      -2.25000645E-06
  0.680999994      -2.35204516E-06
  0.682799995      -2.44804323E-06
  0.684599996      -2.53719190E-06
  0.686399996      -2.61866489E-06
  0.688199997      -2.69162479E-06
  0.689999998      -2.75523075E-06
  0.691799998      -2.80864538E-06
  0.693599999      -2.85104284E-06
  0.695400000      -2.88161777E-06
  0.697200000      -2.89959530E-06
  0.699000001      -2.90423986E-06
  0.700800002      -2.89486661E-06
  0.702600002      -2.87085118E-06
  0.704400003      -2.83164013E-06
  0.706200004      -2.77676327E-06
  0.708000004      -2.70584292E-06
  0.709800005      -2.61860509E-06
  0.711600006      -2.51489132E-06
  0.713400006      -2.39466635E-06
  0.715200007      -2.25802933E-06
  0.717000008      -2.10522376E-06
  0.718800008      -1.93664323E-06
  0.720600009      -1.75284083E-06
  0.722400010      -1.55453540E-06
  0.724200010      -1.34261620E-06
  0.726000011      -1.11814768E-06
  0.727800012      -8.82372206E-07
  0.729600012      -6.36711661E-07
  0.731400013      -3.82767354E-07
  0.733200014      -1.22318767E-07
  0.735000014       1.42679497E-07
  0.736800015       4.10102388E-07
  0.738600016       6.77660580E-07
  0.740400016       9.42908684E-07
  0.742200017       1.20325433E-06
  0.744000018       1.45596982E-06
  0.745800018       1.69820487E-06
  0.747600019       1.92700054E-06
  0.749400020       2.13930593E-06
  0.751200020       2.33199376E-06
  0.753000021       2.50188054E-06
  0.754800022       2.64574533E-06
  0.756600022       2.76035030E-06
  0.758400023       2.84246312E-06
  0.760200024       2.88887759E-06
  0.762000024       2.89643845E-06
  0.763800025       2.86206364E-06
  0.765600026       2.78276730E-06
  0.767400026       2.65568428E-06
  0.769200027       2.47809271E-06
  0.771000028       2.24743781E-06
  0.772800028       1.96135329E-06
  0.774600029       1.61768264E-06
  0.776400030       1.21450182E-06
  0.778199971       7.50136905E-07
  0.779999971       2.23183477E-07
  0.781799972      -3.67477469E-07
  0.783599973      -1.02266358E-06
  0.785399973      -1.74287834E-06
  0.787199974      -2.52829864E-06
  0.788999975      -3.37876622E-06
  0.790799975      -4.29377997E-06
  0.792599976      -5.27248949E-06
  0.794399977      -6.31369312E-06
  0.796199977      -7.41583654E-06
  0.797999978      -8.57701343E-06
  0.799799979      -9.79497236E-06
  0.801599979      -1.10671153E-05
  0.803399980      -1.23905120E-05
  0.805199981      -1.37619054E-05
  0.806999981      -1.51777276E-05
  0.808799982      -1.66341015E-05
  0.810599983      -1.81268751E-05
  0.812399983      -1.96516212E-05
  0.814199984      -2.12036557E-05
  0.815999985      -2.27780674E-05
  0.817799985      -2.43697232E-05
  0.819599986      -2.59733006E-05
  0.821399987      -2.75832972E-05
  0.823199987      -2.91940614E-05
  0.824999988      -3.07997980E-05
  0.826799989      -3.23946042E-05
  0.828599989      -3.39724756E-05
  0.830399990      -3.55273405E-05
  0.832199991      -3.70530579E-05
  0.833999991      -3.85434578E-05
  0.835799992      -3.99923301E-05
  0.837599993      -4.13934613E-05
  0.839399993      -4.27406412E-05
  0.841199994      -4.40276635E-05
  0.842999995      -4.52483546E-05
  0.844799995      -4.63965662E-05
  0.846599996      -4.74661938E-05
  0.848399997      -4.84511766E-05
  0.850199997      -4.93454936E-05
  0.851999998      -5.01431787E-05
  0.853799999      -5.08383309E-05
  0.855599999      -5.14250787E-05
  0.857400000      -5.18976303E-05
  0.859200001      -5.22502341E-05
  0.861000001      -5.24771858E-05
  0.862800002      -5.25728392E-05
  0.864600003      -5.25316136E-05
  0.866400003      -5.23479539E-05
  0.868200004      -5.20163776E-05
  0.870000005      -5.15314532E-05
  0.871800005      -5.08878147E-05
  0.873600006      -5.00801580E-05
  0.875400007      -4.91032552E-05
  0.877200007      -4.79519622E-05
  0.879000008      -4.66212441E-05
  0.880800009      -4.51061787E-05
  0.882600009      -4.34019748E-05
  0.884400010      -4.15040158E-05
  0.886200011      -3.94078670E-05
  0.888000011      -3.71093047E-05
  0.889800012      -3.46043707E-05
  0.891600013      -3.18893944E-05
  0.893400013      -2.89610362E-05
  0.895200014      -2.58163400E-05
  0.897000015      -2.24527739E-05
  0.898800015      -1.88682880E-05
  0.900600016      -1.50613641E-05
  0.902400017      -1.10310793E-05
  0.904200017      -6.77715616E-06
  0.906000018      -2.30003207E-06
  0.907800019       2.39908763E-06
  0.909600019       7.31815953E-06
  0.911400020       1.24542485E-05
  0.913200021       1.78034643E-05
  0.915000021       2.33608935E-05
  0.916800022       2.91205615E-05
  0.918600023       3.50753689E-05
  0.920400023       4.12170339E-05
  0.922200024       4.75360575E-05
  0.924000025       5.40216897E-05
  0.925800025       6.06618923E-05
  0.927600026       6.74433031E-05
  0.929400027       7.43512210E-05
  0.931200027       8.13696170E-05
  0.933000028       8.84810870E-05
  0.934800029       9.56669246E-05
  0.936600029       1.02907070E-04
  0.938399971       1.10180205E-04
  0.940199971       1.17463736E-04
  0.941999972       1.24733895E-04
  0.943799973       1.31965760E-04
  0.945599973       1.39133350E-04
  0.947399974       1.46209728E-04
  0.949199975       1.53167071E-04
  0.950999975       1.59976727E-04
  0.952799976       1.66609490E-04
  0.954599977       1.73035543E-04
  0.956399977       1.79224706E-04
  0.958199978       1.85146564E-04
  0.959999979       1.90770588E-04
  0.961799979       1.96066350E-04
  0.963599980       2.01003670E-04
  0.965399981       2.05552744E-04
  0.967199981       2.09684396E-04
  0.968999982       2.13370193E-04
  0.970799983       2.16582644E-04
  0.972599983       2.19295427E-04
  0.974399984       2.21483511E-04
  0.976199985       2.23123352E-04
  0.977999985       2.24193078E-04
  0.979799986       2.24672622E-04
  0.981599987       2.24543968E-04
  0.983399987       2.23791183E-04
  0.985199988       2.22400689E-04
  0.986999989       2.20361253E-04
  0.988799989       2.17664259E-04
  0.990599990       2.14303684E-04
  0.992399991       2.10276310E-04
  0.994199991       2.05581688E-04
  0.995999992       2.00222261E-04
  0.997799993       1.94203443E-04
  0.999599993       1.87533573E-04
   1.00139999       1.80223942E-04
   1.00320005       1.72288841E-04
   1.00500000       1.63745470E-04
   1.00680006       1.54613881E-04
   1.00860000       1.44917023E-04
   1.01040006       1.34680493E-04
   1.01220000       1.23932594E-04
   1.01400006       1.12704132E-04
   1.01580000       1.01028272E-04
   1.01760006       8.89404473E-05
   1.01940000       7.64781507E-05
   1.02119994       6.36807454E-05
   1.02300000       5.05893149E-05
   1.02479994       3.72464237E-05
   1.02660000       2.36959204E-05
   1.02839994       9.98270662E-06
   1.03020000      -3.84748137E-06
   1.03199995      -1.77483198E-05
   1.03380001      -3.16731275E-05
   1.03559995      -4.55751106E-05
   1.03740001      -5.94076046E-05
   1.03919995      -7.31243053E-05
   1.04100001      -8.66795235E-05
   1.04279995      -1.00028396E-04
   1.04460001      -1.13127127E-04
   1.04639995      -1.25933220E-04
   1.04820001      -1.38405652E-04
   1.04999995      -1.50505060E-04
   1.05180001      -1.62193988E-04
   1.05359995      -1.73437016E-04
   1.05540001      -1.84200922E-04
   1.05719995      -1.94454857E-04
   1.05900002      -2.04170428E-04
   1.06079996      -2.13321808E-04
   1.06260002      -2.21885872E-04
   1.06439996      -2.29842219E-04
   1.06620002      -2.37173255E-04
   1.06799996      -2.43864211E-04
   1.06980002      -2.49903213E-04
   1.07159996      -2.55281135E-04
   1.07340002      -2.59991852E-04
   1.07519996      -2.64031871E-04
   1.07700002      -2.67400523E-04
   1.07879996      -2.70099757E-04
   1.08060002      -2.72134144E-04
   1.08239996      -2.73510697E-04
   1.08420002      -2.74238759E-04
   1.08599997      -2.74329970E-04
   1.08780003      -2.73798010E-04
   1.08959997      -2.72658479E-04
   1.09140003      -2.70928809E-04
   1.09319997      -2.68627948E-04
   1.09500003      -2.65776354E-04
   1.09679997      -2.62395712E-04
   1.09860003      -2.58508720E-04
   1.10039997      -2.54139071E-04
   1.10220003      -2.49311095E-04
   1.10399997      -2.44049676E-04
   1.10580003      -2.38379987E-04
   1.10759997      -2.32327424E-04
   1.10940003      -2.25917407E-04
   1.11119998      -2.19175141E-04
   1.11300004      -2.12125582E-04
   1.11479998      -2.04793207E-04
   1.11660004      -1.97201938E-04
   1.11839998      -1.89374958E-04
   1.12020004      -1.81334690E-04
   1.12199998      -1.73102628E-04
   1.12380004      -1.64699348E-04
   1.12559998      -1.56144320E-04
   1.12740004      -1.47455969E-04
   1.12919998      -1.38651551E-04
   1.13100004      -1.29747234E-04
   1.13279998      -1.20757984E-04
   1.13460004      -1.11697671E-04
   1.13639998      -1.02579041E-04
   1.13820004      -9.34137570E-05
   1.13999999      -8.42124646E-05
   1.14180005      -7.49848696E-05
   1.14359999      -6.57397832E-05
   1.14540005      -5.64852307E-05
   1.14719999      -4.72285501E-05
   1.14900005      -3.79764933E-05
   1.15079999      -2.87353396E-05
   1.15260005      -1.95110151E-05
   1.15439999      -1.03092289E-05
   1.15620005      -1.13559213E-06
   1.15799999       8.00425096E-06
   1.15980005       1.71044921E-05
   1.16159999       2.61590230E-05
   1.16340005       3.51613198E-05
   1.16520000       4.41043121E-05
   1.16700006       5.29802819E-05
   1.16880000       6.17807382E-05
   1.17060006       7.04963095E-05
   1.17240000       7.91166822E-05
   1.17420006       8.76305203E-05
   1.17600000       9.60253601E-05
   1.17780006       1.04287603E-04
   1.17960000       1.12402500E-04
   1.18139994       1.20354023E-04
   1.18320000       1.28125001E-04
   1.18499994       1.35697046E-04
   1.18680000       1.43050565E-04
   1.18859994       1.50164924E-04
   1.19040000       1.57018367E-04
   1.19219995       1.63588222E-04
   1.19400001       1.69850886E-04
   1.19579995       1.75782057E-04
   1.19760001       1.81356780E-04
   1.19939995       1.86549645E-04
   1.20120001       1.91334941E-04
   1.20299995       1.95686807E-04
   1.20480001       1.99579459E-04
   1.20659995       2.02987343E-04
   1.20840001       2.05885401E-04
   1.21019995       2.08249228E-04
   1.21200001       2.10055310E-04
   1.21379995       2.11281294E-04
   1.21560001       2.11906154E-04
   1.21739995       2.11910447E-04
   1.21920002       2.11276507E-04
   1.22099996       2.09988706E-04
   1.22280002       2.08033656E-04
   1.22459996       2.05400356E-04
   1.22640002       2.02080482E-04
   1.22819996       1.98068432E-04
   1.23000002       1.93361629E-04
   1.23179996       1.87960555E-04
   1.23360002       1.81868949E-04
   1.23539996       1.75093868E-04
   1.23720002       1.67645820E-04
   1.23899996       1.59538758E-04
   1.24080002       1.50790132E-04