  -10.0000000         1.00000002E-24
  -9.94999981         1.00000002E-24
  -9.89999962         1.00000002E-24
  -9.85000038         1.00000002E-24
  -9.80000019         1.00000012E-24
  -9.75000000         1.00000022E-24
  -9.69999981         1.00000022E-24
  -9.64999962         1.00000022E-24
  -9.60000038         1.00000022E-24
  -9.55000019         1.00000022E-24
  -9.50000000         1.00000012E-24
  -9.44999981         1.00000002E-24
  -9.39999962         1.00000002E-24
  -9.35000038         1.00000002E-24
  -9.30000019         1.00000012E-24
  -9.25000000         1.00000012E-24
  -9.19999981         1.00000012E-24
  -9.14999962         1.00000002E-24
  -9.10000038         9.99999724E-25
  -9.05000019         9.99999132E-25
  -9.00000000         9.99999625E-25
  -8.94999981         1.00000475E-24
  -8.89999962         1.00001954E-24
  -8.85000038         1.00004134E-24
  -8.80000019         1.00003769E-24
  -8.75000000         9.99924092E-25
  -8.69999981         9.99612689E-25
  -8.64999962         9.99261547E-25
  -8.60000038         9.99803199E-25
  -8.55000019         1.00342338E-24
  -8.50000000         1.01274555E-24
  -8.44999981         1.02648001E-24
  -8.39999962         1.02994114E-24
  -8.35000038         9.84056450E-25
  -8.30000019         8.28361044E-25
  -8.25000000         5.27782162E-25
  -8.19999981         1.92697445E-25
  -8.14999962         2.56095681E-25
  -8.10000038         1.57380906E-24
  -8.05000019         5.14497765E-24
  -8.00000000         1.10593653E-23
  -7.94999981         1.65275873E-23
  -7.90000010         1.37351128E-23
  -7.84999990        -1.01905367E-23
  -7.80000019        -6.73010181E-23
  -7.75000000        -1.53552558E-22
  -7.69999981        -2.25331971E-22
  -7.65000010        -1.79724741E-22
  -7.59999990         1.34867018E-22
  -7.55000019         8.41773858E-22
  -7.50000000         1.86954350E-21
  -7.44999981         2.72585739E-21
  -7.40000010         2.34007457E-21
  -7.34999990        -7.85387393E-22
  -7.30000019        -7.83189063E-21
  -7.25000000        -1.81978442E-20
  -7.19999981        -2.76296548E-20
  -7.15000010        -2.70070803E-20
  -7.09999990        -3.58228820E-21
  -7.05000019         5.33694120E-20
  -7.00000000         1.41733533E-19
  -6.94999981         2.32946572E-19
  -6.90000010         2.62689169E-19
  -6.84999990         1.37454877E-19
  -6.80000019        -2.30740972E-19
  -6.75000000        -8.56626174E-19
  -6.69999981        -1.59417887E-18
  -6.65000010        -2.06930811E-18
  -6.59999990        -1.69760385E-18
  -6.55000019         1.43003385E-19
  -6.50000000         3.75122685E-18
  -6.44999981         8.61008825E-18
  -6.40000010         1.29536997E-17
  -6.34999990         1.37119480E-17
  -6.30000019         7.19131965E-18
  -6.25000000        -9.29587806E-18
  -6.19999981        -3.50320750E-17
  -6.15000010        -6.34955617E-17
  -6.09999990        -8.13331161E-17
  -6.05000019        -7.03398857E-17
  -6.00000000        -1.36137129E-17
  -5.94999981         9.44111923E-17
  -5.90000010         2.36682181E-16
  -5.84999990         3.66146059E-16
  -5.80000019         4.08856213E-16
  -5.75000000         2.83031559E-16
  -5.69999981        -6.52300139E-17
  -5.65000010        -6.17043914E-16
  -5.59999990        -1.24349371E-15
  -5.55000019        -1.69937213E-15
  -5.50000000        -1.66967325E-15
  -5.44999981        -8.77113311E-16
  -5.40000010         7.66447291E-16
  -5.34999990         3.01297137E-15
  -5.30000019         5.20830268E-15
  -5.25000000         6.37379968E-15
  -5.19999981         5.48021042E-15
  -5.15000010         1.88325303E-15
  -5.09999990        -4.20230325E-15
  -5.05000019        -1.13924237E-14
  -5.00000000        -1.72098172E-14
  -4.94999981        -1.86904376E-14
  -4.90000010        -1.34795231E-14
  -4.84999990        -1.12362774E-15
  -4.80000019         1.59619717E-14
  -4.75000000         3.24486396E-14
  -4.69999981         4.13901498E-14
  -4.65000010         3.68072780E-14
  -4.59999990         1.68514545E-14
  -4.55000019        -1.37676142E-14
  -4.50000000        -4.36294169E-14
  -4.44999981        -5.78140509E-14
  -4.40000010        -4.43520647E-14
  -4.34999990        -2.05936876E-15
  -4.30000019         5.37070422E-14
  -4.25000000         9.14586942E-14
  -4.19999981         7.30753552E-14
  -4.15000010        -2.79108808E-14
  -4.09999990        -2.04244282E-13
  -4.05000019        -3.98615765E-13
  -4.00000000        -5.04651171E-13
  -3.95000005        -3.94133185E-13
  -3.90000010         2.90049153E-14
  -3.84999990         7.60211935E-13
  -3.79999995         1.63699740E-12
  -3.75000000         2.32612497E-12
  -3.70000005         2.38458645E-12
  -3.65000010         1.40400723E-12
  -3.59999990        -7.85253698E-13
  -3.54999995        -3.91236696E-12
  -3.50000000        -7.15711735E-12
  -3.45000005        -9.22566884E-12
  -3.40000010        -8.66484749E-12
  -3.34999990        -4.39078158E-12
  -3.29999995         3.69372458E-12
  -3.25000000         1.42102276E-11
  -3.20000005         2.42001471E-11
  -3.15000010         2.96094087E-11
  -3.09999990         2.64108579E-11
  -3.04999995         1.21753640E-11
  -3.00000000        -1.23508859E-11
  -2.95000005        -4.22779624E-11
  -2.90000010        -6.88199497E-11
  -2.84999990        -8.11157461E-11
  -2.79999995        -6.94988164E-11
  -2.75000000        -2.94900111E-11
  -2.70000005         3.47422160E-11
  -2.65000010         1.08935208E-10
  -2.59999990         1.70513645E-10
  -2.54999995         1.93996652E-10
  -2.50000000         1.59197960E-10
  -2.45000005         6.00820504E-11
  -2.40000010        -8.87647941E-11
  -2.34999990        -2.51130394E-10
  -2.29999995        -3.75624643E-10
  -2.25000000        -4.09408230E-10
  -2.20000005        -3.16316973E-10
  -2.15000010        -9.40805003E-11
  -2.09999990         2.15800572E-10
  -2.04999995         5.31035049E-10
  -2.00000000         7.46706141E-10
  -1.95000005         7.66064712E-10
  -1.89999998         5.36176104E-10
  -1.85000002         7.69269509E-11
  -1.79999995        -5.08572962E-10
  -1.75000000        -1.05039710E-09
  -1.70000005        -1.35555944E-09
  -1.64999998        -1.26996635E-09
  -1.60000002        -7.40723816E-10
  -1.54999995         1.43292461E-10
  -1.50000000         1.15192278E-09
  -1.45000005         1.96419192E-09
  -1.39999998         2.26171393E-09
  -1.35000002         1.84100257E-09
  -1.29999995         7.08641257E-10
  -1.25000000        -8.78340678E-10
  -1.20000005        -2.45282705E-09
  -1.14999998        -3.46105655E-09
  -1.10000002        -3.44202733E-09
  -1.04999995        -2.20989960E-09
  -1.00000000         2.56020066E-11
 -0.949999988         2.65673172E-09
 -0.899999976         4.81793272E-09
 -0.850000024         5.64679103E-09
 -0.800000012         4.59562299E-09
 -0.750000000         1.69099013E-09
 -0.699999988        -2.36334663E-09
 -0.649999976        -6.30878993E-09
 -0.600000024        -8.68029648E-09
 -0.550000012        -8.29954594E-09
 -0.500000000        -4.76267958E-09
 -0.449999988         1.25584532E-09
 -0.400000006         8.03089595E-09
 -0.349999994         1.32028140E-08
 -0.300000012         1.45097845E-08
 -0.250000000         1.06350475E-08
 -0.200000003         1.88554772E-09
 -0.150000006        -9.57762492E-09
 -0.100000001        -2.01315054E-08
  -5.00000007E-02    -2.56921222E-08
   0.00000000        -2.30890702E-08
   5.00000007E-02    -1.13984822E-08
  0.100000001         7.24869098E-09
  0.150000006         2.77757266E-08
  0.200000003         4.33322036E-08
  0.250000000         4.73288928E-08
  0.300000012         3.57936187E-08
  0.349999994         9.28960375E-09
  0.400000006        -2.63549715E-08
  0.449999988        -6.09873041E-08
  0.500000000        -8.27348501E-08
  0.550000012        -8.16956458E-08
  0.600000024        -5.36570290E-08
  0.649999976        -2.58436517E-09
  0.699999988         5.91845222E-08
  0.750000000         1.13514098E-07
  0.800000012         1.41436814E-07
  0.850000024         1.29261963E-07
  0.899999976         7.39848716E-08
  0.949999988        -1.39193137E-08
   1.00000000        -1.11675710E-07
   1.04999995        -1.89620380E-07
   1.10000002        -2.19735909E-07
   1.14999998        -1.84998498E-07
   1.20000005        -8.65966712E-08
   1.25000000         5.36662341E-08
   1.29999995         1.97296558E-07
   1.35000002         2.99023270E-07
   1.39999998         3.20353990E-07
   1.45000005         2.42903354E-07
   1.50000000         7.71485773E-08
   1.54999995        -1.36853103E-07
   1.60000002        -3.38122135E-07
   1.64999998        -4.61277011E-07
   1.70000005        -4.56668488E-07
   1.75000000        -3.08161816E-07
   1.79999995        -4.25936797E-08
   1.85000002         2.73154455E-07
   1.89999998         5.48066112E-07
   1.95000005         6.92415256E-07
   2.00000000         6.45802174E-07
   2.04999995         3.99268828E-07
   2.09999990         3.87553589E-09
   2.15000010        -4.38433119E-07
   2.20000005        -8.00701855E-07
   2.25000000        -9.67226129E-07
   2.29999995        -8.69932819E-07
   2.34999990        -5.13560167E-07
   2.40000010         1.92524237E-08
   2.45000005         5.86372266E-07
   2.50000000         1.02442255E-06
   2.54999995         1.19667015E-06
   2.59999990         1.03645721E-06
   2.65000010         5.72328133E-07
   2.70000005        -7.43577999E-08
   2.75000000        -7.20592311E-07
   2.79999995        -1.17397246E-06
   2.84999990        -1.29115119E-06
   2.90000010        -1.02459580E-06
   2.95000005        -4.42250126E-07
   3.00000000         2.87738317E-07
   3.04999995         9.44473470E-07
   3.09999990         1.32079128E-06
   3.15000010         1.28874956E-06
   3.20000005         8.43265184E-07
   3.25000000         1.08865386E-07
   3.29999995        -6.94432003E-07
   3.34999990        -1.31710601E-06
   3.40000010        -1.55818441E-06
   3.45000005        -1.33062633E-06
   3.50000000        -6.92233641E-07
   3.54999995         1.69414491E-07
   3.59999990         9.94824404E-07
   3.65000010         1.53563587E-06
   3.70000005         1.63594518E-06
   3.75000000         1.28427962E-06
   3.79999995         6.17291903E-07
   3.84999990        -1.28037584E-07
   3.90000010        -6.99064117E-07
   3.95000005        -9.20464515E-07
   4.00000000        -7.62151160E-07
   4.05000019        -3.55351347E-07
   4.09999990         5.31656781E-08
   4.15000010         1.96895471E-07
   4.19999981        -9.60450919E-08
   4.25000000        -8.11789334E-07
   4.30000019        -1.72089835E-06
   4.34999990        -2.43002000E-06
   4.40000010        -2.50785570E-06
   4.44999981        -1.65002939E-06
   4.50000000         1.71813213E-07
   4.55000019         2.63379820E-06
   4.59999990         5.09630172E-06
   4.65000010         6.75930005E-06
   4.69999981         6.90237448E-06
   4.75000000         5.14095382E-06
   4.80000019         1.61473156E-06
   4.84999990        -2.96519897E-06
   4.90000010        -7.44734098E-06
   4.94999981        -1.05321114E-05
   5.00000000        -1.11535719E-05
   5.05000019        -8.84015753E-06
   5.09999990        -3.93653545E-06
   5.15000010         2.40140616E-06
   5.19999981         8.46476451E-06
   5.25000000         1.24519793E-05
   5.30000019         1.30104163E-05
   5.34999990         9.69896337E-06
   5.40000010         3.21855487E-06
   5.44999981        -4.68622829E-06
   5.50000000        -1.16587562E-05
   5.55000019        -1.53959463E-05
   5.59999990        -1.43657862E-05
   5.65000010        -8.36035724E-06
   5.69999981         1.30237527E-06
   5.75000000         1.20243485E-05
   5.80000019         2.05885171E-05
   5.84999990         2.40726367E-05
   5.90000010         2.07611556E-05
   5.94999981         1.07787964E-05
   6.00000000        -3.76964931E-06
   6.05000019        -1.92370971E-05
   6.09999990        -3.13655582E-05
   6.15000010        -3.64720108E-05
   6.19999981        -3.25551882E-05
   6.25000000        -1.99896567E-05
   6.30000019        -1.57402962E-06
   6.34999990         1.81220403E-05
   6.40000010         3.39615690E-05
   6.44999981         4.16708681E-05
   6.50000000         3.90872483E-05
   6.55000019         2.68466283E-05
   6.59999990         8.28200973E-06
   6.65000010        -1.14711002E-05
   6.69999981        -2.69283501E-05
   6.75000000        -3.38567479E-05
   6.80000019        -3.05468238E-05
   6.84999990        -1.83615866E-05
   6.90000010        -1.37051325E-06
   6.94999981         1.48520185E-05
   7.00000000         2.49257610E-05
   7.05000019         2.53567014E-05
   7.09999990         1.56994756E-05
   7.15000010        -1.19073570E-06
   7.19999981        -1.99318511E-05
   7.25000000        -3.42161838E-05
   7.30000019        -3.87760483E-05
   7.34999990        -3.11167314E-05
   7.40000010        -1.24657090E-05
   7.44999981         1.23943973E-05
   7.50000000         3.64097868E-05
   7.55000019         5.23103517E-05
   7.59999990         5.48346725E-05
   7.65000010         4.24447426E-05
   7.69999981         1.79779545E-05
   7.75000000        -1.20115292E-05
   7.80000019        -3.90753994E-05
   7.84999990        -5.53456412E-05
   7.90000010        -5.59264518E-05
   7.94999981        -4.04659186E-05
   8.00000000        -1.33941267E-05
   8.05000019         1.72926702E-05
   8.10000038         4.23775455E-05
   8.14999962         5.42124726E-05
   8.19999981         4.91046376E-05
   8.25000000         2.85477799E-05
   8.30000019        -1.12047815E-06
   8.35000038        -3.05790818E-05
   8.39999962        -5.03712545E-05
   8.44999981        -5.38831919E-05
   8.50000000        -3.95278730E-05
   8.55000019        -1.14257600E-05
   8.60000038         2.16792359E-05
   8.64999962         4.89858430E-05
   8.69999981         6.09269046E-05
   8.75000000         5.21770780E-05
   8.80000019         2.34242125E-05
   8.85000038        -1.86894122E-05
   8.89999962        -6.34910466E-05
   8.94999981        -9.95129594E-05
   9.00000000        -1.18052296E-04
   9.05000019        -1.15933268E-04
   9.10000038        -9.65676809E-05
   9.14999962        -6.89244989E-05
   9.19999981        -4.46776976E-05
   9.25000000        -3.43989850E-05
   9.30000019        -4.40041622E-05
   9.35000038        -7.26279541E-05
   9.39999962        -1.12686808E-04
   9.44999981        -1.52209148E-04
   9.50000000        -1.78773858E-04
   9.55000019        -1.83837794E-04
   9.60000038        -1.66038357E-04
   9.64999962        -1.32313478E-04
   9.69999981        -9.63251077E-05
   9.75000000        -7.45215730E-05
   9.80000019        -8.09634366E-05
   9.85000038        -1.22512603E-04
   9.89999962        -1.95973465E-04
   9.94999981        -2.88253766E-04
   10.0000000        -3.79718200E-04
   10.0500002        -4.49901592E-04
   10.1000004        -4.83944168E-04
   10.1499996        -4.77773894E-04
   10.1999998        -4.40323143E-04
   10.2500000        -3.91884125E-04
   10.3000002        -3.58850724E-04
   10.3500004        -3.66228662E-04
   10.3999996        -4.30069049E-04
   10.4499998        -5.52127953E-04
   10.5000000        -7.18507741E-04
   10.5500002        -9.02918226E-04
   10.6000004        -1.07382878E-03
   10.6499996        -1.20356830E-03
   10.6999998        -1.27675501E-03
   10.7500000        -1.29551149E-03
   10.8000002        -1.27978122E-03
   10.8500004        -1.26245478E-03
   10.8999996        -1.28054572E-03
   10.9499998        -1.36488350E-03
   11.0000000        -1.53130665E-03
   11.0500002        -1.77598977E-03
   11.1000004        -2.07638461E-03
   11.1499996        -2.39763316E-03
   11.1999998        -2.70268577E-03
   11.2500000        -2.96321884E-03
   11.3000002        -3.16816126E-03
   11.3500004        -3.32728704E-03
   11.3999996        -3.46876960E-03
   11.4499998        -3.63136805E-03
   11.5000000        -3.85353202E-03
   11.5500002        -4.16266127E-03
   11.6000004        -4.56772326E-03
   11.6499996        -5.05746668E-03
   11.6999998        -5.60475746E-03
   11.7500000        -6.17573224E-03
   11.8000002        -6.74095005E-03
   11.8500004        -7.28509575E-03
   11.8999996        -7.81219825E-03
   11.9499998        -8.34468566E-03
   12.0000000        -8.91651027E-03
   12.0500002        -9.56246257E-03
   12.1000004        -1.03070373E-02
   12.1499996        -1.11564510E-02
   12.1999998        -1.20965308E-02
   12.2500000        -1.30974054E-02
   12.3000002        -1.41237890E-02
   12.3500004        -1.51478415E-02
   12.3999996        -1.61605813E-02
   12.4499998        -1.71781294E-02
   12.5000000        -1.82404742E-02
   12.5500002        -1.94026679E-02
   12.6000004        -2.07206886E-02
   12.6499996        -2.22360305E-02
   12.6999998        -2.39636116E-02
   12.7500000        -2.58868374E-02
   12.8000002        -2.79617291E-02
   12.8500004        -3.01292948E-02
   12.8999996        -3.23329009E-02
   12.9499998        -3.45357321E-02
   13.0000000        -3.67332473E-02
   13.0500002        -3.89568135E-02
   13.1000004        -4.12672237E-02
   13.1499996        -4.37397100E-02
   13.1999998        -4.64446470E-02
   13.2500000        -4.94294725E-02
   13.3000002        -5.27070798E-02
   13.3500004        -5.62541820E-02
   13.3999996        -6.00201711E-02
   13.4499998        -6.39439598E-02
   13.5000000        -6.79738745E-02
   13.5500002        -7.20847845E-02
   13.6000004        -7.62872472E-02
   13.6499996        -8.06262866E-02
   13.6999998        -8.51698145E-02
   13.7500000        -8.99906084E-02
   13.8000002        -9.51470435E-02
   13.8500004       -0.100668587    
   13.8999996       -0.106550403    
   13.9499998       -0.112758599    
   14.0000000       -0.119244523    
   14.0500002       -0.125963569    
   14.1000004       -0.132892489    
   14.1499996       -0.140039816    
   14.1999998       -0.147446051    
   14.2500000       -0.155173168    
   14.3000002       -0.163286954    
   14.3500004       -0.171837285    
   14.3999996       -0.180842787    
   14.4499998       -0.190284893    
   14.5000000       -0.200113222    
   14.5500002       -0.210261494    
   14.6000004       -0.220669121    
   14.6499996       -0.231302276    
   14.6999998       -0.242168099    
   14.7500000       -0.253317267    
   14.8000002       -0.264834404    
   14.8500004       -0.276817799    
   14.8999996       -0.289355189    
   14.9499998       -0.302500993    
   15.0000000       -0.316262960    
   15.0500002       -0.330600828    
   15.1000004       -0.345438361    
   15.1499996       -0.360684514    
   15.1999998       -0.376258790    
   15.2500000       -0.392112911    
   15.3000002       -0.408243150    
   15.3500004       -0.424690217    
   15.3999996       -0.441526651    
   15.4499998       -0.458835900    
   15.5000000       -0.476688892    
   15.5500002       -0.495124996    
   15.6000004       -0.514142692    
   15.6499996       -0.533701539    
   15.6999998       -0.553735256    
   15.7500000       -0.574171484    
   15.8000002       -0.594951153    
   15.8500004       -0.616043031    
   15.8999996       -0.637448013    
   15.9499998       -0.659193337    
   16.0000000       -0.681317568    
   16.0499992       -0.703853428    
   16.1000004       -0.726811707    
   16.1499996       -0.750174105    
   16.2000008       -0.773895681    
   16.2500000       -0.797916591    
   16.2999992       -0.822179914    
   16.3500004       -0.846648514    
   16.3999996       -0.871315956    
   16.4500008       -0.896206439    
   16.5000000       -0.921363831    
   16.5499992       -0.946832478    
   16.6000004       -0.972635508    
   16.6499996       -0.998757005    
   16.7000008        -1.02513599    
   16.7500000        -1.05167294    
   16.7999992        -1.07824850    
   16.8500004        -1.10475028    
   16.8999996        -1.13109779    
   16.9500008        -1.15726066    
   17.0000000        -1.18326116    
   17.0499992        -1.20916259    
   17.1000004        -1.23504400    
   17.1499996        -1.26097071    
   17.2000008        -1.28696775    
   17.2500000        -1.31300318    
   17.2999992        -1.33898950    
   17.3500004        -1.36479914    
   17.3999996        -1.39029133    
   17.4500008        -1.41534221    
   17.5000000        -1.43986952    
   17.5499992        -1.46384358    
   17.6000004        -1.48728406    
   17.6499996        -1.51024210    
   17.7000008        -1.53277433    
   17.7500000        -1.55491805    
   17.7999992        -1.57667339    
   17.8500004        -1.59799802    
   17.8999996        -1.61881483    
   17.9500008        -1.63903058    
   18.0000000        -1.65855646    
   18.0499992        -1.67732668    
   18.1000004        -1.69530761    
   18.1499996        -1.71249568    
   18.2000008        -1.72890496    
   18.2500000        -1.74455082    
   18.2999992        -1.75943267    
   18.3500004        -1.77352476    
   18.3999996        -1.78677559    
   18.4500008        -1.79911745    
   18.5000000        -1.81048274    
   18.5499992        -1.82082069    
   18.6000004        -1.83010995    
   18.6499996        -1.83836246    
   18.7000008        -1.84561682    
   18.7500000        -1.85192347    
   18.7999992        -1.85732472    
   18.8500004        -1.86183751    
   18.8999996        -1.86544108    
   18.9500008        -1.86807692    
   19.0000000        -1.86965835    
   19.0499992        -1.87009060    
   19.1000004        -1.86929393    
   19.1499996        -1.86722434    
   19.2000008        -1.86388707    
   19.2500000        -1.85933805    
   19.2999992        -1.85367215    
   19.3500004        -1.84700179    
   19.3999996        -1.83942914    
   19.4500008        -1.83102083    
   19.5000000        -1.82179117    
   19.5499992        -1.81169772    
   19.6000004        -1.80065274    
   19.6499996        -1.78854704    
   19.7000008        -1.77527893    
   19.7500000        -1.76078427    
   19.7999992        -1.74505627    
   19.8500004        -1.72815120    
   19.8999996        -1.71017802    
   19.9500008        -1.69127536    
   20.0000000        -1.67157996    
   20.0499992        -1.65119863    
   20.1000004        -1.63018751    
   20.1499996        -1.60854757    
   20.2000008        -1.58623397    
   20.2500000        -1.56317806    
   20.2999992        -1.53931487    
   20.3500004        -1.51460588    
   20.3999996        -1.48905313    
   20.4500008        -1.46270025    
   20.5000000        -1.43562055    
   20.5499992        -1.40789938    
   20.6000004        -1.37961388    
   20.6499996        -1.35081995    
   20.7000008        -1.32154834    
   20.7500000        -1.29181027    
   20.7999992        -1.26161051    
   20.8500004        -1.23096156    
   20.8999996        -1.19989204    
   20.9500008        -1.16844964    
   21.0000000        -1.13669336    
   21.0499992        -1.10468173    
   21.1000004        -1.07245934    
   21.1499996        -1.04004812    
   21.2000008        -1.00744700    
   21.2500000       -0.974638641    
   21.2999992       -0.941603065    
   21.3500004       -0.908331990    
   21.3999996       -0.874839723    
   21.4500008       -0.841166556    
   21.5000000       -0.807374179    
   21.5499992       -0.773534715    
   21.6000004       -0.739717484    
   21.6499996       -0.705977917    
   21.7000008       -0.672351122    
   21.7500000       -0.638852477    
   21.7999992       -0.605483472    
   21.8500004       -0.572239339    
   21.8999996       -0.539117157    
   21.9500008       -0.506119728    
   22.0000000       -0.473255903    
   22.0499992       -0.440537870    
   22.1000004       -0.407977283    
   22.1499996       -0.375583082    
   22.2000008       -0.343361825    
   22.2500000       -0.311320543    
   22.2999992       -0.279470772    
   22.3500004       -0.247831464    
   22.3999996       -0.216429725    
   22.4500008       -0.185297370    
   22.5000000       -0.154465765    
   22.5499992       -0.123959474    
   22.6000004        -9.37911421E-02
   22.6499996        -6.39605597E-02
   22.7000008        -3.44571620E-02
   22.7500000        -5.26506593E-03
   22.7999992         2.36315653E-02
   22.8500004         5.22437170E-02
   22.8999996         8.05769265E-02
   22.9500008        0.108632915    
   23.0000000        0.136413261    
   23.0499992        0.163922921    
   23.1000004        0.191171452    
   23.1499996        0.218170077    
   23.2000008        0.244926572    
   23.2500000        0.271439314    
   23.2999992        0.297692865    
   23.3500004        0.323657990    
   23.3999996        0.349297345    
   23.4500008        0.374575585    
   23.5000000        0.399470240    
   23.5499992        0.423982501    
   23.6000004        0.448140711    
   23.6499996        0.471997470    
   23.7000008        0.495619595    
   23.7500000        0.519073784    
   23.7999992        0.542411864    
   23.8500004        0.565659165    
   23.8999996        0.588810980    
   23.9500008        0.611835182    
   24.0000000        0.634683311    
   24.0499992        0.657304227    
   24.1000004        0.679657757    
   24.1499996        0.701724529    
   24.2000008        0.723509550    
   24.2500000        0.745039701    
   24.2999992        0.766356468    
   24.3500004        0.787506819    
   24.3999996        0.808534503    
   24.4500008        0.829474211    
   24.5000000        0.850349665    
   24.5499992        0.871174037    
   24.6000004        0.891953051    
   24.6499996        0.912687480    
   24.7000008        0.933375120    
   24.7500000        0.954010904    
   24.7999992        0.974585772    
   24.8500004        0.995087266    
   24.8999996         1.01549959    
   24.9500008         1.03580785    
   25.0000000         1.05600190    
   25.0499992         1.07608128    
   25.1000004         1.09605873    
   25.1499996         1.11596131    
   25.2000008         1.13582599    
   25.2500000         1.15569508    
   25.2999992         1.17560744    
   25.3500004         1.19559228    
   25.3999996         1.21566474    
   25.4500008         1.23582590    
   25.5000000         1.25606656    
   25.5499992         1.27637243    
   25.6000004         1.29673123    
   25.6499996         1.31713498    
   25.7000008         1.33758175    
   25.7500000         1.35807204    
   25.7999992         1.37860525    
   25.8500004         1.39917636    
   25.8999996         1.41977537    
   25.9500008         1.44039226    
   26.0000000         1.46102405    
   26.0499992         1.48168206    
   26.1000004         1.50239646    
   26.1499996         1.52321386    
   26.2000008         1.54418898    
   26.2500000         1.56537139    
   26.2999992         1.58679247    
   26.3500004         1.60845375    
   26.3999996         1.63032746    
   26.4500008         1.65236461    
   26.5000000         1.67451131    
   26.5499992         1.69672787    
   26.6000004         1.71900392    
   26.6499996         1.74136364    
   26.7000008         1.76385736    
   26.7500000         1.78654504    
   26.7999992         1.80947459    
   26.8500004         1.83266342    
   26.8999996         1.85609174    
   26.9500008         1.87970960    
   27.0000000         1.90345645    
   27.0499992         1.92728472    
   27.1000004         1.95118296    
   27.1499996         1.97518444    
   27.2000008         1.99936008    
   27.2500000         2.02379799    
   27.2999992         2.04857397    
   27.3500004         2.07372665    
   27.3999996         2.09924531    
   27.4500008         2.12507558    
   27.5000000         2.15113902    
   27.5499992         2.17736220    
   27.6000004         2.20370364    
   27.6499996         2.23016620    
   27.7000008         2.25679088    
   27.7500000         2.28363729    
   27.7999992         2.31075215    
   27.8500004         2.33814740    
   27.8999996         2.36578918    
   27.9500008         2.39360929    
   28.0000000         2.42153049    
   28.0499992         2.44950056    
   28.1000004         2.47751665    
   28.1499996         2.50563383    
   28.2000008         2.53394818    
   28.2500000         2.56256342    
   28.2999992         2.59155035    
   28.3500004         2.62091446    
   28.3999996         2.65058780    
   28.4500008         2.68044138    
   28.5000000         2.71032262    
   28.5499992         2.74009895    
   28.6000004         2.76968980    
   28.6499996         2.79908347    
   28.7000008         2.82832313    
   28.7500000         2.85747457    
   28.7999992         2.88658786    
   28.8500004         2.91566753    
   28.8999996         2.94466448    
   28.9500008         2.97348976    
   29.0000000         3.00204849    
   29.0499992         3.03027391    
   29.1000004         3.05815005    
   29.1499996         3.08570766    
   29.2000008         3.11299777    
   29.2500000         3.14004850    
   29.2999992         3.16682673    
   29.3500004         3.19321680    
   29.3999996         3.21903133    
   29.4500008         3.24404716    
   29.5000000         3.26805830    
   29.5499992         3.29092455    
   29.6000004         3.31259561    
   29.6499996         3.33310509    
   29.7000008         3.35253048    
   29.7500000         3.37093949    
   29.7999992         3.38833761    
   29.8500004         3.40464020    
   29.8999996         3.41967988    
   29.9500008         3.43324256    
   30.0000000         3.44511962    
   30.0499992         3.45515490    
   30.1000004         3.46326613    
   30.1499996         3.46943378    
   30.2000008         3.47365975    
   30.2500000         3.47591519    
   30.2999992         3.47609711    
   30.3500004         3.47401500    
   30.3999996         3.46941090    
   30.4500008         3.46201086    