  -10.0000000         1.00000002E-24
  -9.94999981         1.00000002E-24
  -9.89999962         1.00000002E-24
  -9.85000038         1.00000002E-24
  -9.80000019         1.00000002E-24
  -9.75000000         1.00000002E-24
  -9.69999981         1.00000002E-24
  -9.64999962         1.00000012E-24
  -9.60000038         1.00000022E-24
  -9.55000019         9.71556160E-25
  -9.50000000         2.76006087E-25
  -9.44999981        -6.51793956E-24
  -9.39999962        -4.56374209E-23
  -9.35000038        -1.97332293E-22
  -9.30000019        -6.07020767E-22
  -9.25000000        -1.31794338E-21
  -9.19999981        -1.67158389E-21
  -9.14999962         6.77583050E-22
  -9.10000038         9.82408486E-21
  -9.05000019         2.73105473E-20
  -9.00000000         3.93954137E-20
  -8.94999981        -1.74340673E-21
  -8.89999962        -1.81327929E-19
  -8.85000038        -5.60571667E-19
  -8.80000019        -9.93079543E-19
  -8.75000000        -8.28311162E-19
  -8.69999981         1.29459587E-18
  -8.64999962         7.06808876E-18
  -8.60000038         1.68839805E-17
  -8.55000019         2.66511737E-17
  -8.50000000         2.41430595E-17
  -8.44999981        -1.16670864E-17
  -8.39999962        -1.02569900E-16
  -8.35000038        -2.49147542E-16
  -8.30000019        -3.96210355E-16
  -8.25000000        -4.01425907E-16
  -8.19999981        -4.16288900E-17
  -8.14999962         8.97749151E-16
  -8.10000038         2.42091842E-15
  -8.05000019         4.03987367E-15
  -8.00000000         4.55104577E-15
  -7.94999981         2.12239330E-15
  -7.90000010        -5.02076111E-15
  -7.84999990        -1.71727019E-14
  -7.80000019        -3.12601880E-14
  -7.75000000        -3.93891124E-14
  -7.69999981        -2.93103588E-14
  -7.65000010         1.16144683E-14
  -7.59999990         8.82801251E-14
  -7.55000019         1.87064665E-13
  -7.50000000         2.67058565E-13
  -7.44999981         2.60703514E-13
  -7.40000010         9.15956086E-14
  -7.34999990        -2.87032605E-13
  -7.30000019        -8.39409488E-13
  -7.25000000        -1.39974154E-12
  -7.19999981        -1.66204995E-12
  -7.15000010        -1.24154701E-12
  -7.09999990         1.73926737E-13
  -7.05000019         2.60111702E-12
  -7.00000000         5.53829855E-12
  -6.94999981         7.86144327E-12
  -6.90000010         7.97450560E-12
  -6.84999990         4.30189174E-12
  -6.80000019        -3.91132396E-12
  -6.75000000        -1.57051577E-11
  -6.69999981        -2.78065331E-11
  -6.65000010        -3.47983170E-11
  -6.59999990        -3.04174914E-11
  -6.55000019        -9.99480967E-12
  -6.50000000         2.64972662E-11
  -6.44999981         7.18985219E-11
  -6.40000010         1.11269549E-10
  -6.34999990         1.24532593E-10
  -6.30000019         9.27571631E-11
  -6.25000000         7.02361736E-12
  -6.19999981        -1.22890795E-10
  -6.15000010        -2.63965544E-10
  -6.09999990        -3.63438779E-10
  -6.05000019        -3.62416347E-10
  -6.00000000        -2.18056448E-10
  -5.94999981         7.16419979E-11
  -5.90000010         4.50073312E-10
  -5.84999990         8.01803735E-10
  -5.80000019         9.77042447E-10
  -5.75000000         8.40107262E-10
  -5.69999981         3.30582284E-10
  -5.65000010        -4.83897755E-10
  -5.59999990        -1.38863543E-09
  -5.55000019        -2.05702411E-09
  -5.50000000        -2.14468110E-09
  -5.44999981        -1.42412993E-09
  -5.40000010         8.20287449E-11
  -5.34999990         2.02552597E-09
  -5.30000019         3.76559361E-09
  -5.25000000         4.53391369E-09
  -5.19999981         3.70708131E-09
  -5.15000010         1.10949427E-09
  -5.09999990        -2.76831580E-09
  -5.05000019        -6.75326994E-09
  -5.00000000        -9.24702803E-09
  -4.94999981        -8.73917472E-09
  -4.90000010        -4.44821957E-09
  -4.84999990         3.12954374E-09
  -4.80000019         1.20135430E-08
  -4.75000000         1.90628437E-08
  -4.69999981         2.08619824E-08
  -4.65000010         1.49850088E-08
  -4.59999990         1.25005373E-09
  -4.55000019        -1.75314518E-08
  -4.50000000        -3.57490713E-08
  -4.44999981        -4.63234180E-08
  -4.40000010        -4.29759055E-08
  -4.34999990        -2.28258266E-08
  -4.30000019         1.15866445E-08
  -4.25000000         5.17700300E-08
  -4.19999981         8.48317185E-08
  -4.15000010         9.70593632E-08
  -4.09999990         7.87088155E-08
  -4.05000019         2.85215673E-08
  -4.00000000        -4.37568382E-08
  -3.95000005        -1.18251720E-07
  -3.90000010        -1.69691560E-07
  -3.84999990        -1.75152294E-07
  -3.79999995        -1.22682223E-07
  -3.75000000        -1.78949264E-08
  -3.70000005         1.14265106E-07
  -3.65000010         2.34220536E-07
  -3.59999990         2.98574662E-07
  -3.54999995         2.74435791E-07
  -3.50000000         1.52889370E-07
  -3.45000005        -4.32803944E-08
  -3.40000010        -2.61409610E-07
  -3.34999990        -4.31447404E-07
  -3.29999995        -4.86724616E-07
  -3.25000000        -3.87291379E-07
  -3.20000005        -1.38241006E-07
  -3.15000010         2.04114301E-07
  -3.09999990         5.42348062E-07
  -3.04999995         7.63533023E-07
  -3.00000000         7.74186958E-07
  -2.95000005         5.34268565E-07
  -2.90000010         7.87259964E-08
  -2.84999990        -4.82380869E-07
  -2.79999995        -9.88273314E-07
  -2.75000000        -1.27173166E-06
  -2.70000005        -1.21144319E-06
  -2.65000010        -7.76466095E-07
  -2.59999990        -4.74797446E-08
  -2.54999995         7.94738810E-07
  -2.50000000         1.51363520E-06
  -2.45000005         1.88344950E-06
  -2.40000010         1.75927562E-06
  -2.34999990         1.12891269E-06
  -2.29999995         1.28608136E-07
  -2.25000000        -9.85328597E-07
  -2.20000005        -1.90380376E-06
  -2.15000010        -2.35324910E-06
  -2.09999990        -2.17926186E-06
  -2.04999995        -1.39963061E-06
  -2.00000000        -2.08733468E-07
  -1.95000005         1.07066376E-06
  -1.89999998         2.07618950E-06
  -1.85000002         2.51023857E-06
  -1.79999995         2.22924655E-06
  -1.75000000         1.29078239E-06
  -1.70000005        -5.65764786E-08
  -1.64999998        -1.43871648E-06
  -1.60000002        -2.45844899E-06
  -1.54999995        -2.80562654E-06
  -1.50000000        -2.34358868E-06
  -1.45000005        -1.14809427E-06
  -1.39999998         5.10692985E-07
  -1.35000002         2.23599000E-06
  -1.29999995         3.60129570E-06
  -1.25000000         4.24949394E-06
  -1.20000005         3.96962696E-06
  -1.14999998         2.73628257E-06
  -1.10000002         7.09073788E-07
  -1.04999995        -1.79948597E-06
  -1.00000000        -4.37408289E-06
 -0.949999988        -6.55243730E-06
 -0.899999976        -7.88098896E-06
 -0.850000024        -7.97180383E-06
 -0.800000012        -6.56554766E-06
 -0.750000000        -3.60210811E-06
 -0.699999988         7.09533481E-07
 -0.649999976         5.84331838E-06
 -0.600000024         1.09602779E-05
 -0.550000012         1.49938660E-05
 -0.500000000         1.68299448E-05
 -0.449999988         1.55662783E-05
 -0.400000006         1.08016829E-05
 -0.349999994         2.87617718E-06
 -0.300000012        -7.02696252E-06
 -0.250000000        -1.69887608E-05
 -0.200000003        -2.46963209E-05
 -0.150000006        -2.79757860E-05
 -0.100000001        -2.54029219E-05
  -5.00000007E-02    -1.68272945E-05
   0.00000000        -3.63676486E-06
   5.00000007E-02     1.13676215E-05
  0.100000001         2.45232550E-05
  0.150000006         3.21987209E-05
  0.200000003         3.18237726E-05
  0.250000000         2.27756373E-05
  0.300000012         6.83657254E-06
  0.349999994        -1.19807601E-05
  0.400000006        -2.82870169E-05
  0.449999988        -3.67011562E-05
  0.500000000        -3.34390024E-05
  0.550000012        -1.76694666E-05
  0.600000024         7.79156107E-06
  0.649999976         3.67459143E-05
  0.699999988         6.08939154E-05
  0.750000000         7.19023010E-05
  0.800000012         6.37745834E-05
  0.850000024         3.48925132E-05
  0.899999976        -1.08855684E-05
  0.949999988        -6.44893007E-05
   1.00000000        -1.13350288E-04
   1.04999995        -1.44259990E-04
   1.10000002        -1.46721679E-04
   1.14999998        -1.15951232E-04
   1.20000005        -5.47007876E-05
   1.25000000         2.66735769E-05
   1.29999995         1.12057387E-04
   1.35000002         1.83002048E-04
   1.39999998         2.22960123E-04
   1.45000005         2.21310736E-04
   1.50000000         1.76158341E-04
   1.54999995         9.51566035E-05
   1.60000002        -5.91679554E-06
   1.64999998        -1.06552252E-04
   1.70000005        -1.86087738E-04
   1.75000000        -2.28390505E-04
   1.79999995        -2.25521333E-04
   1.85000002        -1.79507755E-04
   1.89999998        -1.01813341E-04
   1.95000005        -1.06474708E-05
   2.00000000         7.32310000E-05
   2.04999995         1.31224981E-04
   2.09999990         1.51044529E-04
   2.15000010         1.29373861E-04
   2.20000005         7.25170321E-05
   2.25000000        -5.05021808E-06
   2.29999995        -8.38417109E-05
   2.34999990        -1.43518264E-04
   2.40000010        -1.67166756E-04
   2.45000005        -1.44859063E-04
   2.50000000        -7.58375245E-05
   2.54999995         3.10395553E-05
   2.59999990         1.58644631E-04
   2.65000010         2.84480950E-04
   2.70000005         3.84667335E-04
   2.75000000         4.38380695E-04
   2.79999995         4.32048430E-04
   2.84999990         3.62576306E-04
   2.90000010         2.38979119E-04
   2.95000005         8.19565976E-05
   3.00000000        -7.87607714E-05
   3.04999995        -2.09099235E-04
   3.09999990        -2.76745879E-04
   3.15000010        -2.57663021E-04
   3.20000005        -1.41747572E-04
   3.25000000         6.36603218E-05
   3.29999995         3.33453587E-04
   3.34999990         6.28104841E-04
   3.40000010         9.00409417E-04
   3.45000005         1.10454194E-03
   3.50000000         1.20567519E-03
   3.54999995         1.18808378E-03
   3.59999990         1.05978700E-03
   3.65000010         8.52405443E-04
   3.70000005         6.15910569E-04
   3.75000000         4.09112050E-04
   3.79999995         2.87779141E-04
   3.84999990         2.92956800E-04
   3.90000010         4.42119694E-04
   3.95000005         7.25253194E-04
   4.00000000         1.10687315E-03
   4.05000019         1.53364020E-03
   4.09999990         1.94592017E-03
   4.15000010         2.29071570E-03
   4.19999981         2.53307563E-03
   4.25000000         2.66346987E-03
   4.30000019         2.69957329E-03
   4.34999990         2.68222601E-03
   4.40000010         2.66665383E-03
   4.44999981         2.71105091E-03
   4.50000000         2.86509492E-03
   4.55000019         3.16079427E-03
   4.59999990         3.60738812E-03
   4.65000010         4.19097301E-03
   4.69999981         4.87848418E-03
   4.75000000         5.62481768E-03
   4.80000019         6.38144417E-03
   4.84999990         7.10486062E-03
   4.90000010         7.76360277E-03
   4.94999981         8.34303815E-03
   5.00000000         8.84768832E-03
   5.05000019         9.30118281E-03
   5.09999990         9.74406581E-03
   5.15000010         1.02296975E-02
   5.19999981         1.08184293E-02
   5.25000000         1.15703279E-02
   5.30000019         1.25369644E-02
   5.34999990         1.37532158E-02
   5.40000010         1.52304573E-02
   5.44999981         1.69527624E-02
   5.50000000         1.88775938E-02
   5.55000019         2.09418479E-02
   5.59999990         2.30729710E-02
   5.65000010         2.52036266E-02
   5.69999981         2.72871312E-02
   5.75000000         2.93102451E-02
   5.80000019         3.13000195E-02
   5.84999990         3.33224684E-02
   5.90000010         3.54725644E-02
   5.94999981         3.78573053E-02
   6.00000000         4.05753702E-02
   6.05000019         4.36980203E-02
   6.09999990         4.72560413E-02
   6.15000010         5.12359403E-02
   6.19999981         5.55866063E-02
   6.25000000         6.02349266E-02
   6.30000019         6.51064813E-02
   6.34999990         7.01461956E-02
   6.40000010         7.53337741E-02
   6.44999981         8.06902498E-02
   6.50000000         8.62743184E-02
   6.55000019         9.21700299E-02
   6.59999990         9.84695107E-02
   6.65000010        0.105255693    
   6.69999981        0.112589665    
   6.75000000        0.120505698    
   6.80000019        0.129014492    
   6.84999990        0.138112828    
   6.90000010        0.147795811    
   6.94999981        0.158067614    
   7.00000000        0.168947220    
   7.05000019        0.180467471    
   7.09999990        0.192668512    
   7.15000010        0.205588236    
   7.19999981        0.219253525    
   7.25000000        0.233676061    
   7.30000019        0.248854488    
   7.34999990        0.264783025    
   7.40000010        0.281464070    
   7.44999981        0.298920810    
   7.50000000        0.317205966    
   7.55000019        0.336403191    
   7.59999990        0.356620312    
   7.65000010        0.377975434    
   7.69999981        0.400579572    
   7.75000000        0.424520373    
   7.80000019        0.449850678    
   7.84999990        0.476586044    
   7.90000010        0.504710734    
   7.94999981        0.534191430    
   8.00000000        0.564995408    
   8.05000019        0.597107649    
   8.10000038        0.630544364    
   8.14999962        0.665358603    
   8.19999981        0.701637924    
   8.25000000        0.739495039    
   8.30000019        0.779053807    
   8.35000038        0.820433855    
   8.39999962        0.863737881    
   8.44999981        0.909043550    
   8.50000000        0.956400752    
   8.55000019         1.00583565    
   8.60000038         1.05735791    
   8.64999962         1.11096990    
   8.69999981         1.16667688    
   8.75000000         1.22449195    
   8.80000019         1.28444135    
   8.85000038         1.34656370    
   8.89999962         1.41090822    
   8.94999981         1.47753227    
   9.00000000         1.54649770    
   9.05000019         1.61786985    
   9.10000038         1.69171786    
   9.14999962         1.76811445    
   9.19999981         1.84713650    
   9.25000000         1.92886317    
   9.30000019         2.01337147    
   9.35000038         2.10072923    
   9.39999962         2.19098759    
   9.44999981         2.28417349    
   9.50000000         2.38028669    
   9.55000019         2.47930264    
   9.60000038         2.58117962    
   9.64999962         2.68587208    
   9.69999981         2.79334593    
   9.75000000         2.90359235    
   9.80000019         3.01663423    
   9.85000038         3.13252831    
   9.89999962         3.25135374    
   9.94999981         3.37319851    
   10.0000000         3.49814081    
   10.0500002         3.62623310    
   10.1000004         3.75749326    
   10.1499996         3.89190316    
   10.1999998         4.02941465    
   10.2500000         4.16996574    
   10.3000002         4.31349277    
   10.3500004         4.45994282    
   10.3999996         4.60927963    
   10.4499998         4.76148224    
   10.5000000         4.91653585    
   10.5500002         5.07442188    
   10.6000004         5.23511076    
   10.6499996         5.39855194    
   10.6999998         5.56468058    
   10.7500000         5.73342228    
   10.8000002         5.90470314    
   10.8500004         6.07846069    
   10.8999996         6.25464964    
   10.9499998         6.43324089    
   11.0000000         6.61421967    
   11.0500002         6.79756975    
   11.1000004         6.98326731    
   11.1499996         7.17126656    
   11.1999998         7.36149502    
   11.2500000         7.55385160    
   11.3000002         7.74821186    
   11.3500004         7.94443512    
   11.3999996         8.14237595    
   11.4499998         8.34189510    
   11.5000000         8.54286766    
   11.5500002         8.74518871    
   11.6000004         8.94877720    
   11.6499996         9.15357304    
   11.6999998         9.35953045    
   11.7500000         9.56660557    
   11.8000002         9.77475071    
   11.8500004         9.98390293    
   11.8999996         10.1939754    
   11.9499998         10.4048576    
   12.0000000         10.6164217    
   12.0500002         10.8285265    
   12.1000004         11.0410328    
   12.1499996         11.2538099    
   12.1999998         11.4667482    
   12.2500000         11.6797523    
   12.3000002         11.8927412    
   12.3500004         12.1056347    
   12.3999996         12.3183489    
   12.4499998         12.5307856    
   12.5000000         12.7428341    
   12.5500002         12.9543791    
   12.6000004         13.1653109    
   12.6499996         13.3755379    
   12.6999998         13.5849962    
   12.7500000         13.7936516    
   12.8000002         14.0014896    
   12.8500004         14.2085028    
   12.8999996         14.4146719    
   12.9499998         14.6199570    
   13.0000000         14.8242865    
   13.0500002         15.0275631    
   13.1000004         15.2296724    
   13.1499996         15.4305077    
   13.1999998         15.6299782    
   13.2500000         15.8280230    
   13.3000002         16.0246124    
   13.3500004         16.2197380    
   13.3999996         16.4134026    
   13.4499998         16.6056118    
   13.5000000         16.7963505    
   13.5500002         16.9856014    
   13.6000004         17.1733341    
   13.6499996         17.3595314    
   13.6999998         17.5441856    
   13.7500000         17.7273140    
   13.8000002         17.9089603    
   13.8500004         18.0891762    
   13.8999996         18.2680168    
   13.9499998         18.4455223    
   14.0000000         18.6217117    
   14.0500002         18.7965794    
   14.1000004         18.9701023    
   14.1499996         19.1422462    
   14.1999998         19.3129826    
   14.2500000         19.4822979    
   14.3000002         19.6502171    
   14.3500004         19.8167801    
   14.3999996         19.9820614    
   14.4499998         20.1461468    
   14.5000000         20.3091335    
   14.5500002         20.4711227    
   14.6000004         20.6322079    
   14.6499996         20.7924747    
   14.6999998         20.9519920    
   14.7500000         21.1108112    
   14.8000002         21.2689686    
   14.8500004         21.4264832    
   14.8999996         21.5833664    
   14.9499998         21.7396259    
   15.0000000         21.8952713    
   15.0500002         22.0503254    
   15.1000004         22.2048302    
   15.1499996         22.3588486    
   15.1999998         22.5124722    
   15.2500000         22.6658020    
   15.3000002         22.8189507    
   15.3500004         22.9720249    
   15.3999996         23.1251240    
   15.4499998         23.2783337    
   15.5000000         23.4317226    
   15.5500002         23.5853348    
   15.6000004         23.7391987    
   15.6499996         23.8933220    
   15.6999998         24.0477066    
   15.7500000         24.2023354    
   15.8000002         24.3571949    
   15.8500004         24.5122833    
   15.8999996         24.6676121    
   15.9499998         24.8232117    
   16.0000000         24.9791470    
   16.0499992         25.1355000    
   16.1000004         25.2923717    
   16.1499996         25.4498596    
   16.2000008         25.6080513    
   16.2500000         25.7670155    
   16.2999992         25.9267826    
   16.3500004         26.0873566    
   16.3999996         26.2487183    
   16.4500008         26.4108334    
   16.5000000         26.5736618    
   16.5499992         26.7371521    
   16.6000004         26.9012604    
   16.6499996         27.0659256    
   16.7000008         27.2310925    
   16.7500000         27.3967094    
   16.7999992         27.5627289    
   16.8500004         27.7291317    
   16.8999996         27.8959255    
   16.9500008         28.0631485    
   17.0000000         28.2308731    
   17.0499992         28.3991795    
   17.1000004         28.5681343    
   17.1499996         28.7377739    
   17.2000008         28.9080753    
   17.2500000         29.0789547    
   17.2999992         29.2502766    
   17.3500004         29.4218731    
   17.3999996         29.5935707    
   17.4500008         29.7652092    
   17.5000000         29.9366608    
   17.5499992         30.1078320    
   17.6000004         30.2786541    
   17.6499996         30.4490643    
   17.7000008         30.6190033    
   17.7500000         30.7883968    
   17.7999992         30.9571705    
   17.8500004         31.1252575    
   17.8999996         31.2926044    
   17.9500008         31.4591789    
   18.0000000         31.6249676    
   18.0499992         31.7899532    
   18.1000004         31.9540939    
   18.1499996         32.1172829    
   18.2000008         32.2793541    
   18.2500000         32.4400558    
   18.2999992         32.5990944    
   18.3500004         32.7561569    
   18.3999996         32.9109383    
   18.4500008         33.0631866    
   18.5000000         33.2127228    
   18.5499992         33.3594284    
   18.6000004         33.5032501    
   18.6499996         33.6441650    
   18.7000008         33.7821541    
   18.7500000         33.9171791    
   18.7999992         34.0491600    
   18.8500004         34.1779900    
   18.8999996         34.3035240    
   18.9500008         34.4255676    
   19.0000000         34.5438995    
   19.0499992         34.6582527    
   19.1000004         34.7683334    
   19.1499996         34.8738136    
   19.2000008         34.9743538    
   19.2500000         35.0696259    
   19.2999992         35.1593399    
   19.3500004         35.2432671    
   19.3999996         35.3212433    
   19.4500008         35.3931808    
   19.5000000         35.4590302    
   19.5499992         35.5187454    
   19.6000004         35.5722733    
   19.6499996         35.6194992    
   19.7000008         35.6602669    
   19.7500000         35.6943550    
   19.7999992         35.7215233    
   19.8500004         35.7415085    
   19.8999996         35.7540588    
   19.9500008         35.7589378    
   20.0000000         35.7559242    
   20.0499992         35.7448044    
   20.1000004         35.7253609    
   20.1499996         35.6973915    
   20.2000008         35.6606827    
   20.2500000         35.6150665    
   20.2999992         35.5604210    
   20.3500004         35.4966545    
   20.3999996         35.4237442    
   20.4500008         35.3416901    
   20.5000000         35.2504921    
   20.5499992         35.1501350    
   20.6000004         35.0405350    
   20.6499996         34.9215698    
   20.7000008         34.7930794    
   20.7500000         34.6548920    
   20.7999992         34.5068626    
   20.8500004         34.3489075    
   20.8999996         34.1809959    
   20.9500008         34.0031700    
   21.0000000         33.8154945    
   21.0499992         33.6180534    
   21.1000004         33.4109230    
   21.1499996         33.1941566    
   21.2000008         32.9677887    
   21.2500000         32.7318573    
   21.2999992         32.4864311    
   21.3500004         32.2316170    
   21.3999996         31.9675617    
   21.4500008         31.6944542    
   21.5000000         31.4124908    
   21.5499992         31.1218662    
   21.6000004         30.8227558    
   21.6499996         30.5153046    
   21.7000008         30.1996632    
   21.7500000         29.8759880    
   21.7999992         29.5444908    
   21.8500004         29.2054310    
   21.8999996         28.8591251    
   21.9500008         28.5059319    
   22.0000000         28.1462269    
   22.0499992         27.7803726    
   22.1000004         27.4086990    
   22.1499996         27.0315132    
   22.2000008         26.6490955    
   22.2500000         26.2617321    
   22.2999992         25.8697453    
   22.3500004         25.4734936    
   22.3999996         25.0733852    
   22.4500008         24.6698761    
   22.5000000         24.2634373    
   22.5499992         23.8545361    
   22.6000004         23.4436169    
   22.6499996         23.0310974    
   22.7000008         22.6173630    
   22.7500000         22.2027893    
   22.7999992         21.7877522    
   22.8500004         21.3726406    
   22.8999996         20.9578762    
   22.9500008         20.5438995    
   23.0000000         20.1311779    
   23.0499992         19.7201996    
   23.1000004         19.3114395    
   23.1499996         18.9053707    
   23.2000008         18.5024509    
   23.2500000         18.1031075    
   23.2999992         17.7077427    
   23.3500004         17.3167267    
   23.3999996         16.9304047    
   23.4500008         16.5491009    
   23.5000000         16.1731319    
   23.5499992         15.8028250    
   23.6000004         15.4385176    
   23.6499996         15.0805798    
   23.7000008         14.7294006    
   23.7500000         14.3853769    
   23.7999992         14.0488939    
   23.8500004         13.7203026    
   23.8999996         13.3999014    
   23.9500008         13.0879230    
   24.0000000         12.7845507    
   24.0499992         12.4899263    
   24.1000004         12.2041769    
   24.1499996         11.9274311    
   24.2000008         11.6598396    
   24.2500000         11.4015694    
   24.2999992         11.1527929    
   24.3500004         10.9136686    
   24.3999996         10.6843281    
   24.4500008         10.4648638    
   24.5000000         10.2553368    
   24.5499992         10.0557814    
   24.6000004         9.86622715    
   24.6499996         9.68670559    
   24.7000008         9.51725578    
   24.7500000         9.35791111    
   24.7999992         9.20868015    
   24.8500004         9.06953239    
   24.8999996         8.94037342    
   24.9500008         8.82105255    
   25.0000000         8.71137333    
   25.0499992         8.61111641    
   25.1000004         8.52007198    
   25.1499996         8.43805981    
   25.2000008         8.36492825    
   25.2500000         8.30056000    
   25.2999992         8.24483776    
   25.3500004         8.19763088    
   25.3999996         8.15877247    
   25.4500008         8.12806129    
   25.5000000         8.10526562    
   25.5499992         8.09013748    
   25.6000004         8.08243752    
   25.6499996         8.08193684    
   25.7000008         8.08841515    
   25.7500000         8.10164452    
   25.7999992         8.12137127    
   25.8500004         8.14729786    
   25.8999996         8.17908287    
   25.9500008         8.21635532    
   26.0000000         8.25873756    
   26.0499992         8.30588531    
   26.1000004         8.35750580    
   26.1499996         8.41337299    
   26.2000008         8.47330856    
   26.2500000         8.53716278    
   26.2999992         8.60476875    
   26.3500004         8.67591858    
   26.3999996         8.75034523    
   26.4500008         8.82772541    
   26.5000000         8.90770626    
   26.5499992         8.98993492    
   26.6000004         9.07409382    
   26.6499996         9.15991592    
   26.7000008         9.24718571    
   26.7500000         9.33572006    
   26.7999992         9.42534924    
   26.8500004         9.51588821    
   26.8999996         9.60713196    
   26.9500008         9.69885349    
   27.0000000         9.79082680    
   27.0499992         9.88283730    
   27.1000004         9.97470284    
   27.1499996         10.0662699    
   27.2000008         10.1574106    
   27.2500000         10.2479982    
   27.2999992         10.3378963    
   27.3500004         10.4269428    
   27.3999996         10.5149603    
   27.4500008         10.6017685    
   27.5000000         10.6872072    
   27.5499992         10.7711544    
   27.6000004         10.8535395    
   27.6499996         10.9343262    
   27.7000008         11.0135040    
   27.7500000         11.0910568    
   27.7999992         11.1669426    
   27.8500004         11.2410927    
   27.8999996         11.3134098    
   27.9500008         11.3837900    
   28.0000000         11.4521437    
   28.0499992         11.5184088    
   28.1000004         11.5825567    
   28.1499996         11.6445827    
   28.2000008         11.7044888    
   28.2500000         11.7622738    
   28.2999992         11.8179207    
   28.3500004         11.8714018    
   28.3999996         11.9226952    
   28.4500008         11.9717970    
   28.5000000         12.0187416    
   28.5499992         12.0635939    
   28.6000004         12.1064444    
   28.6499996         12.1473837    
   28.7000008         12.1864777    
   28.7500000         12.2237568    
   28.7999992         12.2592125    
   28.8500004         12.2928162    
   28.8999996         12.3245411    
   28.9500008         12.3543844    
   29.0000000         12.3823795    
   29.0499992         12.4085941    
   29.1000004         12.4331026    
   29.1499996         12.4559679    
   29.2000008         12.4772234    
   29.2500000         12.4968634    
   29.2999992         12.5148640    
   29.3500004         12.5312147    
   29.3999996         12.5459480    
   29.4500008         12.5591621    
   29.5000000         12.5710201    
   29.5499992         12.5817232    
   29.6000004         12.5914707    
   29.6499996         12.6004143    
   29.7000008         12.6086197    
   29.7500000         12.6160669    
   29.7999992         12.6226692    
   29.8500004         12.6283140    
   29.8999996         12.6329079    
   29.9500008         12.6364155    
   30.0000000         12.6388702    
   30.0499992         12.6403589    
   30.1000004         12.6409922    
   30.1499996         12.6408606    
   30.2000008         12.6400166    
   30.2500000         12.6384697    
   30.2999992         12.6362066    
   30.3500004         12.6332264    
   30.3999996         12.6295738    
   30.4500008         12.6253548    