  -6.000000       -4.8579774E-30
  -5.995000       -4.8516413E-30
  -5.990000       -4.8389844E-30
  -5.985000       -4.8200350E-30
  -5.980000       -4.7948366E-30
  -5.975000       -4.7634417E-30
  -5.970000       -4.7259093E-30
  -5.965000       -4.6823066E-30
  -5.960000       -4.6326992E-30
  -5.955000       -4.5771531E-30
  -5.950000       -4.5157276E-30
  -5.945000       -4.4484750E-30
  -5.940000       -4.3754386E-30
  -5.935000       -4.2966512E-30
  -5.930000       -4.2121325E-30
  -5.925000       -4.1218929E-30
  -5.920000       -4.0259357E-30
  -5.915000       -3.9242591E-30
  -5.910000       -3.8168610E-30
  -5.905000       -3.7037502E-30
  -5.900000       -3.5849489E-30
  -5.895000       -3.4605079E-30
  -5.890000       -3.3305140E-30
  -5.885000       -3.1951054E-30
  -5.880000       -3.0544830E-30
  -5.875000       -2.9089261E-30
  -5.870000       -2.7588062E-30
  -5.865000       -2.6046002E-30
  -5.860000       -2.4469062E-30
  -5.855000       -2.2864544E-30
  -5.850000       -2.1241181E-30
  -5.845000       -1.9609241E-30
  -5.840000       -1.7980582E-30
  -5.835000       -1.6368687E-30
  -5.830000       -1.4788681E-30
  -5.825000       -1.3257259E-30
  -5.820000       -1.1792637E-30
  -5.815000       -1.0414398E-30
  -5.810000       -9.1433214E-31
  -5.805000       -8.0011443E-31
  -5.800000       -7.0102674E-31
  -5.795000       -6.1934244E-31
  -5.790000       -5.5732769E-31
  -5.785000       -5.1719673E-31
  -5.780000       -5.0106204E-31
  -5.775000       -5.1088155E-31
  -5.770000       -5.4840028E-31
  -5.765000       -6.1508983E-31
  -5.760000       -7.1208528E-31
  -5.755000       -8.4012290E-31
  -5.750000       -9.9947197E-31
  -5.745000       -1.1898761E-30
  -5.740000       -1.4104879E-30
  -5.735000       -1.6598134E-30
  -5.730000       -1.9356608E-30
  -5.725000       -2.2350889E-30
  -5.720000       -2.5543733E-30
  -5.715000       -2.8889747E-30
  -5.710000       -3.2335194E-30
  -5.705000       -3.5817967E-30
  -5.700000       -3.9267594E-30
  -5.695000       -4.2605430E-30
  -5.690000       -4.5745124E-30
  -5.685000       -4.8593037E-30
  -5.680000       -5.1049011E-30
  -5.675000       -5.3007114E-30
  -5.670000       -5.4356849E-30
  -5.665000       -5.4984258E-30
  -5.660000       -5.4773327E-30
  -5.655000       -5.3607696E-30
  -5.650000       -5.1372139E-30
  -5.645000       -4.7954599E-30
  -5.640000       -4.3248216E-30
  -5.635000       -3.7153397E-30
  -5.630000       -2.9580008E-30
  -5.625000       -2.0449754E-30
  -5.620000       -9.6985045E-31
  -5.615000        2.7213583E-31
  -5.610000        1.6838603E-30
  -5.605000        3.2660808E-30
  -5.600000        5.0172190E-30
  -5.595000        6.9331424E-30
  -5.590000        9.0069778E-30
  -5.585000        1.1228938E-29
  -5.580000        1.3586157E-29
  -5.575000        1.6062587E-29
  -5.570000        1.8638869E-29
  -5.565000        2.1292311E-29
  -5.560000        2.3996872E-29
  -5.555000        2.6723142E-29
  -5.550000        2.9438444E-29
  -5.545000        3.2106907E-29
  -5.540000        3.4689706E-29
  -5.535000        3.7145152E-29
  -5.530000        3.9429073E-29
  -5.525000        4.1495063E-29
  -5.520000        4.3294842E-29
  -5.515000        4.4778747E-29
  -5.510000        4.5896084E-29
  -5.505000        4.6595750E-29
  -5.500000        4.6826763E-29
  -5.495000        4.6538842E-29
  -5.490000        4.5683067E-29
  -5.485000        4.4212527E-29
  -5.480000        4.2083101E-29
  -5.475000        3.9254096E-29
  -5.470000        3.5689008E-29
  -5.465000        3.1356321E-29
  -5.460000        2.6230179E-29
  -5.455000        2.0291174E-29
  -5.450000        1.3527055E-29
  -5.445000        5.9333956E-30
  -5.440000       -2.4856908E-30
  -5.435000       -1.1716994E-29
  -5.430000       -2.1737616E-29
  -5.425000       -3.2514491E-29
  -5.420000       -4.4003945E-29
  -5.415000       -5.6151324E-29
  -5.410000       -6.8890941E-29
  -5.405000       -8.2145534E-29
  -5.400000       -9.5826630E-29
  -5.395000       -1.0983438E-28
  -5.390000       -1.2405777E-28
  -5.385000       -1.3837500E-28
  -5.380000       -1.5265388E-28
  -5.375000       -1.6675244E-28
  -5.370000       -1.8051939E-28
  -5.365000       -1.9379546E-28
  -5.360000       -2.0641380E-28
  -5.355000       -2.1820158E-28
  -5.350000       -2.2898077E-28
  -5.345000       -2.3856978E-28
  -5.340000       -2.4678471E-28
  -5.335000       -2.5344138E-28
  -5.330000       -2.5835616E-28
  -5.325000       -2.6134879E-28
  -5.320000       -2.6224317E-28
  -5.315000       -2.6086993E-28
  -5.310000       -2.5706822E-28
  -5.305000       -2.5068744E-28
  -5.300000       -2.4158971E-28
  -5.295000       -2.2965140E-28
  -5.290000       -2.1476512E-28
  -5.285000       -1.9684215E-28
  -5.280000       -1.7581376E-28
  -5.275000       -1.5163322E-28
  -5.270000       -1.2427747E-28
  -5.265000       -9.3748859E-29
  -5.260000       -6.0076189E-29
  -5.255000       -2.3316542E-29
  -5.250000        1.6444020E-29
  -5.245000        5.9089366E-29
  -5.240000        1.0447270E-28
  -5.235000        1.5241569E-28
  -5.230000        2.0270885E-28
  -5.225000        2.5511077E-28
  -5.220000        3.0934886E-28
  -5.215000        3.6512028E-28
  -5.210000        4.2209119E-28
  -5.205000        4.7989952E-28
  -5.200000        5.3815567E-28
  -5.195000        5.9644380E-28
  -5.190000        6.5432372E-28
  -5.185000        7.1133418E-28
  -5.180000        7.6699346E-28
  -5.175000        8.2080438E-28
  -5.170000        8.7225435E-28
  -5.165000        9.2082148E-28
  -5.160000        9.6597607E-28
  -5.155000        1.0071851E-27
  -5.150000        1.0439147E-27
  -5.145000        1.0756364E-27
  -5.140000        1.1018283E-27
  -5.135000        1.1219812E-27
  -5.130000        1.1356023E-27
  -5.125000        1.1422191E-27
  -5.120000        1.1413835E-27
  -5.115000        1.1326771E-27
  -5.110000        1.1157138E-27
  -5.105000        1.0901448E-27
  -5.100000        1.0556624E-27
  -5.095000        1.0120036E-27
  -5.090000        9.5895355E-28
  -5.085000        8.9634966E-28
  -5.080000        8.2408366E-28
  -5.075000        7.4210544E-28
  -5.070000        6.5042458E-28
  -5.065000        5.4911354E-28
  -5.060000        4.3830930E-28
  -5.055000        3.1821394E-28
  -5.050000        1.8909695E-28
  -5.045000        5.1295670E-29
  -5.040000       -9.4785208E-29
  -5.035000       -2.4867319E-28
  -5.030000       -4.0982764E-28
  -5.025000       -5.7764349E-28
  -5.020000       -7.5144890E-28
  -5.015000       -9.3051016E-28
  -5.010000       -1.1140337E-27
  -5.005000       -1.3011677E-27
  -5.000000       -1.4910038E-27
  -4.995000       -1.6825854E-27
  -4.990000       -1.8749067E-27
  -4.985000       -2.0669196E-27
  -4.980000       -2.2575364E-27
  -4.975000       -2.4456360E-27
  -4.970000       -2.6300711E-27
  -4.965000       -2.8096676E-27
  -4.960000       -2.9832339E-27
  -4.955000       -3.1495713E-27
  -4.950000       -3.3074688E-27
  -4.945000       -3.4557184E-27
  -4.940000       -3.5931162E-27
  -4.935000       -3.7184719E-27
  -4.930000       -3.8306119E-27
  -4.925000       -3.9283871E-27
  -4.920000       -4.0106763E-27
  -4.915000       -4.0763967E-27
  -4.910000       -4.1245019E-27
  -4.905000       -4.1539959E-27
  -4.900000       -4.1639330E-27
  -4.895000       -4.1534228E-27
  -4.890000       -4.1216391E-27
  -4.885000       -4.0678171E-27
  -4.880000       -3.9912652E-27
  -4.875000       -3.8913642E-27
  -4.870000       -3.7675700E-27
  -4.865000       -3.6194233E-27
  -4.860000       -3.4465418E-27
  -4.855000       -3.2486328E-27
  -4.850000       -3.0254888E-27
  -4.845000       -2.7769924E-27
  -4.840000       -2.5031144E-27
  -4.835000       -2.2039212E-27
  -4.830000       -1.8795655E-27
  -4.825000       -1.5302967E-27
  -4.820000       -1.1564559E-27
  -4.815000       -7.5847560E-28
  -4.810000       -3.3688046E-28
  -4.805000        1.0771109E-28
  -4.800000        5.7459658E-28
  -4.795000        1.0629779E-27
  -4.790000        1.5719705E-27
  -4.785000        2.1006060E-27
  -4.780000        2.6478253E-27
  -4.775000        3.2124897E-27
  -4.770000        3.7933817E-27
  -4.765000        4.3891940E-27
  -4.760000        4.9985505E-27
  -4.755000        5.6199922E-27
  -4.750000        6.2519865E-27
  -4.745000        6.8929264E-27
  -4.740000        7.5411374E-27
  -4.735000        8.1948689E-27
  -4.730000        8.8523066E-27
  -4.725000        9.5115656E-27
  -4.720000        1.0170699E-26
  -4.715000        1.0827694E-26
  -4.710000        1.1480475E-26
  -4.705000        1.2126911E-26
  -4.700000        1.2764799E-26
  -4.695000        1.3391895E-26
  -4.690000        1.4005888E-26
  -4.685000        1.4604412E-26
  -4.680000        1.5185052E-26
  -4.675000        1.5745351E-26
  -4.670000        1.6282782E-26
  -4.665000        1.6794796E-26
  -4.660000        1.7278786E-26
  -4.655000        1.7732108E-26
  -4.650000        1.8152082E-26
  -4.645000        1.8536003E-26
  -4.640000        1.8881118E-26
  -4.635000        1.9184672E-26
  -4.630000        1.9443873E-26
  -4.625000        1.9655930E-26
  -4.620000        1.9818038E-26
  -4.615000        1.9927389E-26
  -4.610000        1.9981186E-26
  -4.605000        1.9976654E-26
  -4.600000        1.9911033E-26
  -4.595000        1.9781605E-26
  -4.590000        1.9585698E-26
  -4.585000        1.9320678E-26
  -4.580000        1.8984004E-26
  -4.575000        1.8573203E-26
  -4.570000        1.8085889E-26
  -4.565000        1.7519787E-26
  -4.560000        1.6872759E-26
  -4.555000        1.6142778E-26
  -4.550000        1.5328002E-26
  -4.545000        1.4426711E-26
  -4.540000        1.3437406E-26
  -4.535000        1.2358799E-26
  -4.530000        1.1189778E-26
  -4.525000        9.9295001E-27
  -4.520000        8.5773786E-27
  -4.515000        7.1330721E-27
  -4.510000        5.5965687E-27
  -4.505000        3.9681210E-27
  -4.500000        2.2483557E-27
  -4.495000        4.3820106E-28
  -4.490000       -1.4610314E-27
  -4.485000       -3.4476842E-27
  -4.480000       -5.5196559E-27
  -4.475000       -7.6745003E-27
  -4.470000       -9.9092894E-27
  -4.465000       -1.2220704E-26
  -4.460000       -1.4604958E-26
  -4.455000       -1.7057851E-26
  -4.450000       -1.9574640E-26
  -4.445000       -2.2150157E-26
  -4.440000       -2.4778750E-26
  -4.435000       -2.7454279E-26
  -4.430000       -3.0170062E-26
  -4.425000       -3.2918996E-26
  -4.420000       -3.5693463E-26
  -4.415000       -3.8485313E-26
  -4.410000       -4.1285954E-26
  -4.405000       -4.4086271E-26
  -4.400000       -4.6876713E-26
  -4.395000       -4.9647180E-26
  -4.390000       -5.2387199E-26
  -4.385000       -5.5085769E-26
  -4.380000       -5.7731553E-26
  -4.375000       -6.0312718E-26
  -4.370000       -6.2817037E-26
  -4.365000       -6.5231907E-26
  -4.360000       -6.7544409E-26
  -4.355000       -6.9741239E-26
  -4.350000       -7.1808800E-26
  -4.345000       -7.3733177E-26
  -4.340000       -7.5500244E-26
  -4.335000       -7.7095629E-26
  -4.330000       -7.8504738E-26
  -4.325000       -7.9712854E-26
  -4.320000       -8.0705013E-26
  -4.315000       -8.1466257E-26
  -4.310000       -8.1981587E-26
  -4.305000       -8.2235877E-26
  -4.300000       -8.2213993E-26
  -4.295000       -8.1900772E-26
  -4.290000       -8.1281417E-26
  -4.285000       -8.0340830E-26
  -4.280000       -7.9064379E-26
  -4.275000       -7.7437428E-26
  -4.270000       -7.5445591E-26
  -4.265000       -7.3074762E-26
  -4.260000       -7.0311055E-26
  -4.255000       -6.7140975E-26
  -4.250000       -6.3551238E-26
  -4.245000       -5.9529096E-26
  -4.240000       -5.5062041E-26
  -4.235000       -5.0138258E-26
  -4.230000       -4.4746058E-26
  -4.225000       -3.8874535E-26
  -4.220000       -3.2513167E-26
  -4.215000       -2.5652039E-26
  -4.210000       -1.8281785E-26
  -4.205000       -1.0393590E-26
  -4.200000       -1.9793907E-27
  -4.195000        6.9683034E-27
  -4.190000        1.6456389E-26
  -4.185000        2.6491034E-26
  -4.180000        3.7077630E-26
  -4.175000        4.8220966E-26
  -4.170000        5.9925067E-26
  -4.165000        7.2193197E-26
  -4.160000        8.5027860E-26
  -4.155000        9.8430810E-26
  -4.150000        1.1240306E-25
  -4.145000        1.2694482E-25
  -4.140000        1.4205541E-25
  -4.135000        1.5773359E-25
  -4.130000        1.7397709E-25
  -4.125000        1.9078295E-25
  -4.120000        2.0814736E-25
  -4.115000        2.2606592E-25
  -4.110000        2.4453283E-25
  -4.105000        2.6354221E-25
  -4.100000        2.8308695E-25
  -4.095000        3.0315910E-25
  -4.090000        3.2375022E-25
  -4.085000        3.4485089E-25
  -4.080000        3.6645071E-25
  -4.075000        3.8853880E-25
  -4.070000        4.1110350E-25
  -4.065000        4.3413200E-25
  -4.060000        4.5761126E-25
  -4.055000        4.8152701E-25
  -4.050000        5.0586455E-25
  -4.045000        5.3060855E-25
  -4.040000        5.5574240E-25
  -4.035000        5.8124933E-25
  -4.030000        6.0711189E-25
  -4.025000        6.3331129E-25
  -4.020000        6.5982905E-25
  -4.015000        6.8664549E-25
  -4.010000        7.1374034E-25
  -4.005000        7.4109291E-25
  -4.000000        7.6868179E-25
  -3.995000        7.9648510E-25
  -3.990000        8.2448049E-25
  -3.985000        8.5264534E-25
  -3.980000        8.8095598E-25
  -3.975000        9.0938889E-25
  -3.970000        9.3791962E-25
  -3.965000        9.6652412E-25
  -3.960000        9.9517742E-25
  -3.955000        1.0238546E-24
  -3.950000        1.0525299E-24
  -3.945000        1.0811781E-24
  -3.940000        1.1097739E-24
  -3.935000        1.1382911E-24
  -3.930000        1.1667039E-24
  -3.925000        1.1949860E-24
  -3.920000        1.2231123E-24
  -3.915000        1.2510565E-24
  -3.910000        1.2787933E-24
  -3.905000        1.3062968E-24
  -3.900000        1.3335422E-24
  -3.895000        1.3605043E-24
  -3.890000        1.3871586E-24
  -3.885000        1.4134806E-24
  -3.880000        1.4394467E-24
  -3.875000        1.4650334E-24
  -3.870000        1.4902177E-24
  -3.865000        1.5149780E-24
  -3.860000        1.5392921E-24
  -3.855000        1.5631392E-24
  -3.850000        1.5864998E-24
  -3.845000        1.6093534E-24
  -3.840000        1.6316824E-24
  -3.835000        1.6534687E-24
  -3.830000        1.6746955E-24
  -3.825000        1.6953473E-24
  -3.820000        1.7154088E-24
  -3.815000        1.7348666E-24
  -3.810000        1.7537078E-24
  -3.805000        1.7719208E-24
  -3.800000        1.7894953E-24
  -3.795000        1.8064213E-24
  -3.790000        1.8226911E-24
  -3.785000        1.8382976E-24
  -3.780000        1.8532348E-24
  -3.775000        1.8674982E-24
  -3.770000        1.8810840E-24
  -3.765000        1.8939901E-24
  -3.760000        1.9062159E-24
  -3.755000        1.9177611E-24
  -3.750000        1.9286273E-24
  -3.745000        1.9388170E-24
  -3.740000        1.9483336E-24
  -3.735000        1.9571822E-24
  -3.730000        1.9653690E-24
  -3.725000        1.9729011E-24
  -3.720000        1.9797869E-24
  -3.715000        1.9860348E-24
  -3.710000        1.9916565E-24
  -3.705000        1.9966618E-24
  -3.700000        2.0010636E-24
  -3.695000        2.0048750E-24
  -3.690000        2.0081099E-24
  -3.685000        2.0107826E-24
  -3.680000        2.0129097E-24
  -3.675000        2.0145066E-24
  -3.670000        2.0155901E-24
  -3.665000        2.0161778E-24
  -3.660000        2.0162884E-24
  -3.655000        2.0159402E-24
  -3.650000        2.0151519E-24
  -3.645000        2.0139428E-24
  -3.640000        2.0123331E-24
  -3.635000        2.0103428E-24
  -3.630000        2.0079922E-24
  -3.625000        2.0053018E-24
  -3.620000        2.0022923E-24
  -3.615000        1.9989842E-24
  -3.610000        1.9953984E-24
  -3.605000        1.9915559E-24
  -3.600000        1.9874769E-24
  -3.595000        1.9831827E-24
  -3.590000        1.9786929E-24
  -3.585000        1.9740288E-24
  -3.580000        1.9692094E-24
  -3.575000        1.9642546E-24
  -3.570000        1.9591842E-24
  -3.565000        1.9540177E-24
  -3.560000        1.9487732E-24
  -3.555000        1.9434693E-24
  -3.550000        1.9381240E-24
  -3.545000        1.9327546E-24
  -3.540000        1.9273779E-24
  -3.535000        1.9220107E-24
  -3.530000        1.9166691E-24
  -3.525000        1.9113680E-24
  -3.520000        1.9061228E-24
  -3.515000        1.9009473E-24
  -3.510000        1.8958556E-24
  -3.505000        1.8908605E-24
  -3.500000        1.8859747E-24
  -3.495000        1.8812100E-24
  -3.490000        1.8765772E-24
  -3.485000        1.8720874E-24
  -3.480000        1.8677505E-24
  -3.475000        1.8635754E-24
  -3.470000        1.8595714E-24
  -3.465000        1.8557456E-24
  -3.460000        1.8521062E-24
  -3.455000        1.8486590E-24
  -3.450000        1.8454109E-24
  -3.445000        1.8423667E-24
  -3.440000        1.8395311E-24
  -3.435000        1.8369086E-24
  -3.430000        1.8345020E-24
  -3.425000        1.8323140E-24
  -3.420000        1.8303470E-24
  -3.415000        1.8286027E-24
  -3.410000        1.8270811E-24
  -3.405000        1.8257827E-24
  -3.400000        1.8247071E-24
  -3.395000        1.8238531E-24
  -3.390000        1.8232191E-24
  -3.385000        1.8228026E-24
  -3.380000        1.8226004E-24
  -3.375000        1.8226095E-24
  -3.370000        1.8228256E-24
  -3.365000        1.8232443E-24
  -3.360000        1.8238594E-24
  -3.355000        1.8246664E-24
  -3.350000        1.8256580E-24
  -3.345000        1.8268281E-24
  -3.340000        1.8281692E-24
  -3.335000        1.8296737E-24
  -3.330000        1.8313327E-24
  -3.325000        1.8331388E-24
  -3.320000        1.8350820E-24
  -3.315000        1.8371539E-24
  -3.310000        1.8393438E-24
  -3.305000        1.8416423E-24
  -3.300000        1.8440391E-24
  -3.295000        1.8465236E-24
  -3.290000        1.8490850E-24
  -3.285000        1.8517123E-24
  -3.280000        1.8543947E-24
  -3.275000        1.8571206E-24
  -3.270000        1.8598790E-24
  -3.265000        1.8626586E-24
  -3.260000        1.8654484E-24
  -3.255000        1.8682368E-24
  -3.250000        1.8710130E-24
  -3.245000        1.8737657E-24
  -3.240000        1.8764837E-24
  -3.235000        1.8791578E-24
  -3.230000        1.8817766E-24
  -3.225000        1.8843304E-24
  -3.220000        1.8868091E-24
  -3.215000        1.8892037E-24
  -3.210000        1.8915052E-24
  -3.205000        1.8937056E-24
  -3.200000        1.8957962E-24
  -3.195000        1.8977702E-24
  -3.190000        1.8996201E-24
  -3.185000        1.9013400E-24
  -3.180000        1.9029236E-24
  -3.175000        1.9043666E-24
  -3.170000        1.9056637E-24
  -3.165000        1.9068119E-24
  -3.160000        1.9078072E-24
  -3.155000        1.9086482E-24
  -3.150000        1.9093323E-24
  -3.145000        1.9098589E-24
  -3.140000        1.9102277E-24
  -3.135000        1.9104391E-24
  -3.130000        1.9104939E-24
  -3.125000        1.9103943E-24
  -3.120000        1.9101427E-24
  -3.115000        1.9097419E-24
  -3.110000        1.9091960E-24
  -3.105000        1.9085097E-24
  -3.100000        1.9076875E-24
  -3.095000        1.9067350E-24
  -3.090000        1.9056586E-24
  -3.085000        1.9044646E-24
  -3.080000        1.9031609E-24
  -3.075000        1.9017543E-24
  -3.070000        1.9002529E-24
  -3.065000        1.8986651E-24
  -3.060000        1.8969997E-24
  -3.055000        1.8952653E-24
  -3.050000        1.8934715E-24
  -3.045000        1.8916265E-24
  -3.040000        1.8897410E-24
  -3.035000        1.8878240E-24
  -3.030000        1.8858848E-24
  -3.025000        1.8839330E-24
  -3.020000        1.8819782E-24
  -3.015000        1.8800299E-24
  -3.010000        1.8780968E-24
  -3.005000        1.8761877E-24
  -3.000000        1.8743126E-24
  -2.995000        1.8724787E-24
  -2.990000        1.8706947E-24
  -2.985000        1.8689685E-24
  -2.980000        1.8673073E-24
  -2.975000        1.8657186E-24
  -2.970000        1.8642083E-24
  -2.965000        1.8627834E-24
  -2.960000        1.8614487E-24
  -2.955000        1.8602103E-24
  -2.950000        1.8590724E-24
  -2.945000        1.8580388E-24
  -2.940000        1.8571133E-24
  -2.935000        1.8562994E-24
  -2.930000        1.8555991E-24
  -2.925000        1.8550141E-24
  -2.920000        1.8545467E-24
  -2.915000        1.8541970E-24
  -2.910000        1.8539661E-24
  -2.905000        1.8538537E-24
  -2.900000        1.8538582E-24
  -2.895000        1.8539799E-24
  -2.890000        1.8542162E-24
  -2.885000        1.8545656E-24
  -2.880000        1.8550257E-24
  -2.875000        1.8555929E-24
  -2.870000        1.8562650E-24
  -2.865000        1.8570377E-24
  -2.860000        1.8579080E-24
  -2.855000        1.8588701E-24
  -2.850000        1.8599210E-24
  -2.845000        1.8610556E-24
  -2.840000        1.8622691E-24
  -2.835000        1.8635559E-24
  -2.830000        1.8649116E-24
  -2.825000        1.8663299E-24
  -2.820000        1.8678057E-24
  -2.815000        1.8693339E-24
  -2.810000        1.8709083E-24
  -2.805000        1.8725229E-24
  -2.800000        1.8741730E-24
  -2.795000        1.8758521E-24
  -2.790000        1.8775548E-24
  -2.785000        1.8792755E-24
  -2.780000        1.8810085E-24
  -2.775000        1.8827485E-24
  -2.770000        1.8844897E-24
  -2.765000        1.8862270E-24
  -2.760000        1.8879550E-24
  -2.755000        1.8896688E-24
  -2.750000        1.8913628E-24
  -2.745000        1.8930327E-24
  -2.740000        1.8946729E-24
  -2.735000        1.8962796E-24
  -2.730000        1.8978475E-24
  -2.725000        1.8993725E-24
  -2.720000        1.9008503E-24
  -2.715000        1.9022763E-24
  -2.710000        1.9036472E-24
  -2.705000        1.9049583E-24
  -2.700000        1.9062057E-24
  -2.695000        1.9073868E-24
  -2.690000        1.9084965E-24
  -2.685000        1.9095327E-24
  -2.680000        1.9104915E-24
  -2.675000        1.9113695E-24
  -2.670000        1.9121643E-24
  -2.665000        1.9128723E-24
  -2.660000        1.9134912E-24
  -2.655000        1.9140185E-24
  -2.650000        1.9144510E-24
  -2.645000        1.9147871E-24
  -2.640000        1.9150243E-24
  -2.635000        1.9151614E-24
  -2.630000        1.9151957E-24
  -2.625000        1.9151257E-24
  -2.620000        1.9149510E-24
  -2.615000        1.9146693E-24
  -2.610000        1.9142804E-24
  -2.605000        1.9137833E-24
  -2.600000        1.9131780E-24
  -2.595000        1.9124633E-24
  -2.590000        1.9116407E-24
  -2.585000        1.9107103E-24
  -2.580000        1.9096729E-24
  -2.575000        1.9085291E-24
  -2.570000        1.9072809E-24
  -2.565000        1.9059303E-24
  -2.560000        1.9044790E-24
  -2.555000        1.9029297E-24
  -2.550000        1.9012857E-24
  -2.545000        1.8995502E-24
  -2.540000        1.8977264E-24
  -2.535000        1.8958195E-24
  -2.530000        1.8938334E-24
  -2.525000        1.8917731E-24
  -2.520000        1.8896439E-24
  -2.515000        1.8874519E-24
  -2.510000        1.8852032E-24
  -2.505000        1.8829037E-24
  -2.500000        1.8805608E-24
  -2.495000        1.8781818E-24
  -2.490000        1.8757730E-24
  -2.485000        1.8733435E-24
  -2.480000        1.8709006E-24
  -2.475000        1.8684531E-24
  -2.470000        1.8660089E-24
  -2.465000        1.8635770E-24
  -2.460000        1.8611656E-24
  -2.455000        1.8587845E-24
  -2.450000        1.8564419E-24
  -2.445000        1.8541466E-24
  -2.440000        1.8519080E-24
  -2.435000        1.8497345E-24
  -2.430000        1.8476349E-24
  -2.425000        1.8456180E-24
  -2.420000        1.8436916E-24
  -2.415000        1.8418640E-24
  -2.410000        1.8401433E-24
  -2.405000        1.8385364E-24
  -2.400000        1.8370510E-24
  -2.395000        1.8356931E-24
  -2.390000        1.8344694E-24
  -2.385000        1.8333853E-24
  -2.380000        1.8324468E-24
  -2.375000        1.8316571E-24
  -2.370000        1.8310219E-24
  -2.365000        1.8305434E-24
  -2.360000        1.8302257E-24
  -2.355000        1.8300701E-24
  -2.350000        1.8300786E-24
  -2.345000        1.8302520E-24
  -2.340000        1.8305908E-24
  -2.335000        1.8310945E-24
  -2.330000        1.8317622E-24
  -2.325000        1.8325923E-24
  -2.320000        1.8335821E-24
  -2.315000        1.8347286E-24
  -2.310000        1.8360284E-24
  -2.305000        1.8374775E-24
  -2.300000        1.8390700E-24
  -2.295000        1.8408016E-24
  -2.290000        1.8426657E-24
  -2.285000        1.8446558E-24
  -2.280000        1.8467648E-24
  -2.275000        1.8489848E-24
  -2.270000        1.8513086E-24
  -2.265000        1.8537271E-24
  -2.260000        1.8562317E-24
  -2.255000        1.8588127E-24
  -2.250000        1.8614607E-24
  -2.245000        1.8641663E-24
  -2.240000        1.8669194E-24
  -2.235000        1.8697088E-24
  -2.230000        1.8725247E-24
  -2.225000        1.8753569E-24
  -2.220000        1.8781938E-24
  -2.215000        1.8810252E-24
  -2.210000        1.8838409E-24
  -2.205000        1.8866301E-24
  -2.200000        1.8893816E-24
  -2.195000        1.8920858E-24
  -2.190000        1.8947333E-24
  -2.185000        1.8973136E-24
  -2.180000        1.8998179E-24
  -2.175000        1.9022371E-24
  -2.170000        1.9045631E-24
  -2.165000        1.9067876E-24
  -2.160000        1.9089040E-24
  -2.155000        1.9109053E-24
  -2.150000        1.9127857E-24
  -2.145000        1.9145400E-24
  -2.140000        1.9161640E-24
  -2.135000        1.9176532E-24
  -2.130000        1.9190057E-24
  -2.125000        1.9202186E-24
  -2.120000        1.9212910E-24
  -2.115000        1.9222227E-24
  -2.110000        1.9230133E-24
  -2.105000        1.9236641E-24
  -2.100000        1.9241767E-24
  -2.095000        1.9245534E-24
  -2.090000        1.9247965E-24
  -2.085000        1.9249099E-24
  -2.080000        1.9248971E-24
  -2.075000        1.9247620E-24
  -2.070000        1.9245088E-24
  -2.065000        1.9241414E-24
  -2.060000        1.9236651E-24
  -2.055000        1.9230841E-24
  -2.050000        1.9224016E-24
  -2.045000        1.9216226E-24
  -2.040000        1.9207501E-24
  -2.035000        1.9197883E-24
  -2.030000        1.9187393E-24
  -2.025000        1.9176063E-24
  -2.020000        1.9163910E-24
  -2.015000        1.9150961E-24
  -2.010000        1.9137223E-24
  -2.005000        1.9122714E-24
  -2.000000        1.9107442E-24
  -1.995000        1.9091418E-24
  -1.990000        1.9074659E-24
  -1.985000        1.9057170E-24
  -1.980000        1.9038971E-24
  -1.975000        1.9020089E-24
  -1.970000        1.9000555E-24
  -1.965000        1.8980404E-24
  -1.960000        1.8959682E-24
  -1.955000        1.8938458E-24
  -1.950000        1.8916806E-24
  -1.945000        1.8894808E-24
  -1.940000        1.8872580E-24
  -1.935000        1.8850226E-24
  -1.930000        1.8827889E-24
  -1.925000        1.8805706E-24
  -1.920000        1.8783841E-24
  -1.915000        1.8762465E-24
  -1.910000        1.8741740E-24
  -1.905000        1.8721856E-24
  -1.900000        1.8702987E-24
  -1.895000        1.8685299E-24
  -1.890000        1.8668955E-24
  -1.885000        1.8654099E-24
  -1.880000        1.8640852E-24
  -1.875000        1.8629301E-24
  -1.870000        1.8619512E-24
  -1.865000        1.8611491E-24
  -1.860000        1.8605208E-24
  -1.855000        1.8600583E-24
  -1.850000        1.8597463E-24
  -1.845000        1.8595650E-24
  -1.840000        1.8594881E-24
  -1.835000        1.8594822E-24
  -1.830000        1.8595086E-24
  -1.825000        1.8595215E-24
  -1.820000        1.8594702E-24
  -1.815000        1.8592990E-24
  -1.810000        1.8589486E-24
  -1.805000        1.8583565E-24
  -1.800000        1.8574584E-24
  -1.795000        1.8561907E-24
  -1.790000        1.8544911E-24
  -1.785000        1.8523016E-24
  -1.780000        1.8495692E-24
  -1.775000        1.8462507E-24
  -1.770000        1.8423113E-24
  -1.765000        1.8377296E-24
  -1.760000        1.8324986E-24
  -1.755000        1.8266297E-24
  -1.750000        1.8201520E-24
  -1.745000        1.8131151E-24
  -1.740000        1.8055922E-24
  -1.735000        1.7976785E-24
  -1.730000        1.7894939E-24
  -1.725000        1.7811819E-24
  -1.720000        1.7729099E-24
  -1.715000        1.7648676E-24
  -1.710000        1.7572669E-24
  -1.705000        1.7503372E-24
  -1.700000        1.7443235E-24
  -1.695000        1.7394827E-24
  -1.690000        1.7360803E-24
  -1.685000        1.7343819E-24
  -1.680000        1.7346517E-24
  -1.675000        1.7371429E-24
  -1.670000        1.7420928E-24
  -1.665000        1.7497154E-24
  -1.660000        1.7601938E-24
  -1.655000        1.7736731E-24
  -1.650000        1.7902534E-24
  -1.645000        1.8099816E-24
  -1.640000        1.8328459E-24
  -1.635000        1.8587703E-24
  -1.630000        1.8876083E-24
  -1.625000        1.9191382E-24
  -1.620000        1.9530616E-24
  -1.615000        1.9890010E-24
  -1.610000        2.0264989E-24
  -1.605000        2.0650197E-24
  -1.600000        2.1039534E-24
  -1.595000        2.1426182E-24
  -1.590000        2.1802713E-24
  -1.585000        2.2161136E-24
  -1.580000        2.2493022E-24
  -1.575000        2.2789628E-24
  -1.570000        2.3042028E-24
  -1.565000        2.3241282E-24
  -1.560000        2.3378589E-24
  -1.555000        2.3445496E-24
  -1.550000        2.3434056E-24
  -1.545000        2.3337034E-24
  -1.540000        2.3148119E-24
  -1.535000        2.2862114E-24
  -1.530000        2.2475105E-24
  -1.525000        2.1984678E-24
  -1.520000        2.1390060E-24
  -1.515000        2.0692279E-24
  -1.510000        1.9894301E-24
  -1.505000        1.9001115E-24
  -1.500000        1.8019825E-24
  -1.495000        1.6959687E-24
  -1.490000        1.5832112E-24
  -1.485000        1.4650641E-24
  -1.480000        1.3430879E-24
  -1.475000        1.2190372E-24
  -1.470000        1.0948484E-24
  -1.465000        9.7261826E-25
  -1.460000        8.5458258E-25