  -6.000000        5.5326015E-23
  -5.995000        5.5164639E-23
  -5.990000        5.4838455E-23
  -5.985000        5.4340765E-23
  -5.980000        5.3662213E-23
  -5.975000        5.2791351E-23
  -5.970000        5.1715550E-23
  -5.965000        5.0422061E-23
  -5.960000        4.8898932E-23
  -5.955000        4.7136320E-23
  -5.950000        4.5127485E-23
  -5.945000        4.2870056E-23
  -5.940000        4.0367013E-23
  -5.935000        3.7627845E-23
  -5.930000        3.4669304E-23
  -5.925000        3.1516274E-23
  -5.920000        2.8202254E-23
  -5.915000        2.4769799E-23
  -5.910000        2.1270408E-23
  -5.905000        1.7764370E-23
  -5.900000        1.4320085E-23
  -5.895000        1.1013122E-23
  -5.890000        7.9247744E-24
  -5.885000        5.1405435E-24
  -5.880000        2.7480334E-24
  -5.875000        8.3472400E-25
  -5.870000       -5.1448103E-25
  -5.865000       -1.2198344E-24
  -5.860000       -1.2097646E-24
  -5.855000       -4.2329749E-25
  -5.850000        1.1865569E-24
  -5.845000        3.6504353E-24
  -5.840000        6.9794145E-24
  -5.835000        1.1162645E-23
  -5.830000        1.6164905E-23
  -5.825000        2.1924475E-23
  -5.820000        2.8351554E-23
  -5.815000        3.5326829E-23
  -5.810000        4.2701236E-23
  -5.805000        5.0295487E-23
  -5.800000        5.7901273E-23
  -5.795000        6.5282001E-23
  -5.790000        7.2175648E-23
  -5.785000        7.8297051E-23
  -5.780000        8.3341741E-23
  -5.775000        8.6990462E-23
  -5.770000        8.8913535E-23
  -5.765000        8.8777535E-23
  -5.760000        8.6250763E-23
  -5.755000        8.1010152E-23
  -5.750000        7.2749441E-23
  -5.745000        6.1185850E-23
  -5.740000        4.6069041E-23
  -5.735000        2.7188747E-23
  -5.730000        4.3839683E-24
  -5.725000       -2.2449789E-23
  -5.720000       -5.3352493E-23
  -5.715000       -8.8292203E-23
  -5.710000       -1.2715728E-22
  -5.705000       -1.6975329E-22
  -5.700000       -2.1579238E-22
  -5.695000       -2.6489608E-22
  -5.690000       -3.1658859E-22
  -5.685000       -3.7029565E-22
  -5.680000       -4.2534517E-22
  -5.675000       -4.8096973E-22
  -5.670000       -5.3630783E-22
  -5.665000       -5.9041213E-22
  -5.660000       -6.4225354E-22
  -5.655000       -6.9073186E-22
  -5.650000       -7.3468522E-22
  -5.645000       -7.7290466E-22
  -5.640000       -8.0414698E-22
  -5.635000       -8.2715173E-22
  -5.630000       -8.4065824E-22
  -5.625000       -8.4342564E-22
  -5.620000       -8.3425153E-22
  -5.615000       -8.1199637E-22
  -5.610000       -7.7560244E-22
  -5.605000       -7.2411832E-22
  -5.600000       -6.5672077E-22
  -5.595000       -5.7273866E-22
  -5.590000       -4.7167496E-22
  -5.585000       -3.5322932E-22
  -5.580000       -2.1731603E-22
  -5.575000       -6.4087306E-23
  -5.570000        1.0605370E-22
  -5.565000        2.9243387E-22
  -5.560000        4.9409840E-22
  -5.555000        7.0980129E-22
  -5.550000        9.3800232E-22
  -5.545000        1.1768530E-21
  -5.540000        1.4242194E-21
  -5.535000        1.6776554E-21
  -5.530000        1.9344396E-21
  -5.525000        2.1915700E-21
  -5.520000        2.4457945E-21
  -5.515000        2.6936272E-21
  -5.510000        2.9313746E-21
  -5.505000        3.1551613E-21
  -5.500000        3.3609800E-21
  -5.495000        3.5447173E-21
  -5.490000        3.7022048E-21
  -5.485000        3.8292654E-21
  -5.480000        3.9217570E-21
  -5.475000        3.9756348E-21
  -5.470000        3.9870041E-21
  -5.465000        3.9521761E-21
  -5.460000        3.8677245E-21
  -5.455000        3.7305535E-21
  -5.450000        3.5379468E-21
  -5.445000        3.2876338E-21
  -5.440000        2.9778391E-21
  -5.435000        2.6073466E-21
  -5.430000        2.1755412E-21
  -5.425000        1.6824667E-21
  -5.420000        1.1288601E-21
  -5.415000        5.1619372E-22
  -5.410000       -1.5328462E-22
  -5.405000       -8.7654619E-22
  -5.400000       -1.6497409E-21
  -5.395000       -2.4682068E-21
  -5.390000       -3.3264594E-21
  -5.385000       -4.2181918E-21
  -5.380000       -5.1363146E-21
  -5.375000       -6.0729537E-21
  -5.370000       -7.0195112E-21
  -5.365000       -7.9667033E-21
  -5.360000       -8.9046203E-21
  -5.355000       -9.8227811E-21
  -5.350000       -1.0710234E-20
  -5.345000       -1.1555619E-20
  -5.340000       -1.2347277E-20
  -5.335000       -1.3073338E-20
  -5.330000       -1.3721875E-20
  -5.325000       -1.4280957E-20
  -5.320000       -1.4738825E-20
  -5.315000       -1.5084010E-20
  -5.310000       -1.5305454E-20
  -5.305000       -1.5392652E-20
  -5.300000       -1.5335788E-20
  -5.295000       -1.5125899E-20
  -5.290000       -1.4754952E-20
  -5.285000       -1.4216055E-20
  -5.280000       -1.3503492E-20
  -5.275000       -1.2612948E-20
  -5.270000       -1.1541561E-20
  -5.265000       -1.0288009E-20
  -5.260000       -8.8527131E-21
  -5.255000       -7.2377827E-21
  -5.250000       -5.4471996E-21
  -5.245000       -3.4868106E-21
  -5.240000       -1.3643985E-21
  -5.235000        9.1028662E-22
  -5.230000        3.3255607E-21
  -5.225000        5.8677741E-21
  -5.220000        8.5213449E-21
  -5.215000        1.1268832E-20
  -5.210000        1.4090989E-20
  -5.205000        1.6966885E-20
  -5.200000        1.9873946E-20
  -5.195000        2.2788136E-20
  -5.190000        2.5684102E-20
  -5.185000        2.8535337E-20
  -5.180000        3.1314379E-20
  -5.175000        3.3992981E-20
  -5.170000        3.6542313E-20
  -5.165000        3.8933356E-20
  -5.160000        4.1136865E-20
  -5.155000        4.3123859E-20
  -5.150000        4.4865824E-20
  -5.145000        4.6334916E-20
  -5.140000        4.7504356E-20
  -5.135000        4.8348532E-20
  -5.130000        4.8843529E-20
  -5.125000        4.8967144E-20
  -5.120000        4.8699296E-20
  -5.115000        4.8022271E-20
  -5.110000        4.6920941E-20
  -5.105000        4.5383038E-20
  -5.100000        4.3399333E-20
  -5.095000        4.0963868E-20
  -5.090000        3.8074103E-20
  -5.085000        3.4731101E-20
  -5.080000        3.0939650E-20
  -5.075000        2.6708366E-20
  -5.070000        2.2049756E-20
  -5.065000        1.6980278E-20
  -5.060000        1.1520369E-20
  -5.055000        5.6943214E-21
  -5.050000       -4.6955021E-22
  -5.045000       -6.9393280E-21
  -5.040000       -1.3679247E-20
  -5.035000       -2.0650218E-20
  -5.030000       -2.7809709E-20
  -5.025000       -3.5112150E-20
  -5.020000       -4.2509225E-20
  -5.015000       -4.9949870E-20
  -5.010000       -5.7381073E-20
  -5.005000       -6.4747814E-20
  -5.000000       -7.1993555E-20
  -4.995000       -7.9060792E-20
  -4.990000       -8.5891229E-20
  -4.985000       -9.2426331E-20
  -4.980000       -9.8607832E-20
  -4.975000       -1.0437807E-19
  -4.970000       -1.0968044E-19
  -4.965000       -1.1446002E-19
  -4.960000       -1.1866391E-19
  -4.955000       -1.2224158E-19
  -4.950000       -1.2514572E-19
  -4.945000       -1.2733213E-19
  -4.940000       -1.2876055E-19
  -4.935000       -1.2939502E-19
  -4.930000       -1.2920393E-19
  -4.925000       -1.2816101E-19
  -4.920000       -1.2624467E-19
  -4.915000       -1.2343936E-19
  -4.910000       -1.1973514E-19
  -4.905000       -1.1512801E-19
  -4.900000       -1.0962018E-19
  -4.895000       -1.0322004E-19
  -4.890000       -9.5942450E-20
  -4.885000       -8.7808686E-20
  -4.880000       -7.8846152E-20
  -4.875000       -6.9088684E-20
  -4.870000       -5.8576291E-20
  -4.865000       -4.7355037E-20
  -4.860000       -3.5476520E-20
  -4.855000       -2.2998083E-20
  -4.850000       -9.9821919E-21
  -4.845000        3.5037913E-21
  -4.840000        1.7388076E-20
  -4.835000        3.1594819E-20
  -4.830000        4.6044702E-20
  -4.825000        6.0655048E-20
  -4.820000        7.5340916E-20
  -4.815000        9.0015352E-20
  -4.810000        1.0458963E-19
  -4.805000        1.1897450E-19
  -4.800000        1.3308032E-19
  -4.795000        1.4681790E-19
  -4.790000        1.6009869E-19
  -4.785000        1.7283595E-19
  -4.780000        1.8494485E-19
  -4.775000        1.9634343E-19
  -4.770000        2.0695290E-19
  -4.765000        2.1669834E-19
  -4.760000        2.2550874E-19
  -4.755000        2.3331810E-19
  -4.750000        2.4006596E-19
  -4.745000        2.4569663E-19
  -4.740000        2.5016144E-19
  -4.735000        2.5341694E-19
  -4.730000        2.5542699E-19
  -4.725000        2.5616196E-19
  -4.720000        2.5559930E-19
  -4.715000        2.5372305E-19
  -4.710000        2.5052506E-19
  -4.705000        2.4600403E-19
  -4.700000        2.4016535E-19
  -4.695000        2.3302249E-19
  -4.690000        2.2459484E-19
  -4.685000        2.1490884E-19
  -4.680000        2.0399752E-19
  -4.675000        1.9189989E-19
  -4.670000        1.7866153E-19
  -4.665000        1.6433277E-19
  -4.660000        1.4896964E-19
  -4.655000        1.3263208E-19
  -4.650000        1.1538589E-19
  -4.645000        9.7299336E-20
  -4.640000        7.8444814E-20
  -4.635000        5.8897521E-20
  -4.630000        3.8734952E-20
  -4.625000        1.8036731E-20
  -4.620000       -3.1158310E-21
  -4.615000       -2.4641463E-20
  -4.610000       -4.6457103E-20
  -4.605000       -6.8479885E-20
  -4.600000       -9.0627640E-20
  -4.595000       -1.1281902E-19
  -4.590000       -1.3497319E-19
  -4.585000       -1.5701160E-19
  -4.580000       -1.7885573E-19
  -4.575000       -2.0043141E-19
  -4.570000       -2.2166460E-19
  -4.565000       -2.4248451E-19
  -4.560000       -2.6282304E-19
  -4.555000       -2.8261422E-19
  -4.550000       -3.0179527E-19
  -4.545000       -3.2030437E-19
  -4.540000       -3.3808534E-19
  -4.535000       -3.5508077E-19
  -4.530000       -3.7123925E-19
  -4.525000       -3.8650911E-19
  -4.520000       -4.0084149E-19
  -4.515000       -4.1418993E-19
  -4.510000       -4.2650939E-19
  -4.505000       -4.3775463E-19
  -4.500000       -4.4788309E-19
  -4.495000       -4.5685314E-19
  -4.490000       -4.6462228E-19
  -4.485000       -4.7114941E-19
  -4.480000       -4.7639187E-19
  -4.475000       -4.8030826E-19
  -4.470000       -4.8285453E-19
  -4.465000       -4.8398818E-19
  -4.460000       -4.8366362E-19
  -4.455000       -4.8183457E-19
  -4.450000       -4.7845228E-19
  -4.445000       -4.7346883E-19
  -4.440000       -4.6683075E-19
  -4.435000       -4.5848755E-19
  -4.430000       -4.4838245E-19
  -4.425000       -4.3646030E-19
  -4.420000       -4.2266166E-19
  -4.415000       -4.0692995E-19
  -4.410000       -3.8920231E-19
  -4.405000       -3.6941912E-19
  -4.400000       -3.4751985E-19
  -4.395000       -3.2344067E-19
  -4.390000       -2.9712328E-19
  -4.385000       -2.6850766E-19
  -4.380000       -2.3753368E-19
  -4.375000       -2.0414593E-19
  -4.370000       -1.6829473E-19
  -4.365000       -1.2992698E-19
  -4.360000       -8.8998979E-20
  -4.355000       -4.5473944E-20
  -4.350000        6.8658545E-22
  -4.345000        4.9506504E-20
  -4.340000        1.0100470E-19
  -4.335000        1.5519313E-19
  -4.330000        2.1207542E-19
  -4.325000        2.7163846E-19
  -4.320000        3.3386886E-19
  -4.315000        3.9873339E-19
  -4.310000        4.6618902E-19
  -4.305000        5.3618111E-19
  -4.300000        6.0864275E-19
  -4.295000        6.8349355E-19
  -4.290000        7.6063016E-19
  -4.285000        8.3994877E-19
  -4.280000        9.2131976E-19
  -4.275000        1.0046052E-18
  -4.270000        1.0896455E-18
  -4.265000        1.1762724E-18
  -4.260000        1.2643011E-18
  -4.255000        1.3535310E-18
  -4.250000        1.4437450E-18
  -4.245000        1.5347172E-18
  -4.240000        1.6262061E-18
  -4.235000        1.7179551E-18
  -4.230000        1.8097010E-18
  -4.225000        1.9011640E-18
  -4.220000        1.9920623E-18
  -4.215000        2.0820926E-18
  -4.210000        2.1709531E-18
  -4.205000        2.2583381E-18
  -4.200000        2.3439250E-18
  -4.195000        2.4273983E-18
  -4.190000        2.5084372E-18
  -4.185000        2.5867135E-18
  -4.180000        2.6619102E-18
  -4.175000        2.7337021E-18
  -4.170000        2.8017763E-18
  -4.165000        2.8658268E-18
  -4.160000        2.9255391E-18
  -4.155000        2.9806233E-18
  -4.150000        3.0307933E-18
  -4.145000        3.0757778E-18
  -4.140000        3.1153146E-18
  -4.135000        3.1491603E-18
  -4.130000        3.1770806E-18
  -4.125000        3.1988722E-18
  -4.120000        3.2143343E-18
  -4.115000        3.2232954E-18
  -4.110000        3.2256075E-18
  -4.105000        3.2211426E-18
  -4.100000        3.2097825E-18
  -4.095000        3.1914551E-18
  -4.090000        3.1660931E-18
  -4.085000        3.1336704E-18
  -4.080000        3.0941683E-18
  -4.075000        3.0476107E-18
  -4.070000        2.9940294E-18
  -4.065000        2.9334970E-18
  -4.060000        2.8661047E-18
  -4.055000        2.7919610E-18
  -4.050000        2.7112135E-18
  -4.045000        2.6240175E-18
  -4.040000        2.5305637E-18
  -4.035000        2.4310497E-18
  -4.030000        2.3257068E-18
  -4.025000        2.2147831E-18
  -4.020000        2.0985307E-18
  -4.015000        1.9772384E-18
  -4.010000        1.8511948E-18
  -4.005000        1.7207020E-18
  -4.000000        1.5860829E-18
  -3.995000        1.4476661E-18
  -3.990000        1.3057777E-18
  -3.985000        1.1607530E-18
  -3.980000        1.0129339E-18
  -3.975000        8.6266392E-19
  -3.970000        7.1028686E-19
  -3.965000        5.5613333E-19
  -3.960000        4.0053691E-19
  -3.955000        2.4382030E-19
  -3.950000        8.6303237E-20
  -3.945000       -7.1718285E-20
  -3.940000       -2.2995058E-19
  -3.935000       -3.8811459E-19
  -3.930000       -5.4594799E-19
  -3.925000       -7.0319446E-19
  -3.920000       -8.5961690E-19
  -3.915000       -1.0150185E-18
  -3.910000       -1.1691831E-18
  -3.905000       -1.3219239E-18
  -3.900000       -1.4730571E-18
  -3.895000       -1.6224012E-18
  -3.890000       -1.7698079E-18
  -3.885000       -1.9150875E-18
  -3.880000       -2.0580816E-18
  -3.875000       -2.1986020E-18
  -3.870000       -2.3364531E-18
  -3.865000       -2.4714049E-18
  -3.860000       -2.6032160E-18
  -3.855000       -2.7315857E-18
  -3.850000       -2.8561943E-18
  -3.845000       -2.9766475E-18
  -3.840000       -3.0925167E-18
  -3.835000       -3.2032865E-18
  -3.830000       -3.3083928E-18
  -3.825000       -3.4071857E-18
  -3.820000       -3.4989554E-18
  -3.815000       -3.5829365E-18
  -3.810000       -3.6582737E-18
  -3.805000       -3.7240738E-18
  -3.800000       -3.7794118E-18
  -3.795000       -3.8233074E-18
  -3.790000       -3.8547998E-18
  -3.785000       -3.8729390E-18
  -3.780000       -3.8768069E-18
  -3.775000       -3.8655705E-18
  -3.770000       -3.8385283E-18
  -3.765000       -3.7950980E-18
  -3.760000       -3.7349376E-18
  -3.755000       -3.6579048E-18
  -3.750000       -3.5641773E-18
  -3.745000       -3.4542448E-18
  -3.740000       -3.3290035E-18
  -3.735000       -3.1897342E-18
  -3.730000       -3.0381734E-18
  -3.725000       -2.8765646E-18
  -3.720000       -2.7076382E-18
  -3.715000       -2.5346410E-18
  -3.710000       -2.3612967E-18
  -3.705000       -2.1918568E-18
  -3.700000       -2.0310179E-18
  -3.695000       -1.8838476E-18
  -3.690000       -1.7557585E-18
  -3.685000       -1.6523769E-18
  -3.680000       -1.5794601E-18
  -3.675000       -1.5427133E-18
  -3.670000       -1.5476810E-18
  -3.665000       -1.5995079E-18
  -3.660000       -1.7028016E-18
  -3.655000       -1.8613613E-18
  -3.650000       -2.0780220E-18
  -3.645000       -2.3543541E-18
  -3.640000       -2.6904684E-18
  -3.635000       -3.0848063E-18
  -3.630000       -3.5338401E-18
  -3.625000       -4.0319624E-18
  -3.620000       -4.5712809E-18
  -3.615000       -5.1414656E-18
  -3.610000       -5.7296861E-18
  -3.605000       -6.3205590E-18
  -3.600000       -6.8961936E-18
  -3.595000       -7.4362669E-18
  -3.590000       -7.9182369E-18
  -3.585000       -8.3175980E-18
  -3.580000       -8.6082486E-18
  -3.575000       -8.7629248E-18
  -3.570000       -8.7538299E-18
  -3.565000       -8.5532188E-18
  -3.560000       -8.1341997E-18
  -3.555000       -7.4715949E-18
  -3.550000       -6.5427852E-18
  -3.545000       -5.3287806E-18
  -3.540000       -3.8152494E-18
  -3.535000       -1.9934954E-18
  -3.530000        1.3839074E-19
  -3.525000        2.5745418E-18
  -3.520000        5.3003604E-18
  -3.515000        8.2916361E-18
  -3.510000        1.1513785E-17
  -3.505000        1.4921377E-17
  -3.500000        1.8457750E-17
  -3.495000        2.2054956E-17
  -3.490000        2.5634033E-17
  -3.485000        2.9105488E-17
  -3.480000        3.2370370E-17
  -3.475000        3.5321568E-17
  -3.470000        3.7845498E-17
  -3.465000        3.9824452E-17
  -3.460000        4.1139133E-17
  -3.455000        4.1671655E-17
  -3.450000        4.1309122E-17
  -3.445000        3.9947136E-17
  -3.440000        3.7494145E-17
  -3.435000        3.3875514E-17
  -3.430000        2.9037868E-17
  -3.425000        2.2953491E-17
  -3.420000        1.5624510E-17
  -3.415000        7.0869013E-18
  -3.410000       -2.5863192E-18
  -3.405000       -1.3281812E-17
  -3.400000       -2.4844270E-17
  -3.395000       -3.7074966E-17
  -3.390000       -4.9731955E-17
  -3.385000       -6.2531387E-17
  -3.380000       -7.5150325E-17
  -3.375000       -8.7230887E-17
  -3.370000       -9.8386556E-17
  -3.365000       -1.0820964E-16
  -3.360000       -1.1628079E-16
  -3.355000       -1.2218004E-16
  -3.350000       -1.2549974E-16
  -3.345000       -1.2585815E-16
  -3.340000       -1.2291503E-16
  -3.335000       -1.1638732E-16
  -3.330000       -1.0606581E-16
  -3.325000       -9.1831295E-17
  -3.320000       -7.3670472E-17
  -3.315000       -5.1690566E-17
  -3.310000       -2.6131992E-17
  -3.305000        2.6213356E-18
  -3.300000        3.4034853E-17
  -3.295000        6.7420659E-17
  -3.290000        1.0193867E-16
  -3.285000        1.3660350E-16
  -3.280000        1.7029744E-16
  -3.275000        2.0178867E-16
  -3.270000        2.2975766E-16
  -3.265000        2.5282880E-16
  -3.260000        2.6960881E-16
  -3.255000        2.7873398E-16
  -3.250000        2.7891816E-16
  -3.245000        2.6901187E-16
  -3.240000        2.4806011E-16
  -3.235000        2.1536594E-16
  -3.230000        1.7055223E-16
  -3.225000        1.1362530E-16
  -3.220000        4.5031137E-17
  -3.215000       -3.4291368E-17
  -3.210000       -1.2286810E-16
  -3.205000       -2.1865736E-16
  -3.200000       -3.1903250E-16
  -3.195000       -4.2078405E-16
  -3.190000       -5.2013816E-16
  -3.185000       -6.1279917E-16
  -3.180000       -6.9401851E-16
  -3.175000       -7.5868688E-16
  -3.170000       -8.0145532E-16
  -3.165000       -8.1688159E-16
  -3.160000       -7.9960445E-16
  -3.155000       -7.4454524E-16
  -3.150000       -6.4712761E-16
  -3.145000       -5.0351805E-16
  -3.140000       -3.1087814E-16
  -3.135000       -6.7628355E-17
  -3.130000        2.2629772E-16
  -3.125000        5.6919211E-16
  -3.120000        9.5734660E-16
  -3.115000        1.3848465E-15
  -3.110000        1.8434050E-15
  -3.105000        2.3222446E-15
  -3.100000        2.8080553E-15
  -3.095000        3.2850100E-15
  -3.090000        3.7348779E-15
  -3.085000        4.1372151E-15
  -3.080000        4.4696963E-15
  -3.075000        4.7084876E-15
  -3.070000        4.8287959E-15
  -3.065000        4.8055275E-15
  -3.060000        4.6139892E-15
  -3.055000        4.2307504E-15
  -3.050000        3.6346239E-15
  -3.045000        2.8076353E-15
  -3.040000        1.7361301E-15
  -3.035000        4.1185767E-16
  -3.030000       -1.1668748E-15
  -3.025000       -2.9941649E-15
  -3.020000       -5.0554886E-15
  -3.015000       -7.3267477E-15
  -3.010000       -9.7735752E-15
  -3.005000       -1.2350736E-14
  -3.000000       -1.5001794E-14
  -2.995000       -1.7659087E-14
  -2.990000       -2.0244059E-14
  -2.985000       -2.2667781E-14
  -2.980000       -2.4832160E-14
  -2.975000       -2.6631294E-14
  -2.970000       -2.7953432E-14
  -2.965000       -2.8683378E-14
  -2.960000       -2.8705272E-14
  -2.955000       -2.7905678E-14
  -2.950000       -2.6177480E-14
  -2.945000       -2.3423644E-14
  -2.940000       -1.9561548E-14
  -2.935000       -1.4527318E-14
  -2.930000       -8.2805196E-15
  -2.925000       -8.0844382E-16
  -2.920000        7.8692715E-15
  -2.915000        1.7696741E-14
  -2.910000        2.8578268E-14
  -2.905000        4.0375059E-14
  -2.900000        5.2903198E-14
  -2.895000        6.5932286E-14
  -2.890000        7.9185119E-14
  -2.885000        9.2338680E-14
  -2.880000        1.0502674E-13
  -2.875000        1.1684340E-13
  -2.870000        1.2734867E-13
  -2.865000        1.3607582E-13
  -2.860000        1.4253967E-13
  -2.855000        1.4624711E-13
  -2.850000        1.4670956E-13
  -2.845000        1.4345488E-13
  -2.840000        1.3604421E-13
  -2.835000        1.2408599E-13
  -2.830000        1.0725242E-13
  -2.825000        8.5297593E-14
  -2.820000        5.8073094E-14
  -2.815000        2.5545990E-14
  -2.810000       -1.2187853E-14
  -2.805000       -5.4886336E-14
  -2.800000       -1.0215190E-13
  -2.795000       -1.5341927E-13
  -2.790000       -2.0795002E-13
  -2.785000       -2.6482861E-13
  -2.780000       -3.2296323E-13
  -2.775000       -3.8109091E-13
  -2.770000       -4.3778821E-13
  -2.765000       -4.9148587E-13
  -2.760000       -5.4049077E-13
  -2.755000       -5.8301058E-13
  -2.750000       -6.1718659E-13
  -2.745000       -6.4113336E-13
  -2.740000       -6.5297572E-13
  -2.735000       -6.5090213E-13
  -2.730000       -6.3321023E-13
  -2.725000       -5.9836419E-13
  -2.720000       -5.4504995E-13
  -2.715000       -4.7223456E-13
  -2.710000       -3.7921849E-13
  -2.705000       -2.6569786E-13
  -2.700000       -1.3181020E-13
  -2.695000        2.1812420E-14
  -2.690000        1.9400281E-13
  -2.685000        3.8303058E-13
  -2.680000        5.8657240E-13
  -2.675000        8.0170067E-13
  -2.670000        1.0248873E-12
  -2.665000        1.2520153E-12
  -2.660000        1.4784091E-12
  -2.655000        1.6988818E-12
  -2.650000        1.9077964E-12
  -2.645000        2.0991446E-12
  -2.640000        2.2666456E-12
  -2.635000        2.4038616E-12
  -2.630000        2.5043136E-12
  -2.625000        2.5616417E-12
  -2.620000        2.5697437E-12
  -2.615000        2.5229480E-12
  -2.610000        2.4161842E-12
  -2.605000        2.2451570E-12
  -2.600000        2.0065134E-12
  -2.595000        1.6980319E-12
  -2.590000        1.3187752E-12
  -2.585000        8.6923708E-13
  -2.580000        3.5149290E-13
  -2.575000       -2.3070518E-13
  -2.570000       -8.7183250E-13
  -2.565000       -1.5645280E-12
  -2.560000       -2.2995861E-12
  -2.555000       -3.0659609E-12
  -2.550000       -3.8508337E-12
  -2.545000       -4.6397005E-12
  -2.540000       -5.4165357E-12
  -2.535000       -6.1639682E-12
  -2.530000       -6.8635375E-12
  -2.525000       -7.4959639E-12
  -2.520000       -8.0414902E-12
  -2.515000       -8.4802478E-12
  -2.510000       -8.7926463E-12
  -2.505000       -8.9598407E-12
  -2.500000       -8.9641584E-12
  -2.495000       -8.7895932E-12
  -2.490000       -8.4222724E-12
  -2.485000       -7.8509655E-12
  -2.480000       -7.0675137E-12
  -2.475000       -6.0672895E-12
  -2.470000       -4.8496237E-12
  -2.465000       -3.4181232E-12
  -2.460000       -1.7810210E-12
  -2.455000        4.8605417E-14
  -2.450000        2.0526846E-12
  -2.445000        4.2080957E-12
  -2.440000        6.4866580E-12
  -2.435000        8.8552915E-12
  -2.430000        1.1276276E-11
  -2.425000        1.3707571E-11
  -2.420000        1.6103322E-11
  -2.415000        1.8414437E-11
  -2.410000        2.0589273E-11
  -2.405000        2.2574467E-11
  -2.400000        2.4315817E-11
  -2.395000        2.5759268E-11
  -2.390000        2.6852003E-11
  -2.385000        2.7543528E-11
  -2.380000        2.7786858E-11
  -2.375000        2.7539656E-11
  -2.370000        2.6765474E-11
  -2.365000        2.5434835E-11
  -2.360000        2.3526342E-11
  -2.355000        2.1027765E-11
  -2.350000        1.7936852E-11
  -2.345000        1.4262198E-11
  -2.340000        1.0023898E-11
  -2.335000        5.2539557E-12
  -2.330000       -3.4656755E-15
  -2.325000       -5.6918485E-12
  -2.320000       -1.1742630E-11
  -2.315000       -1.8075551E-11
  -2.310000       -2.4599340E-11
  -2.305000       -3.1212522E-11
  -2.300000       -3.7804787E-11
  -2.295000       -4.4258149E-11
  -2.290000       -5.0448801E-11
  -2.285000       -5.6248759E-11
  -2.280000       -6.1528123E-11
  -2.275000       -6.6157101E-11
  -2.270000       -7.0008485E-11
  -2.265000       -7.2960034E-11
  -2.260000       -7.4897005E-11
  -2.255000       -7.5714747E-11
  -2.250000       -7.5320958E-11
  -2.245000       -7.3638484E-11
  -2.240000       -7.0607208E-11
  -2.235000       -6.6186466E-11
  -2.230000       -6.0356643E-11
  -2.225000       -5.3121198E-11
  -2.220000       -4.4507502E-11
  -2.215000       -3.4568005E-11
  -2.210000       -2.3380792E-11
  -2.205000       -1.1049640E-11
  -2.200000        2.2963523E-12
  -2.195000        1.6503514E-11
  -2.190000        3.1394817E-11
  -2.185000        4.6771791E-11
  -2.180000        6.2416634E-11
  -2.175000        7.8094753E-11
  -2.170000        9.3558057E-11
  -2.165000        1.0854831E-10
  -2.160000        1.2280094E-10
  -2.155000        1.3604901E-10
  -2.150000        1.4802784E-10
  -2.145000        1.5847901E-10
  -2.140000        1.6715535E-10
  -2.135000        1.7382512E-10
  -2.130000        1.7827673E-10
  -2.125000        1.8032295E-10
  -2.120000        1.7980505E-10
  -2.115000        1.7659638E-10
  -2.110000        1.7060597E-10
  -2.105000        1.6178123E-10
  -2.100000        1.5011031E-10
  -2.095000        1.3562394E-10
  -2.090000        1.1839651E-10
  -2.085000        9.8546359E-11
  -2.080000        7.6235553E-11
  -2.075000        5.1669030E-11
  -2.070000        2.5092555E-11
  -2.065000       -3.2095938E-12
  -2.060000       -3.2917745E-11
  -2.055000       -6.3680734E-11
  -2.050000       -9.5120183E-11
  -2.045000       -1.2683547E-10
  -2.040000       -1.5840920E-10
  -2.035000       -1.8941280E-10
  -2.030000       -2.1941265E-10
  -2.025000       -2.4797595E-10
  -2.020000       -2.7467728E-10
  -2.015000       -2.9910471E-10
  -2.010000       -3.2086564E-10
  -2.005000       -3.3959241E-10
  -2.000000       -3.5494807E-10
  -1.995000       -3.6663067E-10
  -1.990000       -3.7437789E-10
  -1.985000       -3.7797077E-10
  -1.980000       -3.7723616E-10
  -1.975000       -3.7204936E-10
  -1.970000       -3.6233530E-10
  -1.965000       -3.4806902E-10
  -1.960000       -3.2927569E-10
  -1.955000       -3.0602929E-10
  -1.950000       -2.7845112E-10
  -1.945000       -2.4670732E-10
  -1.940000       -2.1100582E-10
  -1.935000       -1.7159288E-10
  -1.930000       -1.2874930E-10
  -1.925000       -8.2785875E-11
  -1.920000       -3.4039750E-11
  -1.915000        1.7130743E-11
  -1.910000        7.0349546E-11
  -1.905000        1.2522726E-10
  -1.900000        1.8136467E-10
  -1.895000        2.3835586E-10
  -1.890000        2.9579061E-10
  -1.885000        3.5325587E-10
  -1.880000        4.1033771E-10
  -1.875000        4.6662091E-10
  -1.870000        5.2168864E-10
  -1.865000        5.7512106E-10
  -1.860000        6.2649386E-10
  -1.855000        6.7537403E-10
  -1.850000        7.2131878E-10
  -1.845000        7.6387069E-10
  -1.840000        8.0255352E-10
  -1.835000        8.3686946E-10
  -1.830000        8.6629454E-10
  -1.825000        8.9027635E-10
  -1.820000        9.0822977E-10
  -1.815000        9.1953867E-10
  -1.810000        9.2355240E-10
  -1.805000        9.1958963E-10
  -1.800000        9.0693986E-10
  -1.795000        8.8486962E-10
  -1.790000        8.5262997E-10
  -1.785000        8.0946566E-10
  -1.780000        7.5462925E-10
  -1.775000        6.8739303E-10
  -1.770000        6.0707089E-10
  -1.765000        5.1303700E-10
  -1.760000        4.0474635E-10
  -1.755000        2.8176433E-10
  -1.750000        1.4378866E-10
  -1.745000       -9.3165701E-12
  -1.740000       -1.7749795E-10
  -1.735000       -3.6047540E-10
  -1.730000       -5.5771626E-10
  -1.725000       -7.6840490E-10
  -1.720000       -9.9141695E-10
  -1.715000       -1.2252920E-09
  -1.710000       -1.4682101E-09
  -1.705000       -1.7179791E-09
  -1.700000       -1.9720161E-09
  -1.695000       -2.2273452E-09
  -1.690000       -2.4805951E-09
  -1.685000       -2.7280083E-09
  -1.680000       -2.9654572E-09
  -1.675000       -3.1884688E-09
  -1.670000       -3.3922636E-09
  -1.665000       -3.5717926E-09
  -1.660000       -3.7218049E-09
  -1.655000       -3.8369028E-09
  -1.650000       -3.9116244E-09
  -1.645000       -3.9405283E-09
  -1.640000       -3.9182879E-09
  -1.635000       -3.8397987E-09
  -1.630000       -3.7002876E-09
  -1.625000       -3.4954308E-09
  -1.620000       -3.2214733E-09
  -1.615000       -2.8753635E-09
  -1.610000       -2.4548621E-09
  -1.605000       -1.9586837E-09
  -1.600000       -1.3866078E-09
  -1.595000       -7.3958689E-10
  -1.590000       -1.9866017E-11
  -1.585000        7.6895401E-10
  -1.580000        1.6218020E-09
  -1.575000        2.5321045E-09
  -1.570000        3.4917411E-09
  -1.565000        4.4910293E-09
  -1.560000        5.5187290E-09
  -1.555000        6.5620922E-09
  -1.550000        7.6069151E-09
  -1.545000        8.6376568E-09
  -1.540000        9.6375432E-09
  -1.535000        1.0588756E-08
  -1.530000        1.1472609E-08
  -1.525000        1.2269783E-08
  -1.520000        1.2960582E-08
  -1.515000        1.3525222E-08
  -1.510000        1.3944142E-08
  -1.505000        1.4198332E-08
  -1.500000        1.4269699E-08
  -1.495000        1.4141420E-08
  -1.490000        1.3798348E-08
  -1.485000        1.3227351E-08
  -1.480000        1.2417724E-08
  -1.475000        1.1361545E-08
  -1.470000        1.0054035E-08
  -1.465000        8.4938643E-09
  -1.460000        6.6834684E-09