  -6.000000       -4.8579774E-30
  -5.995000       -4.8516413E-30
  -5.990000       -4.8389844E-30
  -5.985000       -4.8200350E-30
  -5.980000       -4.7948366E-30
  -5.975000       -4.7634417E-30
  -5.970000       -4.7259093E-30
  -5.965000       -4.6823066E-30
  -5.960000       -4.6326992E-30
  -5.955000       -4.5771531E-30
  -5.950000       -4.5157276E-30
  -5.945000       -4.4484754E-30
  -5.940000       -4.3754386E-30
  -5.935000       -4.2966512E-30
  -5.930000       -4.2121325E-30
  -5.925000       -4.1218933E-30
  -5.920000       -4.0259361E-30
  -5.915000       -3.9242591E-30
  -5.910000       -3.8168614E-30
  -5.905000       -3.7037502E-30
  -5.900000       -3.5849489E-30
  -5.895000       -3.4605079E-30
  -5.890000       -3.3305140E-30
  -5.885000       -3.1951054E-30
  -5.880000       -3.0544831E-30
  -5.875000       -2.9089263E-30
  -5.870000       -2.7588064E-30
  -5.865000       -2.6046004E-30
  -5.860000       -2.4469068E-30
  -5.855000       -2.2864548E-30
  -5.850000       -2.1241183E-30
  -5.845000       -1.9609247E-30
  -5.840000       -1.7980585E-30
  -5.835000       -1.6368693E-30
  -5.830000       -1.4788685E-30
  -5.825000       -1.3257262E-30
  -5.820000       -1.1792640E-30
  -5.815000       -1.0414400E-30
  -5.810000       -9.1433251E-31
  -5.805000       -8.0011471E-31
  -5.800000       -7.0102736E-31
  -5.795000       -6.1934286E-31
  -5.790000       -5.5732797E-31
  -5.785000       -5.1719711E-31
  -5.780000       -5.0106223E-31
  -5.775000       -5.1088169E-31
  -5.770000       -5.4840018E-31
  -5.765000       -6.1508941E-31
  -5.760000       -7.1208495E-31
  -5.755000       -8.4012243E-31
  -5.750000       -9.9947103E-31
  -5.745000       -1.1898748E-30
  -5.740000       -1.4104861E-30
  -5.735000       -1.6598127E-30
  -5.730000       -1.9356593E-30
  -5.725000       -2.2350874E-30
  -5.720000       -2.5543707E-30
  -5.715000       -2.8889715E-30
  -5.710000       -3.2335171E-30
  -5.705000       -3.5817941E-30
  -5.700000       -3.9267564E-30
  -5.695000       -4.2605403E-30
  -5.690000       -4.5745075E-30
  -5.685000       -4.8593007E-30
  -5.680000       -5.1048940E-30
  -5.675000       -5.3007058E-30
  -5.670000       -5.4356804E-30
  -5.665000       -5.4984205E-30
  -5.660000       -5.4773286E-30
  -5.655000       -5.3607639E-30
  -5.650000       -5.1372094E-30
  -5.645000       -4.7954553E-30
  -5.640000       -4.3248179E-30
  -5.635000       -3.7153359E-30
  -5.630000       -2.9579956E-30
  -5.625000       -2.0449686E-30
  -5.620000       -9.6984791E-31
  -5.615000        2.7213621E-31
  -5.610000        1.6838609E-30
  -5.605000        3.2660800E-30
  -5.600000        5.0172164E-30
  -5.595000        6.9331387E-30
  -5.590000        9.0069725E-30
  -5.585000        1.1228931E-29
  -5.580000        1.3586151E-29
  -5.575000        1.6062576E-29
  -5.570000        1.8638854E-29
  -5.565000        2.1292304E-29
  -5.560000        2.3996861E-29
  -5.555000        2.6723133E-29
  -5.550000        2.9438426E-29
  -5.545000        3.2106892E-29
  -5.540000        3.4689679E-29
  -5.535000        3.7145134E-29
  -5.530000        3.9429055E-29
  -5.525000        4.1495039E-29
  -5.520000        4.3294812E-29
  -5.515000        4.4778711E-29
  -5.510000        4.5896048E-29
  -5.505000        4.6595726E-29
  -5.500000        4.6826754E-29
  -5.495000        4.6538824E-29
  -5.490000        4.5683034E-29
  -5.485000        4.4212502E-29
  -5.480000        4.2083068E-29
  -5.475000        3.9254069E-29
  -5.470000        3.5688996E-29
  -5.465000        3.1356306E-29
  -5.460000        2.6230158E-29
  -5.455000        2.0291156E-29
  -5.450000        1.3527037E-29
  -5.445000        5.9333865E-30
  -5.440000       -2.4856915E-30
  -5.435000       -1.1716987E-29
  -5.430000       -2.1737598E-29
  -5.425000       -3.2514464E-29
  -5.420000       -4.4003909E-29
  -5.415000       -5.6151318E-29
  -5.410000       -6.8890887E-29
  -5.405000       -8.2145498E-29
  -5.400000       -9.5826570E-29
  -5.395000       -1.0983436E-28
  -5.390000       -1.2405773E-28
  -5.385000       -1.3837494E-28
  -5.380000       -1.5265379E-28
  -5.375000       -1.6675231E-28
  -5.370000       -1.8051928E-28
  -5.365000       -1.9379534E-28
  -5.360000       -2.0641371E-28
  -5.355000       -2.1820146E-28
  -5.350000       -2.2898060E-28
  -5.345000       -2.3856954E-28
  -5.340000       -2.4678459E-28
  -5.335000       -2.5344116E-28
  -5.330000       -2.5835601E-28
  -5.325000       -2.6134857E-28
  -5.320000       -2.6224297E-28
  -5.315000       -2.6086971E-28
  -5.310000       -2.5706798E-28
  -5.305000       -2.5068723E-28
  -5.300000       -2.4158949E-28
  -5.295000       -2.2965111E-28
  -5.290000       -2.1476488E-28
  -5.285000       -1.9684188E-28
  -5.280000       -1.7581351E-28
  -5.275000       -1.5163298E-28
  -5.270000       -1.2427727E-28
  -5.265000       -9.3748588E-29
  -5.260000       -6.0075978E-29
  -5.255000       -2.3316343E-29
  -5.250000        1.6444247E-29
  -5.245000        5.9089583E-29
  -5.240000        1.0447283E-28
  -5.235000        1.5241577E-28
  -5.230000        2.0270882E-28
  -5.225000        2.5511077E-28
  -5.220000        3.0934886E-28
  -5.215000        3.6512011E-28
  -5.210000        4.2209104E-28
  -5.205000        4.7989952E-28
  -5.200000        5.3815533E-28
  -5.195000        5.9644346E-28
  -5.190000        6.5432348E-28
  -5.185000        7.1133351E-28
  -5.180000        7.6699337E-28
  -5.175000        8.2080380E-28
  -5.170000        8.7225377E-28
  -5.165000        9.2082110E-28
  -5.160000        9.6597559E-28
  -5.155000        1.0071844E-27
  -5.150000        1.0439140E-27
  -5.145000        1.0756353E-27
  -5.140000        1.1018274E-27
  -5.135000        1.1219803E-27
  -5.130000        1.1356012E-27
  -5.125000        1.1422178E-27
  -5.120000        1.1413825E-27
  -5.115000        1.1326760E-27
  -5.110000        1.1157125E-27
  -5.105000        1.0901437E-27
  -5.100000        1.0556615E-27
  -5.095000        1.0120026E-27
  -5.090000        9.5895287E-28
  -5.085000        8.9634889E-28
  -5.080000        8.2408289E-28
  -5.075000        7.4210482E-28
  -5.070000        6.5042419E-28
  -5.065000        5.4911335E-28
  -5.060000        4.3830891E-28
  -5.055000        3.1821392E-28
  -5.050000        1.8909708E-28
  -5.045000        5.1295766E-29
  -5.040000       -9.4785094E-29
  -5.035000       -2.4867290E-28
  -5.030000       -4.0982716E-28
  -5.025000       -5.7764258E-28
  -5.020000       -7.5144798E-28
  -5.015000       -9.3050901E-28
  -5.010000       -1.1140327E-27
  -5.005000       -1.3011665E-27
  -5.000000       -1.4910020E-27
  -4.995000       -1.6825831E-27
  -4.990000       -1.8749047E-27
  -4.985000       -2.0669167E-27
  -4.980000       -2.2575335E-27
  -4.975000       -2.4456335E-27
  -4.970000       -2.6300684E-27
  -4.965000       -2.8096650E-27
  -4.960000       -2.9832314E-27
  -4.955000       -3.1495690E-27
  -4.950000       -3.3074673E-27
  -4.945000       -3.4557157E-27
  -4.940000       -3.5931139E-27
  -4.935000       -3.7184700E-27
  -4.930000       -3.8306099E-27
  -4.925000       -3.9283852E-27
  -4.920000       -4.0106752E-27
  -4.915000       -4.0763940E-27
  -4.910000       -4.1245007E-27
  -4.905000       -4.1539944E-27
  -4.900000       -4.1639314E-27
  -4.895000       -4.1534220E-27
  -4.890000       -4.1216380E-27
  -4.885000       -4.0678160E-27
  -4.880000       -3.9912645E-27
  -4.875000       -3.8913630E-27
  -4.870000       -3.7675696E-27
  -4.865000       -3.6194217E-27
  -4.860000       -3.4465410E-27
  -4.855000       -3.2486321E-27
  -4.850000       -3.0254878E-27
  -4.845000       -2.7769909E-27
  -4.840000       -2.5031130E-27
  -4.835000       -2.2039183E-27
  -4.830000       -1.8795624E-27
  -4.825000       -1.5302938E-27
  -4.820000       -1.1564519E-27
  -4.815000       -7.5847007E-28
  -4.810000       -3.3687423E-28
  -4.805000        1.0771939E-28
  -4.800000        5.7460539E-28
  -4.795000        1.0629874E-27
  -4.790000        1.5719806E-27
  -4.785000        2.1006147E-27
  -4.780000        2.6478344E-27
  -4.775000        3.2125031E-27
  -4.770000        3.7933937E-27
  -4.765000        4.3892074E-27
  -4.760000        4.9985593E-27
  -4.755000        5.6200022E-27
  -4.750000        6.2519962E-27
  -4.745000        6.8929356E-27
  -4.740000        7.5411443E-27
  -4.735000        8.1948720E-27
  -4.730000        8.8523066E-27
  -4.725000        9.5115640E-27
  -4.720000        1.0170690E-26
  -4.715000        1.0827684E-26
  -4.710000        1.1480462E-26
  -4.705000        1.2126889E-26
  -4.700000        1.2764775E-26
  -4.695000        1.3391865E-26
  -4.690000        1.4005848E-26
  -4.685000        1.4604368E-26
  -4.680000        1.5185005E-26
  -4.675000        1.5745297E-26
  -4.670000        1.6282724E-26
  -4.665000        1.6794735E-26
  -4.660000        1.7278716E-26
  -4.655000        1.7732042E-26
  -4.650000        1.8152015E-26
  -4.645000        1.8535928E-26
  -4.640000        1.8881044E-26
  -4.635000        1.9184598E-26
  -4.630000        1.9443799E-26
  -4.625000        1.9655865E-26
  -4.620000        1.9817972E-26
  -4.615000        1.9927326E-26
  -4.610000        1.9981136E-26
  -4.605000        1.9976610E-26
  -4.600000        1.9910994E-26
  -4.595000        1.9781579E-26
  -4.590000        1.9585678E-26
  -4.585000        1.9320672E-26
  -4.580000        1.8984007E-26
  -4.575000        1.8573217E-26
  -4.570000        1.8085923E-26
  -4.565000        1.7519833E-26
  -4.560000        1.6872821E-26
  -4.555000        1.6142855E-26
  -4.550000        1.5328087E-26
  -4.545000        1.4426802E-26
  -4.540000        1.3437521E-26
  -4.535000        1.2358915E-26
  -4.530000        1.1189896E-26
  -4.525000        9.9296372E-27
  -4.520000        8.5775234E-27
  -4.515000        7.1332247E-27
  -4.510000        5.5967197E-27
  -4.505000        3.9682843E-27
  -4.500000        2.2485103E-27
  -4.495000        4.3835388E-28
  -4.490000       -1.4608860E-27
  -4.485000       -3.4475502E-27
  -4.480000       -5.5195427E-27
  -4.475000       -7.6743763E-27
  -4.470000       -9.9091861E-27
  -4.465000       -1.2220617E-26
  -4.460000       -1.4604905E-26
  -4.455000       -1.7057807E-26
  -4.450000       -1.9574619E-26
  -4.445000       -2.2150154E-26
  -4.440000       -2.4778777E-26
  -4.435000       -2.7454313E-26
  -4.430000       -3.0170142E-26
  -4.425000       -3.2919104E-26
  -4.420000       -3.5693599E-26
  -4.415000       -3.8485464E-26
  -4.410000       -4.1286111E-26
  -4.405000       -4.4086435E-26
  -4.400000       -4.6876882E-26
  -4.395000       -4.9647386E-26
  -4.390000       -5.2387396E-26
  -4.385000       -5.5086003E-26
  -4.380000       -5.7731793E-26
  -4.375000       -6.0312989E-26
  -4.370000       -6.2817284E-26
  -4.365000       -6.5232184E-26
  -4.360000       -6.7544693E-26
  -4.355000       -6.9741485E-26
  -4.350000       -7.1809022E-26
  -4.345000       -7.3733405E-26
  -4.340000       -7.5500472E-26
  -4.335000       -7.7095845E-26
  -4.330000       -7.8504935E-26
  -4.325000       -7.9712958E-26
  -4.320000       -8.0705087E-26
  -4.315000       -8.1466374E-26
  -4.310000       -8.1981636E-26
  -4.305000       -8.2235877E-26
  -4.300000       -8.2213919E-26
  -4.295000       -8.1900753E-26
  -4.290000       -8.1281276E-26
  -4.285000       -8.0340670E-26
  -4.280000       -7.9064188E-26
  -4.275000       -7.7437224E-26
  -4.270000       -7.5445369E-26
  -4.265000       -7.3074447E-26
  -4.260000       -7.0310747E-26
  -4.255000       -6.7140605E-26
  -4.250000       -6.3550856E-26
  -4.245000       -5.9528640E-26
  -4.240000       -5.5061635E-26
  -4.235000       -5.0137774E-26
  -4.230000       -4.4745580E-26
  -4.225000       -3.8874061E-26
  -4.220000       -3.2512631E-26
  -4.215000       -2.5651503E-26
  -4.210000       -1.8281235E-26
  -4.205000       -1.0393078E-26
  -4.200000       -1.9788949E-27
  -4.195000        6.9688134E-27
  -4.190000        1.6456931E-26
  -4.185000        2.6491530E-26
  -4.180000        3.7078059E-26
  -4.175000        4.8221372E-26
  -4.170000        5.9925381E-26
  -4.165000        7.2193376E-26
  -4.160000        8.5027934E-26
  -4.155000        9.8430773E-26
  -4.150000        1.1240286E-25
  -4.145000        1.2694442E-25
  -4.140000        1.4205494E-25
  -4.135000        1.5773287E-25
  -4.130000        1.7397623E-25
  -4.125000        1.9078187E-25
  -4.120000        2.0814615E-25
  -4.115000        2.2606431E-25
  -4.110000        2.4453115E-25
  -4.105000        2.6354036E-25
  -4.100000        2.8308505E-25
  -4.095000        3.0315720E-25
  -4.090000        3.2374834E-25
  -4.085000        3.4484914E-25
  -4.080000        3.6644924E-25
  -4.075000        3.8853786E-25
  -4.070000        4.1110298E-25
  -4.065000        4.3413234E-25
  -4.060000        4.5761244E-25
  -4.055000        4.8152947E-25
  -4.050000        5.0586844E-25
  -4.045000        5.3061417E-25
  -4.040000        5.5574999E-25
  -4.035000        5.8125919E-25
  -4.030000        6.0712392E-25
  -4.025000        6.3332618E-25
  -4.020000        6.5984689E-25
  -4.015000        6.8666614E-25
  -4.010000        7.1376416E-25
  -4.005000        7.4111983E-25
  -4.000000        7.6871167E-25
  -3.995000        7.9651779E-25
  -3.990000        8.2451569E-25
  -3.985000        8.5268222E-25
  -3.980000        8.8099404E-25
  -3.975000        9.0942725E-25
  -3.970000        9.3795739E-25
  -3.965000        9.6655961E-25
  -3.960000        9.9520897E-25
  -3.955000        1.0238801E-24
  -3.950000        1.0525474E-24
  -3.945000        1.0811852E-24
  -3.940000        1.1097675E-24
  -3.935000        1.1382683E-24
  -3.930000        1.1666613E-24
  -3.925000        1.1949206E-24
  -3.920000        1.2230203E-24
  -3.915000        1.2509347E-24
  -3.910000        1.2786376E-24
  -3.905000        1.3061044E-24
  -3.900000        1.3333098E-24
  -3.895000        1.3602291E-24
  -3.890000        1.3868387E-24
  -3.885000        1.4131147E-24
  -3.880000        1.4390344E-24
  -3.875000        1.4645762E-24
  -3.870000        1.4897178E-24
  -3.865000        1.5144395E-24
  -3.860000        1.5387214E-24
  -3.855000        1.5625449E-24
  -3.850000        1.5858922E-24
  -3.845000        1.6087467E-24
  -3.840000        1.6310929E-24
  -3.835000        1.6529157E-24
  -3.830000        1.6742021E-24
  -3.825000        1.6949387E-24
  -3.820000        1.7151142E-24
  -3.815000        1.7347174E-24
  -3.810000        1.7537380E-24
  -3.805000        1.7721671E-24
  -3.800000        1.7899952E-24
  -3.795000        1.8072143E-24
  -3.790000        1.8238155E-24
  -3.785000        1.8397909E-24
  -3.780000        1.8551326E-24
  -3.775000        1.8698317E-24
  -3.770000        1.8838799E-24
  -3.765000        1.8972669E-24
  -3.760000        1.9099841E-24
  -3.755000        1.9220196E-24
  -3.750000        1.9333618E-24
  -3.745000        1.9439986E-24
  -3.740000        1.9539168E-24
  -3.735000        1.9631021E-24
  -3.730000        1.9715391E-24
  -3.725000        1.9792136E-24
  -3.720000        1.9861098E-24
  -3.715000        1.9922126E-24
  -3.710000        1.9975074E-24
  -3.705000        2.0019821E-24
  -3.700000        2.0056254E-24
  -3.695000        2.0084284E-24
  -3.690000        2.0103876E-24
  -3.685000        2.0115018E-24
  -3.680000        2.0117773E-24
  -3.675000        2.0112255E-24
  -3.670000        2.0098655E-24
  -3.665000        2.0077252E-24
  -3.660000        2.0048425E-24
  -3.655000        2.0012642E-24
  -3.650000        1.9970501E-24
  -3.645000        1.9922706E-24
  -3.640000        1.9870089E-24
  -3.635000        1.9813602E-24
  -3.630000        1.9754341E-24
  -3.625000        1.9693500E-24
  -3.620000        1.9632399E-24
  -3.615000        1.9572461E-24
  -3.610000        1.9515208E-24
  -3.605000        1.9462200E-24
  -3.600000        1.9415074E-24
  -3.595000        1.9375461E-24
  -3.590000        1.9344980E-24
  -3.585000        1.9325187E-24
  -3.580000        1.9317539E-24
  -3.575000        1.9323355E-24
  -3.570000        1.9343733E-24
  -3.565000        1.9379549E-24
  -3.560000        1.9431356E-24
  -3.555000        1.9499366E-24
  -3.550000        1.9583375E-24
  -3.545000        1.9682732E-24
  -3.540000        1.9796283E-24
  -3.535000        1.9922343E-24
  -3.530000        2.0058662E-24
  -3.525000        2.0202402E-24
  -3.520000        2.0350142E-24
  -3.515000        2.0497884E-24
  -3.510000        2.0641062E-24
  -3.505000        2.0774609E-24
  -3.500000        2.0892991E-24
  -3.495000        2.0990311E-24
  -3.490000        2.1060387E-24
  -3.485000        2.1096894E-24
  -3.480000        2.1093492E-24
  -3.475000        2.1043983E-24
  -3.470000        2.0942514E-24
  -3.465000        2.0783728E-24
  -3.460000        2.0563001E-24
  -3.455000        2.0276634E-24
  -3.450000        1.9922092E-24
  -3.445000        1.9498188E-24
  -3.440000        1.9005282E-24
  -3.435000        1.8445497E-24
  -3.430000        1.7822859E-24
  -3.425000        1.7143429E-24
  -3.420000        1.6415411E-24
  -3.415000        1.5649176E-24
  -3.410000        1.4857283E-24
  -3.405000        1.4054389E-24
  -3.400000        1.3257123E-24
  -3.395000        1.2483883E-24
  -3.390000        1.1754547E-24
  -3.385000        1.1090122E-24
  -3.380000        1.0512322E-24
  -3.375000        1.0043026E-24
  -3.370000        9.7037514E-25
  -3.365000        9.5149858E-25
  -3.360000        9.4955217E-25
  -3.355000        9.6617376E-25
  -3.350000        1.0026878E-24
  -3.345000        1.0600323E-24
  -3.340000        1.1386885E-24
  -3.335000        1.2386192E-24
  -3.330000        1.3592095E-24
  -3.325000        1.4992247E-24
  -3.320000        1.6567761E-24
  -3.315000        1.8293101E-24
  -3.310000        2.0136099E-24
  -3.305000        2.2058251E-24
  -3.300000        2.4015218E-24
  -3.295000        2.5957596E-24
  -3.290000        2.7831967E-24
  -3.285000        2.9582191E-24
  -3.280000        3.1150985E-24
  -3.275000        3.2481748E-24
  -3.270000        3.3520609E-24
  -3.265000        3.4218621E-24
  -3.260000        3.4534169E-24
  -3.255000        3.4435348E-24
  -3.250000        3.3902437E-24
  -3.245000        3.2930212E-24
  -3.240000        3.1530086E-24
  -3.235000        2.9732012E-24
  -3.230000        2.7585927E-24
  -3.225000        2.5162720E-24
  -3.220000        2.2554575E-24
  -3.215000        1.9874544E-24
  -3.210000        1.7255370E-24
  -3.205000        1.4847300E-24
  -3.200000        1.2814917E-24
  -3.195000        1.1333027E-24
  -3.190000        1.0581330E-24
  -3.185000        1.0738186E-24
  -3.180000        1.1973290E-24
  -3.175000        1.4439494E-24
  -3.170000        1.8263826E-24
  -3.165000        2.3537986E-24
  -3.160000        3.0308423E-24
  -3.155000        3.8566439E-24
  -3.150000        4.8238489E-24
  -3.145000        5.9177241E-24
  -3.140000        7.1153487E-24
  -3.135000        8.3850037E-24
  -3.130000        9.6856776E-24
  -3.125000        1.0966938E-23
  -3.120000        1.2168970E-23
  -3.115000        1.3223026E-23
  -3.110000        1.4052271E-23
  -3.105000        1.4573003E-23
  -3.100000        1.4696288E-23
  -3.095000        1.4330182E-23
  -3.090000        1.3382258E-23
  -3.085000        1.1762740E-23
  -3.080000        9.3879599E-24
  -3.075000        6.1842841E-24
  -3.070000        2.0923413E-24
  -3.065000       -2.9284844E-24
  -3.060000       -8.8954141E-24
  -3.055000       -1.5797615E-23
  -3.050000       -2.3591586E-23
  -3.045000       -3.2196913E-23
  -3.040000       -4.1492395E-23
  -3.035000       -5.1312824E-23
  -3.030000       -6.1446610E-23
  -3.025000       -7.1634364E-23
  -3.020000       -8.1568887E-23
  -3.015000       -9.0896447E-23
  -3.010000       -9.9219649E-23
  -3.005000       -1.0610228E-22
  -3.000000       -1.1107582E-22
  -2.995000       -1.1364829E-22
  -2.990000       -1.1331463E-22
  -2.985000       -1.0956989E-22
  -2.980000       -1.0192366E-22
  -2.975000       -8.9916916E-23
  -2.970000       -7.3140312E-23
  -2.965000       -5.1253887E-23
  -2.960000       -2.4007850E-23
  -2.955000        8.7360279E-24
  -2.950000        4.6983044E-23
  -2.945000        9.0584607E-23
  -2.940000        1.3921835E-22
  -2.935000        1.9237051E-22
  -2.930000        2.4932051E-22
  -2.925000        3.0912970E-22
  -2.920000        3.7063328E-22
  -2.915000        4.3243906E-22
  -2.910000        4.9292977E-22
  -2.905000        5.5027463E-22
  -2.900000        6.0244664E-22
  -2.895000        6.4724727E-22
  -2.890000        6.8234095E-22
  -2.885000        7.0529713E-22
  -2.880000        7.1364028E-22
  -2.875000        7.0490944E-22
  -2.870000        6.7672543E-22
  -2.865000        6.2686366E-22
  -2.860000        5.5333511E-22
  -2.855000        4.5447133E-22
  -2.850000        3.2901265E-22
  -2.845000        1.7619879E-22
  -2.840000       -4.1431937E-24
  -2.835000       -2.1151143E-22
  -2.830000       -4.4465057E-22
  -2.825000       -7.0147698E-22
  -2.820000       -9.7902096E-22
  -2.815000       -1.2733795E-21
  -2.810000       -1.5796876E-21
  -2.805000       -1.8921108E-21
  -2.800000       -2.2038590E-21
  -2.795000       -2.5072285E-21
  -2.790000       -2.7936721E-21
  -2.785000       -3.0538902E-21
  -2.780000       -3.2779758E-21
  -2.775000       -3.4555567E-21
  -2.770000       -3.5760036E-21
  -2.765000       -3.6286426E-21
  -2.760000       -3.6030170E-21
  -2.755000       -3.4891561E-21
  -2.750000       -3.2778849E-21
  -2.745000       -2.9611372E-21
  -2.740000       -2.5322892E-21
  -2.735000       -1.9864989E-21
  -2.730000       -1.3210367E-21
  -2.725000       -5.3561777E-22
  -2.720000        3.6729460E-22
  -2.715000        1.3822081E-21
  -2.710000        2.5003568E-21
  -2.705000        3.7095121E-21
  -2.700000        4.9938432E-21
  -2.695000        6.3338484E-21
  -2.690000        7.7063749E-21
  -2.685000        9.0846807E-21
  -2.680000        1.0438666E-20
  -2.675000        1.1735131E-20
  -2.670000        1.2938163E-20
  -2.665000        1.4009633E-20
  -2.660000        1.4909813E-20
  -2.655000        1.5598046E-20
  -2.650000        1.6033591E-20
  -2.645000        1.6176452E-20
  -2.640000        1.5988419E-20
  -2.635000        1.5434053E-20
  -2.630000        1.4481834E-20
  -2.625000        1.3105215E-20
  -2.620000        1.1283810E-20
  -2.615000        9.0044870E-21
  -2.610000        6.2624673E-21
  -2.605000        3.0623165E-21
  -2.600000       -5.8113583E-22
  -2.595000       -4.6419902E-21
  -2.590000       -9.0826750E-21
  -2.585000       -1.3853475E-20
  -2.580000       -1.8892317E-20
  -2.575000       -2.4124789E-20
  -2.570000       -2.9464400E-20
  -2.565000       -3.4813111E-20
  -2.560000       -4.0062280E-20
  -2.555000       -4.5093738E-20
  -2.550000       -4.9781319E-20
  -2.545000       -5.3992702E-20
  -2.540000       -5.7591416E-20
  -2.535000       -6.0439360E-20
  -2.530000       -6.2399307E-20
  -2.525000       -6.3337989E-20
  -2.520000       -6.3129028E-20
  -2.515000       -6.1656337E-20
  -2.510000       -5.8817350E-20
  -2.505000       -5.4526466E-20
  -2.500000       -4.8718366E-20
  -2.495000       -4.1351324E-20
  -2.490000       -3.2410239E-20
  -2.485000       -2.1909463E-20
  -2.480000       -9.8953306E-21
  -2.475000        3.5518126E-21
  -2.470000        1.8316010E-20
  -2.465000        3.4244673E-20
  -2.460000        5.1148212E-20
  -2.455000        6.8800327E-20
  -2.450000        8.6939216E-20
  -2.445000        1.0526915E-19
  -2.440000        1.2346353E-19
  -2.435000        1.4116808E-19
  -2.430000        1.5800546E-19
  -2.425000        1.7358031E-19
  -2.420000        1.8748507E-19
  -2.415000        1.9930710E-19
  -2.410000        2.0863564E-19
  -2.405000        2.1506976E-19
  -2.400000        2.1822710E-19
  -2.395000        2.1775201E-19
  -2.390000        2.1332496E-19
  -2.385000        2.0467102E-19
  -2.380000        1.9156917E-19
  -2.375000        1.7386027E-19
  -2.370000        1.5145543E-19
  -2.365000        1.2434300E-19
  -2.360000        9.2595257E-20
  -2.355000        5.6373561E-20
  -2.350000        1.5932633E-20
  -2.345000       -2.8376835E-20
  -2.340000       -7.6107072E-20
  -2.335000       -1.2671376E-19
  -2.330000       -1.7955801E-19
  -2.325000       -2.3391125E-19
  -2.320000       -2.8896089E-19
  -2.315000       -3.4381840E-19
  -2.310000       -3.9752946E-19
  -2.305000       -4.4908664E-19
  -2.300000       -4.9744181E-19
  -2.295000       -5.4152196E-19
  -2.290000       -5.8024678E-19
  -2.285000       -6.1254606E-19
  -2.280000       -6.3737895E-19
  -2.275000       -6.5375491E-19
  -2.270000       -6.6075229E-19
  -2.265000       -6.5754019E-19
  -2.260000       -6.4339892E-19
  -2.255000       -6.1773843E-19
  -2.250000       -5.8011826E-19
  -2.245000       -5.3026418E-19
  -2.240000       -4.6808326E-19
  -2.235000       -3.9367870E-19
  -2.230000       -3.0735860E-19
  -2.225000       -2.0964611E-19
  -2.220000       -1.0128246E-19
  -2.215000        1.6770281E-20
  -2.210000        1.4333183E-19
  -2.205000        2.7700978E-19
  -2.200000        4.1620784E-19
  -2.195000        5.5914214E-19
  -2.190000        7.0385600E-19
  -2.185000        8.4824229E-19
  -2.180000        9.9006819E-19
  -2.175000        1.1270028E-18
  -2.170000        1.2566506E-18
  -2.165000        1.3765800E-18
  -2.160000        1.4843651E-18
  -2.155000        1.5776207E-18
  -2.150000        1.6540393E-18
  -2.145000        1.7114376E-18
  -2.140000        1.7477838E-18
  -2.135000        1.7612512E-18
  -2.130000        1.7502437E-18
  -2.125000        1.7134357E-18
  -2.120000        1.6498081E-18
  -2.115000        1.5586714E-18
  -2.110000        1.4396971E-18
  -2.105000        1.2929355E-18
  -2.100000        1.1188343E-18
  -2.095000        9.1824958E-19
  -2.090000        6.9245021E-19
  -2.085000        4.4311874E-19
  -2.080000        1.7234547E-19
  -2.075000       -1.1738542E-19
  -2.070000       -4.2321360E-19
  -2.065000       -7.4192538E-19
  -2.060000       -1.0699861E-18
  -2.055000       -1.4035745E-18
  -2.050000       -1.7386240E-18
  -2.045000       -2.0708659E-18
  -2.040000       -2.3958792E-18
  -2.035000       -2.7091414E-18
  -2.030000       -3.0060858E-18
  -2.025000       -3.2821532E-18
  -2.020000       -3.5328553E-18
  -2.015000       -3.7538192E-18
  -2.010000       -3.9408626E-18
  -2.005000       -4.0900326E-18
  -2.000000       -4.1976637E-18
  -1.995000       -4.2604330E-18
  -1.990000       -4.2754013E-18
  -1.985000       -4.2400513E-18
  -1.980000       -4.1523367E-18
  -1.975000       -4.0107051E-18
  -1.970000       -3.8141298E-18
  -1.965000       -3.5621305E-18
  -1.960000       -3.2547897E-18
  -1.955000       -2.8927643E-18
  -1.950000       -2.4772910E-18
  -1.945000       -2.0101881E-18
  -1.940000       -1.4938483E-18
  -1.935000       -9.3123021E-19
  -1.930000       -3.2584767E-19
  -1.925000        3.1824823E-19
  -1.920000        9.9648939E-19
  -1.915000        1.7038100E-18
  -1.910000        2.4346746E-18
  -1.905000        3.1831020E-18
  -1.900000        3.9426886E-18
  -1.895000        4.7066432E-18
  -1.890000        5.4678111E-18
  -1.885000        6.2186955E-18
  -1.880000        6.9515159E-18
  -1.875000        7.6581944E-18
  -1.870000        8.3304235E-18
  -1.865000        8.9596928E-18
  -1.860000        9.5373031E-18
  -1.855000        1.0054436E-17
  -1.850000        1.0502161E-17
  -1.845000        1.0871517E-17
  -1.840000        1.1153551E-17
  -1.835000        1.1339348E-17
  -1.830000        1.1420166E-17
  -1.825000        1.1387431E-17
  -1.820000        1.1232897E-17
  -1.815000        1.0948685E-17
  -1.810000        1.0527437E-17
  -1.805000        9.9623929E-18
  -1.800000        9.2475782E-18
  -1.795000        8.3778937E-18
  -1.790000        7.3493087E-18
  -1.785000        6.1590226E-18
  -1.780000        4.8056315E-18
  -1.775000        3.2893296E-18
  -1.770000        1.6120916E-18
  -1.765000       -2.2213240E-19
  -1.760000       -2.2072210E-18
  -1.755000       -4.3346952E-18
  -1.750000       -6.5935319E-18
  -1.745000       -8.9700012E-18
  -1.740000       -1.1447523E-17
  -1.735000       -1.4006532E-17
  -1.730000       -1.6624403E-17
  -1.725000       -1.9275378E-17
  -1.720000       -2.1930548E-17
  -1.715000       -2.4557910E-17
  -1.710000       -2.7122437E-17
  -1.705000       -2.9586216E-17
  -1.700000       -3.1908691E-17
  -1.695000       -3.4046943E-17
  -1.690000       -3.5955996E-17
  -1.685000       -3.7589291E-17
  -1.680000       -3.8899204E-17
  -1.675000       -3.9837581E-17
  -1.670000       -4.0356428E-17
  -1.665000       -4.0408656E-17
  -1.660000       -3.9948810E-17
  -1.655000       -3.8934025E-17
  -1.650000       -3.7324864E-17
  -1.645000       -3.5086308E-17
  -1.640000       -3.2188777E-17
  -1.635000       -2.8609047E-17
  -1.630000       -2.4331377E-17
  -1.625000       -1.9348405E-17
  -1.620000       -1.3662170E-17
  -1.615000       -7.2850127E-18
  -1.610000       -2.4042808E-19
  -1.605000        7.4362023E-18
  -1.600000        1.5697006E-17
  -1.595000        2.4481047E-17
  -1.590000        3.3714072E-17
  -1.585000        4.3308318E-17
  -1.580000        5.3162560E-17
  -1.575000        6.3162373E-17
  -1.570000        7.3180642E-17
  -1.565000        8.3078381E-17
  -1.560000        9.2705572E-17
  -1.555000        1.0190249E-16
  -1.550000        1.1050139E-16
  -1.545000        1.1832816E-16
  -1.540000        1.2520435E-16
  -1.535000        1.3094965E-16
  -1.530000        1.3538431E-16
  -1.525000        1.3833193E-16
  -1.520000        1.3962245E-16
  -1.515000        1.3909505E-16
  -1.510000        1.3660188E-16
  -1.505000        1.3201053E-16
  -1.500000        1.2520825E-16
  -1.495000        1.1610454E-16
  -1.490000        1.0463466E-16
  -1.485000        9.0762823E-17
  -1.480000        7.4484789E-17
  -1.475000        5.5830767E-17
  -1.470000        3.4867496E-17
  -1.465000        1.1700345E-17
  -1.460000       -1.3525204E-17