  -10.0000000         4.36499873E-32
  -9.97000027         1.30949965E-31
  -9.93999958         2.18249922E-31
  -9.90999985         3.05549867E-31
  -9.88000011         3.93396793E-31
  -9.85000038         4.84242312E-31
  -9.81999969         5.60363564E-31
  -9.78999996         6.09119779E-31
  -9.76000023         5.88508049E-31
  -9.72999954         4.70732402E-31
  -9.69999981         3.21868597E-31
  -9.67000008         1.79445831E-31
  -9.64000034         4.65343683E-32
  -9.60999966        -7.59280131E-32
  -9.57999992        -1.85237103E-31
  -9.55000019        -2.64444522E-31
  -9.52000046        -2.67002422E-31
  -9.48999977        -1.14107952E-31
  -9.46000004         1.59599137E-31
  -9.43000031         4.48442396E-31
  -9.39999962         6.67507429E-31
  -9.36999989         7.97823438E-31
  -9.34000015         8.39523583E-31
  -9.31000042         7.73893524E-31
  -9.27999973         6.64605181E-31
  -9.25000000         5.49081875E-31
  -9.22000027         3.43211930E-31
  -9.18999958         1.33526093E-32
  -9.15999985        -3.68647959E-31
  -9.13000011        -7.17723231E-31
  -9.10000038        -1.00370159E-30
  -9.06999969        -1.20539799E-30
  -9.03999996        -1.27371302E-30
  -9.01000023        -1.16670438E-30
  -8.97999954        -8.73035987E-31
  -8.94999981        -4.55421870E-31
  -8.92000008         7.20116185E-32
  -8.89000034         6.94289611E-31
  -8.85999966         1.32921102E-30
  -8.82999992         1.89348329E-30
  -8.80000019         2.27868884E-30
  -8.77000046         2.46208872E-30
  -8.73999977         2.44563725E-30
  -8.71000004         2.11852651E-30
  -8.68000031         1.54340236E-30
  -8.64999962         8.86942273E-31
  -8.61999989         2.17224703E-31
  -8.59000015        -4.96268512E-31
  -8.56000042        -1.10835425E-30
  -8.52999973        -1.51180761E-30
  -8.50000000        -1.72773972E-30
  -8.47000027        -1.65133653E-30
  -8.43999958        -1.33089461E-30
  -8.40999985        -8.81998802E-31
  -8.38000011        -4.20950593E-31
  -8.35000038        -1.07170690E-31
  -8.31999969         1.25035630E-32
  -8.28999996        -1.61215829E-31
  -8.26000023        -5.89169900E-31
  -8.22999954        -1.08276336E-30
  -8.19999981        -1.54217072E-30
  -8.17000008        -1.85613586E-30
  -8.14000034        -1.95273648E-30
  -8.10999966        -1.74674680E-30
  -8.07999992        -1.24092650E-30
  -8.05000019        -5.11624089E-31
  -8.02000046         4.07691157E-31
  -7.98999977         1.43018260E-30
  -7.96000004         2.38467856E-30
  -7.92999983         3.13591574E-30
  -7.90000010         3.58109784E-30
  -7.86999989         3.64623602E-30
  -7.84000015         3.26873156E-30
  -7.80999994         2.36225520E-30
  -7.78000021         9.76700389E-31
  -7.75000000        -5.78929651E-31
  -7.71999979        -2.02255765E-30
  -7.69000006        -3.26020330E-30
  -7.65999985        -4.09610881E-30
  -7.63000011        -4.35460923E-30
  -7.59999990        -3.97913377E-30
  -7.57000017        -2.96993575E-30
  -7.53999996        -1.53651678E-30
  -7.51000023         3.82463015E-32
  -7.48000002         1.65757869E-30
  -7.44999981         3.14331703E-30
  -7.42000008         4.15953585E-30
  -7.38999987         4.61463046E-30
  -7.36000013         4.50161223E-30
  -7.32999992         3.80597461E-30
  -7.30000019         2.65209713E-30
  -7.26999998         1.24317160E-30
  -7.23999977        -2.53452733E-31
  -7.21000004        -1.69559042E-30
  -7.17999983        -2.85660475E-30
  -7.15000010        -3.60775278E-30
  -7.11999989        -3.87778998E-30
  -7.09000015        -3.53645313E-30
  -7.05999994        -2.63754921E-30
  -7.03000021        -1.35932013E-30
  -7.00000000         1.60278972E-31
  -6.96999979         1.66973217E-30
  -6.94000006         2.95014344E-30
  -6.90999985         3.74772952E-30
  -6.88000011         3.77892244E-30
  -6.84999990         2.99076250E-30
  -6.82000017         1.50161777E-30
  -6.78999996        -4.94992584E-31
  -6.76000023        -2.74175481E-30
  -6.73000002        -4.81936885E-30
  -6.69999981        -6.38060365E-30
  -6.67000008        -7.08183549E-30
  -6.63999987        -6.71520238E-30
  -6.61000013        -5.18317250E-30
  -6.57999992        -2.59676351E-30
  -6.55000019         5.46638304E-31
  -6.51999998         3.73256207E-30
  -6.48999977         6.48940741E-30
  -6.46000004         8.42872557E-30
  -6.42999983         9.22020228E-30
  -6.40000010         8.73211145E-30
  -6.36999989         7.09429009E-30
  -6.34000015         4.62296274E-30
  -6.30999994         1.81366233E-30
  -6.28000021        -8.97216470E-31
  -6.25000000        -3.12445251E-30
  -6.21999979        -4.55630149E-30
  -6.19000006        -4.94955382E-30
  -6.15999985        -4.35499555E-30
  -6.13000011        -3.06837974E-30
  -6.09999990        -1.34603441E-30
  -6.07000017         4.14963048E-31
  -6.03999996         1.77651088E-30
  -6.01000023         2.47743127E-30
  -5.98000002         2.43100808E-30
  -5.94999981         1.70325821E-30
  -5.92000008         5.71223816E-31
  -5.88999987        -6.61965773E-31
  -5.86000013        -1.67173446E-30
  -5.82999992        -2.12615162E-30
  -5.80000019        -1.89772974E-30
  -5.76999998        -1.15763314E-30
  -5.73999977         1.96697835E-32
  -5.71000004         1.33192839E-30
  -5.67999983         2.28849227E-30
  -5.65000010         2.69458175E-30
  -5.61999989         2.43567940E-30
  -5.59000015         1.46959448E-30
  -5.55999994        -6.95750009E-32
  -5.53000021        -1.99220582E-30
  -5.50000000        -4.02050853E-30
  -5.46999979        -5.78235376E-30
  -5.44000006        -6.92475183E-30
  -5.40999985        -7.12221457E-30
  -5.38000011        -6.45402220E-30
  -5.34999990        -4.97167154E-30
  -5.32000017        -2.72747867E-30
  -5.28999996        -9.23582796E-32
  -5.26000023         2.47527757E-30
  -5.23000002         4.50996595E-30
  -5.19999981         5.65042568E-30
  -5.17000008         5.71812776E-30
  -5.13999987         4.72858232E-30
  -5.11000013         2.80228318E-30
  -5.07999992         1.96514314E-31
  -5.05000019        -2.65412218E-30
  -5.01999998        -5.17286163E-30
  -4.98999977        -6.93673999E-30
  -4.96000004        -7.74432605E-30
  -4.92999983        -7.45677418E-30
  -4.90000010        -6.05254217E-30
  -4.86999989        -3.74508062E-30
  -4.84000015        -9.88631092E-31
  -4.80999994         1.76752014E-30
  -4.78000021         4.18723651E-30
  -4.75000000         5.97274096E-30
  -4.71999979         6.94307901E-30
  -4.69000006         7.01993189E-30
  -4.65999985         6.17956590E-30
  -4.63000011         4.64316394E-30
  -4.59999990         2.91074256E-30
  -4.57000017         1.46838711E-30
  -4.53999996         4.80218312E-31
  -4.51000023        -2.83218080E-33
  -4.48000002         6.00240388E-32
  -4.44999981         5.55737712E-31
  -4.42000008         1.24091860E-30
  -4.38999987         1.83133556E-30
  -4.36000013         2.18191970E-30
  -4.32999992         2.10451086E-30
  -4.30000019         1.52846954E-30
  -4.26999998         6.14018064E-31
  -4.23999977        -4.96843094E-31
  -4.21000004        -1.65968668E-30
  -4.17999983        -2.73874366E-30
  -4.15000010        -3.47449987E-30
  -4.11999989        -3.68997645E-30
  -4.09000015        -3.31642616E-30
  -4.05999994        -2.32332490E-30
  -4.03000021        -9.87046149E-31
  -4.00000000         3.98569180E-31
  -3.97000003         1.69781972E-30
  -3.94000006         2.64124891E-30
  -3.91000009         3.04157941E-30
  -3.88000011         2.84868436E-30
  -3.84999990         2.13438741E-30
  -3.81999993         1.09684945E-30
  -3.78999996        -1.90457368E-31
  -3.75999999        -1.52772126E-30
  -3.73000002        -2.71460728E-30
  -3.70000005        -3.59565177E-30
  -3.67000008        -3.98420212E-30
  -3.64000010        -3.82024530E-30
  -3.60999990        -3.05472181E-30
  -3.57999992        -1.79479179E-30
  -3.54999995        -2.66391094E-31
  -3.51999998         1.37867093E-30
  -3.49000001         3.05551043E-30
  -3.46000004         4.64174470E-30
  -3.43000007         6.05453581E-30
  -3.40000010         7.32729000E-30
  -3.36999989         8.43194173E-30
  -3.33999991         9.41583163E-30
  -3.30999994         1.03440050E-29
  -3.27999997         1.12511872E-29
  -3.25000000         1.19377917E-29
  -3.22000003         1.19814569E-29
  -3.19000006         1.11383668E-29
  -3.16000009         9.03939884E-30
  -3.13000011         5.28802472E-30
  -3.09999990        -4.15256733E-31
  -3.06999993        -8.28143557E-30
  -3.03999996        -1.82847052E-29
  -3.00999999        -3.02982935E-29
  -2.98000002        -4.38048402E-29
  -2.95000005        -5.80588674E-29
  -2.92000008        -7.19812826E-29
  -2.89000010        -8.41371385E-29
  -2.85999990        -9.30464483E-29
  -2.82999992        -9.69992450E-29
  -2.79999995        -9.40071864E-29
  -2.76999998        -8.21093931E-29
  -2.74000001        -5.95818748E-29
  -2.71000004        -2.48739720E-29
  -2.68000007         2.30391265E-29
  -2.65000010         8.43722705E-29
  -2.61999989         1.58439624E-28
  -2.58999991         2.43230315E-28
  -2.55999994         3.35284085E-28
  -2.52999997         4.29622489E-28
  -2.50000000         5.19425569E-28
  -2.47000003         5.96384478E-28
  -2.44000006         6.50600032E-28
  -2.41000009         6.70918641E-28
  -2.38000011         6.45263713E-28
  -2.34999990         5.61442234E-28
  -2.31999993         4.08221507E-28
  -2.28999996         1.76362473E-28
  -2.25999999        -1.39990973E-28
  -2.23000002        -5.41907671E-28
  -2.20000005        -1.02404623E-27
  -2.17000008        -1.57310882E-27
  -2.14000010        -2.16639231E-27
  -2.10999990        -2.77095655E-27
  -2.07999992        -3.34323720E-27
  -2.04999995        -3.82946055E-27
  -2.01999998        -4.16685151E-27
  -1.99000001        -4.28630385E-27
  -1.96000004        -4.11596883E-27
  -1.92999995        -3.58589628E-27
  -1.89999998        -2.63440812E-27
  -1.87000000        -1.21502356E-27
  -1.84000003         6.96148082E-28
  -1.80999994         3.09245666E-27
  -1.77999997         5.92919489E-27
  -1.75000000         9.11685624E-27
  -1.72000003         1.25163314E-26
  -1.69000006         1.59363924E-26
  -1.65999997         1.91341140E-26
  -1.63000000         2.18194011E-26
  -1.60000002         2.36640384E-26
  -1.57000005         2.43153909E-26
  -1.53999996         2.34154100E-26
  -1.50999999         2.06244279E-26
  -1.48000002         1.56495043E-26
  -1.45000005         8.27624559E-27
  -1.41999996        -1.59697812E-27
  -1.38999999        -1.39245659E-26
  -1.36000001        -2.84811358E-26
  -1.33000004        -4.48329066E-26
  -1.29999995        -6.23172690E-26
  -1.26999998        -8.00323732E-26
  -1.24000001        -9.68404168E-26
  -1.21000004        -1.11387480E-25
  -1.17999995        -1.22141701E-25
  -1.14999998        -1.27452312E-25
  -1.12000000        -1.25629982E-25
  -1.09000003        -1.15047832E-25
  -1.05999994        -9.42616059E-26
  -1.02999997        -6.21456178E-26
  -1.00000000        -1.80388854E-26
 -0.970000029         3.81043791E-26
 -0.939999998         1.05569385E-25
 -0.910000026         1.82750352E-25
 -0.879999995         2.67046056E-25
 -0.850000024         3.54794260E-25
 -0.819999993         4.41256003E-25
 -0.790000021         5.20663334E-25
 -0.759999990         5.86341625E-25
 -0.730000019         6.30914435E-25
 -0.699999988         6.46598321E-25
 -0.670000017         6.25587751E-25
 -0.639999986         5.60529061E-25
 -0.610000014         4.45073400E-25
 -0.579999983         2.74493816E-25
 -0.550000012         4.63427186E-26
 -0.519999981        -2.38879162E-25
 -0.490000010        -5.77082321E-25
 -0.460000008        -9.60018281E-25
 -0.430000007        -1.37483280E-24
 -0.400000006        -1.80379317E-24
 -0.370000005        -2.22424657E-24
 -0.340000004        -2.60886300E-24
 -0.310000002        -2.92621109E-24
 -0.280000001        -3.14170403E-24
 -0.250000000        -3.21894613E-24
 -0.219999999        -3.12148217E-24
 -0.189999998        -2.81494069E-24
 -0.159999996        -2.26952876E-24
 -0.129999995        -1.46280913E-24
 -0.100000001        -3.82663113E-25
  -7.00000003E-02     9.69696026E-25
  -3.99999991E-02     2.57681908E-24
  -9.99999978E-03     4.40241854E-24
   1.99999996E-02     6.38928266E-24
   5.00000007E-02     8.45794022E-24
   7.99999982E-02     1.05063114E-23
  0.109999999         1.24105799E-23
  0.140000001         1.40275120E-23
  0.170000002         1.51984009E-23
  0.200000003         1.57547687E-23
  0.230000004         1.55258965E-23
  0.259999990         1.43481461E-23
  0.289999992         1.20759522E-23
  0.319999993         8.59422304E-24
  0.349999994         3.83173486E-24
  0.379999995        -2.22499737E-24
  0.409999996        -9.51809434E-24
  0.439999998        -1.79057778E-23
  0.469999999        -2.71518887E-23
  0.500000000        -3.69185389E-23
  0.529999971        -4.67630591E-23
  0.560000002        -5.61403402E-23
  0.589999974        -6.44116857E-23
  0.620000005        -7.08611032E-23
  0.649999976        -7.47196491E-23
  0.680000007        -7.51983299E-23
  0.709999979        -7.15292684E-23
  0.740000010        -6.30146950E-23
  0.769999981        -4.90823512E-23
  0.800000012        -2.93455910E-23
  0.829999983        -3.66538382E-24
  0.860000014         2.77888434E-23
  0.889999986         6.44835541E-23
  0.920000017         1.05474906E-22
  0.949999988         1.49376707E-22
  0.980000019         1.94347231E-22
   1.00999999         2.38099476E-22
   1.03999996         2.77939072E-22
   1.07000005         3.10832805E-22
   1.10000002         3.33510120E-22
   1.13000000         3.42598151E-22
   1.15999997         3.34788756E-22
   1.19000006         3.07034989E-22
   1.22000003         2.56771120E-22
   1.25000000         1.82148917E-22
   1.27999997         8.22799658E-23
   1.30999994        -4.25272768E-23
   1.34000003        -1.90549882E-22
   1.37000000        -3.58467382E-22
   1.39999998        -5.41228960E-22
   1.42999995        -7.31987896E-22
   1.46000004        -9.22118167E-22
   1.49000001        -1.10132949E-21
   1.51999998        -1.25789150E-21
   1.54999995        -1.37897773E-21
   1.58000004        -1.45113369E-21
   1.61000001        -1.46086962E-21
   1.63999999        -1.39536898E-21
   1.66999996        -1.24330194E-21
   1.70000005        -9.95717047E-22
   1.73000002        -6.46982668E-22
   1.75999999        -1.95735550E-22
   1.78999996         3.54213112E-22
   1.82000005         9.93072129E-22
   1.85000002         1.70443110E-21
   1.88000000         2.46485525E-21
   1.90999997         3.24378635E-21
   1.94000006         4.00381508E-21
   1.97000003         4.70138360E-21
   2.00000000         5.28796492E-21
   2.02999997         5.71174433E-21
   2.05999994         5.91980530E-21
   2.08999991         5.86078467E-21
   2.11999989         5.48794189E-21
   2.15000010         4.76253438E-21
   2.18000007         3.65736737E-21
   2.21000004         2.16034009E-21
   2.24000001         2.77787081E-22
   2.26999998        -1.96260374E-21
   2.29999995        -4.50954555E-21
   2.32999992        -7.28680608E-21
   2.35999990        -1.01929824E-20
   2.39000010        -1.31025829E-20
   2.42000008        -1.58685715E-20
   2.45000005        -1.83264369E-20
   2.48000002        -2.02998039E-20
   2.50999999        -2.16075247E-20
   2.53999996        -2.20720674E-20
   2.56999993        -2.15289813E-20
   2.59999990        -1.98370868E-20
   2.63000011        -1.68890086E-20
   2.66000009        -1.26215782E-20
   2.69000006        -7.02560279E-21
   2.72000003        -1.54477835E-22
   2.75000000         7.86892312E-21
   2.77999997         1.68475834E-20
   2.80999994         2.65083905E-20
   2.83999991         3.65033544E-20
   2.86999989         4.64143934E-20
   2.90000010         5.57618995E-20
   2.93000007         6.40173494E-20
   2.96000004         7.06199309E-20
   2.99000001         7.49971639E-20
   3.01999998         7.65892151E-20
   3.04999995         7.48764601E-20
   3.07999992         6.94096235E-20
   3.10999990         5.98416189E-20
   3.14000010         4.59598835E-20
   3.17000008         2.77178982E-20
   3.20000005         5.26414188E-21
   3.23000002        -2.10332417E-20
   3.25999999        -5.05681972E-20
   3.28999996        -8.24868643E-20
   3.31999993        -1.15688136E-19
   3.34999990        -1.48836443E-19
   3.38000011        -1.80388265E-19
   3.41000009        -2.08633368E-19
   3.44000006        -2.31751244E-19
   3.47000003        -2.47881809E-19
   3.50000000        -2.55209492E-19
   3.52999997        -2.52057701E-19
   3.55999994        -2.36990658E-19
   3.58999991        -2.08917918E-19
   3.61999989        -1.67196389E-19
   3.65000010        -1.11724235E-19
   3.68000007        -4.30203033E-20
   3.71000004         3.77165473E-20
   3.74000001         1.28573827E-19
   3.76999998         2.26922396E-19
   3.79999995         3.29446806E-19
   3.82999992         4.32211202E-19
   3.85999990         5.30760854E-19
   3.89000010         6.20257195E-19
   3.92000008         6.95643024E-19
   3.95000005         7.51832472E-19
   3.98000002         7.83919015E-19
   4.01000023         7.87394207E-19
   4.03999996         7.58369163E-19
   4.07000017         6.93791173E-19
   4.09999990         5.91646517E-19
   4.13000011         4.51145082E-19
   4.15999985         2.72878948E-19
   4.19000006         5.89515919E-20
   4.21999979        -1.86926688E-19
   4.25000000        -4.59380337E-19
   4.28000021        -7.51350484E-19
   4.30999994        -1.05412061E-18
   4.34000015        -1.35739056E-18
   4.36999989        -1.64940569E-18
   4.40000010        -1.91714679E-18
   4.42999983        -2.14659077E-18
   4.46000004        -2.32305134E-18
   4.48999977        -2.43160515E-18
   4.51999998        -2.45761626E-18
   4.55000019        -2.38735533E-18
   4.57999992        -2.20871575E-18
   4.61000013        -1.91201475E-18
   4.63999987        -1.49085988E-18
   4.67000008        -9.43048764E-19
   4.69999981        -2.71464340E-19
   4.73000002         5.15092450E-19
   4.76000023         1.40119247E-18
   4.78999996         2.36426272E-18
   4.82000017         3.37433938E-18
   4.84999990         4.39416208E-18
   4.88000011         5.37967375E-18
   4.90999985         6.28098629E-18
   4.94000006         7.04383417E-18
   4.96999979         7.61153898E-18
   5.00000000         7.92744753E-18
   5.03000021         7.93780631E-18
   5.05999994         7.59496559E-18
   5.09000015         6.86080102E-18
   5.11999989         5.71017873E-18
   5.15000010         4.13429378E-18
   5.17999983         2.14366234E-18
   5.21000004        -2.29443255E-19
   5.23999977        -2.92933854E-18
   5.26999998        -5.87625550E-18
   5.30000019        -8.96683471E-18
   5.32999992        -1.20759237E-17
   5.36000013        -1.50597809E-17
   5.38999987        -1.77606977E-17
   5.42000008        -2.00130063E-17
   5.44999981        -2.16503458E-17
   5.48000002        -2.25139686E-17
   5.51000023        -2.24618000E-17
   5.53999996        -2.13778708E-17
   5.57000017        -1.91816484E-17
   5.59999990        -1.58367864E-17
   5.63000011        -1.13587118E-17
   5.65999985        -5.82047706E-18
   5.69000006         6.43678452E-19
   5.71999979         7.83755864E-18
   5.75000000         1.55054658E-17
   5.78000021         2.33381648E-17
   5.80999994         3.09824932E-17
   5.84000015         3.80545367E-17
   5.86999989         4.41560592E-17
   5.90000010         4.88936832E-17
   5.92999983         5.18999884E-17
   5.96000004         5.28555640E-17
   5.98999977         5.15107966E-17
   6.01999998         4.77061000E-17
   6.05000019         4.13892161E-17
   6.07999992         3.26281624E-17
   6.11000013         2.16187392E-17
   6.13999987         8.68549073E-18
   6.17000008        -5.72445380E-18
   6.19999981        -2.10549809E-17
   6.23000002        -3.66618227E-17
   6.26000023        -5.18399020E-17
   6.28999996        -6.58560573E-17
   6.32000017        -7.79855558E-17
   6.34999990        -8.75504041E-17
   6.38000011        -9.39572885E-17
   6.40999985        -9.67328368E-17
   6.44000006        -9.55539853E-17
   6.46999979        -9.02713717E-17
   6.50000000        -8.09241712E-17
   6.53000021        -6.77451393E-17
   6.55999994        -5.11553075E-17
   6.59000015        -3.17483698E-17
   6.61999989        -1.02654338E-17
   6.65000010         1.24385258E-17
   6.67999983         3.54347565E-17
   6.71000004         5.77651456E-17
   6.73999977         7.84884618E-17
   6.76999998         9.67259546E-17
   6.80000019         1.11703793E-16
   6.82999992         1.22790052E-16
   6.86000013         1.29524295E-16
   6.88999987         1.31638290E-16
   6.92000008         1.29066804E-16
   6.94999981         1.21947916E-16
   6.98000002         1.10612994E-16
   7.01000023         9.55669092E-17
   7.03999996         7.74593234E-17
   7.07000017         5.70487344E-17
   7.09999990         3.51610953E-17
   7.13000011         1.26451373E-17
   7.15999985        -9.67306580E-18
   7.19000006        -3.10338810E-17
   7.21999979        -5.07834203E-17
   7.25000000        -6.84059772E-17
   7.28000021        -8.35472006E-17
   7.30999994        -9.60262194E-17
   7.34000015        -1.05835351E-16
   7.36999989        -1.13126862E-16
   7.40000010        -1.18187050E-16
   7.42999983        -1.21399171E-16
   7.46000004        -1.23197461E-16
   7.48999977        -1.24015258E-16
   7.51999998        -1.24231596E-16
   7.55000019        -1.24120489E-16
   7.57999992        -1.23807775E-16
   7.61000013        -1.23239244E-16
   7.63999987        -1.22164121E-16
   7.67000008        -1.20136324E-16
   7.69999981        -1.16534012E-16
   7.73000002        -1.10596940E-16
   7.76000023        -1.01479987E-16
   7.78999996        -8.83175181E-17
   7.82000017        -7.02948672E-17
   7.84999990        -4.67207459E-17
   7.88000011        -1.70950357E-17
   7.90999985         1.88329984E-17
   7.94000006         6.10205976E-17
   7.96999979         1.09103038E-16
   8.00000000         1.62381656E-16
   8.02999973         2.19826530E-16
   8.06000042         2.80091138E-16
   8.09000015         3.41534643E-16
   8.11999989         4.02247715E-16
   8.14999962         4.60078016E-16
   8.18000031         5.12653192E-16
   8.21000004         5.57401836E-16
   8.23999977         5.91573581E-16
   8.27000046         6.12264478E-16
   8.30000019         6.16454962E-16
   8.32999992         6.01068555E-16
   8.35999966         5.63059487E-16
   8.39000034         4.99537681E-16
   8.42000008         4.07935885E-16
   8.44999981         2.86218097E-16
   8.47999954         1.33126064E-16
   8.51000023        -5.15488469E-17
   8.53999996        -2.66682765E-16
   8.56999969        -5.09547175E-16
   8.60000038        -7.75573277E-16
   8.63000011        -1.05817666E-15
   8.65999985        -1.34866936E-15
   8.68999958        -1.63628120E-15
   8.72000027        -1.90830424E-15
   8.75000000        -2.15037334E-15
   8.77999973        -2.34688117E-15
   8.81000042        -2.48152469E-15
   8.84000015        -2.53796291E-15
   8.86999989        -2.50057297E-15
   8.89999962        -2.35527294E-15
   8.93000031        -2.09038710E-15
   8.96000004        -1.69752592E-15
   8.98999977        -1.17244712E-15
   9.02000046        -5.15872288E-16
   9.05000019         2.65770696E-16
   9.07999992         1.15971230E-15
   9.10999966         2.14634824E-15
   9.14000034         3.19892686E-15
   9.17000008         4.28346721E-15
   9.19999981         5.35895935E-15
   9.22999954         6.37790356E-15
   9.26000023         7.28725230E-15
   9.28999996         8.02980288E-15
   9.31999969         8.54608556E-15
   9.35000038         8.77676058E-15
   9.38000011         8.66551805E-15
   9.40999985         8.16241097E-15
   9.43999958         7.22752716E-15
   9.47000027         5.83483940E-15
   9.50000000         3.97602771E-15
   9.52999973         1.66401687E-15
   9.56000042        -1.06405380E-15
   9.59000015        -4.14472618E-15
   9.61999989        -7.48727828E-15
   9.64999962        -1.09741944E-14
   9.68000031        -1.44632553E-14
   9.71000004        -1.77913663E-14
   9.73999977        -2.07801305E-14
   9.77000046        -2.32430737E-14
   9.80000019        -2.49942990E-14
   9.82999992        -2.58582286E-14
   9.85999966        -2.56799586E-14
   9.89000034        -2.43357512E-14
   9.92000008        -2.17430207E-14
   9.94999981        -1.78692527E-14
   9.97999954        -1.27392307E-14
   10.0100002        -6.44005926E-15
   10.0400000         8.76476871E-16
   10.0699997         8.99455393E-15
   10.1000004         1.76381499E-14
   10.1300001         2.64781330E-14
   10.1599998         3.51425195E-14
   10.1899996         4.32296072E-14
   10.2200003         5.03236674E-14
   10.2500000         5.60125575E-14
   10.2799997         5.99067372E-14
   10.3100004         6.16588825E-14
   10.3400002         6.09832958E-14
   10.3699999         5.76742769E-14
   10.3999996         5.16225449E-14
   10.4300003         4.28288285E-14
   10.4600000         3.14137788E-14
   10.4899998         1.76233861E-14
   10.5200005         1.82926654E-15
   10.5500002        -1.54767319E-14
   10.5799999        -3.36938763E-14
   10.6099997        -5.21299109E-14
   10.6400003        -7.00242273E-14
   10.6700001        -8.65761998E-14
   10.6999998        -1.00977874E-13
   10.7299995        -1.12449668E-13
   10.7600002        -1.20277770E-13
   10.7900000        -1.23851260E-13
   10.8199997        -1.22697235E-13
   10.8500004        -1.16511916E-13
   10.8800001        -1.05186083E-13
   10.9099998        -8.88228429E-14
   10.9399996        -6.77467929E-14
   10.9700003        -4.25033544E-14
   11.0000000        -1.38480019E-14
   11.0299997         1.72745593E-14
   11.0600004         4.97606649E-14
   11.0900002         8.23863411E-14
   11.1199999         1.13852721E-13
   11.1499996         1.42836535E-13
   11.1800003         1.68043395E-13
   11.2100000         1.88261841E-13
   11.2399998         2.02416073E-13
   11.2700005         2.09615108E-13
   11.3000002         2.09196606E-13
   11.3299999         2.00763790E-13
   11.3599997         1.84213715E-13
   11.3900003         1.59756201E-13
   11.4200001         1.27921829E-13
   11.4499998         8.95588467E-14
   11.4799995         4.58180382E-14
   11.5100002        -1.87457730E-15
   11.5400000        -5.18572645E-14
   11.5699997        -1.02284006E-13
   11.6000004        -1.51187019E-13
   11.6300001        -1.96549103E-13
   11.6599998        -2.36383856E-13
   11.6899996        -2.68821071E-13
   11.7200003        -2.92194329E-13
   11.7500000        -3.05126231E-13
   11.7799997        -3.06607929E-13
   11.8100004        -2.96067126E-13
   11.8400002        -2.73420961E-13
   11.8699999        -2.39108971E-13
   11.8999996        -1.94102804E-13
   11.9300003        -1.39890134E-13
   11.9600000        -7.84320457E-14
   11.9899998        -1.20939373E-14
   12.0200005         5.64475157E-14
   12.0500002         1.24317684E-13
   12.0799999         1.88572194E-13
   12.1099997         2.46333553E-13
   12.1400003         2.94929283E-13
   12.1700001         3.32023742E-13
   12.1999998         3.55737033E-13
   12.2299995         3.64743907E-13
   12.2600002         3.58348307E-13
   12.2900000         3.36529090E-13
   12.3199997         2.99955346E-13
   12.3500004         2.49970482E-13
   12.3800001         1.88546702E-13
   12.4099998         1.18211593E-13
   12.4399996         4.19509262E-14
   12.4700003        -3.69086611E-14
   12.5000000        -1.14832528E-13
   12.5299997        -1.88221698E-13
   12.5600004        -2.53562796E-13
   12.5900002        -3.07579537E-13
   12.6199999        -3.47381331E-13
   12.6499996        -3.70604019E-13
   12.6800003        -3.75538061E-13
   12.7100000        -3.61238573E-13
   12.7399998        -3.27612015E-13
   12.7700005        -2.75473139E-13
   12.8000002        -2.06567023E-13
   12.8299999        -1.23550936E-13
   12.8599997        -2.99319150E-14
   12.8900003         7.00420624E-14
   12.9200001         1.71537182E-13
   12.9499998         2.69332218E-13
   12.9799995         3.58053891E-13
   13.0100002         4.32439458E-13
   13.0400000         4.87614289E-13
   13.0699997         5.19369216E-13
   13.1000004         5.24421164E-13
   13.1300001         5.00640545E-13
   13.1599998         4.47229656E-13
   13.1899996         3.64838666E-13
   13.2200003         2.55609742E-13
   13.2500000         1.23143791E-13
   13.2799997        -2.76104992E-14
   13.3100004        -1.90540102E-13
   13.3400002        -3.58614641E-13
   13.3699999        -5.24183290E-13
   13.3999996        -6.79305624E-13
   13.4300003        -8.16099738E-13
   13.4600000        -9.27089460E-13
   13.4899998        -1.00553691E-12
   13.5200005        -1.04574433E-12
   13.5500002        -1.04331821E-12
   13.5799999        -9.95385306E-13
   13.6099997        -9.00757550E-13
   13.6400003        -7.60044642E-13
   13.6700001        -5.75710107E-13
   13.6999998        -3.52072836E-13
   13.7299995        -9.52521075E-14
   13.7600002         1.86945647E-13
   13.7900000         4.85201126E-13
   13.8199997         7.88919602E-13
   13.8500004         1.08653332E-12
   13.8800001         1.36586922E-12
   13.9099998         1.61457642E-12
   13.9399996         1.82060682E-12
   13.9700003         1.97273361E-12
   14.0000000         2.06108676E-12
   14.0299997         2.07767983E-12
   14.0600004         2.01689945E-12
   14.0900002         1.87592346E-12
   14.1199999         1.65503624E-12
   14.1499996         1.35781490E-12
   14.1800003         9.91162556E-13
   14.2100000         5.65178655E-13
   14.2399998         9.28641048E-14
   14.2700005        -4.10328943E-13