  -10.0000000         1.00000002E-24
  -9.97000027         1.00000002E-24
  -9.93999958         1.00000002E-24
  -9.90999985         1.00000002E-24
  -9.88000011         1.00000002E-24
  -9.85000038         1.00000002E-24
  -9.81999969         1.00000002E-24
  -9.78999996         1.00000002E-24
  -9.76000023         1.00000002E-24
  -9.72999954         1.00000002E-24
  -9.69999981         1.00000002E-24
  -9.67000008         1.00000002E-24
  -9.64000034         1.00000002E-24
  -9.60999966         1.00000002E-24
  -9.57999992         1.00000002E-24
  -9.55000019         1.00000002E-24
  -9.52000046         1.00000002E-24
  -9.48999977         1.00000002E-24
  -9.46000004         1.00000012E-24
  -9.43000031         1.00000012E-24
  -9.39999962         1.00000012E-24
  -9.36999989         1.00000012E-24
  -9.34000015         1.00000012E-24
  -9.31000042         1.00000012E-24
  -9.27999973         1.00000012E-24
  -9.25000000         1.00000012E-24
  -9.22000027         1.00000012E-24
  -9.18999958         1.00000012E-24
  -9.15999985         1.00000012E-24
  -9.13000011         1.00000002E-24
  -9.10000038         1.00000002E-24
  -9.06999969         1.00000002E-24
  -9.03999996         1.00000002E-24
  -9.01000023         1.00000002E-24
  -8.97999954         1.00000002E-24
  -8.94999981         1.00000002E-24
  -8.92000008         1.00000012E-24
  -8.89000034         1.00000012E-24
  -8.85999966         1.00000022E-24
  -8.82999992         1.00000022E-24
  -8.80000019         1.00000022E-24
  -8.77000046         1.00000022E-24
  -8.73999977         1.00000032E-24
  -8.71000004         1.00000022E-24
  -8.68000031         1.00000022E-24
  -8.64999962         1.00000012E-24
  -8.61999989         1.00000012E-24
  -8.59000015         1.00000002E-24
  -8.56000042         9.99999921E-25
  -8.52999973         9.99999921E-25
  -8.50000000         9.99999822E-25
  -8.47000027         9.99999822E-25
  -8.43999958         9.99999822E-25
  -8.40999985         9.99999822E-25
  -8.38000011         9.99999921E-25
  -8.35000038         9.99999921E-25
  -8.31999969         1.00000002E-24
  -8.28999996         1.00000012E-24
  -8.26000023         1.00000012E-24
  -8.22999954         1.00000012E-24
  -8.19999981         1.00000022E-24
  -8.17000008         1.00000022E-24
  -8.14000034         1.00000022E-24
  -8.10999966         1.00000022E-24
  -8.07999992         1.00000012E-24
  -8.05000019         1.00000012E-24
  -8.02000046         1.00000002E-24
  -7.98999977         9.99999921E-25
  -7.96000004         9.99999921E-25
  -7.92999983         9.99999921E-25
  -7.90000010         9.99999921E-25
  -7.86999989         9.99999921E-25
  -7.84000015         9.99999822E-25
  -7.80999994         9.99999822E-25
  -7.78000021         9.99999822E-25
  -7.75000000         9.99999921E-25
  -7.71999979         1.00000002E-24
  -7.69000006         1.00000012E-24
  -7.65999985         1.00000012E-24
  -7.63000011         1.00000012E-24
  -7.59999990         1.00000022E-24
  -7.57000017         1.00000022E-24
  -7.53999996         1.00000022E-24
  -7.51000023         1.00000022E-24
  -7.48000002         1.00000022E-24
  -7.44999981         1.00000022E-24
  -7.42000008         1.00000022E-24
  -7.38999987         1.00000012E-24
  -7.36000013         1.00000022E-24
  -7.32999992         1.00000022E-24
  -7.30000019         1.00000012E-24
  -7.26999998         1.00000022E-24
  -7.23999977         1.00000022E-24
  -7.21000004         1.00000032E-24
  -7.17999983         1.00000032E-24
  -7.15000010         1.00000032E-24
  -7.11999989         1.00000032E-24
  -7.09000015         1.00000032E-24
  -7.05999994         1.00000032E-24
  -7.03000021         1.00000022E-24
  -7.00000000         1.00000012E-24
  -6.96999979         1.00000002E-24
  -6.94000006         9.99999921E-25
  -6.90999985         9.99999921E-25
  -6.88000011         9.99999822E-25
  -6.84999990         9.99999822E-25
  -6.82000017         9.99999921E-25
  -6.78999996         9.99999921E-25
  -6.76000023         1.00000002E-24
  -6.73000002         1.00000002E-24
  -6.69999981         1.00000012E-24
  -6.67000008         1.00000012E-24
  -6.63999987         1.00000012E-24
  -6.61000013         1.00000012E-24
  -6.57999992         1.00000012E-24
  -6.55000019         1.00000012E-24
  -6.51999998         1.00000002E-24
  -6.48999977         9.99999921E-25
  -6.46000004         9.99999921E-25
  -6.42999983         9.99999822E-25
  -6.40000010         9.99999724E-25
  -6.36999989         9.99999625E-25
  -6.34000015         9.99999527E-25
  -6.30999994         9.99999527E-25
  -6.28000021         9.99999428E-25
  -6.25000000         9.99999329E-25
  -6.21999979         9.99999231E-25
  -6.19000006         9.99999132E-25
  -6.15999985         9.99999033E-25
  -6.13000011         9.99999132E-25
  -6.09999990         9.99999132E-25
  -6.07000017         9.99999231E-25
  -6.03999996         9.99999329E-25
  -6.01000023         9.99999527E-25
  -5.98000002         9.99999625E-25
  -5.94999981         9.99999822E-25
  -5.92000008         9.99999921E-25
  -5.88999987         1.00000012E-24
  -5.86000013         1.00000022E-24
  -5.82999992         1.00000032E-24
  -5.80000019         1.00000032E-24
  -5.76999998         1.00000041E-24
  -5.73999977         1.00000041E-24
  -5.71000004         1.00000041E-24
  -5.67999983         1.00000041E-24
  -5.65000010         1.00000041E-24
  -5.61999989         1.00000041E-24
  -5.59000015         1.00000032E-24
  -5.55999994         1.00000022E-24
  -5.53000021         1.00000012E-24
  -5.50000000         1.00000002E-24
  -5.46999979         9.99999921E-25
  -5.44000006         9.99999724E-25
  -5.40999985         9.99999625E-25
  -5.38000011         9.99999527E-25
  -5.34999990         9.99999428E-25
  -5.32000017         9.99999428E-25
  -5.28999996         9.99999428E-25
  -5.26000023         9.99999527E-25
  -5.23000002         9.99999724E-25
  -5.19999981         9.99999921E-25
  -5.17000008         1.00000012E-24
  -5.13999987         1.00000032E-24
  -5.11000013         1.00000041E-24
  -5.07999992         1.00000061E-24
  -5.05000019         1.00000071E-24
  -5.01999998         1.00000081E-24
  -4.98999977         1.00000081E-24
  -4.96000004         1.00000071E-24
  -4.92999983         1.00000061E-24
  -4.90000010         1.00000061E-24
  -4.86999989         1.00000051E-24
  -4.84000015         1.00000061E-24
  -4.80999994         1.00000061E-24
  -4.78000021         1.00000061E-24
  -4.75000000         1.00000061E-24
  -4.71999979         1.00000051E-24
  -4.69000006         1.00000032E-24
  -4.65999985         1.00000022E-24
  -4.63000011         1.00000002E-24
  -4.59999990         9.99999724E-25
  -4.57000017         9.99999625E-25
  -4.53999996         9.99999527E-25
  -4.51000023         9.99999527E-25
  -4.48000002         9.99999527E-25
  -4.44999981         9.99999724E-25
  -4.42000008         9.99999921E-25
  -4.38999987         1.00000022E-24
  -4.36000013         1.00000041E-24
  -4.32999992         1.00000071E-24
  -4.30000019         1.00000091E-24
  -4.26999998         1.00000091E-24
  -4.23999977         1.00000071E-24
  -4.21000004         1.00000041E-24
  -4.17999983         9.99999822E-25
  -4.15000010         9.99999132E-25
  -4.11999989         9.99998245E-25
  -4.09000015         9.99997160E-25
  -4.05999994         9.99996075E-25
  -4.03000021         9.99994695E-25
  -4.00000000         9.99993413E-25
  -3.97000003         9.99992328E-25
  -3.94000006         9.99991342E-25
  -3.91000009         9.99990849E-25
  -3.88000011         9.99990849E-25
  -3.84999990         9.99991638E-25
  -3.81999993         9.99993511E-25
  -3.78999996         9.99996667E-25
  -3.75999999         1.00000101E-24
  -3.73000002         1.00000672E-24
  -3.70000005         1.00001382E-24
  -3.67000008         1.00002211E-24
  -3.64000010         1.00003128E-24
  -3.60999990         1.00004094E-24
  -3.57999992         1.00005061E-24
  -3.54999995         1.00005938E-24
  -3.51999998         1.00006648E-24
  -3.49000001         1.00007072E-24
  -3.46000004         1.00007102E-24
  -3.43000007         1.00006638E-24
  -3.40000010         1.00005554E-24
  -3.36999989         1.00003749E-24
  -3.33999991         1.00001136E-24
  -3.30999994         9.99976551E-25
  -3.27999997         9.99932769E-25
  -3.25000000         9.99880113E-25
  -3.22000003         9.99819568E-25
  -3.19000006         9.99752416E-25
  -3.16000009         9.99681221E-25
  -3.13000011         9.99609238E-25
  -3.09999990         9.99541100E-25
  -3.06999993         9.99482132E-25
  -3.03999996         9.99439435E-25
  -3.00999999         9.99420897E-25
  -2.98000002         9.99435392E-25
  -2.95000005         9.99492782E-25
  -2.92000008         9.99602927E-25
  -2.89000010         9.99775786E-25
  -2.85999990         1.00002033E-24
  -2.82999992         1.00034317E-24
  -2.79999995         1.00074825E-24
  -2.76999998         1.00123449E-24
  -2.74000001         1.00179507E-24
  -2.71000004         1.00241522E-24
  -2.68000007         1.00307096E-24
  -2.65000010         1.00372699E-24
  -2.61999989         1.00433639E-24
  -2.58999991         1.00483899E-24
  -2.55999994         1.00516203E-24
  -2.52999997         1.00522129E-24
  -2.50000000         1.00492340E-24
  -2.47000003         1.00417023E-24
  -2.44000006         1.00286487E-24
  -2.41000009         1.00091973E-24
  -2.38000011         9.98266794E-25
  -2.34999990         9.94869564E-25
  -2.31999993         9.90736722E-25
  -2.28999996         9.85937391E-25
  -2.25999999         9.80614453E-25
  -2.23000002         9.74999144E-25
  -2.20000005         9.69421108E-25
  -2.17000008         9.64313727E-25
  -2.14000010         9.60214411E-25
  -2.10999990         9.57753658E-25
  -2.07999992         9.57635231E-25
  -2.04999995         9.60603123E-25
  -2.01999998         9.67394229E-25
  -1.99000001         9.78678884E-25
  -1.96000004         9.94986315E-25
  -1.92999995         1.01662132E-24
  -1.89999998         1.04357275E-24
  -1.87000000         1.07542124E-24
  -1.84000003         1.11125258E-24
  -1.80999994         1.14958619E-24
  -1.77999997         1.18832705E-24
  -1.75000000         1.22475349E-24
  -1.72000003         1.25554944E-24
  -1.69000006         1.27689247E-24
  -1.65999997         1.28460181E-24
  -1.63000000         1.27435431E-24
  -1.60000002         1.24196575E-24
  -1.57000005         1.18373312E-24
  -1.53999996         1.09682668E-24
  -1.50999999         9.79715645E-25
  -1.48000002         8.32602158E-25
  -1.45000005         6.57835004E-25
  -1.41999996         4.60269523E-25
  -1.38999999         2.47534790E-25
  -1.36000001         3.01708327E-26
  -1.33000004        -1.78401991E-25
  -1.29999995        -3.62113780E-25
  -1.26999998        -5.02702499E-25
  -1.24000001        -5.80413779E-25
  -1.21000004        -5.74945839E-25
  -1.17999995        -4.66627841E-25
  -1.14999998        -2.37804536E-25
  -1.12000000         1.25618358E-25
  -1.09000003         6.32529579E-25
  -1.05999994         1.28494585E-24
  -1.02999997         2.07641345E-24
  -1.00000000         2.99058274E-24
 -0.970000029         4.00006240E-24
 -0.939999998         5.06566557E-24
 -0.910000026         6.13616678E-24
 -0.879999995         7.14866857E-24
 -0.850000024         8.02968341E-24
 -0.819999993         8.69700452E-24
 -0.790000021         9.06244039E-24
 -0.759999990         9.03543847E-24
 -0.730000019         8.52760926E-24
 -0.699999988         7.45811425E-24
 -0.670000017         5.75983398E-24
 -0.639999986         3.38618386E-24
 -0.610000014         3.18367350E-25
 -0.579999983        -3.42720344E-24
 -0.550000012        -7.79168408E-24
 -0.519999981        -1.26672129E-23
 -0.490000010        -1.78914821E-23
 -0.460000008        -2.32440958E-23
 -0.430000007        -2.84453618E-23
 -0.400000006        -3.31582441E-23
 -0.370000005        -3.69941844E-23
 -0.340000004        -3.95234270E-23
 -0.310000002        -4.02904396E-23
 -0.280000001        -3.88347704E-23
 -0.250000000        -3.47174024E-23
 -0.219999999        -2.75524312E-23
 -0.189999998        -1.70433225E-23
 -0.159999996        -3.02258524E-24
 -0.129999995         1.45068428E-23
 -0.100000001         3.53307986E-23
  -7.00000003E-02     5.89865188E-23
  -3.99999991E-02     8.47319537E-23
  -9.99999978E-03     1.11525482E-22
   1.99999996E-02     1.38019798E-22
   5.00000007E-02     1.62573744E-22
   7.99999982E-02     1.83285621E-22
  0.109999999         1.98050573E-22
  0.140000001         2.04644138E-22
  0.170000002         2.00832008E-22
  0.200000003         1.84505188E-22
  0.230000004         1.53837166E-22
  0.259999990         1.07457863E-22
  0.289999992         4.46370538E-23
  0.319999993        -3.45326417E-23
  0.349999994        -1.28964521E-22
  0.379999995        -2.36431635E-22
  0.409999996        -3.53459920E-22
  0.439999998        -4.75275241E-22
  0.469999999        -5.95818135E-22
  0.500000000        -7.07839109E-22
  0.529999971        -8.03084787E-22
  0.560000002        -8.72580126E-22
  0.589999974        -9.07010408E-22
  0.620000005        -8.97196928E-22
  0.649999976        -8.34658257E-22
  0.680000007        -7.12238252E-22
  0.709999979        -5.24778093E-22
  0.740000010        -2.69800098E-22
  0.769999981         5.18331818E-23
  0.800000012         4.35327728E-22
  0.829999983         8.71480113E-22
  0.860000014         1.34636075E-21
  0.889999986         1.84120751E-21
  0.920000017         2.33256774E-21
  0.949999988         2.79273219E-21
  0.980000019         3.19048126E-21
   1.00999999         3.49216187E-21
   1.03999996         3.66309179E-21
   1.07000005         3.66926657E-21
   1.10000002         3.47933855E-21
   1.13000000         3.06679494E-21
   1.15999997         2.41225597E-21
   1.19000006         1.50579304E-21
   1.22000003         3.49139411E-22
   1.25000000        -1.04233683E-21
   1.27999997        -2.63804881E-21
   1.30999994        -4.39113594E-21
   1.34000003        -6.23808646E-21
   1.37000000        -8.09917095E-21
   1.39999998        -9.87978788E-21
   1.42999995        -1.14728117E-20
   1.46000004        -1.27619832E-20
   1.49000001        -1.36263369E-20
   1.51999998        -1.39456108E-20
   1.54999995        -1.36065233E-20
   1.58000004        -1.25097521E-20
   1.61000001        -1.05773742E-20
   1.63999999        -7.76046068E-21
   1.66999996        -4.04650940E-21
   1.70000005         5.33715975E-22
   1.73000002         5.90035484E-21
   1.75999999         1.19200709E-20
   1.78999996         1.84036038E-20
   1.82000005         2.51056764E-20
   1.85000002         3.17276756E-20
   1.88000000         3.79234070E-20
   1.90999997         4.33082397E-20
   1.94000006         4.74716918E-20
   1.97000003         4.99934876E-20
   2.00000000         5.04628835E-20
   2.02999997         4.85008628E-20
   2.05999994         4.37846344E-20
   2.08999991         3.60735468E-20
   2.11999989         2.52354484E-20
   2.15000010         1.12721485E-20
   2.18000007        -5.65740446E-21
   2.21000004        -2.52179209E-20
   2.24000001        -4.68841674E-20
   2.26999998        -6.99347668E-20
   2.29999995        -9.34549949E-20
   2.32999992        -1.16350049E-19
   2.35999990        -1.37370104E-19
   2.39000010        -1.55147624E-19
   2.42000008        -1.68247567E-19
   2.45000005        -1.75229553E-19
   2.48000002        -1.74721147E-19
   2.50999999        -1.65500048E-19
   2.53999996        -1.46582324E-19
   2.56999993        -1.17312861E-19
   2.59999990        -7.74535026E-20
   2.63000011        -2.72638310E-20
   2.66000009         3.24312703E-20
   2.69000006         1.00192891E-19
   2.72000003         1.73944037E-19
   2.75000000         2.50975464E-19
   2.77999997         3.27985514E-19
   2.80999994         4.01157730E-19
   2.83999991         4.66276490E-19
   2.86999989         5.18881713E-19
   2.90000010         5.54459009E-19
   2.93000007         5.68660512E-19
   2.96000004         5.57549098E-19
   2.99000001         5.17856733E-19
   3.01999998         4.47244822E-19
   3.04999995         3.44553580E-19
   3.07999992         2.10026340E-19
   3.10999990         4.54938609E-20
   3.14000010        -1.45495616E-19
   3.17000008        -3.57613934E-19
   3.20000005        -5.83769844E-19
   3.23000002        -8.15213377E-19
   3.25999999        -1.04173338E-18
   3.28999996        -1.25195047E-18
   3.31999993        -1.43370170E-18
   3.34999990        -1.57450986E-18
   3.38000011        -1.66212669E-18
   3.41000009        -1.68513131E-18
   3.44000006        -1.63356611E-18
   3.47000003        -1.49958446E-18
   3.50000000        -1.27808255E-18
   3.52999997        -9.67288155E-19
   3.55999994        -5.69273711E-19
   3.58999991        -9.03633944E-20
   3.61999989         4.58595291E-19
   3.65000010         1.06212514E-18
   3.68000007         1.70020306E-18
   3.71000004         2.34855415E-18
   3.74000001         2.97917349E-18
   3.76999998         3.56108202E-18
   3.79999995         4.06131950E-18
   3.82999992         4.44616031E-18
   3.85999990         4.68253627E-18
   3.89000010         4.73962910E-18
   3.92000008         4.59058977E-18
   3.95000005         4.21431978E-18
   3.98000002         3.59724884E-18
   4.01000023         2.73501748E-18
   4.03999996         1.63396802E-18
   4.07000017         3.12353119E-19
   4.09999990        -1.19885799E-18
   4.13000011        -2.85566694E-18
   4.15999985        -4.60132244E-18
   4.19000006        -6.36726743E-18
   4.21999979        -8.07480231E-18
   4.25000000        -9.63749290E-18
   4.28000021        -1.09643105E-17
   4.30999994        -1.19634313E-17
   4.34000015        -1.25466193E-17
   4.36999989        -1.26340043E-17
   4.40000010        -1.21590943E-17
   4.42999983        -1.10737580E-17
   4.46000004        -9.35291630E-18
   4.48999977        -6.99865688E-18
   4.51999998        -4.04347183E-18
   4.55000019        -5.52333414E-19
   4.57999992         3.37663998E-18
   4.61000013         7.61313048E-18
   4.63999987         1.19973250E-17
   4.67000008         1.63444139E-17
   4.69999981         2.04508512E-17
   4.73000002         2.41022299E-17
   4.76000023         2.70825169E-17
   4.78999996         2.91843018E-17
   4.82000017         3.02196176E-17
   4.84999990         3.00308352E-17
   4.88000011         2.85010705E-17
   4.90999985         2.55635271E-17
   4.94000006         2.12092302E-17
   4.96999979         1.54926247E-17
   5.00000000         8.53461051E-18
   5.03000021         5.22672578E-19
   5.05999994        -8.29209356E-18
   5.09000015        -1.76011246E-17
   5.11999989        -2.70476017E-17
   5.15000010        -3.62384882E-17
   5.17999983        -4.47590209E-17
   5.21000004        -5.21890814E-17
   5.23999977        -5.81208994E-17
   5.26999998        -6.21773005E-17
   5.30000019        -6.40298079E-17
   5.32999992        -6.34158546E-17
   5.36000013        -6.01542550E-17
   5.38999987        -5.41584065E-17
   5.42000008        -4.54464808E-17
   5.44999981        -3.41481134E-17
   5.48000002        -2.05072384E-17
   5.51000023        -4.88067829E-18
   5.53999996         1.22676452E-17
   5.57000017         3.03768812E-17
   5.59999990         4.88038447E-17
   5.63000011         6.68417257E-17
   5.65999985         8.37426535E-17
   5.69000006         9.87436202E-17
   5.71999979         1.11095147E-16
   5.75000000         1.20092014E-16
   5.78000021         1.25104927E-16
   5.80999994         1.25612313E-16
   5.84000015         1.21230717E-16
   5.86999989         1.11742585E-16
   5.90000010         9.71198581E-17
   5.92999983         7.75419819E-17
   5.96000004         5.34065291E-17
   5.98999977         2.53314269E-17
   6.01999998        -5.85266183E-18
   6.05000019        -3.91203920E-17
   6.07999992        -7.32806518E-17
   6.11000013        -1.07016055E-16
   6.13999987        -1.38932065E-16
   6.17000008        -1.67614188E-16
   6.19999981        -1.91690994E-16
   6.23000002        -2.09899966E-16
   6.26000023        -2.21152878E-16
   6.28999996        -2.24596900E-16
   6.32000017        -2.19667817E-16
   6.34999990        -2.06131384E-16
   6.38000011        -1.84110248E-16
   6.40999985        -1.54093345E-16
   6.44000006        -1.16926863E-16
   6.46999979        -7.37860856E-17
   6.50000000        -2.61293286E-17
   6.53000021         2.43641053E-17
   6.55999994         7.58684896E-17
   6.59000015         1.26494484E-16
   6.61999989         1.74375338E-16
   6.65000010         2.17751379E-16
   6.67999983         2.55047470E-16
   6.71000004         2.84938892E-16
   6.73999977         3.06402019E-16
   6.76999998         3.18747048E-16
   6.80000019         3.21631301E-16
   6.82999992         3.15053746E-16
   6.86000013         2.99331491E-16
   6.88999987         2.75061244E-16
   6.92000008         2.43069498E-16
   6.94999981         2.04354944E-16
   6.98000002         1.60028069E-16
   7.01000023         1.11251743E-16
   7.03999996         5.91868706E-17
   7.07000017         4.94608222E-18
   7.09999990        -5.04420031E-17
   7.13000011        -1.06056413E-16
   7.15999985        -1.61094496E-16
   7.19000006        -2.14869495E-16
   7.21999979        -2.66795367E-16
   7.25000000        -3.16359580E-16
   7.28000021        -3.63085384E-16
   7.30999994        -4.06484653E-16
   7.34000015        -4.46004087E-16
   7.36999989        -4.80967224E-16
   7.40000010        -5.10516339E-16
   7.42999983        -5.33558600E-16
   7.46000004        -5.48723455E-16
   7.48999977        -5.54337271E-16
   7.51999998        -5.48423393E-16
   7.55000019        -5.28736706E-16
   7.57999992        -4.92837968E-16
   7.61000013        -4.38215883E-16
   7.63999987        -3.62458157E-16
   7.67000008        -2.63471186E-16
   7.69999981        -1.39741722E-16
   7.73000002         9.37072715E-18
   7.76000023         1.83329852E-16
   7.78999996         3.80129276E-16
   7.82000017         5.96038609E-16
   7.84999990         8.25419102E-16
   7.88000011         1.06063983E-15
   7.90999985         1.29212229E-15
   7.94000006         1.50853466E-15
   7.96999979         1.69715121E-15
   8.00000000         1.84437443E-15
   8.02999973         1.93641240E-15
   8.06000042         1.96008146E-15
   8.09000015         1.90369744E-15
   8.11999989         1.75799952E-15
   8.14999962         1.51705126E-15
   8.18000031         1.17904932E-15
   8.21000004         7.46976704E-16
   8.23999977         2.29040356E-16
   8.27000046        -3.61153726E-16
   8.30000019        -1.00472528E-15
   8.32999992        -1.67795565E-15
   8.35999966        -2.35303381E-15
   8.39000034        -2.99908638E-15
   8.42000008        -3.58345081E-15
   8.44999981        -4.07312987E-15
   8.47999954        -4.43636471E-15
   8.51000023        -4.64424946E-15
   8.53999996        -4.67230828E-15
   8.56999969        -4.50196699E-15
   8.60000038        -4.12185629E-15
   8.63000011        -3.52888495E-15
   8.65999985        -2.72903767E-15
   8.68999958        -1.73786734E-15
   8.72000027        -5.80648497E-16
   8.75000000         7.07829912E-16
   8.77999973         2.08384632E-15
   8.81000042         3.49571789E-15
   8.84000015         4.88517231E-15
   8.86999989         6.18911601E-15
   8.89999962         7.34180376E-15
   8.93000031         8.27737621E-15
   8.96000004         8.93273069E-15
   8.98999977         9.25065349E-15
   9.02000046         9.18311532E-15
   9.05000019         8.69460008E-15
   9.07999992         7.76529059E-15
   9.10999966         6.39392731E-15
   9.14000034         4.60012667E-15
   9.17000008         2.42592523E-15
   9.19999981        -6.36452748E-17
   9.22999954        -2.78114141E-15
   9.26000023        -5.61857749E-15
   9.28999996        -8.45065883E-15
   9.31999969        -1.11393455E-14
   9.35000038        -1.35396506E-14
   9.38000011        -1.55064661E-14
   9.40999985        -1.69021223E-14
   9.43999958        -1.76043042E-14
   9.47000027        -1.75139037E-14
   9.50000000        -1.65623283E-14
   9.52999973        -1.47177989E-14
   9.56000042        -1.19902122E-14
   9.59000015        -8.43416879E-15
   9.61999989        -4.14988249E-15
   9.64999962         7.18209453E-16
   9.68000031         5.98520172E-15
   9.71000004         1.14317616E-14
   9.73999977         1.68122674E-14
   9.77000046         2.18647156E-14
   9.80000019         2.63219893E-14
   9.82999992         2.99240206E-14
   9.85999966         3.24302657E-14
   9.89000034         3.36320022E-14
   9.92000008         3.33638417E-14
   9.94999981         3.15139760E-14
   9.97999954         2.80327095E-14
   10.0100002         2.29387940E-14
   10.0400000         1.63233583E-14
   10.0699997         8.35107909E-15
   10.1000004        -7.41490472E-16
   10.1300001        -1.06505576E-14
   10.1599998        -2.10126529E-14
   10.1899996        -3.14150358E-14
   10.2200003        -4.14087608E-14
   10.2500000        -5.05240957E-14
   10.2799997        -5.82880098E-14
   10.3100004        -6.42431461E-14
   10.3400002        -6.79678685E-14
   10.3699999        -6.90965907E-14
   10.3999996        -6.73398240E-14
   10.4300003        -6.25029135E-14
   10.4600000        -5.45028330E-14
   10.4899998        -4.33819884E-14
   10.5200005        -2.93181955E-14
   10.5500002        -1.26299770E-14
   10.5799999         6.22353011E-15
   10.6099997         2.66487289E-14
   10.6400003         4.79301149E-14
   10.6700001         6.92493683E-14
   10.6999998         8.97109332E-14
   10.7299995         1.08373461E-13
   10.7600002         1.24286364E-13
   10.7900000         1.36530300E-13
   10.8199997         1.44260038E-13
   10.8500004         1.46747821E-13
   10.8800001         1.43425243E-13
   10.9099998         1.33921628E-13
   10.9399996         1.18096383E-13
   10.9700003         9.60636667E-14
   11.0000000         6.82072671E-14
   11.0299997         3.51845018E-14
   11.0600004        -2.08201715E-15
   11.0900002        -4.24248852E-14
   11.1199999        -8.44645873E-14
   11.1499996        -1.26653191E-13
   11.1800003        -1.67327903E-13
   11.2100000        -2.04771896E-13
   11.2399998        -2.37280519E-13
   11.2700005        -2.63229597E-13
   11.3000002        -2.81143571E-13
   11.3299999        -2.89760213E-13
   11.3599997        -2.88089566E-13
   11.3900003        -2.75465116E-13
   11.4200001        -2.51584994E-13
   11.4499998        -2.16542157E-13
   11.4799995        -1.70842453E-13
   11.5100002        -1.15410109E-13
   11.5400000        -5.15800747E-14
   11.5699997         1.89224772E-14
   11.6000004         9.40157986E-14
   11.6300001         1.71308131E-13
   11.6599998         2.48157126E-13
   11.6899996         3.21741765E-13
   11.7200003         3.89146099E-13
   11.7500000         4.47454275E-13
   11.7799997         4.93854849E-13
   11.8100004         5.25752239E-13
   11.8400002         5.40882551E-13
   11.8699999         5.37428500E-13
   11.8999996         5.14130188E-13
   11.9300003         4.70383552E-13
   11.9600000         4.06322518E-13
   11.9899998         3.22876871E-13
   12.0200005         2.21800714E-13
   12.0500002         1.05666208E-13
   12.0799999        -2.21801727E-14
   12.1099997        -1.57700974E-13
   12.1400003        -2.96289143E-13
   12.1700001        -4.32924096E-13
   12.1999998        -5.62356856E-13
   12.2299995        -6.79315599E-13
   12.2600002        -7.78722573E-13
   12.2900000        -8.55910937E-13
   12.3199997        -9.06831034E-13
   12.3500004        -9.28236112E-13
   12.3800001        -9.17837746E-13
   12.4099998        -8.74424123E-13
   12.4399996        -7.97937725E-13
   12.4700003        -6.89507913E-13
   12.5000000        -5.51441596E-13
   12.5299997        -3.87171984E-13
   12.5600004        -2.01170040E-13
   12.5900002         1.17565590E-15
   12.6199999         2.13707063E-13
   12.6499996         4.29667125E-13
   12.6800003         6.41888940E-13
   12.7100000         8.43000040E-13
   12.7399998         1.02563943E-12
   12.7700005         1.18268503E-12
   12.8000002         1.30748906E-12
   12.8299999         1.39411800E-12
   12.8599997         1.43759202E-12
   12.8900003         1.43411693E-12
   12.9200001         1.38130013E-12
   12.9499998         1.27833909E-12
   12.9799995         1.12616849E-12
   13.0100002         9.27555884E-13
   13.0400000         6.87129119E-13
   13.0699997         4.11329228E-13
   13.1000004         1.08277997E-13
   13.1300001        -2.12440227E-13
   13.1599998        -5.40079212E-13
   13.1899996        -8.63106028E-13
   13.2200003        -1.16963470E-12
   13.2500000        -1.44789822E-12
   13.2799997        -1.68673550E-12
   13.3100004        -1.87606701E-12
   13.3400002        -2.00733375E-12
   13.3699999        -2.07387688E-12
   13.3999996        -2.07123663E-12
   13.4300003        -1.99735931E-12
   13.4600000        -1.85270419E-12
   13.4899998        -1.64024989E-12
   13.5200005        -1.36540410E-12
   13.5500002        -1.03583017E-12
   13.5799999        -6.61200803E-13
   13.6099997        -2.52894900E-13
   13.6400003         1.76347584E-13
   13.6700001         6.12802018E-13
   13.6999998         1.04215562E-12
   13.7299995         1.44991842E-12
   13.7600002         1.82184498E-12
   13.7900000         2.14436390E-12
   13.8199997         2.40501282E-12
   13.8500004         2.59287448E-12
   13.8800001         2.69900617E-12
   13.9099998         2.71684975E-12
   13.9399996         2.64260467E-12
   13.9700003         2.47554061E-12
   14.0000000         2.21822690E-12
   14.0299997         1.87664944E-12
   14.0600004         1.46019123E-12
   14.0900002         9.81460139E-13
   14.1199999         4.55950219E-13
   14.1499996        -9.84599839E-14
   14.1800003        -6.62160647E-13
   14.2100000        -1.21458637E-12
   14.2399998        -1.73507779E-12
   14.2700005        -2.20377948E-12