  -10.0000000         1.00000002E-24
  -9.97000027         1.00000002E-24
  -9.93999958         1.00000002E-24
  -9.90999985         1.00000002E-24
  -9.88000011         1.00000002E-24
  -9.85000038         1.00000002E-24
  -9.81999969         1.00000012E-24
  -9.78999996         1.00000012E-24
  -9.76000023         1.00000012E-24
  -9.72999954         1.00000012E-24
  -9.69999981         1.00000012E-24
  -9.67000008         1.00000012E-24
  -9.64000034         1.00000012E-24
  -9.60999966         1.00000012E-24
  -9.57999992         1.00000002E-24
  -9.55000019         1.00000002E-24
  -9.52000046         9.99999921E-25
  -9.48999977         9.99999921E-25
  -9.46000004         9.99999921E-25
  -9.43000031         9.99999921E-25
  -9.39999962         1.00000002E-24
  -9.36999989         1.00000002E-24
  -9.34000015         1.00000002E-24
  -9.31000042         1.00000012E-24
  -9.27999973         1.00000012E-24
  -9.25000000         1.00000022E-24
  -9.22000027         1.00000022E-24
  -9.18999958         1.00000022E-24
  -9.15999985         1.00000022E-24
  -9.13000011         1.00000012E-24
  -9.10000038         1.00000012E-24
  -9.06999969         1.00000012E-24
  -9.03999996         1.00000002E-24
  -9.01000023         1.00000002E-24
  -8.97999954         9.99999921E-25
  -8.94999981         9.99999921E-25
  -8.92000008         9.99999921E-25
  -8.89000034         1.00000002E-24
  -8.85999966         1.00000002E-24
  -8.82999992         1.00000012E-24
  -8.80000019         1.00000022E-24
  -8.77000046         1.00000032E-24
  -8.73999977         1.00000041E-24
  -8.71000004         1.00000051E-24
  -8.68000031         1.00000041E-24
  -8.64999962         1.00000041E-24
  -8.61999989         1.00000022E-24
  -8.59000015         1.00000022E-24
  -8.56000042         1.00000012E-24
  -8.52999973         1.00000012E-24
  -8.50000000         1.00000002E-24
  -8.47000027         1.00000002E-24
  -8.43999958         1.00000002E-24
  -8.40999985         1.00000012E-24
  -8.38000011         1.00000032E-24
  -8.35000038         1.00000041E-24
  -8.31999969         1.00000051E-24
  -8.28999996         1.00000051E-24
  -8.26000023         1.00000051E-24
  -8.22999954         1.00000041E-24
  -8.19999981         1.00000032E-24
  -8.17000008         1.00000022E-24
  -8.14000034         1.00000012E-24
  -8.10999966         9.99999921E-25
  -8.07999992         9.99999822E-25
  -8.05000019         9.99999625E-25
  -8.02000046         9.99999527E-25
  -7.98999977         9.99999527E-25
  -7.96000004         9.99999527E-25
  -7.92999983         9.99999625E-25
  -7.90000010         9.99999625E-25
  -7.86999989         9.99999625E-25
  -7.84000015         9.99999625E-25
  -7.80999994         9.99999625E-25
  -7.78000021         9.99999625E-25
  -7.75000000         9.99999724E-25
  -7.71999979         9.99999724E-25
  -7.69000006         9.99999724E-25
  -7.65999985         9.99999724E-25
  -7.63000011         9.99999724E-25
  -7.59999990         9.99999724E-25
  -7.57000017         9.99999724E-25
  -7.53999996         9.99999822E-25
  -7.51000023         9.99999921E-25
  -7.48000002         1.00000002E-24
  -7.44999981         1.00000012E-24
  -7.42000008         1.00000022E-24
  -7.38999987         1.00000032E-24
  -7.36000013         1.00000041E-24
  -7.32999992         1.00000041E-24
  -7.30000019         1.00000041E-24
  -7.26999998         1.00000041E-24
  -7.23999977         1.00000032E-24
  -7.21000004         1.00000032E-24
  -7.17999983         1.00000022E-24
  -7.15000010         1.00000022E-24
  -7.11999989         1.00000012E-24
  -7.09000015         1.00000012E-24
  -7.05999994         1.00000012E-24
  -7.03000021         1.00000022E-24
  -7.00000000         1.00000022E-24
  -6.96999979         1.00000022E-24
  -6.94000006         1.00000032E-24
  -6.90999985         1.00000032E-24
  -6.88000011         1.00000032E-24
  -6.84999990         1.00000032E-24
  -6.82000017         1.00000032E-24
  -6.78999996         1.00000041E-24
  -6.76000023         1.00000041E-24
  -6.73000002         1.00000032E-24
  -6.69999981         1.00000032E-24
  -6.67000008         1.00000032E-24
  -6.63999987         1.00000032E-24
  -6.61000013         1.00000041E-24
  -6.57999992         1.00000041E-24
  -6.55000019         1.00000051E-24
  -6.51999998         1.00000051E-24
  -6.48999977         1.00000061E-24
  -6.46000004         1.00000061E-24
  -6.42999983         1.00000061E-24
  -6.40000010         1.00000051E-24
  -6.36999989         1.00000041E-24
  -6.34000015         1.00000022E-24
  -6.30999994         1.00000012E-24
  -6.28000021         9.99999921E-25
  -6.25000000         9.99999822E-25
  -6.21999979         9.99999625E-25
  -6.19000006         9.99999428E-25
  -6.15999985         9.99999329E-25
  -6.13000011         9.99999231E-25
  -6.09999990         9.99999132E-25
  -6.07000017         9.99999231E-25
  -6.03999996         9.99999329E-25
  -6.01000023         9.99999527E-25
  -5.98000002         9.99999822E-25
  -5.94999981         1.00000002E-24
  -5.92000008         1.00000041E-24
  -5.88999987         1.00000061E-24
  -5.86000013         1.00000081E-24
  -5.82999992         1.00000081E-24
  -5.80000019         1.00000081E-24
  -5.76999998         1.00000081E-24
  -5.73999977         1.00000071E-24
  -5.71000004         1.00000041E-24
  -5.67999983         1.00000012E-24
  -5.65000010         1.00000002E-24
  -5.61999989         9.99999724E-25
  -5.59000015         9.99999625E-25
  -5.55999994         9.99999625E-25
  -5.53000021         9.99999625E-25
  -5.50000000         9.99999724E-25
  -5.46999979         9.99999921E-25
  -5.44000006         1.00000012E-24
  -5.40999985         1.00000032E-24
  -5.38000011         1.00000061E-24
  -5.34999990         1.00000071E-24
  -5.32000017         1.00000081E-24
  -5.28999996         1.00000071E-24
  -5.26000023         1.00000061E-24
  -5.23000002         1.00000041E-24
  -5.19999981         1.00000022E-24
  -5.17000008         1.00000002E-24
  -5.13999987         9.99999822E-25
  -5.11000013         9.99999724E-25
  -5.07999992         9.99999625E-25
  -5.05000019         9.99999625E-25
  -5.01999998         9.99999724E-25
  -4.98999977         9.99999724E-25
  -4.96000004         9.99999822E-25
  -4.92999983         9.99999822E-25
  -4.90000010         9.99999822E-25
  -4.86999989         9.99999822E-25
  -4.84000015         9.99999724E-25
  -4.80999994         9.99999625E-25
  -4.78000021         9.99999527E-25
  -4.75000000         9.99999428E-25
  -4.71999979         9.99999231E-25
  -4.69000006         9.99999132E-25
  -4.65999985         9.99999033E-25
  -4.63000011         9.99998935E-25
  -4.59999990         9.99998935E-25
  -4.57000017         9.99999033E-25
  -4.53999996         9.99999132E-25
  -4.51000023         9.99999231E-25
  -4.48000002         9.99999428E-25
  -4.44999981         9.99999428E-25
  -4.42000008         9.99999428E-25
  -4.38999987         9.99999428E-25
  -4.36000013         9.99999329E-25
  -4.32999992         9.99999132E-25
  -4.30000019         9.99998935E-25
  -4.26999998         9.99998836E-25
  -4.23999977         9.99998738E-25
  -4.21000004         9.99998935E-25
  -4.17999983         9.99999132E-25
  -4.15000010         9.99999724E-25
  -4.11999989         1.00000051E-24
  -4.09000015         1.00000150E-24
  -4.05999994         1.00000278E-24
  -4.03000021         1.00000426E-24
  -4.00000000         1.00000584E-24
  -3.97000003         1.00000751E-24
  -3.94000006         1.00000899E-24
  -3.91000009         1.00001018E-24
  -3.88000011         1.00001087E-24
  -3.84999990         1.00001087E-24
  -3.81999993         1.00000998E-24
  -3.78999996         1.00000811E-24
  -3.75999999         1.00000505E-24
  -3.73000002         1.00000081E-24
  -3.70000005         9.99995286E-25
  -3.67000008         9.99988581E-25
  -3.64000010         9.99980791E-25
  -3.60999990         9.99972311E-25
  -3.57999992         9.99963239E-25
  -3.54999995         9.99954167E-25
  -3.51999998         9.99945785E-25
  -3.49000001         9.99938784E-25
  -3.46000004         9.99933952E-25
  -3.43000007         9.99932375E-25
  -3.40000010         9.99935136E-25
  -3.36999989         9.99943123E-25
  -3.33999991         9.99957618E-25
  -3.30999994         9.99979411E-25
  -3.27999997         1.00000929E-24
  -3.25000000         1.00004755E-24
  -3.22000003         1.00009419E-24
  -3.19000006         1.00014852E-24
  -3.16000009         1.00020936E-24
  -3.13000011         1.00027454E-24
  -3.09999990         1.00034081E-24
  -3.06999993         1.00040431E-24
  -3.03999996         1.00045973E-24
  -3.00999999         1.00050114E-24
  -2.98000002         1.00052146E-24
  -2.95000005         1.00051288E-24
  -2.92000008         1.00046732E-24
  -2.89000010         1.00037621E-24
  -2.85999990         1.00023185E-24
  -2.82999992         1.00002733E-24
  -2.79999995         9.99757642E-25
  -2.76999998         9.99420503E-25
  -2.74000001         9.99017395E-25
  -2.71000004         9.98554728E-25
  -2.68000007         9.98044532E-25
  -2.65000010         9.97506332E-25
  -2.61999989         9.96967540E-25
  -2.58999991         9.96464444E-25
  -2.55999994         9.96042896E-25
  -2.52999997         9.95757624E-25
  -2.50000000         9.95672230E-25
  -2.47000003         9.95857119E-25
  -2.44000006         9.96386544E-25
  -2.41000009         9.97335346E-25
  -2.38000011         9.98772651E-25
  -2.34999990         1.00075535E-24
  -2.31999993         1.00331945E-24
  -2.28999996         1.00647016E-24
  -2.25999999         1.01017100E-24
  -2.23000002         1.01433234E-24
  -2.20000005         1.01880025E-24
  -2.17000008         1.02334725E-24
  -2.14000010         1.02766498E-24
  -2.10999990         1.03136188E-24
  -2.07999992         1.03396660E-24
  -2.04999995         1.03493877E-24
  -2.01999998         1.03369020E-24
  -1.99000001         1.02961494E-24
  -1.96000004         1.02213319E-24
  -1.92999995         1.01074421E-24
  -1.89999998         9.95090840E-25
  -1.87000000         9.75032473E-25
  -1.84000003         9.50721358E-25
  -1.80999994         9.22679325E-25
  -1.77999997         8.91866911E-25
  -1.75000000         8.59736804E-25
  -1.72000003         8.28265198E-25
  -1.69000006         7.99948395E-25
  -1.65999997         7.77759068E-25
  -1.63000000         7.65052541E-25
  -1.60000002         7.65417882E-25
  -1.57000005         7.82471871E-25
  -1.53999996         8.19595715E-25
  -1.50999999         8.79622409E-25
  -1.48000002         9.64484516E-25
  -1.45000005         1.07484113E-24
  -1.41999996         1.20970676E-24
  -1.38999999         1.36610889E-24
  -1.36000001         1.53880770E-24
  -1.33000004         1.72011199E-24
  -1.29999995         1.89982535E-24
  -1.26999998         2.06535539E-24
  -1.24000001         2.20201450E-24
  -1.21000004         2.29353025E-24
  -1.17999995         2.32277510E-24
  -1.14999998         2.27271261E-24
  -1.12000000         2.12753834E-24
  -1.09000003         1.87398405E-24
  -1.05999994         1.50272786E-24
  -1.02999997         1.00984698E-24
  -1.00000000         3.98227240E-25
 -0.970000029        -3.21161841E-25
 -0.939999998        -1.12823084E-24
 -0.910000026        -1.99307542E-24
 -0.879999995        -2.87572577E-24
 -0.850000024        -3.72643810E-24
 -0.819999993        -4.48660143E-24
 -0.790000021        -5.09032970E-24
 -0.759999990        -5.46677097E-24
 -0.730000019        -5.54314138E-24
 -0.699999988        -5.24845726E-24
 -0.670000017        -4.51789752E-24
 -0.639999986        -3.29770187E-24
 -0.610000014        -1.55044192E-24
 -0.579999983         7.39511345E-25
 -0.550000012         3.56056827E-24
 -0.519999981         6.86881622E-24
 -0.490000010         1.05835693E-23
 -0.460000008         1.45839003E-23
 -0.430000007         1.87065726E-23
 -0.400000006         2.27457598E-23
 -0.370000005         2.64549774E-23
 -0.340000004         2.95516383E-23
 -0.310000002         3.17245935E-23
 -0.280000001         3.26449386E-23
 -0.250000000         3.19803391E-23
 -0.219999999         2.94128524E-23
 -0.189999998         2.46601122E-23
 -0.159999996         1.74995429E-23
 -0.129999995         7.79479377E-24
 -0.100000001        -4.47649573E-24
  -7.00000003E-02    -1.91950416E-23
  -3.99999991E-02    -3.60740759E-23
  -9.99999978E-03    -5.46373330E-23
   1.99999996E-02    -7.42032481E-23
   5.00000007E-02    -9.38778240E-23
   7.99999982E-02    -1.12558751E-22
  0.109999999        -1.28953237E-22
  0.140000001        -1.41611589E-22
  0.170000002        -1.48978212E-22
  0.200000003        -1.49460768E-22
  0.230000004        -1.41517115E-22
  0.259999990        -1.23758708E-22
  0.289999992        -9.50673379E-23
  0.319999993        -5.47207819E-23
  0.349999994        -2.52135052E-24
  0.379999995         6.10801809E-23
  0.409999996         1.34874010E-22
  0.439999998         2.16803715E-22
  0.469999999         3.03911857E-22
  0.500000000         3.92328700E-22
  0.529999971         4.77313102E-22
  0.560000002         5.53353538E-22
  0.589999974         6.14334429E-22
  0.620000005         6.53770204E-22
  0.649999976         6.65106022E-22
  0.680000007         6.42079311E-22
  0.709999979         5.79132805E-22
  0.740000010         4.71863625E-22
  0.769999981         3.17489807E-22
  0.800000012         1.15310500E-22
  0.829999983        -1.32867350E-22
  0.860000014        -4.22365393E-22
  0.889999986        -7.45364049E-22
  0.920000017        -1.09075770E-21
  0.949999988        -1.44416425E-21
  0.980000019        -1.78811427E-21
   1.00999999        -2.10243886E-21
   1.03999996        -2.36487181E-21
   1.07000005        -2.55186511E-21
   1.10000002        -2.63961432E-21
   1.13000000        -2.60527340E-21
   1.15999997        -2.42832379E-21
   1.19000006        -2.09205609E-21
   1.22000003        -1.58510272E-21
   1.25000000        -9.02952558E-22
   1.27999997        -4.93663853E-23
   1.30999994         9.62397784E-22
   1.34000003         2.10863787E-21
   1.37000000         3.35463804E-21
   1.39999998         4.65455864E-21
   1.42999995         5.95187349E-21
   1.46000004         7.18041239E-21
   1.49000001         8.26605787E-21
   1.51999998         9.12911663E-21
   1.54999995         9.68735449E-21
   1.58000004         9.85965282E-21
   1.61000001         9.57021392E-21
   1.63999999         8.75318647E-21
   1.66999996         7.35757929E-21
   1.70000005         5.35225277E-21
   1.73000002         2.73077342E-21
   1.75999999        -4.84106898E-22
   1.78999996        -4.23664098E-21
   1.82000005        -8.43521711E-21
   1.85000002        -1.29507234E-20
   1.88000000        -1.76164413E-20
   1.90999997        -2.22297083E-20
   1.94000006        -2.65555996E-20
   1.97000003        -3.03327971E-20
   2.00000000        -3.32817315E-20
   2.02999997        -3.51150513E-20
   2.05999994        -3.55503066E-20
   2.08999991        -3.43246221E-20
   2.11999989        -3.12110464E-20
   2.15000010        -2.60360494E-20
   2.18000007        -1.86975243E-20
   2.21000004        -9.18246089E-21
   2.24000001         2.41665057E-21
   2.26999998         1.58877663E-20
   2.29999995         3.08887529E-20
   2.32999992         4.69416435E-20
   2.35999990         6.34327976E-20
   2.39000010         7.96201665E-20
   2.42000008         9.46485066E-20
   2.45000005         1.07573320E-19
   2.48000002         1.17393796E-19
   2.50999999         1.23094595E-19
   2.53999996         1.23695865E-19
   2.56999993         1.18310247E-19
   2.59999990         1.06204872E-19
   2.63000011         8.68660424E-20
   2.66000009         6.00632386E-20
   2.69000006         2.59089528E-20
   2.72000003        -1.50898181E-20
   2.75000000        -6.19926503E-20
   2.77999997        -1.13403657E-19
   2.80999994        -1.67470379E-19
   2.83999991        -2.21907174E-19
   2.86999989        -2.74045764E-19
   2.90000010        -3.20914464E-19
   2.93000007        -3.59346335E-19
   2.96000004        -3.86114598E-19
   2.99000001        -3.98092173E-19
   3.01999998        -3.92430147E-19
   3.04999995        -3.66748025E-19
   3.07999992        -3.19327104E-19
   3.10999990        -2.49296649E-19
   3.14000010        -1.56802063E-19
   3.17000008        -4.31423609E-20
   3.20000005         8.91335642E-20
   3.23000002         2.36183614E-19
   3.25999999         3.92891352E-19
   3.28999996         5.52953954E-19
   3.31999993         7.09043660E-19
   3.34999990         8.53043086E-19
   3.38000011         9.76351883E-19
   3.41000009         1.07025549E-18
   3.44000006         1.12634640E-18
   3.47000003         1.13697971E-18
   3.50000000         1.09574413E-18
   3.52999997         9.97926924E-19
   3.55999994         8.40945518E-19
   3.58999991         6.24723608E-19
   3.61999989         3.51983988E-19
   3.65000010         2.84365695E-20
   3.68000007        -3.37158171E-19
   3.71000004        -7.33066329E-19
   3.74000001        -1.14480742E-18
   3.76999998        -1.55553341E-18
   3.79999995        -1.94655554E-18
   3.82999992        -2.29800804E-18
   3.85999990        -2.58962767E-18
   3.89000010        -2.80162393E-18
   3.92000008        -2.91560817E-18
   3.95000005        -2.91554283E-18
   3.98000002        -2.78867379E-18
   4.01000023        -2.52640026E-18
   4.03999996        -2.12504498E-18
   4.07000017        -1.58648216E-18
   4.09999990        -9.18589757E-19
   4.13000011        -1.35493994E-19
   4.15999985         7.42417451E-19
   4.19000006         1.68872799E-18
   4.21999979         2.67148298E-18
   4.25000000         3.65393759E-18
   4.28000021         4.59555037E-18
   4.30999994         5.45321342E-18
   4.34000015         6.18268828E-18
   4.36999989         6.74021670E-18
   4.40000010         7.08427255E-18
   4.42999983         7.17740068E-18
   4.46000004         6.98809213E-18
   4.48999977         6.49264030E-18
   4.51999998         5.67690415E-18
   4.55000019         4.53791615E-18
   4.57999992         3.08524865E-18
   4.61000013         1.34207077E-18
   4.63999987        -6.54193417E-19
   4.67000008        -2.85167952E-18
   4.69999981        -5.18443845E-18
   4.73000002        -7.57340678E-18
   4.76000023        -9.92802768E-18
   4.78999996        -1.21485477E-17
   4.82000017        -1.41290026E-17
   4.84999990        -1.57608479E-17
   4.88000011        -1.69371682E-17
   4.90999985        -1.75573668E-17
   4.94000006        -1.75321725E-17
   4.96999979        -1.67888068E-17
   5.00000000        -1.52760572E-17
   5.03000021        -1.29690431E-17
   5.05999994        -9.87338744E-18
   5.09000015        -6.02854773E-18
   5.11999989        -1.51001779E-18
   5.15000010         3.56981002E-18
   5.17999983         9.06233519E-18
   5.21000004         1.47851255E-17
   5.23999977         2.05260601E-17
   5.26999998         2.60492360E-17
   5.30000019         3.11025403E-17
   5.32999992         3.54267460E-17
   5.36000013         3.87658095E-17
   5.38999987         4.08781111E-17
   5.42000008         4.15481605E-17
   5.44999981         4.05983388E-17
   5.48000002         3.79001716E-17
   5.51000023         3.33846025E-17
   5.53999996         2.70507483E-17
   5.57000017         1.89726529E-17
   5.59999990         9.30356091E-18
   5.63000011        -1.72265202E-18
   5.65999985        -1.37932202E-17
   5.69000006        -2.65216256E-17
   5.71999979        -3.94562042E-17
   5.75000000        -5.20922285E-17
   5.78000021        -6.38872483E-17
   5.80999994        -7.42795088E-17
   5.84000015        -8.27088498E-17
   5.86999989        -8.86396289E-17
   5.90000010        -9.15848816E-17
   5.92999983        -9.11308917E-17
   5.96000004        -8.69612199E-17
   5.98999977        -7.88792153E-17
   6.01999998        -6.68278687E-17
   6.05000019        -5.09059886E-17
   6.07999992        -3.13797219E-17
   6.11000013        -8.68835278E-18
   6.13999987         1.65562780E-17
   6.17000008         4.35774695E-17
   6.19999981         7.14488239E-17
   6.23000002         9.91169566E-17
   6.26000023         1.25431749E-16
   6.28999996         1.49183506E-16
   6.32000017         1.69146392E-16
   6.34999990         1.84126937E-16
   6.38000011         1.93016415E-16
   6.40999985         1.94844987E-16
   6.44000006         1.88836308E-16
   6.46999979         1.74459776E-16
   6.50000000         1.51478608E-16
   6.53000021         1.19990952E-16
   6.55999994         8.04618434E-17
   6.59000015         3.37431920E-17
   6.61999989        -1.89199516E-17
   6.65000010        -7.58994990E-17
   6.67999983        -1.35211922E-16
   6.71000004        -1.94564686E-16
   6.73999977        -2.51421640E-16
   6.76999998        -3.03087341E-16
   6.80000019        -3.46808270E-16
   6.82999992        -3.79888930E-16
   6.86000013        -3.99819006E-16
   6.88999987        -4.04406960E-16
   6.92000008        -3.91914177E-16
   6.94999981        -3.61183451E-16
   6.98000002        -3.11754606E-16
   7.01000023        -2.43959915E-16
   7.03999996        -1.58992399E-16
   7.07000017        -5.89403509E-17
   7.09999990         5.32172239E-17
   7.13000011         1.73658113E-16
   7.15999985         2.97809611E-16
   7.19000006         4.20485922E-16
   7.21999979         5.36068253E-16
   7.25000000         6.38722240E-16
   7.28000021         7.22645630E-16
   7.30999994         7.82337524E-16
   7.34000015         8.12876820E-16
   7.36999989         8.10198820E-16
   7.40000010         7.71356218E-16
   7.42999983         6.94751511E-16
   7.46000004         5.80327313E-16
   7.48999977         4.29703864E-16
   7.51999998         2.46252145E-16
   7.55000019         3.50956190E-17
   7.57999992        -1.96965706E-16
   7.61000013        -4.41611533E-16
   7.63999987        -6.89236903E-16
   7.67000008        -9.29264176E-16
   7.69999981        -1.15052273E-15
   7.73000002        -1.34168664E-15
   7.76000023        -1.49175504E-15
   7.78999996        -1.59055847E-15
   7.82000017        -1.62927063E-15
   7.84999990        -1.60090423E-15
   7.88000011        -1.50076652E-15
   7.90999985        -1.32685244E-15
   7.94000006        -1.08015230E-15
   7.96999979        -7.64852699E-16
   8.00000000        -3.88415534E-16
   8.02999973         3.84795918E-17
   8.06000042         5.02135901E-16
   8.09000015         9.86183943E-16
   8.11999989         1.47206470E-15
   8.14999962         1.93964044E-15
   8.18000031         2.36791258E-15
   8.21000004         2.73582558E-15
   8.23999977         3.02312602E-15
   8.27000046         3.21124675E-15
   8.30000019         3.28418052E-15
   8.32999992         3.22930951E-15
   8.35999966         3.03815683E-15
   8.39000034         2.70702667E-15
   8.42000008         2.23750339E-15
   8.44999981         1.63678476E-15
   8.47999954         9.17824361E-16
   8.51000023         9.92679932E-17
   8.53999996        -7.94830889E-16
   8.56999969        -1.73552053E-15
   8.60000038        -2.68968854E-15
   8.63000011        -3.62101672E-15
   8.65999985        -4.49113936E-15
   8.68999958        -5.26097839E-15
   8.72000027        -5.89221868E-15
   8.75000000        -6.34887828E-15
   8.77999973        -6.59891351E-15
   8.81000042        -6.61580039E-15
   8.84000015        -6.38001479E-15
   8.86999989        -5.88033947E-15
   8.89999962        -5.11492577E-15
   8.93000031        -4.09203861E-15
   8.96000004        -2.83044043E-15
   8.98999977        -1.35935574E-15
   9.02000046         2.81986771E-16
   9.05000019         2.04524554E-15
   9.07999992         3.87426051E-15
   9.10999966         5.70671084E-15
   9.14000034         7.47606695E-15
   9.17000008         9.11376704E-15
   9.19999981         1.05515225E-14
   9.22999954         1.17236822E-14
   9.26000023         1.25695615E-14
   9.28999996         1.30356651E-14
   9.31999969         1.30777593E-14
   9.35000038         1.26627326E-14
   9.38000011         1.17702241E-14
   9.40999985         1.03940040E-14
   9.43999958         8.54307012E-15
   9.47000027         6.24246680E-15
   9.50000000         3.53378503E-15
   9.52999973         4.75306450E-16
   9.56000042        -2.85824407E-15
   9.59000015        -6.37641702E-15
   9.61999989        -9.97429407E-15
   9.64999962        -1.35343464E-14
   9.68000031        -1.69289767E-14
   9.71000004        -2.00237589E-14
   9.73999977        -2.26814044E-14
   9.77000046        -2.47664201E-14
   9.80000019        -2.61503313E-14
   9.82999992        -2.67173792E-14
   9.85999966        -2.63704311E-14
   9.89000034        -2.50368828E-14
   9.92000008        -2.26742555E-14
   9.94999981        -1.92751715E-14
   9.97999954        -1.48713930E-14
   10.0100002        -9.53661012E-15
   10.0400000        -3.38773919E-15
   10.0699997         3.41550196E-15
   10.1000004         1.06728862E-14
   10.1300001         1.81479028E-14
   10.1599998         2.55739033E-14
   10.1899996         3.26620885E-14
   10.2200003         3.91111433E-14
   10.2500000         4.46182838E-14
   10.2799997         4.88913719E-14
   10.3100004         5.16617490E-14
   10.3400002         5.26972570E-14
   10.3699999         5.18150112E-14
   10.3999996         4.88933438E-14
   10.4300003         4.38823172E-14
   10.4600000         3.68122145E-14
   10.4899998         2.77994451E-14
   10.5200005         1.70492486E-14
   10.5500002         4.85478120E-15
   10.5799999        -8.40782437E-15
   10.6099997        -2.22885743E-14
   10.6400003        -3.62769778E-14
   10.6700001        -4.98193846E-14
   10.6999998        -6.23398292E-14
   10.7299995        -7.32636879E-14
   10.7600002        -8.20431776E-14
   10.7900000        -8.81835024E-14
   10.8199997        -9.12684032E-14
   10.8500004        -9.09837865E-14
   10.8800001        -8.71379181E-14
   10.9099998        -7.96772452E-14
   10.9399996        -6.86964727E-14
   10.9700003        -5.44424294E-14
   11.0000000        -3.73110695E-14
   11.0299997        -1.78376499E-14
   11.0600004         3.31970762E-15
   11.0900002         2.54024978E-14
   11.1199999         4.75793450E-14
   11.1499996         6.89775792E-14
   11.1800003         8.87174584E-14
   11.2100000         1.05947742E-13
   11.2399998         1.19881183E-13
   11.2700005         1.29828548E-13
   11.3000002         1.35229962E-13
   11.3299999         1.35682169E-13
   11.3599997         1.30960957E-13
   11.3900003         1.21037363E-13
   11.4200001         1.06087204E-13
   11.4499998         8.64929873E-14
   11.4799995         6.28378371E-14
   11.5100002         3.58911340E-14
   11.5400000         6.58574977E-15
   11.5699997        -2.40126065E-14
   11.6000004        -5.47434141E-14
   11.6300001        -8.43956117E-14
   11.6599998        -1.11756389E-13
   11.6899996        -1.35662803E-13
   11.7200003        -1.55053731E-13
   11.7500000        -1.69019692E-13
   11.7799997        -1.76847943E-13
   11.8100004        -1.78060203E-13
   11.8400002        -1.72440783E-13
   11.8699999        -1.60053340E-13
   11.8999996        -1.41244817E-13
   11.9300003        -1.16636261E-13
   11.9600000        -8.71005945E-14
   11.9899998        -5.37283536E-14
   12.0200005        -1.77831874E-14
   12.0500002         1.93508404E-14
   12.0799999         5.62273718E-14
   12.1099997         9.13985684E-14
   12.1400003         1.23475720E-13
   12.1700001         1.51187128E-13
   12.1999998         1.73430619E-13
   12.2299995         1.89318816E-13
   12.2600002         1.98215603E-13
   12.2900000         1.99762475E-13
   12.3199997         1.93893756E-13
   12.3500004         1.80840369E-13
   12.3800001         1.61121902E-13
   12.4099998         1.35526681E-13
   12.4399996         1.05080590E-13
   12.4700003         7.10050643E-14
   12.5000000         3.46655789E-14
   12.5299997        -2.48772391E-15
   12.5600004        -3.89850743E-14
   12.5900002        -7.34047290E-14
   12.6199999        -1.04439969E-13
   12.6499996        -1.30961485E-13
   12.6800003        -1.52071403E-13
   12.7100000        -1.67145093E-13
   12.7399998        -1.75857348E-13
   12.7700005        -1.78191080E-13
   12.8000002        -1.74427015E-13
   12.8299999        -1.65114938E-13
   12.8599997        -1.51028360E-13
   12.8900003        -1.33106200E-13
   12.9200001        -1.12385626E-13
   12.9499998        -8.99318597E-14
   12.9799995        -6.67703265E-14
   13.0100002        -4.38266062E-14
   13.0400000        -2.18785713E-14
   13.0699997        -1.52354260E-15
   13.1000004         1.68374310E-14
   13.1300001         3.29993736E-14
   13.1599998         4.69385239E-14
   13.1899996         5.87862888E-14
   13.2200003         6.87959956E-14
   13.2500000         7.73063457E-14
   13.2799997         8.47051921E-14
   13.3100004         9.13964474E-14
   13.3400002         9.77710954E-14
   13.3699999         1.04182471E-13
   13.3999996         1.10924352E-13
   13.4300003         1.18210183E-13
   13.4600000         1.26151110E-13
   13.4899998         1.34731188E-13
   13.5200005         1.43780048E-13
   13.5500002         1.52944267E-13
   13.5799999         1.61660832E-13
   13.6099997         1.69138344E-13
   13.6400003         1.74352164E-13
   13.6700001         1.76060623E-13
   13.6999998         1.72848023E-13
   13.7299995         1.63198949E-13
   13.7600002         1.45604137E-13
   13.7900000         1.18694930E-13
   13.8199997         8.13989650E-14
   13.8500004         3.31044972E-14
   13.8800001        -2.61811514E-14
   13.9099998        -9.56970167E-14
   13.9399996        -1.73835000E-13
   13.9700003        -2.58103570E-13
   14.0000000        -3.45159990E-13
   14.0299997        -4.30917156E-13
   14.0600004        -5.10724275E-13
   14.0900002        -5.79612584E-13
   14.1199999        -6.32591256E-13
   14.1499996        -6.64970954E-13
   14.1800003        -6.72691286E-13
   14.2100000        -6.52624601E-13
   14.2399998        -6.02831804E-13
   14.2700005        -5.22749107E-13