  -10.0000000         8.50560264E-32
  -9.97000027         2.55168085E-31
  -9.93999958         4.25280126E-31
  -9.90999985         5.95392215E-31
  -9.88000011         7.78080870E-31
  -9.85000038         9.16100175E-31
  -9.81999969         8.63489186E-31
  -9.78999996         5.93286575E-31
  -9.76000023         2.40526739E-31
  -9.72999954        -9.71251678E-32
  -9.69999981        -4.16717778E-31
  -9.67000008        -7.06081888E-31
  -9.64000034        -9.04928277E-31
  -9.60999966        -9.76297335E-31
  -9.57999992        -9.07142438E-31
  -9.55000019        -6.61993938E-31
  -9.52000046        -2.49084925E-31
  -9.48999977         2.98906960E-31
  -9.46000004         8.62600982E-31
  -9.43000031         1.29591340E-30
  -9.39999962         1.59822770E-30
  -9.36999989         1.68157269E-30
  -9.34000015         1.51352712E-30
  -9.31000042         1.15980244E-30
  -9.27999973         6.73525443E-31
  -9.25000000         2.40516418E-31
  -9.22000027        -7.52088221E-32
  -9.18999958        -2.70343224E-31
  -9.15999985        -3.13706458E-31
  -9.13000011        -2.73765652E-31
  -9.10000038        -1.56032334E-31
  -9.06999969        -4.91894016E-32
  -9.03999996        -1.83759140E-32
  -9.01000023        -3.22715870E-32
  -8.97999954        -8.48438556E-32
  -8.94999981        -7.16061905E-32
  -8.92000008         2.85864857E-32
  -8.89000034         1.69870865E-31
  -8.85999966         1.82280183E-31
  -8.82999992        -8.22386280E-33
  -8.80000019        -2.80121033E-31
  -8.77000046        -5.51131890E-31
  -8.73999977        -6.63770862E-31
  -8.71000004        -6.68290262E-31
  -8.68000031        -5.90733213E-31
  -8.64999962        -3.99579870E-31
  -8.61999989        -1.91276041E-31
  -8.59000015         1.95200226E-32
  -8.56000042         3.90958465E-31
  -8.52999973         9.96537843E-31
  -8.50000000         1.58335177E-30
  -8.47000027         2.03203684E-30
  -8.43999958         2.33896443E-30
  -8.40999985         2.47456099E-30
  -8.38000011         2.22198544E-30
  -8.35000038         1.43050450E-30
  -8.31999969         3.42524102E-31
  -8.28999996        -7.77013239E-31
  -8.26000023        -1.77218431E-30
  -8.22999954        -2.55730997E-30
  -8.19999981        -3.11522968E-30
  -8.17000008        -3.35381140E-30
  -8.14000034        -3.11169548E-30
  -8.10999966        -2.42826231E-30
  -8.07999992        -1.54862842E-30
  -8.05000019        -6.64041038E-31
  -8.02000046         2.08581434E-31
  -7.98999977         1.04148536E-30
  -7.96000004         1.71713676E-30
  -7.92999983         2.14863609E-30
  -7.90000010         2.17535066E-30
  -7.86999989         1.81143868E-30
  -7.84000015         1.16349584E-30
  -7.80999994         3.98669473E-31
  -7.78000021        -2.61467771E-31
  -7.75000000        -8.15636786E-31
  -7.71999979        -1.14004990E-30
  -7.69000006        -1.13422002E-30
  -7.65999985        -7.91448403E-31
  -7.63000011        -1.88751408E-31
  -7.59999990         5.18458742E-31
  -7.57000017         1.33460532E-30
  -7.53999996         2.10468032E-30
  -7.51000023         2.65585664E-30
  -7.48000002         2.95697447E-30
  -7.44999981         2.93946318E-30
  -7.42000008         2.62666714E-30
  -7.38999987         2.05510925E-30
  -7.36000013         1.14458684E-30
  -7.32999992        -3.71180679E-32
  -7.30000019        -1.32123393E-30
  -7.26999998        -2.56959755E-30
  -7.23999977        -3.70703033E-30
  -7.21000004        -4.63837281E-30
  -7.17999983        -5.11404253E-30
  -7.15000010        -4.98371349E-30
  -7.11999989        -4.17581786E-30
  -7.09000015        -2.80876118E-30
  -7.05999994        -1.14243127E-30
  -7.03000021         6.00232853E-31
  -7.00000000         2.18738810E-30
  -6.96999979         3.19988145E-30
  -6.94000006         3.33398222E-30
  -6.90999985         2.62560732E-30
  -6.88000011         1.16927787E-30
  -6.84999990        -7.49856122E-31
  -6.82000017        -2.68271208E-30
  -6.78999996        -4.15105950E-30
  -6.76000023        -4.74269878E-30
  -6.73000002        -4.27474897E-30
  -6.69999981        -2.95032268E-30
  -6.67000008        -1.04751894E-30
  -6.63999987         1.23467231E-30
  -6.61000013         3.56595258E-30
  -6.57999992         5.53243990E-30
  -6.55000019         6.78376097E-30
  -6.51999998         7.18568901E-30
  -6.48999977         6.70312770E-30
  -6.46000004         5.39883340E-30
  -6.42999983         3.34897438E-30
  -6.40000010         7.60009619E-31
  -6.36999989        -1.76703113E-30
  -6.34000015        -3.74519459E-30
  -6.30999994        -4.86787031E-30
  -6.28000021        -4.86632430E-30
  -6.25000000        -3.76561471E-30
  -6.21999979        -1.98171684E-30
  -6.19000006        -4.82695332E-32
  -6.15999985         1.62779862E-30
  -6.13000011         2.58054432E-30
  -6.09999990         2.59002256E-30
  -6.07000017         1.70453659E-30
  -6.03999996         4.42096637E-32
  -6.01000023        -2.20907475E-30
  -5.98000002        -4.55065724E-30
  -5.94999981        -6.19202125E-30
  -5.92000008        -6.60539578E-30
  -5.88999987        -5.65731991E-30
  -5.86000013        -3.50678252E-30
  -5.82999992        -2.60272176E-31
  -5.80000019         3.66240744E-30
  -5.76999998         7.28606005E-30
  -5.73999977         9.90171667E-30
  -5.71000004         1.10767792E-29
  -5.67999983         1.04168916E-29
  -5.65000010         7.93581540E-30
  -5.61999989         3.97782398E-30
  -5.59000015        -7.11512390E-31
  -5.55999994        -5.10638583E-30
  -5.53000021        -8.63508295E-30
  -5.50000000        -1.06186343E-29
  -5.46999979        -1.04627498E-29
  -5.44000006        -8.30920206E-30
  -5.40999985        -4.54339964E-30
  -5.38000011         1.81180120E-31
  -5.34999990         4.96099279E-30
  -5.32000017         8.96269868E-30
  -5.28999996         1.14579140E-29
  -5.26000023         1.18149031E-29
  -5.23000002         9.78264755E-30
  -5.19999981         5.74016912E-30
  -5.17000008         2.48256155E-31
  -5.13999987        -6.01080780E-30
  -5.11000013        -1.20602335E-29
  -5.07999992        -1.71969294E-29
  -5.05000019        -2.08622886E-29
  -5.01999998        -2.26099451E-29
  -4.98999977        -2.22738974E-29
  -4.96000004        -1.99285270E-29
  -4.92999983        -1.57673733E-29
  -4.90000010        -9.95577887E-30
  -4.86999989        -2.47898762E-30
  -4.84000015         6.91565783E-30
  -4.80999994         1.84708779E-29
  -4.78000021         3.28007295E-29
  -4.75000000         5.05965810E-29
  -4.71999979         7.20789573E-29
  -4.69000006         9.70394969E-29
  -4.65999985         1.24428424E-28
  -4.63000011         1.51760728E-28
  -4.59999990         1.75090540E-28
  -4.57000017         1.89002050E-28
  -4.53999996         1.87130022E-28
  -4.51000023         1.62363959E-28
  -4.48000002         1.07154132E-28
  -4.44999981         1.49623286E-29
  -4.42000008        -1.18828734E-28
  -4.38999987        -2.95530050E-28
  -4.36000013        -5.11466567E-28
  -4.32999992        -7.57201506E-28
  -4.30000019        -1.01634058E-27
  -4.26999998        -1.26483138E-27
  -4.23999977        -1.47104002E-27
  -4.21000004        -1.59665158E-27
  -4.17999983        -1.59895991E-27
  -4.15000010        -1.43408528E-27
  -4.11999989        -1.06124248E-27
  -4.09000015        -4.48161539E-28
  -4.05999994         4.22438289E-28
  -4.03000021         1.54624797E-27
  -4.00000000         2.89058742E-27
  -3.97000003         4.38883920E-27
  -3.94000006         5.93777645E-27
  -3.91000009         7.39701158E-27
  -3.88000011         8.59199179E-27
  -3.84999990         9.32322888E-27
  -3.81999993         9.37974336E-27
  -3.78999996         8.55789282E-27
  -3.75999999         6.68449377E-27
  -3.73000002         3.64314108E-27
  -3.70000005        -5.97062116E-28
  -3.67000008        -5.95576425E-27
  -3.64000010        -1.22200709E-26
  -3.60999990        -1.90309412E-26
  -3.57999992        -2.58819624E-26
  -3.54999995        -3.21337097E-26
  -3.51999998        -3.70453827E-26
  -3.49000001        -3.98254579E-26
  -3.46000004        -3.97009473E-26
  -3.43000007        -3.60020864E-26
  -3.40000010        -2.82581809E-26
  -3.36999989        -1.62960929E-26
  -3.33999991        -3.32287651E-28
  -3.30999994         1.89537930E-26
  -3.27999997         4.03784617E-26
  -3.25000000         6.22581969E-26
  -3.22000003         8.24709395E-26
  -3.19000006         9.85839165E-26
  -3.16000009         1.08052879E-25
  -3.13000011         1.08488453E-25
  -3.09999990         9.79798401E-26
  -3.06999993         7.54551003E-26
  -3.03999996         4.10453728E-26
  -3.00999999        -3.58884796E-27
  -2.98000002        -5.50181054E-26
  -2.95000005        -1.07948811E-25
  -2.92000008        -1.55328561E-25
  -2.89000010        -1.88701174E-25
  -2.85999990        -1.98850781E-25
  -2.82999992        -1.76748723E-25
  -2.79999995        -1.14786854E-25
  -2.76999998        -8.24401015E-27
  -2.74000001         1.43117007E-25
  -2.71000004         3.33469550E-25
  -2.68000007         5.49554871E-25
  -2.65000010         7.69757554E-25
  -2.61999989         9.63878276E-25
  -2.58999991         1.09386125E-24
  -2.55999994         1.11570156E-24
  -2.52999997         9.82695567E-25
  -2.50000000         6.50093961E-25
  -2.47000003         8.10783720E-26
  -2.44000006        -7.46191172E-25
  -2.41000009        -1.83090830E-24
  -2.38000011        -3.14198822E-24
  -2.34999990        -4.61132784E-24
  -2.31999993        -6.12896685E-24
  -2.28999996        -7.54125782E-24
  -2.25999999        -8.65316279E-24
  -2.23000002        -9.23566951E-24
  -2.20000005        -9.03908932E-24
  -2.17000008        -7.81257864E-24
  -2.14000010        -5.32970008E-24
  -2.10999990        -1.41916777E-24
  -2.07999992         4.00085757E-24
  -2.04999995         1.08873431E-23
  -2.01999998         1.90390333E-23
  -1.99000001         2.80690310E-23
  -1.96000004         3.73876114E-23
  -1.92999995         4.61997146E-23
  -1.89999998         5.35213031E-23
  -1.87000000         5.82181115E-23
  -1.84000003         5.90689453E-23
  -1.80999994         5.48541814E-23
  -1.77999997         4.44676980E-23
  -1.75000000         2.70480525E-23
  -1.72000003         2.12178754E-24
  -1.69000006        -3.02509288E-23
  -1.65999997        -6.93407978E-23
  -1.63000000        -1.13638594E-22
  -1.60000002        -1.60784809E-22
  -1.57000005        -2.07555678E-22
  -1.53999996        -2.49920273E-22
  -1.50999999        -2.83180668E-22
  -1.48000002        -3.02202768E-22
  -1.45000005        -3.01739145E-22
  -1.41999996        -2.76837924E-22
  -1.38999999        -2.23323417E-22
  -1.36000001        -1.38323983E-22
  -1.33000004        -2.08150858E-23
  -1.29999995         1.27865076E-22
  -1.26999998         3.03574780E-22
  -1.24000001         4.99055673E-22
  -1.21000004         7.03800546E-22
  -1.17999995         9.04151324E-22
  -1.14999998         1.08367012E-21
  -1.12000000         1.22381028E-21
  -1.09000003         1.30489872E-21
  -1.05999994         1.30741621E-21
  -1.02999997         1.21353697E-21
  -1.00000000         1.00886126E-21
 -0.970000029         6.84242450E-22
 -0.939999998         2.37588168E-22
 -0.910000026        -3.24511578E-22
 -0.879999995        -9.85489774E-22
 -0.850000024        -1.71800728E-21
 -0.819999993        -2.48381759E-21
 -0.790000021        -3.23443331E-21
 -0.759999990        -3.91269435E-21
 -0.730000019        -4.45530060E-21
 -0.699999988        -4.79629127E-21
 -0.670000017        -4.87139587E-21
 -0.639999986        -4.62308013E-21
 -0.610000014        -4.00604338E-21
 -0.579999983        -2.99282609E-21
 -0.550000012        -1.57912576E-21
 -0.519999981         2.11635086E-22
 -0.490000010         2.32497468E-21
 -0.460000008         4.67372233E-21
 -0.430000007         7.13852183E-21
 -0.400000006         9.57080684E-21
 -0.370000005         1.17984470E-20
 -0.340000004         1.36341127E-20
 -0.310000002         1.48861717E-20
 -0.280000001         1.53717219E-20
 -0.250000000         1.49311400E-20
 -0.219999999         1.34432577E-20
 -0.189999998         1.08401446E-20
 -0.159999996         7.12028832E-21
 -0.129999995         2.35891090E-21
 -0.100000001        -3.28581282E-21
  -7.00000003E-02    -9.57174631E-21
  -3.99999991E-02    -1.61778595E-20
  -9.99999978E-03    -2.27158983E-20
   1.99999996E-02    -2.87487268E-20
   5.00000007E-02    -3.38148914E-20
   7.99999982E-02    -3.74583926E-20
  0.109999999        -3.92620502E-20
  0.140000001        -3.88823969E-20
  0.170000002        -3.60835053E-20
  0.200000003        -3.07669344E-20
  0.230000004        -2.29949457E-20
  0.259999990        -1.30041718E-20
  0.289999992        -1.20746347E-21
  0.319999993         1.18177840E-20
  0.349999994         2.53555495E-20
  0.379999995         3.85909838E-20
  0.409999996         5.06624990E-20
  0.439999998         6.07232383E-20
  0.469999999         6.80078625E-20
  0.500000000         7.18995211E-20
  0.529999971         7.19911572E-20
  0.560000002         6.81351514E-20
  0.589999974         6.04752651E-20
  0.620000005         4.94558654E-20
  0.649999976         3.58047939E-20
  0.680000007         2.04879341E-20
  0.709999979         4.63620557E-21
  0.740000010        -1.05517817E-20
  0.769999981        -2.39252832E-20
  0.800000012        -3.45064370E-20
  0.829999983        -4.16136924E-20
  0.860000014        -4.49710279E-20
  0.889999986        -4.47897202E-20
  0.920000017        -4.18098893E-20
  0.949999988        -3.72908885E-20
  0.980000019        -3.29427555E-20
   1.00999999        -3.07953849E-20
   1.03999996        -3.30074888E-20
   1.07000005        -4.16239320E-20
   1.10000002        -5.82961547E-20
   1.13000000        -8.39871114E-20
   1.15999997        -1.18687170E-19
   1.19000006        -1.61171489E-19
   1.22000003        -2.08830832E-19
   1.25000000        -2.57607049E-19
   1.27999997        -3.02060097E-19
   1.30999994        -3.35586399E-19
   1.34000003        -3.50797811E-19
   1.37000000        -3.40057801E-19
   1.39999998        -2.96156043E-19
   1.42999995        -2.13086818E-19
   1.46000004        -8.68811837E-20
   1.49000001         8.35708005E-20
   1.51999998         2.95782856E-19
   1.54999995         5.43100217E-19
   1.58000004         8.14373168E-19
   1.61000001         1.09394895E-18
   1.63999999         1.36204128E-18
   1.66999996         1.59551332E-18
   1.70000005         1.76908332E-18
   1.73000002         1.85692618E-18
   1.75999999         1.83460843E-18
   1.78999996         1.68125493E-18
   1.82000005         1.38181380E-18
   1.85000002         9.29251908E-19
   1.88000000         3.26496227E-19
   1.90999997        -4.12071525E-19
   1.94000006        -1.25975626E-18
   1.97000003        -2.17748948E-18
   2.00000000        -3.11469586E-18
   2.02999997        -4.01115554E-18
   2.05999994        -4.79986977E-18
   2.08999991        -5.41084895E-18
   2.11999989        -5.77567820E-18
   2.15000010        -5.83261428E-18
   2.18000007        -5.53191014E-18
   2.21000004        -4.84099802E-18
   2.24000001        -3.74913326E-18
   2.26999998        -2.27107504E-18
   2.29999995        -4.49422375E-19
   2.32999992         1.64474380E-18
   2.35999990         3.91316235E-18
   2.39000010         6.23377703E-18
   2.42000008         8.46620929E-18
   2.45000005         1.04591570E-17
   2.48000002         1.20594198E-17
   2.50999999         1.31220657E-17
   2.53999996         1.35211522E-17
   2.56999993         1.31602839E-17
   2.59999990         1.19822439E-17
   2.63000011         9.97690661E-18
   2.66000009         7.18669902E-18
   2.69000006         3.70898274E-18
   2.72000003        -3.05140155E-19
   2.75000000        -4.65583736E-18
   2.77999997        -9.10340719E-18
   2.80999994        -1.33807251E-17
   2.83999991        -1.72087300E-17
   2.86999989        -2.03141529E-17
   2.90000010        -2.24484361E-17
   2.93000007        -2.34066272E-17
   2.96000004        -2.30449028E-17
   2.99000001        -2.12954026E-17
   3.01999998        -1.81770326E-17
   3.04999995        -1.38011892E-17
   3.07999992        -8.37149297E-18
   3.10999990        -2.17707010E-18
   3.14000010         4.42072285E-18
   3.17000008         1.10077730E-17
   3.20000005         1.71420427E-17
   3.23000002         2.23824784E-17
   3.25999999         2.63203213E-17
   3.28999996         2.86107745E-17
   3.31999993         2.90028846E-17
   3.34999990         2.73653101E-17
   3.38000011         2.37057969E-17
   3.41000009         1.81824274E-17
   3.44000006         1.11050891E-17
   3.47000003         2.92613901E-18
   3.50000000        -5.78002421E-18
   3.52999997        -1.43481194E-17
   3.55999994        -2.20626556E-17
   3.58999991        -2.82061409E-17
   3.61999989        -3.21121870E-17
   3.65000010        -3.32202087E-17
   3.68000007        -3.11280472E-17
   3.71000004        -2.56386666E-17
   3.74000001        -1.67970339E-17
   3.76999998        -4.91367039E-18
   3.79999995         9.42807806E-18
   3.82999992         2.53831753E-17
   3.85999990         4.18755884E-17
   3.89000010         5.76483146E-17
   3.92000008         7.13313841E-17
   3.95000005         8.15250484E-17
   3.98000002         8.68941587E-17
   4.01000023         8.62684991E-17
   4.03999996         7.87430746E-17
   4.07000017         6.37718665E-17
   4.09999990         4.12480660E-17
   4.13000011         1.15643266E-17
   4.15999985        -2.43528259E-17
   4.19000006        -6.50393124E-17
   4.21999979        -1.08523860E-16
   4.25000000        -1.52393761E-16
   4.28000021        -1.93895622E-16
   4.30999994        -2.30068098E-16
   4.34000015        -2.57901521E-16
   4.36999989        -2.74517396E-16
   4.40000010        -2.77358477E-16
   4.42999983        -2.64378809E-16
   4.46000004        -2.34222556E-16
   4.48999977        -1.86379290E-16
   4.51999998        -1.21304674E-16
   4.55000019        -4.04957949E-17
   4.57999992         5.34871594E-17
   4.61000013         1.57059006E-16
   4.63999987         2.65710424E-16
   4.67000008         3.74170902E-16
   4.69999981         4.76629569E-16
   4.73000002         5.67005443E-16
   4.76000023         6.39255606E-16
   4.78999996         6.87706420E-16
   4.82000017         7.07390301E-16
   4.84999990         6.94369499E-16
   4.88000011         6.46027953E-16
   4.90999985         5.61312058E-16
   4.94000006         4.40905213E-16
   4.96999979         2.87321331E-16
   5.00000000         1.04909180E-16
   5.03000021        -1.00237601E-16
   5.05999994        -3.20464089E-16
   5.09000015        -5.46825148E-16
   5.11999989        -7.69433930E-16
   5.15000010        -9.77871480E-16
   5.17999983        -1.16164015E-15
   5.21000004        -1.31063886E-15
   5.23999977        -1.41563886E-15
   5.26999998        -1.46873830E-15
   5.30000019        -1.46377384E-15
   5.32999992        -1.39667379E-15
   5.36000013        -1.26573489E-15
   5.38999987        -1.07181252E-15
   5.42000008        -8.18416416E-16
   5.44999981        -5.11707321E-16
   5.48000002        -1.60392425E-16
   5.51000023         2.24477575E-16
   5.53999996         6.29806848E-16
   5.57000017         1.04084107E-15
   5.59999990         1.44163504E-15
   5.63000011         1.81559056E-15
   5.65999985         2.14605136E-15
   5.69000006         2.41694160E-15
   5.71999979         2.61342741E-15
   5.75000000         2.72258116E-15
   5.78000021         2.73402521E-15
   5.80999994         2.64052463E-15
   5.84000015         2.43850282E-15
   5.86999989         2.12844747E-15
   5.90000010         1.71518052E-15
   5.92999983         1.20796480E-15
   5.96000004         6.20427864E-16
   5.98999977        -2.97083803E-17
   6.01999998        -7.21096353E-16
   6.05000019        -1.42942178E-15
   6.07999992        -2.12823381E-15
   6.11000013        -2.78991731E-15
   6.13999987        -3.38676722E-15
   6.17000008        -3.89212275E-15
   6.19999981        -4.28150760E-15
   6.23000002        -4.53372522E-15
   6.26000023        -4.63186203E-15
   6.28999996        -4.56415064E-15
   6.32000017        -4.32465758E-15
   6.34999990        -3.91376105E-15
   6.38000011        -3.33840566E-15
   6.40999985        -2.61211112E-15
   6.44000006        -1.75474109E-15
   6.46999979        -7.92027475E-16
   6.50000000         2.45139408E-16
   6.53000021         1.32163790E-15
   6.55999994         2.39924179E-15
   6.59000015         3.43792653E-15
   6.61999989         4.39731564E-15
   6.65000010         5.23823428E-15
   6.67999983         5.92431742E-15
   6.71000004         6.42361285E-15
   6.73999977         6.71011073E-15
   6.76999998         6.76512509E-15
   6.80000019         6.57844157E-15
   6.82999992         6.14915765E-15
   6.86000013         5.48613203E-15
   6.88999987         4.60799688E-15
   6.92000008         3.54269201E-15
   6.94999981         2.32652062E-15
   6.98000002         1.00275074E-15
   7.01000023        -3.80174168E-16
   7.03999996        -1.77072206E-15
   7.07000017        -3.11652856E-15
   7.09999990        -4.36669921E-15
   7.13000011        -5.47401353E-15
   7.15999985        -6.39689446E-15
   7.19000006        -7.10104989E-15
   7.21999979        -7.56070757E-15
   7.25000000        -7.75940117E-15
   7.28000021        -7.69032902E-15
   7.30999994        -7.35632868E-15
   7.34000015        -6.76953178E-15
   7.36999989        -5.95078974E-15
   7.40000010        -4.92895841E-15
   7.42999983        -3.74009897E-15
   7.46000004        -2.42663780E-15
   7.48999977        -1.03647483E-15
   7.51999998         3.78006373E-16
   7.55000019         1.76110051E-15
   7.57999992         3.05521862E-15
   7.61000013         4.20269288E-15
   7.63999987         5.14801341E-15
   7.67000008         5.84051748E-15
   7.69999981         6.23747185E-15
   7.73000002         6.30741051E-15
   7.76000023         6.03349446E-15
   7.78999996         5.41659867E-15
   7.82000017         4.47777488E-15
   7.84999990         3.25972075E-15
   7.88000011         1.82692322E-15
   7.90999985         2.64222372E-16
   7.94000006        -1.32636169E-15
   7.96999979        -2.83049760E-15
   8.00000000        -4.12796891E-15
   8.02999973        -5.10028395E-15
   8.06000042        -5.63898971E-15
   8.09000015        -5.65408172E-15
   8.11999989        -5.08184701E-15
   8.14999962        -3.89152940E-15
   8.18000031        -2.09020478E-15
   8.21000004         2.74559880E-16
   8.23999977         3.11450732E-15
   8.27000046         6.30304660E-15
   8.30000019         9.68001788E-15
   8.32999992         1.30585562E-14
   8.35999966         1.62336270E-14
   8.39000034         1.89916679E-14
   8.42000008         2.11208479E-14
   8.44999981         2.24213907E-14
   8.47999954         2.27155449E-14
   8.51000023         2.18568636E-14
   8.53999996         1.97385833E-14
   8.56999969         1.63009255E-14
   8.60000038         1.15372503E-14
   8.63000011         5.49894509E-15
   8.65999985        -1.70110453E-15
   8.68999958        -9.88664818E-15
   8.72000027        -1.88181685E-14
   8.75000000        -2.81953348E-14
   8.77999973        -3.76622222E-14
   8.81000042        -4.68157516E-14
   8.84000015        -5.52175899E-14
   8.86999989        -6.24096654E-14
   8.89999962        -6.79329775E-14
   8.93000031        -7.13492714E-14
   8.96000004        -7.22645752E-14
   8.98999977        -7.03534046E-14
   9.02000046        -6.53819785E-14
   9.05000019        -5.72289679E-14
   9.07999992        -4.59019453E-14
   9.10999966        -3.15482368E-14
   9.14000034        -1.44588660E-14
   9.17000008         4.93483428E-15
   9.19999981         2.60721332E-14
   9.22999954         4.82807289E-14
   9.26000023         7.08004009E-14
   9.28999996         9.28110060E-14
   9.31999969         1.13463052E-13
   9.35000038         1.31908875E-13
   9.38000011         1.47332816E-13
   9.40999985         1.58979099E-13
   9.43999958         1.66176304E-13
   9.47000027         1.68358315E-13
   9.50000000         1.65081653E-13
   9.52999973         1.56039895E-13
   9.56000042         1.41075926E-13
   9.59000015         1.20192769E-13
   9.61999989         9.35637540E-14
   9.64999962         6.15420326E-14
   9.68000031         2.46692925E-14
   9.71000004        -1.63173003E-14
   9.73999977        -6.04815744E-14
   9.77000046        -1.06689966E-13
   9.80000019        -1.53620552E-13
   9.82999992        -1.99781543E-13
   9.85999966        -2.43540810E-13
   9.89000034        -2.83167397E-13
   9.92000008        -3.16885380E-13
   9.94999981        -3.42938406E-13
   9.97999954        -3.59663552E-13
   10.0100002        -3.65570746E-13
   10.0400000        -3.59424160E-13
   10.0699997        -3.40320898E-13
   10.1000004        -3.07762740E-13
   10.1300001        -2.61715725E-13
   10.1599998        -2.02654625E-13
   10.1899996        -1.31588439E-13
   10.2200003        -5.00649903E-14
   10.2500000         3.98466796E-14
   10.2799997         1.35596246E-13
   10.3100004         2.34213338E-13
   10.3400002         3.32389254E-13
   10.3699999         4.26576146E-13
   10.3999996         5.13101714E-13
   10.4300003         5.88296013E-13
   10.4600000         6.48626877E-13
   10.4899998         6.90840126E-13
   10.5200005         7.12100788E-13
   10.5500002         7.10130088E-13
   10.5799999         6.83332405E-13
   10.6099997         6.30908303E-13
   10.6400003         5.52945818E-13
   10.6700001         4.50485054E-13
   10.6999998         3.25550296E-13
   10.7299995         1.81144826E-13
   10.7600002         2.12047719E-14
   10.7900000        -1.49489579E-13
   10.8199997        -3.25445237E-13
   10.8500004        -5.00627534E-13
   10.8800001        -6.68666186E-13
   10.9099998        -8.23088559E-13
   10.9399996        -9.57571370E-13
   10.9700003        -1.06619910E-12
   11.0000000        -1.14371858E-12
   11.0299997        -1.18577685E-12
   11.0600004        -1.18913093E-12
   11.0900002        -1.15182028E-12
   11.1199999        -1.07329250E-12
   11.1499996        -9.54476082E-13
   11.1800003        -7.97797917E-13
   11.2100000        -6.07141616E-13
   11.2399998        -3.87750162E-13
   11.2700005        -1.46074830E-13
   11.3000002         1.10424053E-13
   11.3299999         3.73516918E-13
   11.3599997         6.34477551E-13
   11.3900003         8.84378400E-13
   11.4200001         1.11439905E-12
   11.4499998         1.31613579E-12
   11.4799995         1.48190271E-12
   11.5100002         1.60501321E-12
   11.5400000         1.68003014E-12
   11.5699997         1.70297847E-12
   11.6000004         1.67150983E-12
   11.6300001         1.58501445E-12
   11.6599998         1.44467663E-12
   11.6899996         1.25347107E-12
   11.7200003         1.01610181E-12
   11.7500000         7.38885082E-13
   11.7799997         4.29581690E-13
   11.8100004         9.71836882E-14
   11.8400002        -2.48337782E-13
   11.8699999        -5.96316887E-13
   11.8999996        -9.35702037E-13
   11.9300003        -1.25538360E-12
   11.9600000        -1.54453251E-12
   11.9899998        -1.79294481E-12
   12.0200005        -1.99138405E-12
   12.0500002        -2.13191227E-12
   12.0799999        -2.20820172E-12
   12.1099997        -2.21581672E-12
   12.1400003        -2.15245009E-12
   12.1700001        -2.01810357E-12
   12.1999998        -1.81519708E-12
   12.2299995        -1.54859253E-12
   12.2600002        -1.22552359E-12
   12.2900000        -8.55424564E-13
   12.3199997        -4.49656859E-13
   12.3500004        -2.11398807E-14
   12.3800001         4.16101344E-13
   12.4099998         8.47452046E-13
   12.4399996         1.25826118E-12
   12.4700003         1.63440474E-12
   12.5000000         1.96282704E-12
   12.5299997         2.23203248E-12
   12.5600004         2.43250363E-12
   12.5900002         2.55702490E-12
   12.6199999         2.60090647E-12
   12.6499996         2.56210309E-12
   12.6800003         2.44123406E-12
   12.7100000         2.24152142E-12
   12.7399998         1.96865441E-12
   12.7700005         1.63060472E-12
   12.8000002         1.23740070E-12
   12.8299999         8.00873202E-13
   12.8599997         3.34375485E-13
   12.8900003        -1.47526387E-13
   12.9200001        -6.29398931E-13
   12.9499998        -1.09533205E-12
   12.9799995        -1.52938859E-12
   13.0100002        -1.91610985E-12
   13.0400000        -2.24107755E-12
   13.0699997        -2.49151784E-12
   13.1000004        -2.65691527E-12
   13.1300001        -2.72960170E-12
   13.1599998        -2.70527589E-12
   13.1899996        -2.58340029E-12
   13.2200003        -2.36743112E-12
   13.2500000        -2.06484569E-12
   13.2799997        -1.68693911E-12
   13.3100004        -1.24839364E-12
   13.3400002        -7.66635995E-13
   13.3699999        -2.61022188E-13
   13.3999996         2.48090502E-13
   13.4300003         7.40317204E-13
   13.4600000         1.19619299E-12
   13.4899998         1.59802358E-12
   13.5200005         1.93058763E-12
   13.5500002         2.18165698E-12
   13.5799999         2.34231948E-12
   13.6099997         2.40712029E-12
   13.6400003         2.37405495E-12
   13.6700001         2.24446026E-12
   13.6999998         2.02284912E-12
   13.7299995         1.71674122E-12
   13.7600002         1.33651651E-12
   13.7900000         8.95299731E-13
   13.8199997         4.08860066E-13
   13.8500004        -1.04512773E-13
   13.8800001        -6.24218017E-13
   13.9099998        -1.12770253E-12
   13.9399996        -1.59103210E-12
   13.9700003        -1.98972219E-12
   14.0000000        -2.29983957E-12
   14.0299997        -2.49934817E-12
   14.0600004        -2.56963136E-12
   14.0900002        -2.49707958E-12
   14.1199999        -2.27460195E-12
   14.1499996        -1.90289819E-12
   14.1800003        -1.39132629E-12
   14.2100000        -7.58235271E-13
   14.2399998        -3.06571107E-14
   14.2700005         7.56684266E-13