 -6.6666670E-02  1.0000000E-24
 -6.6166669E-02  1.0000000E-24
 -6.5666668E-02  1.0000000E-24
 -6.5166667E-02  1.0000000E-24
 -6.4666666E-02  1.0000000E-24
 -6.4166665E-02  1.0000000E-24
 -6.3666664E-02  1.0000000E-24
 -6.3166663E-02  1.0000000E-24
 -6.2666669E-02  1.0000000E-24
 -6.2166668E-02  1.0000000E-24
 -6.1666667E-02  1.0000000E-24
 -6.1166666E-02  1.0000000E-24
 -6.0666665E-02  1.0000000E-24
 -6.0166668E-02  1.0000000E-24
 -5.9666667E-02  1.0000000E-24
 -5.9166666E-02  1.0000001E-24
 -5.8666665E-02  1.0000001E-24
 -5.8166668E-02  1.0000001E-24
 -5.7666667E-02  1.0000001E-24
 -5.7166666E-02  1.0000000E-24
 -5.6666669E-02  1.0000000E-24
 -5.6166667E-02  1.0000000E-24
 -5.5666666E-02  1.0000000E-24
 -5.5166665E-02  1.0000000E-24
 -5.4666668E-02  1.0000000E-24
 -5.4166667E-02  1.0000000E-24
 -5.3666666E-02  1.0000000E-24
 -5.3166665E-02  9.9999992E-25
 -5.2666668E-02  9.9999992E-25
 -5.2166667E-02  9.9999992E-25
 -5.1666666E-02  9.9999992E-25
 -5.1166665E-02  9.9999992E-25
 -5.0666668E-02  1.0000000E-24
 -5.0166667E-02  1.0000001E-24
 -4.9666665E-02  1.0000001E-24
 -4.9166668E-02  1.0000002E-24
 -4.8666667E-02  1.0000003E-24
 -4.8166666E-02  1.0000003E-24
 -4.7666665E-02  1.0000004E-24
 -4.7166668E-02  1.0000003E-24
 -4.6666667E-02  1.0000003E-24
 -4.6166666E-02  1.0000002E-24
 -4.5666665E-02  1.0000001E-24
 -4.5166668E-02  1.0000000E-24
 -4.4666667E-02  9.9999992E-25
 -4.4166666E-02  9.9999982E-25
 -4.3666668E-02  9.9999982E-25
 -4.3166667E-02  9.9999982E-25
 -4.2666666E-02  9.9999992E-25
 -4.2166665E-02  9.9999992E-25
 -4.1666668E-02  9.9999992E-25
 -4.1166667E-02  9.9999992E-25
 -4.0666666E-02  1.0000000E-24
 -4.0166665E-02  1.0000000E-24
 -3.9666668E-02  1.0000002E-24
 -3.9166667E-02  1.0000002E-24
 -3.8666666E-02  1.0000003E-24
 -3.8166668E-02  1.0000003E-24
 -3.7666667E-02  1.0000003E-24
 -3.7166666E-02  1.0000002E-24
 -3.6666665E-02  1.0000002E-24
 -3.6166668E-02  1.0000001E-24
 -3.5666667E-02  1.0000001E-24
 -3.5166666E-02  1.0000001E-24
 -3.4666665E-02  1.0000001E-24
 -3.4166668E-02  1.0000002E-24
 -3.3666667E-02  1.0000002E-24
 -3.3166666E-02  1.0000001E-24
 -3.2666668E-02  1.0000000E-24
 -3.2166667E-02  1.0000000E-24
 -3.1666666E-02  9.9999992E-25
 -3.1166667E-02  9.9999972E-25
 -3.0666666E-02  9.9999972E-25
 -3.0166667E-02  9.9999972E-25
 -2.9666666E-02  9.9999972E-25
 -2.9166667E-02  9.9999972E-25
 -2.8666666E-02  9.9999982E-25
 -2.8166667E-02  1.0000000E-24
 -2.7666667E-02  1.0000001E-24
 -2.7166666E-02  1.0000002E-24
 -2.6666667E-02  1.0000002E-24
 -2.6166666E-02  1.0000002E-24
 -2.5666667E-02  1.0000002E-24
 -2.5166666E-02  1.0000002E-24
 -2.4666667E-02  1.0000001E-24
 -2.4166666E-02  1.0000001E-24
 -2.3666667E-02  1.0000002E-24
 -2.3166666E-02  1.0000002E-24
 -2.2666667E-02  1.0000002E-24
 -2.2166668E-02  1.0000002E-24
 -2.1666666E-02  1.0000001E-24
 -2.1166667E-02  1.0000001E-24
 -2.0666666E-02  1.0000000E-24
 -2.0166667E-02  9.9999992E-25
 -1.9666666E-02  9.9999972E-25
 -1.9166667E-02  9.9999963E-25
 -1.8666666E-02  9.9999963E-25
 -1.8166667E-02  9.9999963E-25
 -1.7666666E-02  9.9999972E-25
 -1.7166667E-02  9.9999992E-25
 -1.6666668E-02  1.0000001E-24
 -1.6166667E-02  1.0000002E-24
 -1.5666667E-02  1.0000003E-24
 -1.5166666E-02  1.0000004E-24
 -1.4666666E-02  1.0000004E-24
 -1.4166667E-02  1.0000004E-24
 -1.3666667E-02  1.0000003E-24
 -1.3166667E-02  1.0000001E-24
 -1.2666667E-02  1.0000000E-24
 -1.2166667E-02  9.9999992E-25
 -1.1666667E-02  9.9999992E-25
 -1.1166667E-02  9.9999982E-25
 -1.0666667E-02  9.9999982E-25
 -1.0166666E-02  9.9999992E-25
 -9.6666664E-03  9.9999992E-25
 -9.1666663E-03  9.9999992E-25
 -8.6666662E-03  9.9999992E-25
 -8.1666671E-03  9.9999992E-25
 -7.6666665E-03  9.9999992E-25
 -7.1666664E-03  9.9999992E-25
 -6.6666668E-03  9.9999982E-25
 -6.1666667E-03  9.9999992E-25
 -5.6666667E-03  1.0000000E-24
 -5.1666666E-03  1.0000001E-24
 -4.6666665E-03  1.0000002E-24
 -4.1666669E-03  1.0000004E-24
 -3.6666666E-03  1.0000006E-24
 -3.1666667E-03  1.0000007E-24
 -2.6666666E-03  1.0000007E-24
 -2.1666666E-03  1.0000006E-24
 -1.6666667E-03  1.0000005E-24
 -1.1666666E-03  1.0000003E-24
 -6.6666666E-04  1.0000001E-24
 -1.6666666E-04  9.9999992E-25
  3.3333333E-04  9.9999972E-25
  8.3333335E-04  9.9999963E-25
  1.3333333E-03  9.9999953E-25
  1.8333333E-03  9.9999953E-25
  2.3333333E-03  9.9999963E-25
  2.8333333E-03  9.9999972E-25
  3.3333334E-03  9.9999982E-25
  3.8333333E-03  1.0000000E-24
  4.3333331E-03  1.0000002E-24
  4.8333332E-03  1.0000003E-24
  5.3333333E-03  1.0000004E-24
  5.8333334E-03  1.0000004E-24
  6.3333334E-03  1.0000003E-24
  6.8333335E-03  1.0000003E-24
  7.3333331E-03  1.0000001E-24
  7.8333337E-03  1.0000000E-24
  8.3333338E-03  9.9999992E-25
  8.8333329E-03  9.9999992E-25
  9.3333330E-03  1.0000000E-24
  9.8333331E-03  1.0000000E-24
  1.0333333E-02  1.0000001E-24
  1.0833333E-02  1.0000003E-24
  1.1333333E-02  1.0000004E-24
  1.1833333E-02  1.0000004E-24
  1.2333333E-02  1.0000004E-24
  1.2833334E-02  1.0000003E-24
  1.3333334E-02  1.0000001E-24
  1.3833334E-02  1.0000000E-24
  1.4333333E-02  9.9999992E-25
  1.4833333E-02  9.9999992E-25
  1.5333333E-02  9.9999992E-25
  1.5833333E-02  9.9999992E-25
  1.6333334E-02  1.0000000E-24
  1.6833333E-02  1.0000001E-24
  1.7333332E-02  1.0000001E-24
  1.7833333E-02  1.0000003E-24
  1.8333333E-02  1.0000003E-24
  1.8833334E-02  1.0000003E-24
  1.9333333E-02  1.0000002E-24
  1.9833334E-02  1.0000002E-24
  2.0333333E-02  1.0000002E-24
  2.0833334E-02  1.0000002E-24
  2.1333333E-02  1.0000001E-24
  2.1833334E-02  1.0000000E-24
  2.2333333E-02  1.0000000E-24
  2.2833332E-02  1.0000000E-24
  2.3333333E-02  1.0000000E-24
  2.3833333E-02  9.9999992E-25
  2.4333334E-02  9.9999982E-25
  2.4833333E-02  9.9999982E-25
  2.5333334E-02  9.9999972E-25
  2.5833333E-02  9.9999972E-25
  2.6333334E-02  9.9999963E-25
  2.6833333E-02  9.9999963E-25
  2.7333334E-02  9.9999972E-25
  2.7833333E-02  9.9999982E-25
  2.8333334E-02  1.0000000E-24
  2.8833333E-02  1.0000003E-24
  2.9333333E-02  1.0000005E-24
  2.9833334E-02  1.0000007E-24
  3.0333333E-02  1.0000007E-24
  3.0833334E-02  1.0000007E-24
  3.1333335E-02  1.0000005E-24
  3.1833332E-02  1.0000004E-24
  3.2333333E-02  1.0000001E-24
  3.2833334E-02  9.9999992E-25
  3.3333335E-02  9.9999982E-25
  3.3833332E-02  9.9999972E-25
  3.4333333E-02  9.9999972E-25
  3.4833334E-02  9.9999982E-25
  3.5333332E-02  9.9999992E-25
  3.5833333E-02  1.0000000E-24
  3.6333334E-02  1.0000001E-24
  3.6833335E-02  1.0000002E-24
  3.7333332E-02  1.0000002E-24
  3.7833333E-02  1.0000003E-24
  3.8333334E-02  1.0000003E-24
  3.8833335E-02  1.0000002E-24
  3.9333332E-02  1.0000001E-24
  3.9833333E-02  1.0000000E-24
  4.0333334E-02  9.9999992E-25
  4.0833332E-02  9.9999982E-25
  4.1333333E-02  9.9999982E-25
  4.1833334E-02  9.9999992E-25
  4.2333335E-02  1.0000000E-24
  4.2833332E-02  1.0000001E-24
  4.3333333E-02  1.0000002E-24
  4.3833334E-02  1.0000003E-24
  4.4333335E-02  1.0000004E-24
  4.4833332E-02  1.0000003E-24
  4.5333333E-02  1.0000002E-24
  4.5833334E-02  1.0000000E-24
  4.6333332E-02  9.9999982E-25
  4.6833333E-02  9.9999972E-25
  4.7333334E-02  9.9999963E-25
  4.7833335E-02  9.9999972E-25
  4.8333332E-02  9.9999982E-25
  4.8833333E-02  1.0000001E-24
  4.9333334E-02  1.0000003E-24
  4.9833335E-02  1.0000004E-24
  5.0333332E-02  1.0000005E-24
  5.0833333E-02  1.0000004E-24
  5.1333334E-02  1.0000003E-24
  5.1833332E-02  1.0000002E-24
  5.2333333E-02  1.0000000E-24
  5.2833334E-02  9.9999992E-25
  5.3333335E-02  9.9999982E-25
  5.3833332E-02  9.9999982E-25
  5.4333333E-02  9.9999992E-25
  5.4833334E-02  1.0000000E-24
  5.5333335E-02  1.0000001E-24
  5.5833332E-02  1.0000001E-24
  5.6333333E-02  1.0000002E-24
  5.6833334E-02  1.0000003E-24
  5.7333332E-02  1.0000003E-24
  5.7833333E-02  1.0000002E-24
  5.8333334E-02  1.0000000E-24
  5.8833335E-02  9.9999992E-25
  5.9333332E-02  1.0000000E-24
  5.9833333E-02  1.0000000E-24
  6.0333334E-02  1.0000000E-24
  6.0833335E-02  1.0000002E-24
  6.1333332E-02  1.0000003E-24
  6.1833333E-02  1.0000003E-24
  6.2333334E-02  1.0000004E-24
  6.2833332E-02  1.0000004E-24
  6.3333333E-02  1.0000003E-24
  6.3833334E-02  1.0000002E-24
  6.4333335E-02  1.0000001E-24
  6.4833336E-02  1.0000001E-24
  6.5333337E-02  1.0000000E-24
  6.5833330E-02  1.0000000E-24
  6.6333331E-02  1.0000000E-24
  6.6833332E-02  1.0000001E-24
  6.7333333E-02  1.0000001E-24
  6.7833334E-02  1.0000001E-24
  6.8333335E-02  1.0000001E-24
  6.8833336E-02  1.0000001E-24
  6.9333330E-02  1.0000001E-24
  6.9833331E-02  1.0000000E-24
  7.0333332E-02  9.9999992E-25
  7.0833333E-02  9.9999982E-25
  7.1333334E-02  9.9999982E-25
  7.1833335E-02  1.0000000E-24
  7.2333336E-02  1.0000000E-24
  7.2833337E-02  1.0000001E-24
  7.3333330E-02  1.0000001E-24
  7.3833331E-02  1.0000002E-24
  7.4333332E-02  1.0000003E-24
  7.4833333E-02  1.0000003E-24
  7.5333335E-02  1.0000004E-24
  7.5833336E-02  1.0000004E-24
  7.6333337E-02  1.0000004E-24
  7.6833330E-02  1.0000003E-24
  7.7333331E-02  1.0000002E-24
  7.7833332E-02  1.0000001E-24
  7.8333333E-02  1.0000000E-24
  7.8833334E-02  1.0000000E-24
  7.9333335E-02  9.9999992E-25
  7.9833336E-02  9.9999992E-25
  8.0333330E-02  9.9999992E-25
  8.0833331E-02  1.0000000E-24
  8.1333332E-02  1.0000000E-24
  8.1833333E-02  1.0000000E-24
  8.2333334E-02  1.0000001E-24
  8.2833335E-02  1.0000001E-24
  8.3333336E-02  1.0000002E-24
  8.3833337E-02  1.0000002E-24
  8.4333330E-02  1.0000001E-24
  8.4833331E-02  1.0000001E-24
  8.5333332E-02  1.0000001E-24
  8.5833333E-02  1.0000001E-24
  8.6333334E-02  1.0000001E-24
  8.6833335E-02  1.0000001E-24
  8.7333336E-02  1.0000001E-24
  8.7833330E-02  1.0000001E-24
  8.8333331E-02  1.0000002E-24
  8.8833332E-02  1.0000002E-24
  8.9333333E-02  1.0000003E-24
  8.9833334E-02  1.0000003E-24
  9.0333335E-02  1.0000003E-24
  9.0833336E-02  1.0000003E-24
  9.1333330E-02  1.0000002E-24
  9.1833331E-02  1.0000001E-24
  9.2333332E-02  1.0000000E-24
  9.2833333E-02  9.9999992E-25
  9.3333334E-02  9.9999992E-25
  9.3833335E-02  9.9999992E-25
  9.4333336E-02  1.0000000E-24
  9.4833337E-02  1.0000001E-24
  9.5333330E-02  1.0000002E-24
  9.5833331E-02  1.0000003E-24
  9.6333332E-02  1.0000003E-24
  9.6833333E-02  1.0000003E-24
  9.7333334E-02  1.0000002E-24
  9.7833335E-02  1.0000001E-24
  9.8333336E-02  1.0000001E-24
  9.8833330E-02  1.0000000E-24
  9.9333331E-02  1.0000000E-24
  9.9833332E-02  1.0000000E-24
  0.1003333      1.0000001E-24
  0.1008333      1.0000001E-24
  0.1013333      1.0000001E-24
  0.1018333      1.0000002E-24
  0.1023333      1.0000002E-24
  0.1028333      1.0000002E-24
  0.1033333      1.0000002E-24
  0.1038333      1.0000002E-24
  0.1043333      1.0000002E-24
  0.1048333      1.0000002E-24
  0.1053333      1.0000001E-24
  0.1058333      1.0000000E-24
  0.1063333      9.9999992E-25
  0.1068333      9.9999992E-25
  0.1073333      1.0000000E-24
  0.1078333      1.0000000E-24
  0.1083333      1.0000000E-24
  0.1088333      1.0000001E-24
  0.1093333      1.0000002E-24
  0.1098333      1.0000002E-24
  0.1103333      1.0000001E-24
  0.1108333      1.0000000E-24
  0.1113333      1.0000000E-24
  0.1118333      1.0000001E-24
  0.1123333      1.0000000E-24
  0.1128333      1.0000001E-24
  0.1133333      1.0000002E-24
  0.1138333      1.0000003E-24
  0.1143333      1.0000004E-24
  0.1148333      1.0000005E-24
  0.1153333      1.0000005E-24
  0.1158333      1.0000005E-24
  0.1163333      1.0000004E-24
  0.1168333      1.0000001E-24
  0.1173333      9.9999992E-25
  0.1178333      9.9999992E-25
  0.1183333      9.9999992E-25
  0.1188333      9.9999992E-25
  0.1193333      9.9999992E-25
  0.1198333      1.0000001E-24
  0.1203333      1.0000003E-24
  0.1208333      1.0000005E-24
  0.1213333      1.0000008E-24
  0.1218333      1.0000010E-24
  0.1223333      1.0000009E-24
  0.1228333      1.0000005E-24
  0.1233333      9.9999982E-25
  0.1238333      9.9999884E-25
  0.1243333      9.9999775E-25
  0.1248333      9.9999726E-25
  0.1253333      9.9999746E-25
  0.1258333      9.9999864E-25
  0.1263333      1.0000007E-24
  0.1268333      1.0000033E-24
  0.1273333      1.0000058E-24
  0.1278333      1.0000074E-24
  0.1283333      1.0000075E-24
  0.1288333      1.0000053E-24
  0.1293333      1.0000010E-24
  0.1298333      9.9999460E-25
  0.1303333      9.9998740E-25
  0.1308333      9.9998089E-25
  0.1313333      9.9997754E-25
  0.1318333      9.9997951E-25
  0.1323333      9.9998858E-25
  0.1328333      1.0000049E-24
  0.1333333      1.0000267E-24
  0.1338333      1.0000493E-24
  0.1343333      1.0000662E-24
  0.1348333      1.0000697E-24
  0.1353333      1.0000539E-24
  0.1358333      1.0000158E-24
  0.1363333      9.9995841E-25
  0.1368333      9.9989096E-25
  0.1373333      9.9982913E-25
  0.1378333      9.9979255E-25
  0.1383333      9.9980093E-25
  0.1388333      9.9986867E-25
  0.1393333      9.9999953E-25
  0.1398333      1.0001816E-24
  0.1403333      1.0003841E-24
  0.1408333      1.0005593E-24
  0.1413333      1.0006484E-24
  0.1418333      1.0005932E-24
  0.1423333      1.0003526E-24
  0.1428333      9.9992015E-25
  0.1433333      9.9933935E-25
  0.1438333      9.9871102E-25
  0.1443333      9.9818722E-25
  0.1448333      9.9794888E-25
  0.1453333      9.9816927E-25
  0.1458333      9.9896434E-25
  0.1463333      1.0003425E-24
  0.1468333      1.0021627E-24
  0.1473333      1.0041183E-24
  0.1478333      1.0057539E-24
  0.1483333      1.0065275E-24
  0.1488333      1.0059157E-24
  0.1493333      1.0035509E-24
  0.1498333      9.9936972E-25
  0.1503333      9.9374061E-25
  0.1508333      9.8752872E-25
  0.1513333      9.8206438E-25
  0.1518333      9.7898536E-25
  0.1523333      9.7994698E-25
  0.1528333      9.8622799E-25
  0.1533333      9.9828563E-25
  0.1538333      1.0153525E-24
  0.1543333      1.0351841E-24
  0.1548333      1.0540645E-24
  0.1553333      1.0671578E-24
  0.1558333      1.0692374E-24
  0.1563333      1.0557548E-24
  0.1568333      1.0241191E-24
  0.1573333      9.7496848E-25
  0.1578333      9.1315403E-25
  0.1583333      8.4811816E-25
  0.1588333      7.9338847E-25
  0.1593333      7.6500550E-25
  0.1598333      7.7887348E-25
  0.1603333      8.4725436E-25
  0.1608333      9.7487283E-25
  0.1613333      1.1553328E-24
  0.1618333      1.3686931E-24
  0.1623333      1.5810765E-24
  0.1628333      1.7470338E-24
  0.1633333      1.8150443E-24
  0.1638333      1.7360229E-24
  0.1643333      1.4740696E-24
  0.1648333      1.0180327E-24
  0.1653333      3.9187970E-25
  0.1658333     -3.3848619E-25
  0.1663333     -1.0643368E-24
  0.1668333     -1.6410987E-24
  0.1673333     -1.9042414E-24
  0.1678333     -1.6937619E-24
  0.1683333     -8.8532577E-25
  0.1688333      5.7561849E-25
  0.1693333      2.6419494E-24
  0.1698333      5.1414120E-24
  0.1703333      7.7679954E-24
  0.1708333      1.0093702E-23
  0.1713333      1.1604312E-23
  0.1718333      1.1759751E-23
  0.1723333      1.0075861E-23
  0.1728333      6.2202732E-24
  0.1733333      1.1120868E-25
  0.1738333     -7.9950177E-24
  0.1743333     -1.7443447E-23
  0.1748333     -2.7162119E-23
  0.1753333     -3.5698389E-23
  0.1758333     -4.1317486E-23
  0.1763333     -4.2164230E-23
  0.1768333     -3.6480958E-23
  0.1773333     -2.2867058E-23
  0.1778333     -5.5875817E-25
  0.1783333      3.0296607E-23
  0.1788333      6.8398904E-23
  0.1793333      1.1111040E-22
  0.1798333      1.5434614E-22
  0.1803333      1.9254778E-22
  0.1808333      2.1873702E-22
  0.1813333      2.2463240E-22
  0.1818333      2.0079966E-22
  0.1823333      1.3679859E-22
  0.1828333      2.1280324E-23
  0.1833333     -1.5800758E-22
  0.1838333     -4.1435001E-22
  0.1843333     -7.6235710E-22
  0.1848333     -1.2184389E-21
  0.1853333     -1.8014635E-21
  0.1858333     -2.5335908E-21
  0.1863333     -3.4412563E-21
  0.1868333     -4.5562805E-21
  0.1873333     -5.9170697E-21
  0.1878333     -7.5699014E-21
  0.1883333     -9.5702664E-21
  0.1888333     -1.1984290E-20
  0.1893333     -1.4890256E-20
  0.1898333     -1.8380299E-20
  0.1903333     -2.2562282E-20
  0.1908333     -2.7562004E-20
  0.1913333     -3.3525769E-20
  0.1918333     -4.0623360E-20
  0.1923333     -4.9051594E-20
  0.1928333     -5.9038401E-20
  0.1933333     -7.0847522E-20
  0.1938333     -8.4783803E-20
  0.1943333     -1.0119910E-19
  0.1948333     -1.2049893E-19
  0.1953333     -1.4314960E-19
  0.1958333     -1.6968610E-19
  0.1963333     -2.0072064E-19
  0.1968333     -2.3695196E-19
  0.1973333     -2.7917540E-19
  0.1978333     -3.2829387E-19
  0.1983333     -3.8532978E-19
  0.1988333     -4.5143801E-19
  0.1993333     -5.2792011E-19
  0.1998333     -6.1623958E-19
  0.2003333     -7.1803816E-19
  0.2008333     -8.3515391E-19
  0.2013333     -9.6963973E-19
  0.2018333     -1.1237834E-18
  0.2023333     -1.3001282E-18
  0.2028333     -1.5014944E-18
  0.2033333     -1.7310026E-18
  0.2038333     -1.9920945E-18
  0.2043333     -2.2885577E-18
  0.2048333     -2.6245469E-18
  0.2053333     -3.0046099E-18
  0.2058333     -3.4337061E-18
  0.2063333     -3.9172317E-18
  0.2068333     -4.4610392E-18
  0.2073333     -5.0714588E-18
  0.2078333     -5.7553134E-18
  0.2083333     -6.5199356E-18
  0.2088333     -7.3731819E-18
  0.2093333     -8.3234387E-18
  0.2098333     -9.3796326E-18
  0.2103333     -1.0551225E-17
  0.2108333     -1.1848208E-17
  0.2113333     -1.3281097E-17
  0.2118333     -1.4860905E-17
  0.2123333     -1.6599123E-17
  0.2128333     -1.8507675E-17
  0.2133333     -2.0598892E-17
  0.2138333     -2.2885434E-17
  0.2143333     -2.5380247E-17
  0.2148333     -2.8096473E-17
  0.2153333     -3.1047374E-17
  0.2158333     -3.4246227E-17
  0.2163333     -3.7706211E-17
  0.2168333     -4.1440290E-17
  0.2173333     -4.5461082E-17
  0.2178333     -4.9780695E-17
  0.2183333     -5.4410584E-17
  0.2188333     -5.9361353E-17
  0.2193333     -6.4642610E-17
  0.2198333     -7.0262733E-17
  0.2203333     -7.6228717E-17
  0.2208333     -8.2545902E-17
  0.2213333     -8.9217822E-17
  0.2218333     -9.6245945E-17
  0.2223333     -1.0362945E-16
  0.2228333     -1.1136503E-16
  0.2233333     -1.1944665E-16
  0.2238333     -1.2786539E-16
  0.2243333     -1.3660917E-16
  0.2248333     -1.4566256E-16
  0.2253333     -1.5500671E-16
  0.2258333     -1.6461905E-16
  0.2263333     -1.7447329E-16
  0.2268333     -1.8453918E-16
  0.2273333     -1.9478248E-16
  0.2278333     -2.0516502E-16
  0.2283333     -2.1564450E-16
  0.2288333     -2.2617466E-16
  0.2293333     -2.3670518E-16
  0.2298333     -2.4718205E-16
  0.2303333     -2.5754744E-16
  0.2308333     -2.6774007E-16
  0.2313333     -2.7769546E-16
  0.2318333     -2.8734611E-16
  0.2323333     -2.9662199E-16
  0.2328333     -3.0545077E-16
  0.2333333     -3.1375847E-16
  0.2338333     -3.2146970E-16
  0.2343333     -3.2850839E-16
  0.2348333     -3.3479822E-16
  0.2353333     -3.4026330E-16
  0.2358333     -3.4482873E-16
  0.2363333     -3.4842131E-16
  0.2368333     -3.5097017E-16
  0.2373333     -3.5240753E-16
  0.2378333     -3.5266926E-16
  0.2383333     -3.5169565E-16
  0.2388333     -3.4943219E-16
  0.2393333     -3.4582995E-16
  0.2398333     -3.4084656E-16
  0.2403333     -3.3444651E-16
  0.2408333     -3.2660193E-16
  0.2413333     -3.1729298E-16
  0.2418333     -3.0650840E-16
  0.2423333     -2.9424583E-16
  0.2428333     -2.8051214E-16
  0.2433333     -2.6532381E-16
  0.2438333     -2.4870695E-16
  0.2443333     -2.3069747E-16
  0.2448333     -2.1134106E-16
  0.2453333     -1.9069311E-16
  0.2458333     -1.6881856E-16
  0.2463333     -1.4579163E-16
  0.2468333     -1.2169541E-16
  0.2473333     -9.6621452E-17
  0.2478333     -7.0669302E-17
  0.2483333     -4.3945790E-17
  0.2488333     -1.6564394E-17
  0.2493333      1.1355522E-17
  0.2498333      3.9689499E-17
  0.2503333      6.8308899E-17
  0.2508333      9.7081808E-17
  0.2513333      1.2587395E-16
  0.2518333      1.5454974E-16
  0.2523333      1.8297322E-16
  0.2528333      2.1100913E-16
  0.2533333      2.3852387E-16
  0.2538333      2.6538646E-16
  0.2543333      2.9146957E-16
  0.2548333      3.1665046E-16
  0.2553333      3.4081175E-16
  0.2558333      3.6384250E-16
  0.2563333      3.8563872E-16
  0.2568333      4.0610428E-16
  0.2573333      4.2515141E-16
  0.2578333      4.4270135E-16
  0.2583333      4.5868486E-16
  0.2588333      4.7304265E-16
  0.2593333      4.8572538E-16
  0.2598333      4.9669409E-16
  0.2603333      5.0592060E-16
  0.2608333      5.1338699E-16
  0.2613333      5.1908582E-16
  0.2618333      5.2301992E-16
  0.2623333      5.2520241E-16
  0.2628333      5.2565594E-16
  0.2633333      5.2441271E-16
  0.2638333      5.2151363E-16
  0.2643333      5.1700826E-16
  0.2648333      5.1095383E-16
  0.2653333      5.0341482E-16
  0.2658333      4.9446226E-16
  0.2663333      4.8417309E-16
  0.2668333      4.7262940E-16
  0.2673333      4.5991761E-16
  0.2678333      4.4612797E-16
  0.2683333      4.3135354E-16
  0.2688333      4.1568965E-16
  0.2693333      3.9923307E-16
  0.2698333      3.8208134E-16
  0.2703333      3.6433203E-16
  0.2708333      3.4608215E-16
  0.2713333      3.2742749E-16
  0.2718333      3.0846211E-16
  0.2723333      2.8927771E-16
  0.2728333      2.6996316E-16
  0.2733333      2.5060412E-16
  0.2738333      2.3128248E-16
  0.2743333      2.1207618E-16
  0.2748333      1.9305883E-16
  0.2753333      1.7429942E-16
  0.2758333      1.5586219E-16
  0.2763333      1.3780640E-16
  0.2768333      1.2018631E-16
  0.2773333      1.0305103E-16
  0.2778333      8.6444563E-17
  0.2783333      7.0405782E-17
  0.2788333      5.4968508E-17
  0.2793333      4.0161587E-17
  0.2798333      2.6009038E-17
  0.2803333      1.2530166E-17
  0.2808333     -2.6023474E-19
  0.2813333     -1.2351699E-17
  0.2818333     -2.3737868E-17
  0.2823333     -3.4416275E-17
  0.2828333     -4.4388077E-17
  0.2833333     -5.3657823E-17
  0.2838333     -6.2233218E-17
  0.2843333     -7.0124799E-17
  0.2848333     -7.7345742E-17
  0.2853333     -8.3911551E-17
  0.2858333     -8.9839822E-17
  0.2863333     -9.5149990E-17
  0.2868333     -9.9863074E-17
  0.2873333     -1.0400144E-16
  0.2878333     -1.0758857E-16
  0.2883333     -1.1064885E-16
  0.2888333     -1.1320737E-16
  0.2893333     -1.1528971E-16
  0.2898333     -1.1692177E-16
  0.2903333     -1.1812957E-16
  0.2908333     -1.1893916E-16
  0.2913333     -1.1937640E-16
  0.2918333     -1.1946688E-16
  0.2923333     -1.1923574E-16
  0.2928333     -1.1870768E-16
  0.2933333     -1.1790675E-16
  0.2938333     -1.1685633E-16
  0.2943333     -1.1557905E-16
  0.2948333     -1.1409671E-16
  0.2953333     -1.1243027E-16
  0.2958333     -1.1059979E-16
  0.2963333     -1.0862440E-16
  0.2968333     -1.0652226E-16
  0.2973333     -1.0431061E-16
  0.2978333     -1.0200568E-16
  0.2983333     -9.9622754E-17
  0.2988333     -9.7176159E-17
  0.2993333     -9.4679238E-17
  0.2998333     -9.2144433E-17
  0.3003333     -8.9583257E-17
  0.3008333     -8.7006338E-17
  0.3013333     -8.4423436E-17
  0.3018333     -8.1843480E-17
  0.3023333     -7.9274594E-17
  0.3028333     -7.6724138E-17
  0.3033333     -7.4198736E-17
  0.3038333     -7.1704310E-17
  0.3043333     -6.9246108E-17
  0.3048333     -6.6828769E-17
  0.3053333     -6.4456329E-17
  0.3058333     -6.2132242E-17
  0.3063333     -5.9859468E-17
  0.3068333     -5.7640473E-17
  0.3073333     -5.5477267E-17
  0.3078333     -5.3371420E-17
  0.3083333     -5.1324122E-17
  0.3088333     -4.9336198E-17
  0.3093333     -4.7408143E-17
  0.3098333     -4.5540121E-17
  0.3103333     -4.3732027E-17
  0.3108333     -4.1983483E-17
  0.3113333     -4.0293883E-17
  0.3118333     -3.8662389E-17
  0.3123333     -3.7087966E-17
  0.3128333     -3.5569385E-17
  0.3133333     -3.4105242E-17
  0.3138333     -3.2693980E-17
  0.3143333     -3.1333873E-17
  0.3148333     -3.0023070E-17
  0.3153333     -2.8759564E-17
  0.3158333     -2.7541230E-17
  0.3163333     -2.6365811E-17
  0.3168333     -2.5230926E-17
  0.3173333     -2.4134071E-17
  0.3178333     -2.3072615E-17
  0.3183333     -2.2043801E-17
  0.3188333     -2.1044740E-17
  0.3193333     -2.0072411E-17
  0.3198333     -1.9123648E-17
  0.3203333     -1.8195145E-17
  0.3208333     -1.7283429E-17
  0.3213333     -1.6384876E-17
  0.3218333     -1.5495685E-17
  0.3223333     -1.4611876E-17
  0.3228333     -1.3729280E-17
  0.3233333     -1.2843530E-17
  0.3238333     -1.1950050E-17
  0.3243333     -1.1044047E-17
  0.3248333     -1.0120501E-17
  0.3253333     -9.1741609E-18
  0.3258333     -8.1995345E-18
  0.3263333     -7.1908846E-18
  0.3268333     -6.1422259E-18
  0.3273333     -5.0473237E-18
  0.3278333     -3.8996934E-18
  0.3283333     -2.6925999E-18
  0.3288333     -1.4190640E-18
  0.3293333     -7.1868508E-20
  0.3298333      1.3564307E-18
  0.3303333      2.8734935E-18
  0.3308333      4.4871761E-18
  0.3313333      6.2055081E-18
  0.3318333      8.0366718E-18
  0.3323333      9.9889677E-18
  0.3328333      1.2070785E-17
  0.3333333      1.4290561E-17
  0.3338333      1.6656724E-17
  0.3343333      1.9177676E-17
  0.3348333      2.1861712E-17
  0.3353333      2.4716972E-17
  0.3358333      2.7751383E-17
  0.3363333      3.0972594E-17
  0.3368333      3.4387893E-17
  0.3373333      3.8004145E-17
  0.3378333      4.1827695E-17
  0.3383333      4.5864303E-17
  0.3388333      5.0119042E-17
  0.3393333      5.4596233E-17
  0.3398333      5.9299327E-17
  0.3403333      6.4230839E-17
  0.3408333      6.9392241E-17
  0.3413333      7.4783890E-17
  0.3418333      8.0404914E-17
  0.3423333      8.6253140E-17
  0.3428333      9.2325010E-17
  0.3433333      9.8615500E-17
  0.3438333      1.0511804E-16
  0.3443333      1.1182446E-16
  0.3448333      1.1872490E-16
  0.3453333      1.2580782E-16
  0.3458333      1.3305985E-16
  0.3463333      1.4046588E-16
  0.3468333      1.4800896E-16
  0.3473333      1.5567031E-16
  0.3478333      1.6342932E-16
  0.3483333      1.7126360E-16
  0.3488333      1.7914896E-16
  0.3493333      1.8705951E-16
  0.3498333      1.9496770E-16
  0.3503333      2.0284433E-16
  0.3508333      2.1065879E-16
  0.3513333      2.1837904E-16
  0.3518333      2.2597182E-16
  0.3523333      2.3340268E-16
  0.3528333      2.4063624E-16
  0.3533333      2.4763638E-16
  0.3538333      2.5436627E-16
  0.3543333      2.6078874E-16
  0.3548333      2.6686633E-16
  0.3553333      2.7256168E-16
  0.3558333      2.7783753E-16
  0.3563333      2.8265709E-16
  0.3568333      2.8698429E-16
  0.3573333      2.9078400E-16
  0.3578333      2.9402210E-16
  0.3583333      2.9666601E-16
  0.3588333      2.9868468E-16
  0.3593333      3.0004887E-16
  0.3598333      3.0073156E-16
  0.3603333      3.0070784E-16
  0.3608333      2.9995544E-16
  0.3613333      2.9845468E-16
  0.3618333      2.9618876E-16
  0.3623333      2.9314384E-16
  0.3628333      2.8930937E-16
  0.3633333      2.8467793E-16
  0.3638333      2.7924559E-16
  0.3643333      2.7301185E-16
  0.3648333      2.6597978E-16
  0.3653333      2.5815595E-16
  0.3658333      2.4955062E-16
  0.3663333      2.4017754E-16
  0.3668333      2.3005410E-16
  0.3673333      2.1920106E-16
  0.3678333      2.0764272E-16
  0.3683333      1.9540660E-16
  0.3688333      1.8252348E-16
  0.3693333      1.6902715E-16
  0.3698333      1.5495429E-16
  0.3703333      1.4034431E-16
  0.3708333      1.2523909E-16
  0.3713333      1.0968280E-16
  0.3718333      9.3721707E-17
  0.3723333      7.7403849E-17
  0.3728333      6.0778869E-17
  0.3733333      4.3897688E-17
  0.3738333      2.6812284E-17
  0.3743333      9.5754163E-18
  0.3748333     -7.7596622E-18
  0.3753333     -2.5139466E-17
  0.3758333     -4.2510562E-17
  0.3763333     -5.9819823E-17
  0.3768333     -7.7014710E-17
  0.3773333     -9.4043487E-17
  0.3778333     -1.1085552E-16
  0.3783333     -1.2740148E-16
  0.3788333     -1.4363360E-16
  0.3793333     -1.5950583E-16
  0.3798333     -1.7497410E-16
  0.3803333     -1.8999640E-16
  0.3808333     -2.0453307E-16
  0.3813333     -2.1854688E-16
  0.3818333     -2.3200317E-16
  0.3823333     -2.4486992E-16
  0.3828333     -2.5711794E-16
  0.3833333     -2.6872094E-16
  0.3838333     -2.7965547E-16
  0.3843333     -2.8990108E-16
  0.3848333     -2.9944023E-16
  0.3853333     -3.0825845E-16
  0.3858333     -3.1634417E-16
  0.3863333     -3.2368885E-16
  0.3868333     -3.3028676E-16
  0.3873333     -3.3613505E-16
  0.3878333     -3.4123371E-16
  0.3883333     -3.4558531E-16
  0.3888333     -3.4919513E-16
  0.3893333     -3.5207091E-16
  0.3898333     -3.5422272E-16
  0.3903333     -3.5566299E-16
  0.3908333     -3.5640619E-16
  0.3913333     -3.5646876E-16
  0.3918333     -3.5586909E-16
  0.3923333     -3.5462720E-16
  0.3928333     -3.5276474E-16
  0.3933333     -3.5030469E-16
  0.3938333     -3.4727133E-16
  0.3943333     -3.4369005E-16
  0.3948333     -3.3958718E-16
  0.3953333     -3.3498983E-16
  0.3958333     -3.2992584E-16
  0.3963333     -3.2442352E-16
  0.3968333     -3.1851157E-16
  0.3973333     -3.1221902E-16
  0.3978333     -3.0557492E-16
  0.3983333     -2.9860836E-16
  0.3988333     -2.9134834E-16
  0.3993333     -2.8382354E-16
  0.3998333     -2.7606244E-16
  0.4003333     -2.6809297E-16
  0.4008333     -2.5994266E-16
  0.4013333     -2.5163829E-16
  0.4018333     -2.4320613E-16
  0.4023333     -2.3467156E-16
  0.4028333     -2.2605922E-16
  0.4033333     -2.1739290E-16
  0.4038333     -2.0869539E-16
  0.4043333     -1.9998862E-16
  0.4048333     -1.9129347E-16
  0.4053333     -1.8262986E-16
  0.4058333     -1.7401661E-16
  0.4063333     -1.6547151E-16
  0.4068333     -1.5701129E-16
  0.4073333     -1.4865157E-16
  0.4078333     -1.4040696E-16
  0.4083333     -1.3229094E-16
  0.4088333     -1.2431599E-16
  0.4093333     -1.1649347E-16
  0.4098333     -1.0883376E-16
  0.4103333     -1.0134622E-16
  0.4108333     -9.4039206E-17
  0.4113333     -8.6920119E-17
  0.4118333     -7.9995426E-17
  0.4123333     -7.3270679E-17
  0.4128333     -6.6750577E-17
  0.4133333     -6.0438964E-17
  0.4138333     -5.4338894E-17
  0.4143333     -4.8452627E-17
  0.4148333     -4.2781725E-17
  0.4153333     -3.7327045E-17
  0.4158333     -3.2088798E-17
  0.4163333     -2.7066580E-17