 -0.239999995       0.00000000    
 -0.231999993       0.00000000    
 -0.224000007       0.00000000    
 -0.216000006       0.00000000    
 -0.208000004       0.00000000    
 -0.200000003       0.00000000    
 -0.192000002       0.00000000    
 -0.184000000       0.00000000    
 -0.175999999       0.00000000    
 -0.167999998      -1.04676995E-42
 -0.159999996      -5.38755593E-36
 -0.151999995      -3.42175931E-35
 -0.143999994       2.12320869E-35
 -0.136000007       8.20531424E-34
 -0.128000006       2.81525773E-33
 -0.119999997       8.60016646E-34
 -0.112000003      -2.05660730E-32
 -0.104000002      -6.33000828E-32
  -9.60000008E-02  -4.75776166E-32
  -8.79999995E-02   1.95355324E-31
  -7.99999982E-02   6.59728102E-31
  -7.19999969E-02   7.06800162E-31
  -6.40000030E-02  -7.94749568E-31
  -5.60000017E-02  -3.86074738E-30
  -4.80000004E-02  -5.32470729E-30
  -3.99999991E-02   1.14963688E-31
  -3.20000015E-02   1.34225912E-29
  -2.40000002E-02   2.42500986E-29
  -1.60000008E-02   1.44952725E-29
  -8.00000038E-03  -2.33942650E-29
   1.38777878E-17  -6.81875738E-29
   8.00000038E-03  -7.62249188E-29
   1.60000008E-02  -1.69723961E-29
   2.40000002E-02   9.26012275E-29
   3.20000015E-02   1.91274503E-28
   3.99999991E-02   2.10844623E-28
   4.80000004E-02   1.05795364E-28
   5.60000017E-02  -1.41515057E-28
   6.40000030E-02  -4.95646208E-28
   7.19999969E-02  -7.90699687E-28
   7.99999982E-02  -6.94259371E-28
   8.79999995E-02   1.09747433E-28
   9.60000008E-02   1.50844341E-27
  0.104000002       2.66675585E-27
  0.112000003       2.34507836E-27
  0.119999997      -1.09855598E-28
  0.128000006      -3.80306645E-27
  0.136000007      -6.37475031E-27
  0.143999994      -5.45872872E-27
  0.151999995      -5.87944186E-28
  0.159999996       6.02793000E-27
  0.167999998       1.06824177E-26
  0.175999999       1.05277756E-26
  0.184000000       5.30022392E-27
  0.192000002      -2.83589525E-27
  0.200000003      -1.09191977E-26
  0.208000004      -1.66736692E-26
  0.216000006      -1.85908646E-26
  0.224000007      -1.49939332E-26
  0.231999993      -3.81242994E-27
  0.239999995       1.55483421E-26
  0.247999996       3.89129153E-26
  0.256000012       5.55098678E-26
  0.263999999       5.08651472E-26
  0.272000015       1.51213049E-26
  0.280000001      -4.69211786E-26
  0.287999988      -1.11096797E-25
  0.296000004      -1.40679180E-25
  0.303999990      -1.04789029E-25
  0.312000006      -3.89637024E-29
  0.319999993       1.38124368E-25
  0.328000009       2.44946044E-25
  0.335999995       2.56193007E-25
  0.344000012       1.44436833E-25
  0.351999998      -5.88168158E-26
  0.360000014      -2.70438306E-25
  0.368000001      -3.92163291E-25
  0.375999987      -3.58884282E-25
  0.384000003      -1.73025127E-25
  0.391999990       9.45484123E-26
  0.400000006       3.38474749E-25
  0.407999992       4.68907254E-25
  0.416000009       4.48961153E-25
  0.423999995       2.99049872E-25
  0.432000011       7.01815404E-26
  0.439999998      -1.89305207E-25
  0.448000014      -4.44698691E-25
  0.456000000      -6.55145432E-25
  0.463999987      -7.46706841E-25
  0.472000003      -6.18014094E-25
  0.479999989      -1.98907432E-25
  0.488000005       4.64533514E-25
  0.495999992       1.16392315E-24
  0.504000008       1.57978468E-24
  0.512000024       1.42954484E-24
  0.519999981       6.38329826E-25
  0.527999997      -5.73837686E-25
  0.536000013      -1.75548116E-24
  0.544000030      -2.41554514E-24
  0.551999986      -2.24311238E-24
  0.560000002      -1.24091567E-24
  0.568000019       2.83946958E-25
  0.575999975       1.84560931E-24
  0.583999991       2.94503844E-24
  0.592000008       3.20881282E-24
  0.600000024       2.47907546E-24
  0.607999980       8.64488803E-25
  0.615999997      -1.24618763E-24
  0.624000013      -3.23639850E-24
  0.632000029      -4.41431338E-24
  0.639999986      -4.25408468E-24
  0.648000002      -2.63904620E-24
  0.656000018       2.29135281E-26
  0.663999975       2.90255473E-24
  0.671999991       5.04889675E-24
  0.680000007       5.74715896E-24
  0.688000023       4.76101262E-24
  0.695999980       2.35979102E-24
  0.703999996      -8.35141304E-25
  0.712000012      -4.05603366E-24
  0.720000029      -6.53185625E-24
  0.727999985      -7.55924779E-24
  0.736000001      -6.59263365E-24
  0.744000018      -3.44243240E-24
  0.751999974       1.45146896E-24
  0.759999990       6.85673876E-24
  0.768000007       1.09260209E-23
  0.776000023       1.18042338E-23
  0.783999979       8.48506284E-24
  0.791999996       1.50212695E-24
  0.800000012      -6.97678840E-24
  0.808000028      -1.38352555E-23
  0.815999985      -1.62542770E-23
  0.824000001      -1.29661801E-23
  0.832000017      -4.90834146E-24
  0.839999974       5.06580204E-24
  0.847999990       1.33098979E-23
  0.856000006       1.68442661E-23
  0.864000022       1.45042711E-23
  0.871999979       7.31508509E-24
  0.879999995      -2.01286557E-24
  0.888000011      -1.01804322E-23
  0.896000028      -1.45150028E-23
  0.903999984      -1.38459620E-23
  0.912000000      -8.75546069E-24
  0.920000017      -1.25398099E-24
  0.927999973       6.00304650E-24
  0.935999990       1.06194538E-23
  0.944000006       1.12074321E-23
  0.952000022       7.83965313E-24
  0.959999979       2.05103244E-24
  0.967999995      -3.60427234E-24
  0.976000011      -6.38108087E-24
  0.984000027      -4.44120564E-24
  0.991999984       2.26373478E-24
   1.00000000       1.15983016E-23
   1.00800002       1.97285719E-23
   1.01600003       2.25369088E-23
   1.02400005       1.73928889E-23
   1.03199995       4.52013118E-24
   1.03999996      -1.26857345E-23
   1.04799998      -2.88764491E-23
   1.05599999      -3.89008738E-23
   1.06400001      -3.97847640E-23
   1.07200003      -3.18789357E-23
   1.08000004      -1.83964635E-23
   1.08800006      -3.91982223E-24
   1.09599996       7.41302690E-24
   1.10399997       1.31526384E-23
   1.11199999       1.29334164E-23
   1.12000000       8.27879701E-24
   1.12800002       2.11211137E-24
   1.13600004      -1.80552275E-24
   1.14400005       2.89538700E-25
   1.15199995       1.08724265E-23
   1.15999997       2.95659040E-23
   1.16799998       5.21828018E-23
   1.17600000       7.11829395E-23
   1.18400002       7.79902916E-23
   1.19200003       6.63147211E-23
   1.20000005       3.50186873E-23
   1.20799994      -1.10861171E-23
   1.21599996      -6.29378221E-23
   1.22399998      -1.10260300E-22
   1.23199999      -1.44277232E-22
   1.24000001      -1.58724103E-22
   1.24800003      -1.49370131E-22
   1.25600004      -1.13465537E-22
   1.26400006      -5.06541881E-23
   1.27199996       3.46046142E-23
   1.27999997       1.30711286E-22
   1.28799999       2.19071242E-22
   1.29600000       2.78019650E-22
   1.30400002       2.89425720E-22
   1.31200004       2.45003764E-22
   1.32000005       1.49218114E-22
   1.32799995       1.76357255E-23
   1.33599997      -1.27823815E-22
   1.34399998      -2.63902927E-22
   1.35200000      -3.69118948E-22
   1.36000001      -4.24934757E-22
   1.36800003      -4.16865859E-22
   1.37600005      -3.37166345E-22
   1.38399994      -1.89020956E-22
   1.39199996       1.01114282E-23
   1.39999998       2.28893154E-22
   1.40799999       4.27586340E-22
   1.41600001       5.67117330E-22
   1.42400002       6.18232942E-22
   1.43200004       5.67420303E-22
   1.44000006       4.18314031E-22
   1.44799995       1.89774501E-22
   1.45599997      -8.72421659E-23
   1.46399999      -3.72782670E-22
   1.47200000      -6.21607399E-22
   1.48000002      -7.88873931E-22
   1.48800004      -8.38465893E-22
   1.49600005      -7.52116092E-22
   1.50399995      -5.35958864E-22
   1.51199996      -2.21239259E-22
   1.51999998       1.41685111E-22
   1.52800000       4.94068810E-22
   1.53600001       7.80260580E-22
   1.54400003       9.56807751E-22
   1.55200005       9.98022490E-22
   1.55999994       8.98911672E-22
   1.56799996       6.76551346E-22
   1.57599998       3.69548972E-22
   1.58399999       3.35453255E-23
   1.59200001      -2.68866465E-22
   1.60000002      -4.83317431E-22
   1.60800004      -5.79477985E-22
   1.61600006      -5.60899895E-22
   1.62399995      -4.64165757E-22
   1.63199997      -3.46818317E-22
   1.63999999      -2.68711091E-22
   1.64800000      -2.74329901E-22
   1.65600002      -3.81909476E-22
   1.66400003      -5.80910708E-22
   1.67200005      -8.35216896E-22
   1.67999995      -1.08828726E-21
   1.68799996      -1.26871280E-21
   1.69599998      -1.29810124E-21
   1.70400000      -1.10432954E-21
   1.71200001      -6.40464229E-22
   1.72000003       9.47271748E-23
   1.72800004       1.04320622E-21
   1.73599994       2.08876797E-21
   1.74399996       3.07480482E-21
   1.75199997       3.83417722E-21
   1.75999999       4.22160188E-21
   1.76800001       4.13865360E-21
   1.77600002       3.54719684E-21
   1.78400004       2.47223525E-21
   1.79200006       9.99343333E-22
   1.79999995      -7.31319599E-22
   1.80799997      -2.53464982E-21
   1.81599998      -4.19815042E-21
   1.82400000      -5.50923573E-21
   1.83200002      -6.28913740E-21
   1.84000003      -6.42465325E-21
   1.84800005      -5.88830942E-21
   1.85599995      -4.74105596E-21
   1.86399996      -3.11898366E-21
   1.87199998      -1.21002821E-21
   1.88000000       7.72024316E-22
   1.88800001       2.61301064E-21
   1.89600003       4.12316214E-21
   1.90400004       5.16085618E-21
   1.91199994       5.65225033E-21
   1.91999996       5.60042836E-21
   1.92799997       5.07872579E-21
   1.93599999       4.20846150E-21
   1.94400001       3.12884157E-21
   1.95200002       1.96998616E-21
   1.96000004       8.37205381E-22
   1.96800005      -1.92322989E-22
   1.97599995      -1.06600417E-21
   1.98399997      -1.75212040E-21
   1.99199998      -2.23903272E-21
   2.00000000      -2.53516863E-21
   2.00799990      -2.66572644E-21
   2.01600003      -2.66463370E-21
   2.02399993      -2.56462744E-21
   2.03200006      -2.39079976E-21
   2.03999996      -2.16063474E-21
   2.04800010      -1.88893196E-21
   2.05599999      -1.59237014E-21
   2.06399989      -1.28942120E-21
   2.07200003      -9.95290633E-22
   2.07999992      -7.15688490E-22
   2.08800006      -4.44149339E-22
   2.09599996      -1.64588166E-22
   2.10400009       1.42889910E-22
   2.11199999       4.96545758E-22
   2.11999989       9.09661384E-22
   2.12800002       1.38798312E-21
   2.13599992       1.92505043E-21
   2.14400005       2.49450248E-21
   2.15199995       3.04237635E-21
   2.16000009       3.48509852E-21
   2.16799998       3.71832589E-21
   2.17600012       3.63720363E-21
   2.18400002       3.16317360E-21
   2.19199991       2.26889281E-21
   2.20000005       9.93364045E-22
   2.20799994      -5.56822809E-22
   2.21600008      -2.21912182E-21
   2.22399998      -3.79530902E-21
   2.23200011      -5.07566344E-21
   2.24000001      -5.86429614E-21
   2.24799991      -6.00503358E-21
   2.25600004      -5.40745011E-21
   2.26399994      -4.07077390E-21
   2.27200007      -2.10003507E-21
   2.27999997       2.92603934E-22
   2.28800011       2.80665674E-21
   2.29600000       5.09232136E-21
   2.30399990       6.80351126E-21
   2.31200004       7.65436750E-21
   2.31999993       7.46825832E-21
   2.32800007       6.21073861E-21
   2.33599997       4.00207429E-21
   2.34400010       1.10763644E-21
   2.35200000      -2.09337704E-21
   2.35999990      -5.15854750E-21
   2.36800003      -7.64643335E-21
   2.37599993      -9.18451431E-21
   2.38400006      -9.52840253E-21
   2.39199996      -8.60061850E-21
   2.40000010      -6.50234199E-21
   2.40799999      -3.49817670E-21
   2.41599989       2.08342646E-23
   2.42400002       3.58896017E-21
   2.43199992       6.72619492E-21
   2.44000006       9.00240775E-21
   2.44799995       1.00991620E-20
   2.45600009       9.86048162E-21
   2.46399999       8.32173181E-21
   2.47199988       5.70771506E-21
   2.48000002       2.39759472E-21
   2.48799992      -1.13645468E-21
   2.49600005      -4.40333362E-21
   2.50399995      -6.96408608E-21
   2.51200008      -8.48852825E-21
   2.51999998      -8.79279016E-21
   2.52800012      -7.85818593E-21
   2.53600001      -5.83325102E-21
   2.54399991      -3.01790384E-21
   2.55200005       1.72986405E-22
   2.55999994       3.26774389E-21
   2.56800008       5.81182268E-21
   2.57599998       7.44320541E-21
   2.58400011       7.95061286E-21
   2.59200001       7.29968958E-21
   2.59999990       5.62352116E-21
   2.60800004       3.18610403E-21
   2.61599994       3.34143960E-22
   2.62400007      -2.54998659E-21
   2.63199997      -5.08976065E-21
   2.64000010      -6.95361062E-21
   2.64800000      -7.89508998E-21
   2.65599990      -7.79096377E-21
   2.66400003      -6.66618434E-21
   2.67199993      -4.69340099E-21
   2.68000007      -2.16229253E-21
   2.68799996       5.73523032E-22
   2.69600010       3.15533800E-21
   2.70400000       5.26776846E-21
   2.71199989       6.66962796E-21
   2.72000003       7.21047685E-21
   2.72799993       6.84031999E-21
   2.73600006       5.61622314E-21
   2.74399996       3.70188164E-21
   2.75200009       1.35245050E-21
   2.75999999      -1.11923090E-21
   2.76799989      -3.38997033E-21
   2.77600002      -5.17474982E-21
   2.78399992      -6.26359779E-21
   2.79200006      -6.54068916E-21
   2.79999995      -5.98770358E-21
   2.80800009      -4.67809491E-21
   2.81599998      -2.76692561E-21
   2.82399988      -4.76389188E-22
   2.83200002       1.92584004E-21
   2.83999991       4.15661812E-21
   2.84800005       5.95219741E-21
   2.85599995       7.10087785E-21
   2.86400008       7.46674775E-21
   2.87199998       7.00173573E-21
   2.88000011       5.74744477E-21
   2.88800001       3.82973638E-21
   2.89599991       1.44749307E-21
   2.90400004      -1.14523741E-21
   2.91199994      -3.66496588E-21
   2.92000008      -5.83120529E-21
   2.92799997      -7.40117510E-21
   2.93600011      -8.20033013E-21
   2.94400001      -8.14328617E-21
   2.95199990      -7.24239924E-21
   2.96000004      -5.60432960E-21
   2.96799994      -3.41638639E-21
   2.97600007      -9.24790853E-22
   2.98399997       1.59309533E-21
   2.99200010       3.86014455E-21
   3.00000000       5.63119600E-21
   3.00799990       6.72127626E-21
   3.01600003       7.02670463E-21
   3.02399993       6.53628911E-21
   3.03200006       5.33118591E-21
   3.03999996       3.57337622E-21
   3.04800010       1.48437531E-21
   3.05599999      -6.82649026E-22
   3.06399989      -2.67307272E-21
   3.07200003      -4.25932221E-21
   3.07999992      -5.26490241E-21
   3.08800006      -5.58271062E-21
   3.09599996      -5.18688854E-21
   3.10400009      -4.13675044E-21
   3.11199999      -2.57038560E-21
   3.11999989      -6.86475393E-22
   3.12800002       1.28402150E-21
   3.13599992       3.11061552E-21
   3.14400005       4.59264247E-21
   3.15199995       5.57898790E-21
   3.16000009       5.97676282E-21
   3.16799998       5.75207544E-21
   3.17600012       4.92766677E-21
   3.18400002       3.58008697E-21
   3.19199991       1.83526700E-21
   3.20000005      -1.40413114E-22
   3.20799994      -2.15533965E-21
   3.21600008      -4.01249038E-21
   3.22399998      -5.52993060E-21
   3.23200011      -6.55826392E-21
   3.24000001      -6.99346230E-21
   3.24799991      -6.78561702E-21
   3.25600004      -5.94404718E-21
   3.26399994      -4.53811802E-21
   3.27200007      -2.69224328E-21
   3.27999997      -5.74666514E-22
   3.28800011       1.61814259E-21
   3.29600000       3.67848834E-21
   3.30399990       5.40371649E-21
   3.31200004       6.61211144E-21
   3.31999993       7.16012223E-21
   3.32800007       6.96128304E-21
   3.33599997       6.00378271E-21
   3.34400010       4.36087761E-21
   3.35200000       2.18904605E-21
   3.35999990      -2.87406968E-22
   3.36800003      -2.80163448E-21
   3.37599993      -5.07357731E-21
   3.38400006      -6.83870279E-21
   3.39199996      -7.87481598E-21
   3.40000010      -8.02765214E-21
   3.40799999      -7.23471470E-21
   3.41599989      -5.54330725E-21
   3.42400002      -3.11598836E-21
   3.43199992      -2.17442958E-22
   3.44000006       2.81824837E-21
   3.44799995       5.63426562E-21
   3.45600009       7.90109269E-21
   3.46399999       9.35909384E-21
   3.47199988       9.84662473E-21
   3.48000002       9.31277092E-21
   3.48799992       7.81789076E-21
   3.49600005       5.52611498E-21
   3.50399995       2.69137530E-21
   3.51200008      -3.64647129E-22
   3.51999998      -3.28521041E-21
   3.52800012      -5.72181913E-21
   3.53600001      -7.38281961E-21
   3.54399991      -8.07728378E-21
   3.55200005      -7.74323206E-21
   3.55999994      -6.45319785E-21
   3.56800008      -4.39731879E-21
   3.57599998      -1.85063527E-21
   3.58400011       8.65971768E-22
   3.59200001       3.42365693E-21
   3.59999990       5.51917644E-21
   3.60800004       6.90451454E-21
   3.61599994       7.41328958E-21
   3.62400007       6.98199971E-21
   3.63199997       5.66112031E-21
   3.64000010       3.61075243E-21
   3.64800000       1.07880679E-21
   3.65599990      -1.63475496E-21
   3.66400003      -4.21927503E-21
   3.67199993      -6.39109508E-21
   3.68000007      -7.92138124E-21
   3.68799996      -8.65313800E-21
   3.69600010      -8.51045339E-21
   3.70400000      -7.50359283E-21
   3.71199989      -5.73087127E-21
   3.72000003      -3.37431630E-21
   3.72799993      -6.85157528E-22
   3.73600006       2.04290468E-21
   3.74399996       4.50968651E-21
   3.75200009       6.44680578E-21
   3.75999999       7.65016374E-21
   3.76799989       8.00124456E-21
   3.77600002       7.47588147E-21
   3.78399992       6.14258789E-21
   3.79200006       4.15291600E-21
   3.79999995       1.72518634E-21
   3.80800009      -8.78218121E-22
   3.81599998      -3.37922061E-21
   3.82399988      -5.51537375E-21
   3.83200002      -7.06957100E-21
   3.83999991      -7.89346308E-21
   3.84800005      -7.92153876E-21
   3.85599995      -7.17511892E-21
   3.86400008      -5.75685839E-21
   3.87199998      -3.83691079E-21
   3.88000011      -1.63183530E-21
   3.88800001       6.21731445E-22
   3.89599991       2.69511660E-21
   3.90400004       4.39264934E-21
   3.91199994       5.56938445E-21
   3.92000008       6.13973598E-21
   3.92799997       6.07823704E-21
   3.93600011       5.41581481E-21
   3.94400001       4.23466067E-21
   3.95199990       2.66250719E-21
   3.96000004       8.64667384E-22
   3.96799994      -9.68942729E-22
   3.97600007      -2.64297292E-21
   3.98399997      -3.98005181E-21
   3.99200010      -4.84339936E-21
   4.00000000      -5.15273906E-21
   4.00799990      -4.88984184E-21
   4.01599979      -4.09422818E-21
   4.02400017      -2.85346030E-21
   4.03200006      -1.29321873E-21
   4.03999996       4.30237316E-22
   4.04799986       2.13708250E-21
   4.05600023       3.63521403E-21
   4.06400013       4.73948480E-21
   4.07200003       5.29784262E-21
   4.07999992       5.21804231E-21
   4.08799982       4.48668742E-21
   4.09600019       3.17489266E-21
   4.10400009       1.43025708E-21
   4.11199999      -5.40907610E-22
   4.11999989      -2.49676753E-21
   4.12799978      -4.18644873E-21
   4.13600016      -5.37978116E-21
   4.14400005      -5.89933823E-21
   4.15199995      -5.65021631E-21
   4.15999985      -4.64013225E-21
   4.16800022      -2.98319396E-21
   4.17600012      -8.85462515E-22
   4.18400002       1.38403008E-21
   4.19199991       3.53015523E-21
   4.19999981       5.27072782E-21
   4.20800018       6.37438830E-21
   4.21600008       6.69466835E-21
   4.22399998       6.19565347E-21
   4.23199987       4.96241886E-21
   4.23999977       3.19045965E-21
   4.24800014       1.15395785E-21
   4.25600004      -8.39933553E-22
   4.26399994      -2.49926624E-21
   4.27199984      -3.58782442E-21
   4.28000021      -3.95366605E-21
   4.28800011      -3.54660837E-21
   4.29600000      -2.42661369E-21
   4.30399990      -7.61791995E-22
   4.31199980       1.18837288E-21
   4.32000017       3.10806532E-21
   4.32800007       4.67561014E-21
   4.33599997       5.61896601E-21
   4.34399986       5.76192406E-21
   4.35200024       5.04962704E-21
   4.36000013       3.55005805E-21
   4.36800003       1.43631593E-21
   4.37599993      -1.04164425E-21
   4.38399982      -3.58883376E-21
   4.39200020      -5.89803284E-21
   4.40000010      -7.68411934E-21
   4.40799999      -8.71972685E-21
   4.41599989      -8.86827282E-21
   4.42399979      -8.10677228E-21
   4.43200016      -6.53079975E-21
   4.44000006      -4.33822587E-21
   4.44799995      -1.79537714E-21
   4.45599985       8.04836891E-22
   4.46400023       3.18172397E-21
   4.47200012       5.09489701E-21
   4.48000002       6.36039085E-21
   4.48799992       6.85891298E-21
   4.49599981       6.54172960E-21
   4.50400019       5.43643940E-21
   4.51200008       3.65010086E-21
   4.51999998       1.36428558E-21
   4.52799988      -1.18167496E-21
   4.53599977      -3.71784202E-21
   4.54400015      -5.97456562E-21
   4.55200005      -7.70897677E-21
   4.55999994      -8.72222940E-21
   4.56799984      -8.86863471E-21
   4.57600021      -8.06233556E-21
   4.58400011      -6.28686710E-21
   4.59200001      -3.60822444E-21
   4.59999990      -1.85962586E-22
   4.60799980       3.72614856E-21
   4.61600018       7.79634449E-21
   4.62400007       1.16479834E-20
   4.63199997       1.49029027E-20
   4.63999987       1.72253642E-20
   4.64799976       1.83582833E-20
   4.65600014       1.81485607E-20
   4.66400003       1.65621705E-20
   4.67199993       1.36909297E-20
   4.67999983       9.75051829E-21
   4.68800020       5.06650427E-21
   4.69600010       4.48433724E-23
   4.70400000      -4.87319927E-21
   4.71199989      -9.26599160E-21
   4.71999979      -1.27861863E-20
   4.72800016      -1.52041645E-20
   4.73600006      -1.64327700E-20
   4.74399996      -1.65306569E-20
   4.75199986      -1.56859859E-20
   4.76000023      -1.41839051E-20
   4.76800013      -1.23624178E-20
   4.77600002      -1.05617321E-20
   4.78399992      -9.07463903E-21
   4.79199982      -8.10561068E-21
   4.80000019      -7.74574511E-21
   4.80800009      -7.96637049E-21
   4.81599998      -8.62946481E-21
   4.82399988      -9.51053413E-21
   4.83199978      -1.03292588E-20
   4.84000015      -1.07857946E-20
   4.84800005      -1.06014303E-20
   4.85599995      -9.56090895E-21
   4.86399984      -7.55000299E-21
   4.87200022      -4.57948432E-21
   4.88000011      -7.87987428E-22
   4.88800001       3.57757352E-21
   4.89599991       8.19811839E-21
   4.90399981       1.27240274E-20
   4.91200018       1.68119742E-20
   4.92000008       2.01521473E-20
   4.92799997       2.24876400E-20
   4.93599987       2.36310896E-20
   4.94399977       2.34819806E-20
   4.95200014       2.20425619E-20
   4.96000004       1.94257244E-20
   4.96799994       1.58478338E-20
   4.97599983       1.16046978E-20
   4.98400021       7.03595629E-21
   4.99200010       2.48813061E-21
   5.00000000      -1.71470926E-21
   5.00799990      -5.28992382E-21
   5.01599979      -8.00913428E-21
   5.02400017      -9.71167554E-21
   5.03200006      -1.03216615E-20
   5.03999996      -9.86436226E-21
   5.04799986      -8.47266480E-21
   5.05600023      -6.37559958E-21
   5.06400013      -3.86833639E-21
   5.07200003      -1.27132096E-21
   5.07999992       1.11004972E-21
   5.08799982       3.01672224E-21
   5.09600019       4.25658904E-21
   5.10400009       4.71786501E-21
   5.11199999       4.37880538E-21
   5.11999989       3.31332546E-21
   5.12799978       1.68793797E-21
   5.13600016      -2.54583968E-22
   5.14400005      -2.22520915E-21
   5.15199995      -3.92732551E-21
   5.15999985      -5.09630055E-21
   5.16800022      -5.53338109E-21
   5.17600012      -5.13055746E-21
   5.18400002      -3.88534165E-21
   5.19199991      -1.90440625E-21
   5.19999981       6.05822355E-22
   5.20800018       3.36275273E-21
   5.21600008       6.04300068E-21
   5.22399998       8.32290795E-21
   5.23199987       9.91572177E-21
   5.23999977       1.05992234E-20
   5.24800014       1.02329221E-20
   5.25600004       8.76840288E-21
   5.26399994       6.25674771E-21
   5.27199984       2.85329389E-21
   5.28000021      -1.18479567E-21
   5.28800011      -5.51417337E-21
   5.29600000      -9.73670826E-21
   5.30399990      -1.34426923E-20
   5.31199980      -1.62566371E-20
   5.32000017      -1.78761259E-20
   5.32800007      -1.80986585E-20
   5.33599997      -1.68375021E-20
   5.34399986      -1.41306085E-20
   5.35200024      -1.01447934E-20
   5.36000013      -5.17279375E-21
   5.36800003       3.82634874E-22
   5.37599993       6.04169367E-21
   5.38399982       1.12962200E-20
   5.39200020       1.56660382E-20
   5.40000010       1.87520795E-20
   5.40799999       2.02775734E-20
   5.41599989       2.01134734E-20
   5.42399979       1.82886192E-20
   5.43200016       1.49858777E-20
   5.44000006       1.05245970E-20
   5.44799995       5.32874193E-21
   5.45599985      -1.17856412E-22
   5.46400023      -5.32384105E-21
   5.47200012      -9.84236765E-21
   5.48000002      -1.33151384E-20
   5.48799992      -1.55040530E-20
   5.49599981      -1.63093424E-20
   5.50400019      -1.57743747E-20
   5.51200008      -1.40765719E-20
   5.51999998      -1.15032437E-20
   5.52799988      -8.41328713E-21
   5.53599977      -5.18984345E-21
   5.54400015      -2.19261831E-21
   5.55200005       2.81423970E-22
   5.55999994       2.02409177E-21
   5.56799984       2.92886964E-21
   5.57600021       2.99345153E-21
   5.58400011       2.31365406E-21
   5.59200001       1.06812685E-21
   5.59999990      -5.07174150E-22
   5.60799980      -2.15272644E-21
   5.61600018      -3.62095082E-21
   5.62400007      -4.70520850E-21
   5.63199997      -5.25702562E-21
   5.63999987      -5.19244495E-21
   5.64799976      -4.49312473E-21
   5.65600014      -3.20748976E-21
   5.66400003      -1.45205518E-21
   5.67199993       5.92584335E-22
   5.67999983       2.69771305E-21
   5.68800020       4.61624297E-21
   5.69600010       6.12039417E-21
   5.70400000       7.03662271E-21
   5.71199989       7.26853782E-21
   5.71999979       6.80509615E-21
   5.72800016       5.71817800E-21
   5.73600006       4.15558818E-21
   5.74399996       2.33236478E-21
   5.75199986       5.17417326E-22
   5.76000023      -9.89891845E-22
   5.76800013      -1.89577801E-21
   5.77600002      -1.95666827E-21
   5.78399992      -1.02272663E-21
   5.79199982       9.30302631E-22
   5.80000019       3.78757803E-21
   5.80800009       7.30096589E-21
   5.81599998       1.11112950E-20
   5.82399988       1.47837968E-20
   5.83199978       1.78537791E-20
   5.84000015       1.98791357E-20
   5.84800005       2.04939619E-20
   5.85599995       1.94551281E-20
   5.86399984       1.66746654E-20
   5.87200022       1.22347977E-20
   5.88000011       6.38641756E-21
   5.88800001      -4.65820724E-22
   5.89599991      -7.79143956E-21
   5.90399981      -1.49770065E-20
   5.91200018      -2.13850761E-20
   5.92000008      -2.64245609E-20
   5.92799997      -2.96200550E-20
   5.93599987      -3.06643220E-20
   5.94399977      -2.94430448E-20
   5.95200014      -2.60310669E-20
   5.96000004      -2.06694405E-20
   5.96799994      -1.37344164E-20
   5.97599983      -5.70528077E-21
   5.98400021       2.87066024E-21
   5.99200010       1.14191557E-20
   6.00000000       1.93862152E-20
   6.00799990       2.62837124E-20
   6.01599979       3.17226382E-20
   6.02400017       3.54269469E-20
   6.03200006       3.72303654E-20
   6.03999996       3.70650101E-20
   6.04799986       3.49511662E-20
   6.05600023       3.09915043E-20
   6.06400013       2.53666535E-20
   6.07200003       1.83263626E-20
   6.07999992       1.01753539E-20
   6.08799982       1.25700999E-21
   6.09600019      -8.05993803E-21
   6.10400009      -1.73899941E-20
   6.11199999      -2.63383419E-20
   6.11999989      -3.45128768E-20
   6.12799978      -4.15437989E-20
   6.13600016      -4.71084981E-20
   6.14400005      -5.09555342E-20
   6.15199995      -5.29224469E-20
   6.15999985      -5.29456015E-20
   6.16800022      -5.10644215E-20
   6.17600012      -4.74206328E-20
   6.18400002      -4.22522888E-20
   6.19199991      -3.58780350E-20
   6.19999981      -2.86697181E-20
   6.20800018      -2.10151632E-20
   6.21600008      -1.32785680E-20
   6.22399998      -5.76800150E-21
   6.23199987       1.28336910E-21
   6.23999977       7.72136024E-21
   6.24800014       1.34639623E-20
   6.25600004       1.84890005E-20
   6.26399994       2.28191989E-20
   6.27199984       2.65045018E-20
   6.28000021       2.96005936E-20
   6.28800011       3.21454148E-20
   6.29600000       3.41389750E-20
   6.30399990       3.55350684E-20
   6.31199980       3.62497686E-20
   6.32000017       3.61855458E-20
   6.32800007       3.52624575E-20
   6.33599997       3.34454163E-20
   6.34399986       3.07594866E-20
   6.35200024       2.72929439E-20
   6.36000013       2.31930425E-20
   6.36800003       1.86604886E-20
   6.37599993       1.39428417E-20
   6.38399982       9.32206782E-21
   6.39200020       5.09010235E-21
   6.40000010       1.51193561E-21
   6.40799999      -1.21572982E-21
   6.41599989      -2.99742587E-21
   6.42399979      -3.85225605E-21
   6.43200016      -3.90531799E-21
   6.44000006      -3.36317137E-21
   6.44799995      -2.48315318E-21
   6.45599985      -1.54338957E-21
   6.46400023      -8.14525820E-22
   6.47200012      -5.31244329E-22
   6.48000002      -8.63438528E-22
   6.48799992      -1.89166573E-21
   6.49599981      -3.59437320E-21
   6.50400019      -5.85215299E-21
   6.51200008      -8.46819286E-21
   6.51999998      -1.11982895E-20
   6.52799988      -1.37820455E-20
   6.53599977      -1.59701806E-20
   6.54400015      -1.75470922E-20
   6.55200005      -1.83503718E-20
   6.55999994      -1.82872847E-20
   6.56799984      -1.73454540E-20
   6.57600021      -1.55936939E-20
   6.58400011      -1.31712963E-20
   6.59200001      -1.02688213E-20
   6.59999990      -7.10631349E-21
   6.60799980      -3.91452885E-21