 -0.239999995       0.00000000    
 -0.231999993       0.00000000    
 -0.224000007       0.00000000    
 -0.216000006       0.00000000    
 -0.208000004       0.00000000    
 -0.200000003       0.00000000    
 -0.192000002       0.00000000    
 -0.184000000       1.32083360E-29
 -0.175999999      -5.64784373E-29
 -0.167999998      -6.07464979E-28
 -0.159999996      -1.20483857E-27
 -0.151999995       1.89813184E-27
 -0.143999994       1.23587649E-26
 -0.136000007       1.93713146E-26
 -0.128000006      -6.36363153E-27
 -0.119999997      -7.52970569E-26
 -0.112000003      -1.31437650E-25
 -0.104000002      -8.17125668E-26
  -9.60000008E-02   1.06996717E-25
  -8.79999995E-02   3.83839009E-25
  -7.99999982E-02   6.59552354E-25
  -7.19999969E-02   6.86477853E-25
  -6.40000030E-02  -1.13998807E-25
  -5.60000017E-02  -2.11553759E-24
  -4.80000004E-02  -4.12526291E-24
  -3.99999991E-02  -3.13397201E-24
  -3.20000015E-02   2.73734793E-24
  -2.40000002E-02   1.01781784E-23
  -1.60000008E-02   1.15062573E-23
  -8.00000038E-03   2.38286303E-24
   1.38777878E-17  -1.14100321E-23
   8.00000038E-03  -1.81628881E-23
   1.60000008E-02  -1.28618162E-23
   2.40000002E-02  -2.64685454E-24
   3.20000015E-02   3.67202485E-24
   3.99999991E-02   8.69906502E-24
   4.80000004E-02   2.15886239E-23
   5.60000017E-02   3.80655363E-23
   6.40000030E-02   3.43600390E-23
   7.19999969E-02  -7.18645737E-24
   7.99999982E-02  -6.61410455E-23
   8.79999995E-02  -9.04700017E-23
   9.60000008E-02  -4.70432878E-23
  0.104000002       3.60706144E-23
  0.112000003       8.92896891E-23
  0.119999997       6.99001696E-23
  0.128000006       5.85739753E-24
  0.136000007      -3.57603996E-23
  0.143999994      -2.19643220E-23
  0.151999995       1.39884665E-23
  0.159999996       1.81458866E-23
  0.167999998      -1.50125342E-23
  0.175999999      -3.43478873E-23
  0.184000000       4.44546293E-25
  0.192000002       5.43718024E-23
  0.200000003       4.08800911E-23
  0.208000004      -7.88460353E-23
  0.216000006      -2.28265700E-22
  0.224000007      -2.63948694E-22
  0.231999993      -1.02031465E-22
  0.239999995       2.00456776E-22
  0.247999996       4.84508170E-22
  0.256000012       6.01217326E-22
  0.263999999       4.90701624E-22
  0.272000015       1.77683157E-22
  0.280000001      -2.73475937E-22
  0.287999988      -7.74862449E-22
  0.296000004      -1.18918936E-21
  0.303999990      -1.31924685E-21
  0.312000006      -9.77316620E-22
  0.319999993      -1.27169906E-22
  0.328000009       1.00234499E-21
  0.335999995       1.95539842E-21
  0.344000012       2.26645852E-21
  0.351999998       1.73241569E-21
  0.360000014       5.43786485E-22
  0.368000001      -8.27164911E-22
  0.375999987      -1.89156415E-21
  0.384000003      -2.35581180E-21
  0.391999990      -2.14707087E-21
  0.400000006      -1.31102281E-21
  0.407999992       4.93766090E-23
  0.416000009       1.71689333E-21
  0.423999995       3.29633534E-21
  0.432000011       4.31395329E-21
  0.439999998       4.48358186E-21
  0.448000014       3.92031306E-21
  0.456000000       3.06410418E-21
  0.463999987       2.32368544E-21
  0.472000003       1.73351712E-21
  0.479999989       9.34290808E-22
  0.488000005      -4.98646526E-22
  0.495999992      -2.65549816E-21
  0.504000008      -5.09602832E-21
  0.512000024      -6.84858210E-21
  0.519999981      -6.37585889E-21
  0.527999997      -1.38581550E-21
  0.536000013       1.13580033E-20
  0.544000030       3.60135246E-20
  0.551999986       7.74932460E-20
  0.560000002       1.41513529E-19
  0.568000019       2.35128752E-19
  0.575999975       3.67573551E-19
  0.583999991       5.50914696E-19
  0.592000008       8.00182678E-19
  0.600000024       1.13316113E-18
  0.607999980       1.57028731E-18
  0.615999997       2.13484563E-18
  0.624000013       2.85312460E-18
  0.632000029       3.75397558E-18
  0.639999986       4.86748931E-18
  0.648000002       6.22291614E-18
  0.656000018       7.84617042E-18
  0.663999975       9.75706682E-18
  0.671999991       1.19661825E-17
  0.680000007       1.44711162E-17
  0.688000023       1.72522628E-17
  0.695999980       2.02687953E-17
  0.703999996       2.34559255E-17
  0.712000012       2.67243196E-17
  0.720000029       2.99619244E-17
  0.727999985       3.30381826E-17
  0.736000001       3.58105016E-17
  0.744000018       3.81327549E-17
  0.751999974       3.98651160E-17
  0.759999990       4.08843481E-17
  0.768000007       4.10940483E-17
  0.776000023       4.04343850E-17
  0.783999979       3.88902307E-17
  0.791999996       3.64959895E-17
  0.800000012       3.33359379E-17
  0.808000028       2.95398538E-17
  0.815999985       2.52747749E-17
  0.824000001       2.07337717E-17
  0.832000017       1.61226286E-17
  0.839999974       1.16453266E-17
  0.847999990       7.48930237E-18
  0.856000006       3.81155769E-18
  0.864000022       7.26842208E-19
  0.871999979      -1.70050332E-18
  0.879999995      -3.45994161E-18
  0.888000011      -4.59337613E-18
  0.896000028      -5.18998924E-18
  0.903999984      -5.37818648E-18
  0.912000000      -5.31491957E-18
  0.920000017      -5.17246708E-18
  0.927999973      -5.12326844E-18
  0.935999990      -5.32390565E-18
  0.944000006      -5.89950011E-18
  0.952000022      -6.92965636E-18
  0.959999979      -8.43699161E-18
  0.967999995      -1.03792952E-17
  0.976000011      -1.26461531E-17
  0.984000027      -1.50606197E-17
  0.991999984      -1.73864282E-17
   1.00000000      -1.93414415E-17
   1.00800002      -2.06182394E-17
   1.01600003      -2.09122889E-17
   1.02400005      -1.99569929E-17
   1.03199995      -1.75634482E-17
   1.03999996      -1.36615396E-17
   1.04799998      -8.33860923E-18
   1.05599999      -1.87191758E-18
   1.06400001       5.24823806E-18
   1.07200003       1.23076418E-17
   1.08000004       1.83725020E-17
   1.08800006       2.23121399E-17
   1.09599996       2.28425513E-17
   1.10399997       1.85911225E-17
   1.11199999       8.17973513E-18
   1.12000000      -9.67886682E-18
   1.12800002      -3.60774162E-17
   1.13600004      -7.18096335E-17
   1.14400005      -1.17270467E-16
   1.15199995      -1.72367936E-16
   1.15999997      -2.36453059E-16
   1.16799998      -3.08274597E-16
   1.17600000      -3.85964618E-16
   1.18400002      -4.67058467E-16
   1.19200003      -5.48551083E-16
   1.20000005      -6.26988664E-16
   1.20799994      -6.98592964E-16
   1.21599996      -7.59413742E-16
   1.22399998      -8.05503928E-16
   1.23199999      -8.33111061E-16
   1.24000001      -8.38876020E-16
   1.24800003      -8.20029166E-16
   1.25600004      -7.74573408E-16
   1.26400006      -7.01441695E-16
   1.27199996      -6.00619575E-16
   1.27999997      -4.73223490E-16
   1.28799999      -3.21529101E-16
   1.29600000      -1.48945741E-16
   1.30400002       4.00651911E-17
   1.31200004       2.40126747E-16
   1.32000005       4.45135454E-16
   1.32799995       6.48495095E-16
   1.33599997       8.43384406E-16
   1.34399998       1.02304544E-15
   1.35200000       1.18107553E-15
   1.36000001       1.31171035E-15
   1.36800003       1.41008381E-15
   1.37600005       1.47245243E-15
   1.38399994       1.49637349E-15
   1.39199996       1.48082482E-15
   1.39999998       1.42625959E-15
   1.40799999       1.33459295E-15
   1.41600001       1.20912238E-15
   1.42400002       1.05438810E-15
   1.43200004       8.75980616E-16
   1.44000006       6.80304094E-16
   1.44799995       4.74305310E-16
   1.45599997       2.65179017E-16
   1.46399999       6.00653430E-17
   1.47200000      -1.34246225E-16
   1.48000002      -3.11592928E-16
   1.48800004      -4.66681590E-16
   1.49600005      -5.95289567E-16
   1.50399995      -6.94415186E-16
   1.51199996      -7.62370734E-16
   1.51999998      -7.98813479E-16
   1.52800000      -8.04713011E-16
   1.53600001      -7.82257797E-16
   1.54400003      -7.34706532E-16
   1.55200005      -6.66192789E-16
   1.55999994      -5.81493889E-16
   1.56799996      -4.85775460E-16
   1.57599998      -3.84326218E-16
   1.58399999      -2.82297897E-16
   1.59200001      -1.84464850E-16
   1.60000002      -9.50142400E-17
   1.60800004      -1.73763234E-17
   1.61600006       4.58980122E-17
   1.62399995       9.32068239E-17
   1.63199997       1.23910888E-16
   1.63999999       1.38293719E-16
   1.64800000       1.37473964E-16
   1.65600002       1.23279769E-16
   1.66400003       9.80955937E-17
   1.67200005       6.46918436E-17
   1.67999995       2.60464104E-17
   1.68799996      -1.48326603E-17
   1.69599998      -5.50735065E-17
   1.70400000      -9.20859280E-17
   1.71200001      -1.23677928E-16
   1.72000003      -1.48139101E-16
   1.72800004      -1.64290391E-16
   1.73599994      -1.71502427E-16
   1.74399996      -1.69685065E-16
   1.75199997      -1.59251128E-16
   1.75999999      -1.41057707E-16
   1.76800001      -1.16329242E-16
   1.77600002      -8.65678723E-17
   1.78400004      -5.34568349E-17
   1.79200006      -1.87635036E-17
   1.79999995       1.57527101E-17
   1.80799997       4.84234409E-17
   1.81599998       7.77434897E-17
   1.82400000       1.02431178E-16
   1.83200002       1.21476238E-16
   1.84000003       1.34174188E-16
   1.84800005       1.40145651E-16
   1.85599995       1.39339580E-16
   1.86399996       1.32021308E-16
   1.87199998       1.18747944E-16
   1.88000000       1.00333872E-16
   1.88800001       7.78088833E-17
   1.89600003       5.23688443E-17
   1.90400004       2.53187776E-17
   1.91199994      -1.99090876E-18
   1.91999996      -2.82315386E-17
   1.92799997      -5.21616918E-17
   1.93599999      -7.26864185E-17
   1.94400001      -8.89077611E-17
   1.95200002      -1.00165974E-16
   1.96000004      -1.06070766E-16
   1.96800005      -1.06520203E-16
   1.97599995      -1.01703325E-16
   1.98399997      -9.20842339E-17
   1.99199998      -7.83678986E-17
   2.00000000      -6.14518102E-17
   2.00799990      -4.23684987E-17
   2.01600003      -2.22227779E-17
   2.02399993      -2.12603285E-18
   2.03200006       1.68702526E-17
   2.03999996       3.38377718E-17
   2.04800010       4.80256233E-17
   2.05599999       5.88998852E-17
   2.06399989       6.61649464E-17
   2.07200003       6.97663981E-17
   2.07999992       6.98772734E-17
   2.08800006       6.68695719E-17
   2.09599996       6.12726760E-17
   2.10400009       5.37210695E-17
   2.11199999       4.48954163E-17
   2.11999989       3.54631089E-17
   2.12800002       2.60245364E-17
   2.13599992       1.70696313E-17
   2.14400005       8.94761682E-18
   2.15199995       1.85152221E-18
   2.16000009      -4.18132562E-18
   2.16799998      -9.25229226E-18
   2.17600012      -1.35692486E-17
   2.18400002      -1.74030777E-17
   2.19199991      -2.10390560E-17
   2.20000005      -2.47289184E-17
   2.20799994      -2.86486991E-17
   2.21600008      -3.28654706E-17
   2.22399998      -3.73159902E-17
   2.23200011      -4.18002190E-17
   2.24000001      -4.59922545E-17
   2.24799991      -4.94691990E-17
   2.25600004      -5.17551060E-17
   2.26399994      -5.23745088E-17
   2.27200007      -5.09088804E-17
   2.27999997      -4.70499307E-17
   2.28800011      -4.06449885E-17
   2.29600000      -3.17306781E-17
   2.30399990      -2.05512593E-17
   2.31200004      -7.55880208E-18
   2.31999993       6.60652901E-18
   2.32800007       2.11551789E-17
   2.33599997       3.52021367E-17
   2.34400010       4.78311101E-17
   2.35200000       5.81634033E-17
   2.35999990       6.54262674E-17
   2.36800003       6.90154504E-17
   2.37599993       6.85465979E-17
   2.38400006       6.38910202E-17
   2.39199996       5.51925180E-17
   2.40000010       4.28642280E-17
   2.40799999       2.75656004E-17
   2.41599989       1.01613075E-17
   2.42400002      -8.33524095E-18
   2.43199992      -2.68296379E-17
   2.44000006      -4.42203013E-17
   2.44799995      -5.94725390E-17
   2.45600009      -7.16870982E-17
   2.46399999      -8.01586453E-17
   2.47199988      -8.44206372E-17
   2.48000002      -8.42739814E-17
   2.48799992      -7.97972071E-17
   2.49600005      -7.13363935E-17
   2.50399995      -5.94754573E-17
   2.51200008      -4.49897381E-17
   2.51999998      -2.87879797E-17
   2.52800012      -1.18477906E-17
   2.53600001       4.85135515E-18
   2.54399991       2.03941148E-17
   2.55200005       3.39900921E-17
   2.55999994       4.50242249E-17
   2.56800008       5.30913435E-17
   2.57599998       5.80114800E-17
   2.58400011       5.98258180E-17
   2.59200001       5.87758941E-17
   2.59999990       5.52696377E-17
   2.60800004       4.98374896E-17
   2.61599994       4.30812901E-17
   2.62400007       3.56195420E-17
   2.63199997       2.80342561E-17
   2.64000010       2.08253605E-17
   2.64800000       1.43776531E-17
   2.65599990       8.94245439E-18
   2.66400003       4.63367182E-18
   2.67199993       1.43661689E-18
   2.68000007      -7.72092038E-19
   2.68799996      -2.19497732E-18
   2.69600010      -3.07687200E-18
   2.70400000      -3.66472279E-18
   2.71199989      -4.16970993E-18
   2.72000003      -4.73690230E-18
   2.72799993      -5.42625271E-18
   2.73600006      -6.20606193E-18
   2.74399996      -6.95856591E-18
   2.75200009      -7.49622587E-18
   2.75999999      -7.58691629E-18
   2.76799989      -6.98556095E-18
   2.77600002      -5.46904855E-18
   2.78399992      -2.87068627E-18
   2.79200006       8.89740489E-19
   2.79999995       5.78384454E-18
   2.80800009       1.16630200E-17
   2.81599998       1.82588573E-17
   2.82399988       2.51953540E-17
   2.83200002       3.20115985E-17
   2.83999991       3.81925766E-17
   2.84800005       4.32055095E-17
   2.85599995       4.65391069E-17
   2.86400008       4.77434091E-17
   2.87199998       4.64674135E-17
   2.88000011       4.24912391E-17
   2.88800001       3.57493961E-17
   2.89599991       2.63427644E-17
   2.90400004       1.45388722E-17
   2.91199994       7.61660567E-19
   2.92000008      -1.44273650E-17
   2.92799997      -3.03557054E-17
   2.93600011      -4.62741808E-17
   2.94400001      -6.13988508E-17
   2.95199990      -7.49584983E-17
   2.96000004      -8.62437565E-17
   2.96799994      -9.46529474E-17
   2.97600007      -9.97311349E-17
   2.98399997      -1.01200598E-16
   2.99200010      -9.89818548E-17
   3.00000000      -9.32039255E-17
   3.00799990      -8.42015270E-17
   3.01600003      -7.24970073E-17
   3.02399993      -5.87669407E-17
   3.03200006      -4.37960404E-17
   3.03999996      -2.84230541E-17
   3.04800010      -1.34833815E-17
   3.05599999       2.47962071E-19
   3.06399989       1.21103138E-17
   3.07200003       2.16046126E-17
   3.07999992       2.84291852E-17
   3.08800006       3.24992877E-17
   3.09599996       3.39477239E-17
   3.10400009       3.31072290E-17
   3.11199999       3.04779329E-17
   3.11999989       2.66837977E-17
   3.12800002       2.24212053E-17
   3.13599992       1.84024542E-17
   3.14400005       1.52974977E-17
   3.15199995       1.36787954E-17
   3.16000009       1.39745894E-17
   3.16799998       1.64350382E-17
   3.17600012       2.11134741E-17
   3.18400002       2.78630661E-17
   3.19199991       3.63479639E-17
   3.20000005       4.60676802E-17
   3.20799994       5.63927802E-17
   3.21600008       6.66089504E-17
   3.22399998       7.59659116E-17
   3.23200011       8.37271554E-17
   3.24000001       8.92173583E-17
   3.24799991       9.18649914E-17
   3.25600004       9.12383260E-17
   3.26399994       8.70733789E-17
   3.27200007       7.92919255E-17
   3.27999997       6.80087849E-17
   3.28800011       5.35278070E-17
   3.29600000       3.63279659E-17
   3.30399990       1.70408603E-17
   3.31200004      -3.57888047E-18
   3.31999993      -2.46889309E-17
   3.32800007      -4.53988186E-17
   3.33599997      -6.48120627E-17
   3.34400010      -8.20692009E-17
   3.35200000      -9.63900465E-17
   3.35999990      -1.07113219E-16
   3.36800003      -1.13730426E-16
   3.37599993      -1.15913216E-16
   3.38400006      -1.13530314E-16
   3.39199996      -1.06655120E-16
   3.40000010      -9.55637791E-17
   3.40799999      -8.07246883E-17
   3.41599989      -6.27793093E-17
   3.42400002      -4.25137053E-17
   3.43199992      -2.08209632E-17
   3.44000006       1.34358202E-18
   3.44799995       2.30100686E-17
   3.45600009       4.32403040E-17
   3.46399999       6.11695232E-17
   3.47199988       7.60431703E-17
   3.48000002       8.72492574E-17
   3.48799992       9.43457060E-17
   3.49600005       9.70800277E-17
   3.50399995       9.53981246E-17
   3.51200008       8.94409154E-17
   3.51999998       7.95307822E-17
   3.52800012       6.61517578E-17
   3.53600001       4.99265968E-17
   3.54399991       3.15908018E-17
   3.55200005       1.19621409E-17
   3.55999994      -8.09520141E-18
   3.56800008      -2.77099004E-17
   3.57599998      -4.60420839E-17
   3.58400011      -6.23176036E-17
   3.59200001      -7.58567966E-17
   3.59999990      -8.60989006E-17
   3.60800004      -9.26234763E-17
   3.61599994      -9.51684397E-17
   3.62400007      -9.36422253E-17
   3.63199997      -8.81275511E-17
   3.64000010      -7.88759000E-17
   3.64800000      -6.62941983E-17
   3.65599990      -5.09260494E-17
   3.66400003      -3.34289262E-17
   3.67199993      -1.45477942E-17
   3.68000007       4.91522052E-18
   3.68799996       2.41344717E-17
   3.69600010       4.22960244E-17
   3.70400000       5.86321765E-17
   3.71199989       7.24530940E-17
   3.72000003       8.31742745E-17
   3.72799993       9.03392534E-17
   3.73600006       9.36374144E-17
   3.74399996       9.29171387E-17
   3.75200009       8.81939374E-17
   3.75999999       7.96530196E-17
   3.76799989       6.76451695E-17
   3.77600002       5.26749904E-17
   3.78399992       3.53814893E-17
   3.79200006       1.65121662E-17
   3.79999995      -3.10761437E-18
   3.80800009      -2.26082887E-17
   3.81599998      -4.11120610E-17
   3.82399988      -5.77711145E-17
   3.83200002      -7.18076350E-17
   3.83999991      -8.25535582E-17
   3.84800005      -8.94867611E-17
   3.85599995      -9.22599999E-17
   3.86400008      -9.07204513E-17
   3.87199998      -8.49194536E-17
   3.88000011      -7.51128634E-17
   3.88800001      -6.17520635E-17
   3.89599991      -4.54651386E-17
   3.90400004      -2.70276004E-17
   3.91199994      -7.32343032E-18
   3.92000008       1.27010117E-17
   3.92799997       3.20864088E-17
   3.93600011       4.99095834E-17
   3.94400001       6.53296395E-17
   3.95199990       7.76294314E-17
   3.96000004       8.62506452E-17
   3.96799994       9.08204608E-17
   3.97600007       9.11679958E-17
   3.98399997       8.73296461E-17
   3.99200010       7.95437193E-17
   4.00000000       6.82353596E-17
   4.00799990       5.39928447E-17
   4.01599979       3.75360632E-17
   4.02400017       1.96785788E-17
   4.03200006       1.28534231E-18
   4.03999996      -1.67711266E-17
   4.04799986      -3.36533833E-17
   4.05600023      -4.85985253E-17
   4.06400013      -6.09532916E-17
   4.07200003      -7.02036259E-17
   4.07999992      -7.59973180E-17
   4.08799982      -7.81580064E-17
   4.09600019      -7.66897873E-17
   4.10400009      -7.17724898E-17
   4.11199999      -6.37485334E-17
   4.11999989      -5.31022160E-17
   4.12799978      -4.04317545E-17
   4.13600016      -2.64152634E-17
   4.14400005      -1.17725164E-17
   4.15199995       2.77433917E-18
   4.15999985       1.65380900E-17
   4.16800022       2.89000329E-17
   4.17600012       3.93390390E-17
   4.18400002       4.74553584E-17
   4.19199991       5.29875754E-17
   4.19999981       5.58204705E-17
   4.20800018       5.59824324E-17
   4.21600008       5.36330310E-17
   4.22399998       4.90436444E-17
   4.23199987       4.25740134E-17
   4.23999977       3.46470489E-17
   4.24800014       2.57222052E-17
   4.25600004       1.62678914E-17
   4.26399994       6.73426514E-18
   4.27199984      -2.47068613E-18
   4.28000021      -1.09990198E-17
   4.28800011      -1.85733911E-17
   4.29600000      -2.49910735E-17
   4.30399990      -3.01231849E-17
   4.31199980      -3.39104512E-17
   4.32000017      -3.63557724E-17
   4.32800007      -3.75137790E-17
   4.33599997      -3.74782367E-17
   4.34399986      -3.63691165E-17
   4.35200024      -3.43211563E-17
   4.36000013      -3.14747716E-17
   4.36800003      -2.79691305E-17
   4.37599993      -2.39368169E-17
   4.38399982      -1.95000583E-17
   4.39200020      -1.47689161E-17
   4.40000010      -9.84188592E-18
   4.40799999      -4.80845715E-18
   4.41599989       2.47573942E-19
   4.42399979       5.24518122E-18
   4.43200016       1.01039690E-17
   4.44000006       1.47422528E-17
   4.44799995       1.90748015E-17
   4.45599985       2.30104044E-17
   4.46400023       2.64501887E-17
   4.47200012       2.92877490E-17
   4.48000002       3.14114757E-17
   4.48799992       3.27087828E-17
   4.49599981       3.30716901E-17
   4.50400019       3.24036226E-17
   4.51200008       3.06274607E-17
   4.51999998       2.76949019E-17
   4.52799988       2.35964668E-17
   4.53599977       1.83711107E-17
   4.54400015       1.21140667E-17
   4.55200005       4.98198227E-18
   4.55999994      -2.80538615E-18
   4.56799984      -1.09674347E-17
   4.57600021      -1.91696394E-17
   4.58400011      -2.70356936E-17
   4.59200001      -3.41649581E-17
   4.59999990      -4.01543579E-17
   4.60799980      -4.46231680E-17
   4.61600018      -4.72387892E-17
   4.62400007      -4.77416787E-17
   4.63199997      -4.59677402E-17
   4.63999987      -4.18665754E-17
   4.64799976      -3.55138283E-17
   4.65600014      -2.71161733E-17
   4.66400003      -1.70077499E-17
   4.67199993      -5.63757130E-18
   4.67999983       6.45184045E-18
   4.68800020       1.86533993E-17
   4.69600010       3.03299040E-17
   4.70400000       4.08512509E-17
   4.71199989       4.96316077E-17
   4.71999979       5.61642930E-17
   4.72800016       6.00527566E-17
   4.73600006       6.10363802E-17
   4.74399996       5.90093113E-17
   4.75199986       5.40302200E-17
   4.76000023       4.63209099E-17
   4.76800013       3.62534800E-17
   4.77600002       2.43275787E-17
   4.78399992       1.11409392E-17
   4.79199982      -2.64404664E-18
   4.80000019      -1.63361173E-17
   4.80800009      -2.92525376E-17
   4.81599998      -4.07569060E-17
   4.82399988      -5.02946492E-17
   4.83199978      -5.74227789E-17
   4.84000015      -6.18309898E-17
   4.84800005      -6.33531808E-17
   4.85599995      -6.19704988E-17
   4.86399984      -5.78072921E-17
   4.87200022      -5.11209067E-17
   4.88000011      -4.22848674E-17
   4.88800001      -3.17653866E-17
   4.89599991      -2.00923974E-17
   4.90399981      -7.82808411E-18
   4.91200018       4.46384833E-18
   4.92000008       1.62458471E-17
   4.92799997       2.70304013E-17
   4.93599987       3.64001159E-17
   4.94399977       4.40235283E-17
   4.95200014       4.96655982E-17
   4.96000004       5.31918096E-17
   4.96799994       5.45658161E-17
   4.97599983       5.38419239E-17
   4.98400021       5.11542784E-17
   4.99200010       4.67043809E-17
   5.00000000       4.07476184E-17
   5.00799990       3.35790396E-17
   5.01599979       2.55186112E-17
   5.02400017       1.68968084E-17
   5.03200006       8.04165139E-18
   5.03999996      -7.31972331E-19
   5.04799986      -9.13051721E-18
   5.05600023      -1.68879229E-17
   5.06400013      -2.37702128E-17
   5.07200003      -2.95789828E-17
   5.07999992      -3.41540691E-17
   5.08799982      -3.73758119E-17
   5.09600019      -3.91670020E-17
   5.10400009      -3.94945721E-17
   5.11199999      -3.83705561E-17
   5.11999989      -3.58521617E-17
   5.12799978      -3.20409436E-17
   5.13600016      -2.70813060E-17
   5.14400005      -2.11582461E-17
   5.15199995      -1.44938124E-17
   5.15999985      -7.34138262E-18
   5.16800022       2.26947115E-20
   5.17600012       7.30977605E-18
   5.18400002       1.42307987E-17
   5.19199991       2.05082194E-17
   5.19999981       2.58873783E-17
   5.20800018       3.01474014E-17
   5.21600008       3.31117289E-17
   5.22399998       3.46576666E-17
   5.23199987       3.47236657E-17
   5.23999977       3.33130845E-17
   5.24800014       3.04939537E-17
   5.25600004       2.63954210E-17
   5.26399994       2.12018170E-17
   5.27199984       1.51446943E-17
   5.28000021       8.49269726E-18
   5.28800011       1.53892858E-18
   5.29600000      -5.41366054E-18
   5.30399990      -1.20675080E-17
   5.31199980      -1.81446683E-17
   5.32000017      -2.33988997E-17
   5.32800007      -2.76254436E-17
   5.33599997      -3.06688329E-17
   5.34399986      -3.24288946E-17
   5.35200024      -3.28645078E-17
   5.36000013      -3.19942443E-17
   5.36800003      -2.98934272E-17
   5.37599993      -2.66879568E-17
   5.38399982      -2.25458267E-17
   5.39200020      -1.76673934E-17
   5.40000010      -1.22750319E-17
   5.40799999      -6.60232983E-18
   5.41599989      -8.82984078E-19
   5.42399979       4.66000553E-18
   5.43200016       9.82385255E-18
   5.44000006       1.44332197E-17
   5.44799995       1.83447914E-17
   5.45599985       2.14494881E-17
   5.46400023       2.36731332E-17
   5.47200012       2.49761379E-17
   5.48000002       2.53523595E-17
   5.48799992       2.48268930E-17
   5.49599981       2.34527955E-17
   5.50400019       2.13072296E-17
   5.51200008       1.84878507E-17
   5.51999998       1.51099858E-17
   5.52799988       1.13044397E-17
   5.53599977       7.21518877E-18
   5.54400015       2.99617308E-18
   5.55200005      -1.19308799E-18
   5.55999994      -5.19272721E-18
   5.56799984      -8.84809376E-18
   5.57600021      -1.20154146E-17
   5.58400011      -1.45678202E-17
   5.59200001      -1.64021015E-17
   5.59999990      -1.74460564E-17
   5.60799980      -1.76653138E-17
   5.61600018      -1.70681705E-17
   5.62400007      -1.57071672E-17
   5.63199997      -1.36772412E-17
   5.63999987      -1.11109994E-17
   5.64799976      -8.17188767E-18
   5.65600014      -5.04538277E-18
   5.66400003      -1.92796486E-18
   5.67199993       9.86290044E-19
   5.67999983       3.52060518E-18
   5.68800020       5.53000266E-18
   5.69600010       6.91328729E-18
   5.70400000       7.62112187E-18
   5.71199989       7.65994973E-18
   5.71999979       7.09202902E-18
   5.72800016       6.03148215E-18
   5.73600006       4.63574308E-18
   5.74399996       3.09203360E-18
   5.75199986       1.59972936E-18
   5.76000023       3.50796596E-19
   5.76800013      -4.88947132E-19
   5.77600002      -7.95657173E-19
   5.78399992      -4.99486344E-19
   5.79199982       4.07307456E-19
   5.80000019       1.86663273E-18
   5.80800009       3.75653611E-18
   5.81599998       5.90013497E-18
   5.82399988       8.08157030E-18
   5.83199978       1.00669717E-17
   5.84000015       1.16271079E-17
   5.84800005       1.25586481E-17
   5.85599995       1.27023460E-17
   5.86399984       1.19576973E-17
   5.87200022       1.02936274E-17
   5.88000011       7.75407378E-18
   5.88800001       4.45677345E-18
   5.89599991       5.84291537E-19
   5.90399981      -3.63177949E-18
   5.91200018      -7.93091838E-18
   5.92000008      -1.20451005E-17
   5.92799997      -1.57192457E-17
   5.93599987      -1.87295512E-17
   5.94399977      -2.08989945E-17
   5.95200014      -2.21090886E-17
   5.96000004      -2.23065597E-17
   5.96799994      -2.15039894E-17
   5.97599983      -1.97745466E-17
   5.98400021      -1.72421828E-17
   5.99200010      -1.40691048E-17
   6.00000000      -1.04420700E-17
   6.00799990      -6.55839951E-18
   6.01599979      -2.61243138E-18
   6.02400017       1.21665199E-18
   6.03200006       4.77449766E-18
   6.03999996       7.93795603E-18
   6.04799986       1.06179774E-17
   6.05600023       1.27596017E-17
   6.06400013       1.43397285E-17
   6.07200003       1.53632636E-17
   6.07999992       1.58579176E-17
   6.08799982       1.58680853E-17
   6.09600019       1.54485029E-17
   6.10400009       1.46586149E-17
   6.11199999       1.35582215E-17
   6.11999989       1.22042939E-17
   6.12799978       1.06483448E-17
   6.13600016       8.93395014E-18
   6.14400005       7.09473060E-18
   6.15199995       5.15369628E-18
   6.15999985       3.12468655E-18
   6.16800022       1.01576497E-18
   6.17600012      -1.16634896E-18
   6.18400002      -3.41180673E-18
   6.19199991      -5.70350255E-18
   6.19999981      -8.01304500E-18
   6.20800018      -1.02966227E-17
   6.21600008      -1.24913272E-17
   6.22399998      -1.45132246E-17
   6.23199987      -1.62586138E-17
   6.23999977      -1.76090490E-17
   6.24800014      -1.84396591E-17
   6.25600004      -1.86294722E-17
   6.26399994      -1.80724935E-17
   6.27199984      -1.66888834E-17
   6.28000021      -1.44359048E-17
   6.28800011      -1.13182734E-17
   6.29600000      -7.39684922E-18
   6.30399990      -2.79393466E-18
   6.31199980       2.30661961E-18
   6.32000017       7.66577887E-18
   6.32800007       1.30022444E-17
   6.33599997       1.80106518E-17
   6.34399986       2.23828473E-17
   6.35200024       2.58298925E-17
   6.36000013       2.81029981E-17
   6.36800003       2.90123045E-17
   6.37599993       2.84428006E-17
   6.38399982       2.63661140E-17
   6.39200020       2.28464638E-17
   6.40000010       1.80391234E-17
   6.40799999       1.21808549E-17
   6.41599989       5.57363685E-18
   6.42399979      -1.43576810E-18
   6.43200016      -8.47766243E-18
   6.44000006      -1.51809066E-17
   6.44799995      -2.11934492E-17
   6.45599985      -2.62016341E-17
   6.46400023      -2.99473528E-17
   6.47200012      -3.22414522E-17
   6.48000002      -3.29718163E-17
   6.48799992      -3.21057416E-17
   6.49599981      -2.96875751E-17
   6.50400019      -2.58332327E-17
   6.51200008      -2.07228430E-17
   6.51999998      -1.45917985E-17
   6.52799988      -7.71996499E-18
   6.53599977      -4.19008391E-19
   6.54400015       6.98161365E-18
   6.55200005       1.41488417E-17
   6.55999994       2.07595252E-17
   6.56799984       2.65129055E-17
   6.57600021       3.11423905E-17
   6.58400011       3.44268071E-17
   6.59200001       3.62009176E-17
   6.59999990       3.63644479E-17
   6.60799980       3.48884864E-17