 -0.239999995       0.00000000    
 -0.231999993       0.00000000    
 -0.224000007       0.00000000    
 -0.216000006       0.00000000    
 -0.208000004       0.00000000    
 -0.200000003       0.00000000    
 -0.192000002       4.36298430E-33
 -0.184000000       4.33865948E-27
 -0.175999999      -5.55367591E-27
 -0.167999998      -1.26392773E-25
 -0.159999996      -2.98617552E-25
 -0.151999995       2.50347104E-25
 -0.143999994       2.25141021E-24
 -0.136000007       3.20172392E-24
 -0.128000006      -2.94000965E-24
 -0.119999997      -1.54764002E-23
 -0.112000003      -1.57527271E-23
 -0.104000002       1.67662178E-23
  -9.60000008E-02   6.15423146E-23
  -8.79999995E-02   5.05115526E-23
  -7.99999982E-02  -5.10888316E-23
  -7.19999969E-02  -1.57005156E-22
  -6.40000030E-02  -1.19734280E-22
  -5.60000017E-02   7.69058098E-23
  -4.80000004E-02   2.45667063E-22
  -3.99999991E-02   2.04662540E-22
  -3.20000015E-02   1.86434622E-23
  -2.40000002E-02  -1.04881272E-22
  -1.60000008E-02  -1.57464551E-22
  -8.00000038E-03  -3.42431746E-22
   1.38777878E-17  -6.01252970E-22
   8.00000038E-03  -3.82832960E-22
   1.60000008E-02   6.79043339E-22
   2.40000002E-02   1.85855124E-21
   3.20000015E-02   1.68815921E-21
   3.99999991E-02  -3.25465657E-22
   4.80000004E-02  -2.65147979E-21
   5.60000017E-02  -3.07161000E-21
   6.40000030E-02  -1.11888194E-21
   7.19999969E-02   1.41104047E-21
   7.99999982E-02   2.57181943E-21
   8.79999995E-02   2.24236002E-21
   9.60000008E-02   1.54525477E-21
  0.104000002       9.28760856E-22
  0.112000003      -2.54506016E-22
  0.119999997      -2.34411697E-21
  0.128000006      -4.35884157E-21
  0.136000007      -4.66466252E-21
  0.143999994      -2.34944235E-21
  0.151999995       1.96287859E-21
  0.159999996       6.18507461E-21
  0.167999998       7.83946370E-21
  0.175999999       5.84523383E-21
  0.184000000       1.38335739E-21
  0.192000002      -3.49618145E-21
  0.200000003      -7.79269488E-21
  0.208000004      -1.10118217E-20
  0.216000006      -1.10456521E-20
  0.224000007      -4.90568792E-21
  0.231999993       6.85525852E-21
  0.239999995       1.77686990E-20
  0.247999996       1.99077897E-20
  0.256000012       1.12633581E-20
  0.263999999      -2.40533984E-21
  0.272000015      -1.32976392E-20
  0.280000001      -1.80023081E-20
  0.287999988      -1.77541620E-20
  0.296000004      -1.37747334E-20
  0.303999990      -4.68434037E-21
  0.312000006       1.01859198E-20
  0.319999993       2.56638957E-20
  0.328000009       3.13507915E-20
  0.335999995       1.99473345E-20
  0.344000012      -4.21449491E-21
  0.351999998      -2.63500614E-20
  0.360000014      -3.28242909E-20
  0.368000001      -2.23304030E-20
  0.375999987      -5.51991153E-21
  0.384000003       5.92151459E-21
  0.391999990       9.03650310E-21
  0.400000006       9.01994898E-21
  0.407999992       1.09440309E-20
  0.416000009       1.36443523E-20
  0.423999995       1.15472176E-20
  0.432000011       1.19713341E-21
  0.439999998      -1.44166934E-20
  0.448000014      -2.70860857E-20
  0.456000000      -2.85061399E-20
  0.463999987      -1.58155382E-20
  0.472000003       5.69518093E-21
  0.479999989       2.50378330E-20
  0.488000005       3.24750559E-20
  0.495999992       2.57720285E-20
  0.504000008       1.04921108E-20
  0.512000024      -4.72823547E-21
  0.519999981      -1.23618063E-20
  0.527999997      -7.57462050E-21
  0.536000013       9.53317174E-21
  0.544000030       3.04900099E-20
  0.551999986       3.99465874E-20
  0.560000002       2.62443487E-20
  0.568000019      -6.12045152E-21
  0.575999975      -3.55358762E-20
  0.583999991      -3.86998970E-20
  0.592000008      -1.12064466E-20
  0.600000024       2.55229567E-20
  0.607999980       4.00637983E-20
  0.615999997       1.76690173E-20
  0.624000013      -2.63107719E-20
  0.632000029      -5.92727060E-20
  0.639999986      -5.85899201E-20
  0.648000002      -2.92691010E-20
  0.656000018       9.44923290E-22
  0.663999975       3.64103661E-21
  0.671999991      -2.65420755E-20
  0.680000007      -6.44110744E-20
  0.688000023      -7.32253689E-20
  0.695999980      -3.76290115E-20
  0.703999996       2.19911249E-20
  0.712000012       7.04520908E-20
  0.720000029       8.94742269E-20
  0.727999985       8.44554766E-20
  0.736000001       6.78160406E-20
  0.744000018       4.89069665E-20
  0.751999974       3.81642103E-20
  0.759999990       4.39138684E-20
  0.768000007       5.75886374E-20
  0.776000023       5.43453527E-20
  0.783999979       1.88042726E-20
  0.791999996      -3.59270454E-20
  0.800000012      -8.23597240E-20
  0.808000028      -1.04992743E-19
  0.815999985      -1.05778545E-19
  0.824000001      -9.23688356E-20
  0.832000017      -7.38398413E-20
  0.839999974      -6.34202219E-20
  0.847999990      -7.06849163E-20
  0.856000006      -8.83401882E-20
  0.864000022      -9.58238269E-20
  0.871999979      -7.79923655E-20
  0.879999995      -3.36519142E-20
  0.888000011       3.27842179E-20
  0.896000028       1.15720125E-19
  0.903999984       2.00285035E-19
  0.912000000       2.62209533E-19
  0.920000017       2.87124627E-19
  0.927999973       2.84616176E-19
  0.935999990       2.71430478E-19
  0.944000006       2.42303716E-19
  0.952000022       1.69994676E-19
  0.959999979       3.90442723E-20
  0.967999995      -1.29315859E-19
  0.976000011      -2.92214631E-19
  0.984000027      -4.17392261E-19
  0.991999984      -4.91872456E-19
   1.00000000      -5.06910858E-19
   1.00800002      -4.53694762E-19
   1.01600003      -3.39370078E-19
   1.02400005      -1.93535900E-19
   1.03199995      -4.66126744E-20
   1.03999996       9.26996109E-20
   1.04799998       2.28607130E-19
   1.05599999       3.51742141E-19
   1.06400001       4.34367739E-19
   1.07200003       4.53516453E-19
   1.08000004       4.09779692E-19
   1.08800006       3.21021248E-19
   1.09599996       2.05924171E-19
   1.10399997       7.78853942E-20
   1.11199999      -5.14175049E-20
   1.12000000      -1.68104814E-19
   1.12800002      -2.54013492E-19
   1.13600004      -2.88839889E-19
   1.14400005      -2.62295664E-19
   1.15199995      -1.88659011E-19
   1.15999997      -1.02411959E-19
   1.16799998      -3.15001299E-20
   1.17600000       2.30792293E-20
   1.18400002       7.61294643E-20
   1.19200003       1.30651330E-19
   1.20000005       1.69091201E-19
   1.20799994       1.71170875E-19
   1.21599996       1.33617909E-19
   1.22399998       7.22610960E-20
   1.23199999       1.18052608E-20
   1.24000001      -2.51980169E-20
   1.24800003      -2.81869452E-20
   1.25600004      -5.14539057E-21
   1.26400006       2.22208210E-20
   1.27199996       3.46755793E-20
   1.27999997       2.79941442E-20
   1.28799999       9.62431267E-21
   1.29600000      -1.45422181E-20
   1.30400002      -4.88095563E-20
   1.31200004      -1.05333231E-19
   1.32000005      -1.93355820E-19
   1.32799995      -3.06284896E-19
   1.33599997      -4.17223930E-19
   1.34399998      -4.91848675E-19
   1.35200000      -5.10559811E-19
   1.36000001      -4.76899247E-19
   1.36800003      -4.02761452E-19
   1.37600005      -2.89635301E-19
   1.38399994      -1.28805437E-19
   1.39199996       8.30367067E-20
   1.39999998       3.32827364E-19
   1.40799999       5.92283291E-19
   1.41600001       8.24686094E-19
   1.42400002       9.94999532E-19
   1.43200004       1.08332733E-18
   1.44000006       1.09013936E-18
   1.44799995       1.02272394E-18
   1.45599997       8.77650004E-19
   1.46399999       6.45403640E-19
   1.47200000       3.33932426E-19
   1.48000002      -2.16010753E-20
   1.48800004      -3.77057745E-19
   1.49600005      -7.00605384E-19
   1.50399995      -9.72979881E-19
   1.51199996      -1.17762209E-18
   1.51999998      -1.30111705E-18
   1.52800000      -1.33827649E-18
   1.53600001      -1.28636604E-18
   1.54400003      -1.13753723E-18
   1.55200005      -8.89276544E-19
   1.55999994      -5.63716246E-19
   1.56799996      -2.05460290E-19
   1.57599998       1.44958181E-19
   1.58399999       4.68913386E-19
   1.59200001       7.58247826E-19
   1.60000002       9.95421084E-19
   1.60800004       1.15274194E-18
   1.61600006       1.20588933E-18
   1.62399995       1.14156043E-18
   1.63199997       9.59231726E-19
   1.63999999       6.78387622E-19
   1.64800000       3.42807789E-19
   1.65600002       4.24869730E-21
   1.66400003      -3.03338763E-19
   1.67200005      -5.65864279E-19
   1.67999995      -7.63952736E-19
   1.68799996      -8.59127052E-19
   1.69599998      -8.16592080E-19
   1.70400000      -6.37517869E-19
   1.71200001      -3.60910508E-19
   1.72000003      -3.83770284E-20
   1.72800004       2.84018848E-19
   1.73599994       5.64744173E-19
   1.74399996       7.65056712E-19
   1.75199997       8.57077298E-19
   1.75999999       8.29758262E-19
   1.76800001       6.85158716E-19
   1.77600002       4.35653333E-19
   1.78400004       1.09416505E-19
   1.79200006      -2.46447090E-19
   1.79999995      -5.76183668E-19
   1.80799997      -8.32620566E-19
   1.81599998      -9.86831330E-19
   1.82400000      -1.02631380E-18
   1.83200002      -9.49872694E-19
   1.84000003      -7.67406008E-19
   1.84800005      -5.03816376E-19
   1.85599995      -1.98909459E-19
   1.86399996       1.02099090E-19
   1.87199998       3.61404593E-19
   1.88000000       5.53726179E-19
   1.88800001       6.62960446E-19
   1.89600003       6.80779467E-19
   1.90400004       6.11592685E-19
   1.91199994       4.75007588E-19
   1.91999996       2.99023232E-19
   1.92799997       1.10835404E-19
   1.93599999      -6.58421421E-20
   1.94400001      -2.09335929E-19
   1.95200002      -3.01502396E-19
   1.96000004      -3.32234715E-19
   1.96800005      -3.02762606E-19
   1.97599995      -2.26019037E-19
   1.98399997      -1.22774942E-19
   1.99199998      -1.23461060E-20
   2.00000000       9.62690827E-20
   2.00799990       2.02488657E-19
   2.01600003       3.02291113E-19
   2.02399993       3.81745016E-19
   2.03200006       4.25598461E-19
   2.03999996       4.30121149E-19
   2.04800010       4.03251014E-19
   2.05599999       3.52152397E-19
   2.06399989       2.74731419E-19
   2.07200003       1.65881042E-19
   2.07999992       2.98672689E-20
   2.08800006      -1.17794681E-19
   2.09599996      -2.61873620E-19
   2.10400009      -3.96806863E-19
   2.11199999      -5.20340394E-19
   2.11999989      -6.19977763E-19
   2.12800002      -6.72815630E-19
   2.13599992      -6.62049151E-19
   2.14400005      -5.90094157E-19
   2.15199995      -4.72684503E-19
   2.16000009      -3.23588325E-19
   2.16799998      -1.49403540E-19
   2.17600012       4.21771349E-20
   2.18400002       2.33236292E-19
   2.19199991       3.95846946E-19
   2.20000005       5.01230402E-19
   2.20799994       5.31797001E-19
   2.21600008       4.88670233E-19
   2.22399998       3.89059697E-19
   2.23200011       2.55853658E-19
   2.24000001       1.09465631E-19
   2.24799991      -3.22938258E-20
   2.25600004      -1.51831935E-19
   2.26399994      -2.33867172E-19
   2.27200007      -2.69328250E-19
   2.27999997      -2.54455361E-19
   2.28800011      -1.87086502E-19
   2.29600000      -6.88965776E-20
   2.30399990       8.53249274E-20
   2.31200004       2.43280668E-19
   2.31999993       3.66949340E-19
   2.32800007       4.34342975E-19
   2.33599997       4.50093321E-19
   2.34400010       4.32181191E-19
   2.35200000       3.88416021E-19
   2.35999990       3.09491306E-19
   2.36800003       1.86555814E-19
   2.37599993       3.17787734E-20
   2.38400006      -1.22734565E-19
   2.39199996      -2.46021324E-19
   2.40000010      -3.26223671E-19
   2.40799999      -3.69908733E-19
   2.41599989      -3.89048142E-19
   2.42400002      -3.90888696E-19
   2.43199992      -3.77545136E-19
   2.44000006      -3.51155050E-19
   2.44799995      -3.17279134E-19
   2.45600009      -2.83011988E-19
   2.46399999      -2.52380586E-19
   2.47199988      -2.24776560E-19
   2.48000002      -1.98295989E-19
   2.48799992      -1.72697191E-19
   2.49600005      -1.46494255E-19
   2.50399995      -1.11512193E-19
   2.51200008      -5.40356317E-20
   2.51999998       3.51894976E-20
   2.52800012       1.51415967E-19
   2.53600001       2.76821524E-19
   2.54399991       3.90619501E-19
   2.55200005       4.78127300E-19
   2.55999994       5.32194926E-19
   2.56800008       5.49931488E-19
   2.57599998       5.30557212E-19
   2.58400011       4.75086635E-19
   2.59200001       3.84969056E-19
   2.59999990       2.60331730E-19
   2.60800004       1.02582694E-19
   2.61599994      -7.76893977E-20
   2.62400007      -2.55176585E-19
   2.63199997      -3.95601816E-19
   2.64000010      -4.71396893E-19
   2.64800000      -4.74987942E-19
   2.65599990      -4.18543438E-19
   2.66400003      -3.21363132E-19
   2.67199993      -1.96718232E-19
   2.68000007      -4.92305977E-20
   2.68799996       1.16208872E-19
   2.69600010       2.83158012E-19
   2.70400000       4.21262975E-19
   2.71199989       4.96644358E-19
   2.72000003       4.87921015E-19
   2.72799993       3.95818021E-19
   2.73600006       2.39646683E-19
   2.74399996       4.47815712E-20
   2.75200009      -1.67941834E-19
   2.75999999      -3.82982194E-19
   2.76799989      -5.83269348E-19
   2.77600002      -7.45688123E-19
   2.78399992      -8.45649126E-19
   2.79200006      -8.66723982E-19
   2.79999995      -8.05480667E-19
   2.80800009      -6.67613440E-19
   2.81599998      -4.61450770E-19
   2.82399988      -1.96869645E-19
   2.83200002       1.09233711E-19
   2.83999991       4.27469906E-19
   2.84800005       7.18391576E-19
   2.85599995       9.44283434E-19
   2.86400008       1.08178019E-18
   2.87199998       1.12411457E-18
   2.88000011       1.07262464E-18
   2.88800001       9.29649886E-19
   2.89599991       7.01303834E-19
   2.90400004       4.03547817E-19
   2.91199994       6.18453346E-20
   2.92000008      -2.92839178E-19
   2.92799997      -6.23940475E-19
   2.93600011      -8.89177799E-19
   2.94400001      -1.05041515E-18
   2.95199990      -1.08920010E-18
   2.96000004      -1.01129809E-18
   2.96799994      -8.34972809E-19
   2.97600007      -5.77237341E-19
   2.98399997      -2.52584847E-19
   2.99200010       1.17205961E-19
   3.00000000       4.93875267E-19
   3.00799990       8.23813884E-19
   3.01600003       1.05212028E-18
   3.02399993       1.14249752E-18
   3.03200006       1.08788095E-18
   3.03999996       9.02582985E-19
   3.04800010       6.06092657E-19
   3.05599999       2.17933295E-19
   3.06399989      -2.32425836E-19
   3.07200003      -6.96982901E-19
   3.07999992      -1.11626090E-18
   3.08800006      -1.43638900E-18
   3.09599996      -1.61981620E-18
   3.10400009      -1.64351213E-18
   3.11199999      -1.49404411E-18
   3.11999989      -1.17089391E-18
   3.12800002      -6.96767679E-19
   3.13599992      -1.22064626E-19
   3.14400005       4.85659761E-19
   3.15199995       1.06080568E-18
   3.16000009       1.55185680E-18
   3.16799998       1.91960227E-18
   3.17600012       2.13046240E-18
   3.18400002       2.15796181E-18
   3.19199991       1.99351479E-18
   3.20000005       1.65497086E-18
   3.20799994       1.18299070E-18
   3.21600008       6.29400384E-19
   3.22399998       5.03102784E-20
   3.23200011      -4.92372177E-19
   3.24000001      -9.32894812E-19
   3.24799991      -1.21700891E-18
   3.25600004      -1.32046305E-18
   3.26399994      -1.25061819E-18
   3.27200007      -1.02944313E-18
   3.27999997      -6.79036442E-19
   3.28800011      -2.26074588E-19
   3.29600000       2.84109243E-19
   3.30399990       7.85220480E-19
   3.31200004       1.20633891E-18
   3.31999993       1.49350355E-18
   3.32800007       1.61947829E-18
   3.33599997       1.57762161E-18
   3.34400010       1.37099417E-18
   3.35200000       1.01075918E-18
   3.35999990       5.24874481E-19
   3.36800003      -3.67403740E-20
   3.37599993      -6.11372034E-19
   3.38400006      -1.13969617E-18
   3.39199996      -1.57373852E-18
   3.40000010      -1.87434474E-18
   3.40799999      -2.00946697E-18
   3.41599989      -1.95979518E-18
   3.42400002      -1.72561922E-18
   3.43199992      -1.32746606E-18
   3.44000006      -8.01584284E-19
   3.44799995      -1.95810763E-19
   3.45600009       4.31861408E-19
   3.46399999       1.01481423E-18
   3.47199988       1.48480119E-18
   3.48000002       1.78630832E-18
   3.48799992       1.89051653E-18
   3.49600005       1.79624462E-18
   3.50399995       1.51672830E-18
   3.51200008       1.06858500E-18
   3.51999998       4.78039205E-19
   3.52800012      -2.02756664E-19
   3.53600001      -8.91715590E-19
   3.54399991      -1.49562465E-18
   3.55200005      -1.93834246E-18
   3.55999994      -2.17684241E-18
   3.56800008      -2.19720347E-18
   3.57599998      -2.00113540E-18
   3.58400011      -1.59958036E-18
   3.59200001      -1.01982881E-18
   3.59999990      -3.16558169E-19
   3.60800004       4.28719207E-19
   3.61599994       1.12407600E-18
   3.62400007       1.68776505E-18
   3.63199997       2.05940882E-18
   3.64000010       2.20115408E-18
   3.64800000       2.09748498E-18
   3.65599990       1.75757434E-18
   3.66400003       1.21620024E-18
   3.67199993       5.30789546E-19
   3.68000007      -2.22876449E-19
   3.68799996      -9.56425102E-19
   3.69600010      -1.58091234E-18
   3.70400000      -2.02428922E-18
   3.71199989      -2.24344431E-18
   3.72000003      -2.22312069E-18
   3.72799993      -1.96887721E-18
   3.73600006      -1.50594331E-18
   3.74399996      -8.83079927E-19
   3.75200009      -1.70646262E-19
   3.75999999       5.50307493E-19
   3.76799989       1.20020360E-18
   3.77600002       1.70946107E-18
   3.78399992       2.02625563E-18
   3.79200006       2.12357426E-18
   3.79999995       1.99953005E-18
   3.80800009       1.67066082E-18
   3.81599998       1.16770947E-18
   3.82399988       5.38718176E-19
   3.83200002      -1.49287735E-19
   3.83999991      -8.19394103E-19
   3.84800005      -1.40066214E-18
   3.85599995      -1.83981905E-18
   3.86400008      -2.10434851E-18
   3.87199998      -2.17914280E-18
   3.88000011      -2.05979346E-18
   3.88800001      -1.74840318E-18
   3.89599991      -1.25951628E-18
   3.90400004      -6.33041478E-19
   3.91199994       6.32964162E-20
   3.92000008       7.52226830E-19
   3.92799997       1.37065596E-18
   3.93600011       1.87558427E-18
   3.94400001       2.23242482E-18
   3.95199990       2.40744734E-18
   3.96000004       2.37554795E-18
   3.96799994       2.13174205E-18
   3.97600007       1.69391638E-18
   3.98399997       1.10016314E-18
   3.99200010       4.07363420E-19
   4.00000000      -3.12803053E-19
   4.00799990      -9.85132612E-19
   4.01599979      -1.54294010E-18
   4.02400017      -1.93232307E-18
   4.03200006      -2.11208472E-18
   4.03999996      -2.05798111E-18
   4.04799986      -1.76998164E-18
   4.05600023      -1.27392287E-18
   4.06400013      -6.16559697E-19
   4.07200003       1.38671699E-19
   4.07999992       9.13367559E-19
   4.08799982       1.62079134E-18
   4.09600019       2.18080254E-18
   4.10400009       2.53420987E-18
   4.11199999       2.64659642E-18
   4.11999989       2.50478913E-18
   4.12799978       2.11756065E-18
   4.13600016       1.52298768E-18
   4.14400005       7.90624089E-19
   4.15199995       8.41515475E-21
   4.15999985      -7.38514037E-19
   4.16800022      -1.38021641E-18
   4.17600012      -1.85960107E-18
   4.18400002      -2.12742292E-18
   4.19199991      -2.14842835E-18
   4.19999981      -1.91703925E-18
   4.20800018      -1.46757878E-18
   4.21600008      -8.67543097E-19
   4.22399998      -1.97919764E-19
   4.23199987       4.64550732E-19
   4.23999977       1.05296504E-18
   4.24800014       1.50838525E-18
   4.25600004       1.78249977E-18
   4.26399994       1.84724610E-18
   4.27199984       1.70121739E-18
   4.28000021       1.36602064E-18
   4.28800011       8.79827867E-19
   4.29600000       2.97107792E-19
   4.30399990      -3.10614850E-19
   4.31199980      -8.64786466E-19
   4.32000017      -1.29913720E-18
   4.32800007      -1.57293812E-18
   4.33599997      -1.66900449E-18
   4.34399986      -1.58412842E-18
   4.35200024      -1.32513765E-18
   4.36000013      -9.14560560E-19
   4.36800003      -3.99128914E-19
   4.37599993       1.49251791E-19
   4.38399982       6.46246641E-19
   4.39200020       1.01684299E-18
   4.40000010       1.21101175E-18
   4.40799999       1.20165996E-18
   4.41599989       9.71862050E-19
   4.42399979       5.11250351E-19
   4.43200016      -1.70020228E-19
   4.44000006      -1.02526524E-18
   4.44799995      -1.97461123E-18
   4.45599985      -2.92806717E-18
   4.46400023      -3.80700613E-18
   4.47200012      -4.54740060E-18
   4.48000002      -5.09152497E-18
   4.48799992      -5.38627383E-18
   4.49599981      -5.39385494E-18
   4.50400019      -5.10428920E-18
   4.51200008      -4.53919662E-18
   4.51999998      -3.74695364E-18
   4.52799988      -2.79412967E-18
   4.53599977      -1.75602482E-18
   4.54400015      -7.08620453E-19
   4.55200005       2.75522747E-19
   4.55999994       1.12911250E-18
   4.56799984       1.79479271E-18
   4.57600021       2.23312875E-18
   4.58400011       2.42858739E-18
   4.59200001       2.39075442E-18
   4.59999990       2.15315858E-18
   4.60799980       1.76971322E-18
   4.61600018       1.30527353E-18
   4.62400007       8.23215160E-19
   4.63199997       3.80433211E-19
   4.63999987       3.24090753E-20
   4.64799976      -1.64652459E-19
   4.65600014      -1.66561256E-19
   4.66400003       3.94887430E-20
   4.67199993       4.29062254E-19
   4.67999983       9.54209085E-19
   4.68800020       1.56107386E-18
   4.69600010       2.19451492E-18
   4.70400000       2.79193495E-18
   4.71199989       3.28184218E-18
   4.71999979       3.59484877E-18
   4.72800016       3.67927331E-18
   4.73600006       3.51047015E-18
   4.74399996       3.09225962E-18
   4.75199986       2.45478399E-18
   4.76000023       1.65038838E-18
   4.76800013       7.47149337E-19
   4.77600002      -1.77372339E-19
   4.78399992      -1.03979746E-18
   4.79199982      -1.75575827E-18
   4.80000019      -2.25102625E-18
   4.80800009      -2.47581010E-18
   4.81599998      -2.41291811E-18
   4.82399988      -2.07607300E-18
   4.83199978      -1.50376079E-18
   4.84000015      -7.54581452E-19
   4.84800005       9.54592147E-20
   4.85599995       9.56473285E-19
   4.86399984       1.73186091E-18
   4.87200022       2.33086675E-18
   4.88000011       2.68402407E-18
   4.88800001       2.75372500E-18
   4.89599991       2.53446609E-18
   4.90399981       2.04691695E-18
   4.91200018       1.33386927E-18
   4.92000008       4.59065026E-19
   4.92799997      -4.96257910E-19
   4.93599987      -1.44101046E-18
   4.94399977      -2.28353506E-18
   4.95200014      -2.94178823E-18
   4.96000004      -3.35499804E-18
   4.96799994      -3.49290621E-18
   4.97599983      -3.35718076E-18
   4.98400021      -2.97633688E-18
   4.99200010      -2.39999403E-18
   5.00000000      -1.69320159E-18
   5.00799990      -9.27587518E-19
   5.01599979      -1.71754710E-19
   5.02400017       5.12875296E-19
   5.03200006       1.07295086E-18
   5.03999996       1.46994131E-18
   5.04799986       1.69216183E-18
   5.05600023       1.75844226E-18
   5.06400013       1.70651207E-18
   5.07200003       1.57827178E-18
   5.07999992       1.41663665E-18
   5.08799982       1.27032133E-18
   5.09600019       1.19141191E-18
   5.10400009       1.22183510E-18
   5.11199999       1.38029085E-18
   5.11999989       1.65954000E-18
   5.12799978       2.03185358E-18
   5.13600016       2.45619330E-18
   5.14400005       2.88482154E-18
   5.15199995       3.26861039E-18
   5.15999985       3.55904426E-18
   5.16800022       3.70821553E-18
   5.17600012       3.67265876E-18
   5.18400002       3.42296891E-18
   5.19199991       2.95242743E-18
   5.19999981       2.27791830E-18
   5.20800018       1.43565695E-18
   5.21600008       4.77732217E-19
   5.22399998      -5.31604319E-19
   5.23199987      -1.52449800E-18
   5.23999977      -2.43938540E-18
   5.24800014      -3.22317688E-18
   5.25600004      -3.82666986E-18
   5.26399994      -4.20621259E-18
   5.27199984      -4.33788237E-18
   5.28000021      -4.23163392E-18
   5.28800011      -3.92919063E-18
   5.29600000      -3.48723547E-18
   5.30399990      -2.96262181E-18
   5.31199980      -2.41011107E-18
   5.32000017      -1.88682669E-18
   5.32800007      -1.45172255E-18
   5.33599997      -1.15550493E-18
   5.34399986      -1.02596855E-18
   5.35200024      -1.05828950E-18
   5.36000013      -1.21730308E-18
   5.36800003      -1.44935857E-18
   5.37599993      -1.69277797E-18
   5.38399982      -1.87984549E-18
   5.39200020      -1.93650281E-18
   5.40000010      -1.79024425E-18
   5.40799999      -1.38528485E-18
   5.41599989      -6.93838271E-19
   5.42399979       2.82062127E-19
   5.43200016       1.51265805E-18
   5.44000006       2.94123092E-18
   5.44799995       4.48637701E-18
   5.45599985       6.04963504E-18
   5.46400023       7.52588939E-18
   5.47200012       8.81210809E-18
   5.48000002       9.81456911E-18
   5.48799992       1.04567458E-17
   5.49599981       1.06868071E-17
   5.50400019       1.04821527E-17
   5.51200008       9.85036535E-18
   5.51999998       8.82669377E-18
   5.52799988       7.46760128E-18
   5.53599977       5.84273608E-18
   5.54400015       4.03073615E-18
   5.55200005       2.11951570E-18
   5.55999994       2.03073538E-19
   5.56799984      -1.63095512E-18
   5.57600021      -3.31523009E-18
   5.58400011      -4.80475634E-18
   5.59200001      -6.06692560E-18
   5.59999990      -7.07387985E-18
   5.60799980      -7.80646740E-18
   5.61600018      -8.26241597E-18
   5.62400007      -8.45742628E-18
   5.63199997      -8.41929491E-18
   5.63999987      -8.18216043E-18
   5.64799976      -7.78267520E-18
   5.65600014      -7.25596299E-18
   5.66400003      -6.63376476E-18
   5.67199993      -5.94784137E-18
   5.67999983      -5.23337900E-18
   5.68800020      -4.52445875E-18
   5.69600010      -3.84470612E-18
   5.70400000      -3.20443110E-18
   5.71199989      -2.60672714E-18
   5.71999979      -2.05278972E-18
   5.72800016      -1.54030708E-18
   5.73600006      -1.06082233E-18
   5.74399996      -6.02496076E-19
   5.75199986      -1.54886804E-19
   5.76000023       2.89873994E-19
   5.76800013       7.37199027E-19
   5.77600002       1.18644873E-18
   5.78399992       1.62627121E-18
   5.79199982       2.03590883E-18
   5.80000019       2.39244125E-18
   5.80800009       2.67629841E-18
   5.81599998       2.87078201E-18
   5.82399988       2.95987764E-18
   5.83199978       2.92958753E-18
   5.84000015       2.77174823E-18
   5.84800005       2.48663789E-18
   5.85599995       2.08434460E-18
   5.86399984       1.58634919E-18
   5.87200022       1.02469904E-18
   5.88000011       4.35384344E-19
   5.88800001      -1.50066150E-19
   5.89599991      -7.06211859E-19
   5.90399981      -1.20838566E-18
   5.91200018      -1.63091034E-18
   5.92000008      -1.95478764E-18
   5.92799997      -2.17629668E-18
   5.93599987      -2.30554117E-18
   5.94399977      -2.35739340E-18
   5.95200014      -2.34577296E-18
   5.96000004      -2.28443917E-18
   5.96799994      -2.18827178E-18
   5.97599983      -2.07174229E-18
   5.98400021      -1.94715318E-18
   5.99200010      -1.82321443E-18
   6.00000000      -1.70174182E-18
   6.00799990      -1.57493483E-18
   6.01599979      -1.42883467E-18
   6.02400017      -1.25139419E-18
   6.03200006      -1.03670401E-18
   6.03999996      -7.82522579E-19
   6.04799986      -4.87424758E-19
   6.05600023      -1.52216872E-19
   6.06400013       2.17239032E-19
   6.07200003       6.08654125E-19
   6.07999992       1.00203015E-18
   6.08799982       1.36947154E-18
   6.09600019       1.68116725E-18
   6.10400009       1.91675263E-18
   6.11199999       2.07193048E-18
   6.11999989       2.15367557E-18
   6.12799978       2.17065572E-18
   6.13600016       2.12956429E-18
   6.14400005       2.03855746E-18
   6.15199995       1.91114890E-18
   6.15999985       1.76627959E-18
   6.16800022       1.62486882E-18
   6.17600012       1.50400874E-18
   6.18400002       1.41150462E-18
   6.19199991       1.34577664E-18
   6.19999981       1.30198394E-18
   6.20800018       1.27700960E-18
   6.21600008       1.26701829E-18
   6.22399998       1.26270909E-18
   6.23199987       1.25172631E-18
   6.23999977       1.22686384E-18
   6.24800014       1.18922754E-18
   6.25600004       1.14278610E-18
   6.26399994       1.08911345E-18
   6.27199984       1.02902281E-18
   6.28000021       9.65674946E-19
   6.28800011       9.01960635E-19
   6.29600000       8.35455572E-19
   6.30399990       7.58608891E-19
   6.31199980       6.63334124E-19
   6.32000017       5.43149072E-19
   6.32800007       3.92139859E-19
   6.33599997       2.06172919E-19
   6.34399986      -1.30921769E-20
   6.35200024      -2.57118599E-19
   6.36000013      -5.13746886E-19
   6.36800003      -7.69093302E-19
   6.37599993      -1.00572982E-18
   6.38399982      -1.20268649E-18
   6.39200020      -1.34066601E-18
   6.40000010      -1.40700031E-18
   6.40799999      -1.39497548E-18
   6.41599989      -1.30133894E-18
   6.42399979      -1.12821955E-18
   6.43200016      -8.87438859E-19
   6.44000006      -6.00649137E-19
   6.44799995      -2.95145384E-19
   6.45599985      -8.18905878E-22
   6.46400023       2.50827864E-19
   6.47200012       4.30525795E-19
   6.48000002       5.19030657E-19
   6.48799992       5.12313899E-19
   6.49599981       4.18931075E-19
   6.50400019       2.53457523E-19
   6.51200008       3.37289357E-20
   6.51999998      -2.16827225E-19
   6.52799988      -4.67653539E-19
   6.53599977      -6.84639454E-19
   6.54400015      -8.36426889E-19
   6.55200005      -8.99031899E-19
   6.55999994      -8.58342833E-19
   6.56799984      -7.12407441E-19
   6.57600021      -4.72873203E-19
   6.58400011      -1.63323464E-19
   6.59200001       1.84646862E-19
   6.59999990       5.34527834E-19
   6.60799980       8.47157283E-19