 -0.239999995       0.00000000    
 -0.231999993       0.00000000    
 -0.224000007       0.00000000    
 -0.216000006       0.00000000    
 -0.208000004       0.00000000    
 -0.200000003       0.00000000    
 -0.192000002       0.00000000    
 -0.184000000      -6.22700985E-37
 -0.175999999      -1.92114333E-36
 -0.167999998       3.25891673E-32
 -0.159999996      -1.42765011E-31
 -0.151999995      -1.53793349E-30
 -0.143999994      -1.94792880E-30
 -0.136000007       1.16053499E-29
 -0.128000006       4.03658636E-29
 -0.119999997       7.73074373E-30
 -0.112000003      -1.92294499E-28
 -0.104000002      -3.58526304E-28
  -9.60000008E-02   1.66919674E-28
  -8.79999995E-02   1.48346401E-27
  -7.99999982E-02   1.65244558E-27
  -7.19999969E-02  -1.85356833E-27
  -6.40000030E-02  -6.81741067E-27
  -5.60000017E-02  -4.63514677E-27
  -4.80000004E-02   9.11297973E-27
  -3.99999991E-02   2.10765977E-26
  -3.20000015E-02   8.42593811E-27
  -2.40000002E-02  -2.78615934E-26
  -1.60000008E-02  -4.69879143E-26
  -8.00000038E-03  -9.63828790E-27
   1.38777878E-17   5.93218902E-26
   8.00000038E-03   7.78536750E-26
   1.60000008E-02   3.58060421E-27
   2.40000002E-02  -9.27596455E-26
   3.20000015E-02  -9.40429743E-26
   3.99999991E-02   1.45306207E-26
   4.80000004E-02   1.08447716E-25
   5.60000017E-02   7.23567011E-26
   6.40000030E-02  -4.58083762E-26
   7.19999969E-02  -9.10725555E-26
   7.99999982E-02  -9.88975658E-27
   8.79999995E-02   7.40297457E-26
   9.60000008E-02   3.56239416E-26
  0.104000002      -6.50358870E-26
  0.112000003      -6.22504808E-26
  0.119999997       6.74178341E-26
  0.128000006       1.42886031E-25
  0.136000007       9.55690504E-27
  0.143999994      -2.34061021E-25
  0.151999995      -3.08758556E-25
  0.159999996      -4.62269317E-26
  0.167999998       4.08980129E-25
  0.175999999       6.68600737E-25
  0.184000000       3.95195648E-25
  0.192000002      -3.63314524E-25
  0.200000003      -1.07395080E-24
  0.208000004      -1.06580275E-24
  0.216000006      -1.52437287E-25
  0.224000007       1.05518616E-24
  0.231999993       1.57494778E-24
  0.239999995       9.17544235E-25
  0.247999996      -4.25381805E-25
  0.256000012      -1.36206706E-24
  0.263999999      -1.13523691E-24
  0.272000015      -9.23369624E-27
  0.280000001       8.93588205E-25
  0.287999988       5.61425108E-25
  0.296000004      -8.52574045E-25
  0.303999990      -1.86884028E-24
  0.312000006      -8.60613721E-25
  0.319999993       2.18172184E-24
  0.328000009       4.96694160E-24
  0.335999995       4.41444393E-24
  0.344000012      -4.97518894E-25
  0.351999998      -7.05528164E-24
  0.360000014      -1.02394469E-23
  0.368000001      -6.54982177E-24
  0.375999987       2.80792002E-24
  0.384000003       1.21374936E-23
  0.391999990       1.49497740E-23
  0.400000006       8.48668237E-24
  0.407999992      -4.15382322E-24
  0.416000009      -1.56807436E-23
  0.423999995      -1.88901705E-23
  0.432000011      -1.09911990E-23
  0.439999998       4.33528568E-24
  0.448000014       1.83608527E-23
  0.456000000       2.20497004E-23
  0.463999987       1.20357983E-23
  0.472000003      -6.08439542E-24
  0.479999989      -2.05279373E-23
  0.488000005      -2.13659537E-23
  0.495999992      -8.08069747E-24
  0.504000008       9.68114479E-24
  0.512000024       1.92844905E-23
  0.519999981       1.46704384E-23
  0.527999997       6.27010708E-25
  0.536000013      -1.15895011E-23
  0.544000030      -1.34249437E-23
  0.551999986      -5.25672886E-24
  0.560000002       5.11499659E-24
  0.568000019       9.56904844E-24
  0.575999975       5.88106099E-24
  0.583999991      -1.63693065E-24
  0.592000008      -6.43903651E-24
  0.600000024      -5.06779668E-24
  0.607999980       4.36418314E-25
  0.615999997       4.63143866E-24
  0.624000013       3.57689571E-24
  0.632000029      -1.50822405E-24
  0.639999986      -5.28710987E-24
  0.648000002      -3.38214252E-24
  0.656000018       3.26852762E-24
  0.663999975       8.79931347E-24
  0.671999991       7.35500145E-24
  0.680000007      -1.35035001E-24
  0.688000023      -1.10131490E-23
  0.695999980      -1.32447458E-23
  0.703999996      -4.88133994E-24
  0.712000012       8.27692583E-24
  0.720000029       1.57389079E-23
  0.727999985       1.09676081E-23
  0.736000001      -2.82102852E-24
  0.744000018      -1.49864119E-23
  0.751999974      -1.58740823E-23
  0.759999990      -4.29193147E-24
  0.768000007       1.17642803E-23
  0.776000023       2.12802392E-23
  0.783999979       1.78371974E-23
  0.791999996       3.46207149E-24
  0.800000012      -1.31862045E-23
  0.808000028      -2.25364939E-23
  0.815999985      -1.96243918E-23
  0.824000001      -6.95197951E-24
  0.832000017       7.41144997E-24
  0.839999974       1.54563190E-23
  0.847999990       1.41559890E-23
  0.856000006       6.24016428E-24
  0.864000022      -2.77498567E-24
  0.871999979      -8.51044444E-24
  0.879999995      -9.57701594E-24
  0.888000011      -6.93421279E-24
  0.896000028      -2.27152044E-24
  0.903999984       3.00270122E-24
  0.912000000       7.62686895E-24
  0.920000017       9.67278838E-24
  0.927999973       7.34463187E-24
  0.935999990       1.22990387E-24
  0.944000006      -4.59750344E-24
  0.952000022      -5.55870403E-24
  0.959999979      -1.28829949E-24
  0.967999995       2.89420149E-24
  0.976000011       5.28193307E-25
  0.984000027      -9.15388672E-24
  0.991999984      -1.86236207E-23
   1.00000000      -1.67857594E-23
   1.00800002       1.49415492E-24
   1.01600003       2.81484314E-23
   1.02400005       4.43890233E-23
   1.03199995       3.34325626E-23
   1.03999996      -5.10034823E-24
   1.04799998      -5.05851502E-23
   1.05599999      -7.27652430E-23
   1.06400001      -5.24738283E-23
   1.07200003       2.85759597E-24
   1.08000004       6.16450558E-23
   1.08800006       8.76860800E-23
   1.09599996       6.58429381E-23
   1.10399997       1.22907030E-23
   1.11199999      -3.96074060E-23
   1.12000000      -6.22308829E-23
   1.12800002      -5.03008195E-23
   1.13600004      -2.08329456E-23
   1.14400005       3.88448599E-24
   1.15199995       1.32090601E-23
   1.15999997       1.33167262E-23
   1.16799998       1.67522391E-23
   1.17600000       3.09723389E-23
   1.18400002       4.94303336E-23
   1.19200003       5.62338676E-23
   1.20000005       4.00974811E-23
   1.20799994       5.21852709E-24
   1.21599996      -2.86403966E-23
   1.22399998      -3.85062035E-23
   1.23199999      -1.69343477E-23
   1.24000001       1.84591306E-23
   1.24800003       3.62429111E-23
   1.25600004       1.69990311E-23
   1.26400006      -3.19411200E-23
   1.27199996      -7.71596842E-23
   1.27999997      -8.26251082E-23
   1.28799999      -3.74484546E-23
   1.29600000       3.31891359E-23
   1.30400002       7.94445409E-23
   1.31200004       6.50767143E-23
   1.32000005      -4.91899779E-24
   1.32799995      -8.35472992E-23
   1.33599997      -1.16004571E-22
   1.34399998      -8.38385593E-23
   1.35200000      -2.05279925E-23
   1.36000001       1.74406970E-23
   1.36800003      -4.53192189E-24
   1.37600005      -7.08380811E-23
   1.38399994      -1.20905896E-22
   1.39199996      -9.77229088E-23
   1.39999998       3.49725192E-24
   1.40799999       1.26778909E-22
   1.41600001       1.96461037E-22
   1.42400002       1.71748196E-22
   1.43200004       7.51722533E-23
   1.44000006      -2.18485267E-23
   1.44799995      -5.51227917E-23
   1.45599997      -1.02730382E-23
   1.46399999       6.62789447E-23
   1.47200000       1.12505222E-22
   1.48000002       9.80565780E-23
   1.48800004       4.71743081E-23
   1.49600005       1.12181614E-23
   1.50399995       1.75954557E-23
   1.51199996       4.63799978E-23
   1.51999998       4.93701971E-23
   1.52800000      -2.10231273E-24
   1.53600001      -8.26876933E-23
   1.54400003      -1.24632967E-22
   1.55200005      -6.96572699E-23
   1.55999994       7.99159200E-23
   1.56799996       2.51199666E-22
   1.57599998       3.41254942E-22
   1.58399999       2.87289081E-22
   1.59200001       1.02705083E-22
   1.60000002      -1.28156702E-22
   1.60800004      -3.07579088E-22
   1.61600006      -3.78351069E-22
   1.62399995      -3.44974175E-22
   1.63199997      -2.51403003E-22
   1.63999999      -1.41336599E-22
   1.64800000      -3.39895709E-23
   1.65600002       7.12781456E-23
   1.66400003       1.74656518E-22
   1.67200005       2.63027506E-22
   1.67999995       3.14765195E-22
   1.68799996       3.15772337E-22
   1.69599998       2.69385447E-22
   1.70400000       1.91120992E-22
   1.71200001       9.62419077E-23
   1.72000003      -5.52854312E-24
   1.72800004      -1.05636957E-22
   1.73599994      -1.90474429E-22
   1.74399996      -2.44814462E-22
   1.75199997      -2.59638610E-22
   1.75999999      -2.35538114E-22
   1.76800001      -1.76337940E-22
   1.77600002      -8.24302596E-23
   1.78400004       4.44487243E-23
   1.79200006       1.85018503E-22
   1.79999995       2.90212259E-22
   1.80799997       2.95312617E-22
   1.81599998       1.62068343E-22
   1.82400000      -7.94488260E-23
   1.83200002      -3.28399437E-22
   1.84000003      -4.64627663E-22
   1.84800005      -4.22624266E-22
   1.85599995      -2.35044174E-22
   1.86399996      -6.97168605E-24
   1.87199998       1.60246768E-22
   1.88000000       2.38787691E-22
   1.88800001       2.76905778E-22
   1.89600003       3.36622170E-22
   1.90400004       4.19337530E-22
   1.91199994       4.48087534E-22
   1.91999996       3.27000263E-22
   1.92799997       3.11346644E-23
   1.93599999      -3.50494586E-22
   1.94400001      -6.59606109E-22
   1.95200002      -7.69092934E-22
   1.96000004      -6.62064477E-22
   1.96800005      -4.29152298E-22
   1.97599995      -1.88432125E-22
   1.98399997      -1.21473880E-24
   1.99199998       1.51443055E-22
   2.00000000       3.18802269E-22
   2.00799990       5.12363214E-22
   2.01600003       6.77411798E-22
   2.02399993       7.27664938E-22
   2.03200006       6.08709611E-22
   2.03999996       3.35873219E-22
   2.04800010      -1.88094969E-23
   2.05599999      -3.72052551E-22
   2.06399989      -6.67059418E-22
   2.07200003      -8.72480363E-22
   2.07999992      -9.59735195E-22
   2.08800006      -8.88081482E-22
   2.09599996      -6.25376866E-22
   2.10400009      -1.90189480E-22
   2.11199999       3.22255057E-22
   2.11999989       7.62700914E-22
   2.12800002       9.93643037E-22
   2.13599992       9.56022273E-22
   2.14400005       6.91559898E-22
   2.15199995       3.07881607E-22
   2.16000009      -8.58967731E-23
   2.16799998      -4.26727756E-22
   2.17600012      -6.96195220E-22
   2.18400002      -8.84816785E-22
   2.19199991      -9.57643918E-22
   2.20000005      -8.54513621E-22
   2.20799994      -5.31000880E-22
   2.21600008      -9.04698897E-24
   2.22399998       6.02243123E-22
   2.23200011       1.13629090E-21
   2.24000001       1.43324581E-21
   2.24799991       1.40020200E-21
   2.25600004       1.03797677E-21
   2.26399994       4.29044306E-22
   2.27200007      -2.96339575E-22
   2.27999997      -9.92984180E-22
   2.28800011      -1.52406362E-21
   2.29600000      -1.78016417E-21
   2.30399990      -1.69917196E-21
   2.31200004      -1.28087646E-21
   2.31999993      -5.87781548E-22
   2.32800007       2.70995329E-22
   2.33599997       1.16190290E-21
   2.34400010       1.94193674E-21
   2.35200000       2.46357671E-21
   2.35999990       2.58415565E-21
   2.36800003       2.19879087E-21
   2.37599993       1.29586214E-21
   2.38400006       5.67539155E-24
   2.39199996      -1.40255309E-21
   2.40000010      -2.59576445E-21
   2.40799999      -3.29437119E-21
   2.41599989      -3.36677272E-21
   2.42400002      -2.84713386E-21
   2.43199992      -1.87777855E-21
   2.44000006      -6.29190914E-22
   2.44799995       7.41777143E-22
   2.45600009       2.07696812E-21
   2.46399999       3.18147275E-21
   2.47199988       3.82554231E-21
   2.48000002       3.81114662E-21
   2.48799992       3.06846586E-21
   2.49600005       1.71617743E-21
   2.50399995       3.71345700E-23
   2.51200008      -1.61903197E-21
   2.51999998      -2.94709387E-21
   2.52800012      -3.74935769E-21
   2.53600001      -3.93538164E-21
   2.54399991      -3.49246641E-21
   2.55200005      -2.47282877E-21
   2.55999994      -1.01017484E-21
   2.56800008       6.62631296E-22
   2.57599998       2.23582356E-21
   2.58400011       3.39521573E-21
   2.59200001       3.91247382E-21
   2.59999990       3.70715976E-21
   2.60800004       2.85307397E-21
   2.61599994       1.53781731E-21
   2.62400007       8.31486689E-24
   2.63199997      -1.47434514E-21
   2.64000010      -2.66709990E-21
   2.64800000      -3.37346751E-21
   2.65599990      -3.47484439E-21
   2.66400003      -2.95753541E-21
   2.67199993      -1.92042136E-21
   2.68000007      -5.56690836E-22
   2.68799996       8.84403093E-22
   2.69600010       2.14085066E-21
   2.70400000       2.98062740E-21
   2.71199989       3.24350604E-21
   2.72000003       2.88032993E-21
   2.72799993       1.97370141E-21
   2.73600006       7.22698826E-22
   2.74399996      -6.11178935E-22
   2.75200009      -1.77650082E-21
   2.75999999      -2.58674625E-21
   2.76799989      -2.93693910E-21
   2.77600002      -2.78973992E-21
   2.78399992      -2.16044551E-21
   2.79200006      -1.12464443E-21
   2.79999995       1.58988529E-22
   2.80800009       1.44470376E-21
   2.81599998       2.44529190E-21
   2.82399988       2.92188606E-21
   2.83200002       2.77343602E-21
   2.83999991       2.07020689E-21
   2.84800005       1.00976135E-21
   2.85599995      -1.71893814E-22
   2.86400008      -1.27677226E-21
   2.87199998      -2.16491544E-21
   2.88000011      -2.72856935E-21
   2.88800001      -2.86810115E-21
   2.89599991      -2.51102206E-21
   2.90400004      -1.66887576E-21
   2.91199994      -4.82551340E-22
   2.92000008       7.92495168E-22
   2.92799997       1.86904145E-21
   2.93600011       2.53372651E-21
   2.94400001       2.71012985E-21
   2.95199990       2.44594621E-21
   2.96000004       1.84856813E-21
   2.96799994       1.02284154E-21
   2.97600007       5.87491727E-23
   2.98399997      -9.37149994E-22
   2.99200010      -1.81180665E-21
   3.00000000      -2.38389434E-21
   3.00799990      -2.51273983E-21
   3.01600003      -2.17252485E-21
   3.02399993      -1.47390862E-21
   3.03200006      -6.11830471E-22
   3.03999996       2.25621035E-22
   3.04800010       9.24382311E-22
   3.05599999       1.44920448E-21
   3.06399989       1.79513561E-21
   3.07200003       1.93696195E-21
   3.07999992       1.82390881E-21
   3.08800006       1.42408846E-21
   3.09599996       7.78216963E-22
   3.10400009       1.18391590E-23
   3.11199999      -7.10823200E-22
   3.11999989      -1.25977194E-21
   3.12800002      -1.58745269E-21
   3.13599992      -1.72029293E-21
   3.14400005      -1.70725898E-21
   3.15199995      -1.56625942E-21
   3.16000009      -1.27093221E-21
   3.16799998      -7.82672550E-22
   3.17600012      -1.01764855E-22
   3.18400002       7.00264732E-22
   3.19199991       1.48831916E-21
   3.20000005       2.10588451E-21
   3.20799994       2.42810892E-21
   3.21600008       2.39742791E-21
   3.22399998       2.02932264E-21
   3.23200011       1.39040862E-21
   3.24000001       5.66312869E-22
   3.24799991      -3.60238520E-22
   3.25600004      -1.30956706E-21
   3.26399994      -2.18625027E-21
   3.27200007      -2.86011914E-21
   3.27999997      -3.17385889E-21
   3.28800011      -2.98937217E-21
   3.29600000      -2.25725856E-21
   3.30399990      -1.06909287E-21
   3.31200004       3.49545529E-22
   3.31999993       1.71075228E-21
   3.32800007       2.76396909E-21
   3.33599997       3.36444021E-21
   3.34400010       3.47568813E-21
   3.35200000       3.12121660E-21
   3.35999990       2.33987544E-21
   3.36800003       1.18814509E-21
   3.37599993      -2.16339815E-22
   3.38400006      -1.66078833E-21
   3.39199996      -2.86474739E-21
   3.40000010      -3.57142338E-21
   3.40799999      -3.64827323E-21
   3.41599989      -3.12787464E-21
   3.42400002      -2.16503337E-21
   3.43199992      -9.49850528E-22
   3.44000006       3.54323628E-22
   3.44799995       1.60974860E-21
   3.45600009       2.66329802E-21
   3.46399999       3.32797884E-21
   3.47199988       3.42868141E-21
   3.48000002       2.89364358E-21
   3.48799992       1.82458050E-21
   3.49600005       4.83044953E-22
   3.50399995      -8.07788973E-22
   3.51200008      -1.78836610E-21
   3.51999998      -2.33823724E-21
   3.52800012      -2.46617316E-21
   3.53600001      -2.24251936E-21
   3.54399991      -1.73839700E-21
   3.55200005      -1.01546053E-21
   3.55999994      -1.59431667E-22
   3.56800008       6.90310040E-22
   3.57599998       1.35812414E-21
   3.58400011       1.69503222E-21
   3.59200001       1.64443688E-21
   3.59999990       1.26413372E-21
   3.60800004       6.89782651E-22
   3.61599994       6.90382476E-23
   3.62400007      -4.87146272E-22
   3.63199997      -9.09967134E-22
   3.64000010      -1.14856199E-21
   3.64800000      -1.15305494E-21
   3.65599990      -8.89587108E-22
   3.66400003      -3.78984884E-22
   3.67199993       2.77563726E-22
   3.68000007       9.15743464E-22
   3.68799996       1.36728129E-21
   3.69600010       1.52564609E-21
   3.70400000       1.37721886E-21
   3.71199989       9.82775083E-22
   3.72000003       4.32141639E-22
   3.72799993      -1.89855634E-22
   3.73600006      -8.06324089E-22
   3.74399996      -1.33379905E-21
   3.75200009      -1.67747392E-21
   3.75999999      -1.75342903E-21
   3.76799989      -1.52749573E-21
   3.77600002      -1.03916453E-21
   3.78399992      -3.89403831E-22
   3.79200006       2.99022081E-22
   3.79999995       9.19566246E-22
   3.80800009       1.39432066E-21
   3.81599998       1.66575000E-21
   3.82399988       1.69111371E-21
   3.83200002       1.45651794E-21
   3.83999991       9.99805896E-22
   3.84800005       4.16385625E-22
   3.85599995      -1.69878318E-22
   3.86400008      -6.54985126E-22
   3.87199998      -9.87950112E-22
   3.88000011      -1.16597560E-21
   3.88800001      -1.20206145E-21
   3.89599991      -1.10057986E-21
   3.90400004      -8.63650977E-22
   3.91199994      -5.19810616E-22
   3.92000008      -1.41242579E-22
   3.92799997       1.76985412E-22
   3.93600011       3.67490790E-22
   3.94400001       4.30534786E-22
   3.95199990       4.28025173E-22
   3.96000004       4.33053032E-22
   3.96799994       4.77030324E-22
   3.97600007       5.37692288E-22
   3.98399997       5.74005941E-22
   3.99200010       5.70368144E-22
   4.00000000       5.46377079E-22
   4.00799990       5.22170535E-22
   4.01599979       4.75027197E-22
   4.02400017       3.34911162E-22
   4.03200006       3.33338761E-23
   4.03999996      -4.30595371E-22
   4.04799986      -9.63531825E-22
   4.05600023      -1.41800355E-21
   4.06400013      -1.67107296E-21
   4.07200003      -1.68096187E-21
   4.07999992      -1.47997425E-21
   4.08799982      -1.11715387E-21
   4.09600019      -6.06955437E-22
   4.10400009       6.66433227E-23
   4.11199999       8.91735133E-22
   4.11999989       1.76864422E-21
   4.12799978       2.50711113E-21
   4.13600016       2.89617965E-21
   4.14400005       2.80234635E-21
   4.15199995       2.22840720E-21
   4.15999985       1.29632117E-21
   4.16800022       1.75146319E-22
   4.17600012      -9.86390868E-22
   4.18400002      -2.07794979E-21
   4.19199991      -2.99983148E-21
   4.19999981      -3.63353544E-21
   4.20800018      -3.85509504E-21
   4.21600008      -3.59497339E-21
   4.22399998      -2.90401060E-21
   4.23199987      -1.97372544E-21
   4.23999977      -1.08942625E-21
   4.24800014      -5.45063960E-22
   4.25600004      -5.71876698E-22
   4.26399994      -1.31487871E-21
   4.27199984      -2.84879266E-21
   4.28000021      -5.19466072E-21
   4.28800011      -8.30589421E-21
   4.29600000      -1.20310593E-20
   4.30399990      -1.60921833E-20
   4.31199980      -2.01150906E-20
   4.32000017      -2.37118657E-20
   4.32800007      -2.65752322E-20
   4.33599997      -2.85333755E-20
   4.34399986      -2.95407587E-20
   4.35200024      -2.96249663E-20
   4.36000013      -2.88353966E-20
   4.36800003      -2.72306113E-20
   4.37599993      -2.49016730E-20
   4.38399982      -2.19969119E-20
   4.39200020      -1.87132892E-20
   4.40000010      -1.52492620E-20
   4.40799999      -1.17471570E-20
   4.41599989      -8.26245349E-21
   4.42399979      -4.77880860E-21
   4.43200016      -1.25616070E-21
   4.44000006       2.31910303E-21
   4.44799995       5.90711082E-21
   4.45599985       9.41510302E-21
   4.46400023       1.27131925E-20
   4.47200012       1.56515173E-20
   4.48000002       1.80756961E-20
   4.48799992       1.98446526E-20
   4.49599981       2.08524154E-20
   4.50400019       2.10487868E-20
   4.51200008       2.04507401E-20
   4.51999998       1.91399819E-20
   4.52799988       1.72512055E-20
   4.53599977       1.49592318E-20
   4.54400015       1.24710596E-20
   4.55200005       1.00178196E-20
   4.55999994       7.83804037E-21
   4.56799984       6.15015409E-21
   4.57600021       5.11954360E-21
   4.58400011       4.83194122E-21
   4.59200001       5.28028401E-21
   4.59999990       6.36640568E-21
   4.60799980       7.91502471E-21
   4.61600018       9.69992699E-21
   4.62400007       1.14823081E-20
   4.63199997       1.30565096E-20
   4.63999987       1.42891509E-20
   4.64799976       1.51321416E-20
   4.65600014       1.56032113E-20
   4.66400003       1.57473475E-20
   4.67199993       1.56075524E-20
   4.67999983       1.52260751E-20
   4.68800020       1.46707364E-20
   4.69600010       1.40559732E-20
   4.70400000       1.35273369E-20
   4.71199989       1.32064127E-20
   4.71999979       1.31283233E-20
   4.72800016       1.32180465E-20
   4.73600006       1.33266834E-20
   4.74399996       1.33057503E-20
   4.75199986       1.30680182E-20
   4.76000023       1.25966497E-20
   4.76800013       1.19056606E-20
   4.77600002       1.09959356E-20
   4.78399992       9.85120895E-21
   4.79199982       8.48146571E-21
   4.80000019       6.97605839E-21
   4.80800009       5.51440763E-21
   4.81599998       4.31289346E-21
   4.82399988       3.53696856E-21
   4.83199978       3.23684760E-21
   4.84000015       3.34964951E-21
   4.84800005       3.75963807E-21
   4.85599995       4.36606284E-21
   4.86399984       5.10600861E-21
   4.87200022       5.92065267E-21
   4.88000011       6.70403391E-21
   4.88800001       7.28818579E-21
   4.89599991       7.49128852E-21
   4.90399981       7.20152408E-21
   4.91200018       6.43732471E-21
   4.92000008       5.33960070E-21
   4.92799997       4.10137797E-21
   4.93599987       2.88625611E-21
   4.94399977       1.79293579E-21
   4.95200014       8.82781751E-22
   4.96000004       2.36409017E-22
   4.96799994      -1.77926741E-23
   4.97599983       2.64169449E-22
   4.98400021       1.16847178E-21
   4.99200010       2.66303730E-21
   5.00000000       4.59663539E-21
   5.00799990       6.75869286E-21
   5.01599979       8.95496442E-21
   5.02400017       1.10465593E-20
   5.03200006       1.29332435E-20
   5.03999996       1.45063375E-20
   5.04799986       1.56214254E-20
   5.05600023       1.61238585E-20
   5.06400013       1.59170908E-20
   5.07200003       1.50285146E-20
   5.07999992       1.36254806E-20
   5.08799982       1.19659939E-20
   5.09600019       1.03106666E-20
   5.10400009       8.84150900E-21
   5.11199999       7.62487172E-21
   5.11999989       6.62192088E-21
   5.12799978       5.72535767E-21
   5.13600016       4.79126033E-21
   5.14400005       3.64988841E-21
   5.15199995       2.10065647E-21
   5.15999985      -8.81646409E-23
   5.16800022      -3.15449588E-21
   5.17600012      -7.28767203E-21
   5.18400002      -1.25596544E-20
   5.19199991      -1.88717654E-20
   5.19999981      -2.59430691E-20
   5.20800018      -3.33496443E-20
   5.21600008      -4.05959339E-20
   5.22399998      -4.71873743E-20
   5.23199987      -5.26793237E-20
   5.23999977      -5.67007107E-20
   5.24800014      -5.89695766E-20
   5.25600004      -5.93185176E-20
   5.26399994      -5.77266214E-20
   5.27199984      -5.43331776E-20
   5.28000021      -4.94071716E-20
   5.28800011      -4.32711846E-20
   5.29600000      -3.62117926E-20
   5.30399990      -2.84228887E-20
   5.31199980      -2.00098270E-20
   5.32000017      -1.10415259E-20
   5.32800007      -1.60477179E-21
   5.33599997       8.18198917E-21
   5.34399986       1.82025246E-20
   5.35200024       2.83877659E-20
   5.36000013       3.87203632E-20
   5.36800003       4.91743332E-20
   5.37599993       5.96173237E-20
   5.38399982       6.97383825E-20
   5.39200020       7.90561133E-20
   5.40000010       8.70131190E-20
   5.40799999       9.31102156E-20
   5.41599989       9.70137391E-20
   5.42399979       9.85908236E-20
   5.43200016       9.78754416E-20
   5.44000006       9.50065724E-20
   5.44799995       9.01851951E-20
   5.45599985       8.36708182E-20
   5.46400023       7.58020688E-20
   5.47200012       6.70062825E-20
   5.48000002       5.77702811E-20
   5.48799992       4.85717483E-20
   5.49599981       3.97956528E-20
   5.50400019       3.16702770E-20
   5.51200008       2.42443148E-20
   5.51999998       1.74081129E-20
   5.52799988       1.09468040E-20
   5.53599977       4.60819573E-21
   5.54400015      -1.83067954E-21
   5.55200005      -8.51279195E-21
   5.55999994      -1.54754668E-20
   5.56799984      -2.26523055E-20
   5.57600021      -2.98953122E-20
   5.58400011      -3.70014916E-20
   5.59200001      -4.37303506E-20
   5.59999990      -4.98100538E-20
   5.60799980      -5.49451814E-20
   5.61600018      -5.88437159E-20
   5.62400007      -6.12712648E-20
   5.63199997      -6.21178454E-20
   5.63999987      -6.14442296E-20
   5.64799976      -5.94776788E-20
   5.65600014      -5.65511719E-20
   5.66400003      -5.30120571E-20
   5.67199993      -4.91422121E-20
   5.67999983      -4.51189543E-20
   5.68800020      -4.10161352E-20
   5.69600010      -3.68246979E-20
   5.70400000      -3.24717472E-20
   5.71199989      -2.78333351E-20
   5.71999979      -2.27504557E-20
   5.72800016      -1.70570119E-20
   5.73600006      -1.06172057E-20
   5.74399996      -3.36229310E-21
   5.75199986       4.68061846E-21
   5.76000023       1.33694763E-20
   5.76800013       2.24360964E-20
   5.77600002       3.14868627E-20
   5.78399992       4.00212792E-20
   5.79199982       4.74699437E-20
   5.80000019       5.32459779E-20
   5.80800009       5.67997849E-20
   5.81599998       5.76692293E-20
   5.82399988       5.55249833E-20
   5.83199978       5.02124772E-20
   5.84000015       4.17887413E-20
   5.84800005       3.05443130E-20
   5.85599995       1.69969945E-20
   5.86399984       1.85255217E-21
   5.87200022      -1.40560410E-20
   5.88000011      -2.98302590E-20
   5.88800001      -4.45546749E-20
   5.89599991      -5.73396754E-20
   5.90399981      -6.73771890E-20
   5.91200018      -7.40216724E-20
   5.92000008      -7.68814490E-20
   5.92799997      -7.58859694E-20
   5.93599987      -7.13017151E-20
   5.94399977      -6.37004681E-20
   5.95200014      -5.39081586E-20
   5.96000004      -4.29585394E-20
   5.96799994      -3.20450803E-20
   5.97599983      -2.24374357E-20
   5.98400021      -1.53381581E-20
   5.99200010      -1.16976417E-20
   6.00000000      -1.20503502E-20
   6.00799990      -1.64364277E-20
   6.01599979      -2.44285677E-20
   6.02400017      -3.52259291E-20
   6.03200006      -4.77513079E-20
   6.03999996      -6.07158583E-20
   6.04799986      -7.26709511E-20
   6.05600023      -8.20997114E-20
   6.06400013      -8.75779606E-20
   6.07200003      -8.79748522E-20
   6.07999992      -8.26158011E-20
   6.08799982      -7.13409028E-20
   6.09600019      -5.44538426E-20
   6.10400009      -3.26198642E-20
   6.11199999      -6.78481650E-21
   6.11999989       2.18579020E-20
   6.12799978       5.18883548E-20
   6.13600016       8.17291216E-20
   6.14400005       1.09787650E-19
   6.15199995       1.34632291E-19
   6.15999985       1.55125187E-19
   6.16800022       1.70456773E-19
   6.17600012       1.80091734E-19
   6.18400002       1.83692050E-19
   6.19199991       1.81086341E-19
   6.19999981       1.72306232E-19
   6.20800018       1.57651668E-19
   6.21600008       1.37725365E-19
   6.22399998       1.13405725E-19
   6.23199987       8.57755405E-20
   6.23999977       5.60521752E-20
   6.24800014       2.55475039E-20
   6.25600004      -4.35089894E-21
   6.26399994      -3.22151015E-20
   6.27199984      -5.66557392E-20
   6.28000021      -7.64373500E-20
   6.28800011      -9.05935703E-20
   6.29600000      -9.85078212E-20
   6.30399990      -9.99489572E-20
   6.31199980      -9.50743172E-20
   6.32000017      -8.44149641E-20
   6.32800007      -6.88433731E-20
   6.33599997      -4.95111928E-20
   6.34399986      -2.77481355E-20
   6.35200024      -4.93448778E-21
   6.36000013       1.76232994E-20
   6.36800003       3.87827023E-20
   6.37599993       5.76112168E-20
   6.38399982       7.34030124E-20
   6.39200020       8.56876849E-20
   6.40000010       9.42375206E-20
   6.40799999       9.90605135E-20
   6.41599989       1.00361035E-19
   6.42399979       9.84645364E-20
   6.43200016       9.37269434E-20
   6.44000006       8.64587723E-20
   6.44799995       7.68913687E-20
   6.45599985       6.51907762E-20
   6.46400023       5.15081425E-20
   6.47200012       3.60453839E-20
   6.48000002       1.91154929E-20
   6.48799992       1.18296945E-21
   6.49599981      -1.71228988E-20
   6.50400019      -3.50237028E-20
   6.51200008      -5.16329693E-20
   6.51999998      -6.60139889E-20
   6.52799988      -7.72444908E-20
   6.53599977      -8.44817396E-20
   6.54400015      -8.70277304E-20
   6.55200005      -8.44007857E-20
   6.55999994      -7.64137107E-20
   6.56799984      -6.32485819E-20
   6.57600021      -4.55026239E-20
   6.58400011      -2.41814232E-20
   6.59200001      -6.29515344E-22
   6.59999990       2.35868435E-20
   6.60799980       4.68165324E-20