 -0.239999995       0.00000000    
 -0.231999993       0.00000000    
 -0.224000007       0.00000000    
 -0.216000006       0.00000000    
 -0.208000004       0.00000000    
 -0.200000003       0.00000000    
 -0.192000002       1.36317993E-34
 -0.184000000      -1.16768696E-33
 -0.175999999       3.99065594E-29
 -0.167999998       2.89527528E-28
 -0.159999996      -1.35741213E-29
 -0.151999995      -4.07348011E-27
 -0.143999994      -8.77467703E-27
 -0.136000007       1.10014696E-26
 -0.128000006       6.52907138E-26
 -0.119999997       4.96736807E-26
 -0.112000003      -1.82681697E-25
 -0.104000002      -4.15540814E-25
  -9.60000008E-02   2.36581573E-26
  -8.79999995E-02   1.17921591E-24
  -7.99999982E-02   1.35538817E-24
  -7.19999969E-02  -1.15792396E-24
  -6.40000030E-02  -4.21566518E-24
  -5.60000017E-02  -2.33211837E-24
  -4.80000004E-02   5.34169194E-24
  -3.99999991E-02   9.65636430E-24
  -3.20000015E-02   1.10343674E-24
  -2.40000002E-02  -1.38387486E-23
  -1.60000008E-02  -1.50903948E-23
  -8.00000038E-03   4.86960366E-24
   1.38777878E-17   2.44516920E-23
   8.00000038E-03   1.60781370E-23
   1.60000008E-02  -1.49717611E-23
   2.40000002E-02  -3.11579358E-23
   3.20000015E-02  -1.01457886E-23
   3.99999991E-02   2.28138321E-23
   4.80000004E-02   2.67927014E-23
   5.60000017E-02   9.03738972E-25
   6.40000030E-02  -1.65999432E-23
   7.19999969E-02  -6.89618101E-24
   7.99999982E-02   2.09317911E-24
   8.79999995E-02  -1.40531736E-23
   9.60000008E-02  -2.65165622E-23
  0.104000002       7.04571749E-24
  0.112000003       6.37035852E-23
  0.119999997       6.57755000E-23
  0.128000006      -1.50783489E-23
  0.136000007      -1.04586876E-22
  0.143999994      -1.05506284E-22
  0.151999995      -7.40058972E-24
  0.159999996       1.06750324E-22
  0.167999998       1.43380114E-22
  0.175999999       6.96685979E-23
  0.184000000      -6.75905364E-23
  0.192000002      -1.64879704E-22
  0.200000003      -1.32936644E-22
  0.208000004       1.24204311E-23
  0.216000006       1.43940471E-22
  0.224000007       1.44839557E-22
  0.231999993       2.95421625E-23
  0.239999995      -8.40514823E-23
  0.247999996      -1.04929526E-22
  0.256000012      -3.96472056E-23
  0.263999999       4.36820272E-23
  0.272000015       7.54213314E-23
  0.280000001       2.23002395E-23
  0.287999988      -7.97742154E-23
  0.296000004      -1.26049181E-22
  0.303999990      -2.83697448E-23
  0.312000006       1.68361358E-22
  0.319999993       2.79184034E-22
  0.328000009       1.34652523E-22
  0.335999995      -2.20699729E-22
  0.344000012      -4.88802400E-22
  0.351999998      -3.49190378E-22
  0.360000014       1.82396266E-22
  0.368000001       6.50444569E-22
  0.375999987       5.54198641E-22
  0.384000003      -8.46233055E-23
  0.391999990      -6.59098916E-22
  0.400000006      -6.02279070E-22
  0.407999992      -1.26651816E-23
  0.416000009       4.82304913E-22
  0.423999995       4.53610419E-22
  0.432000011       8.44304700E-23
  0.439999998      -1.76917091E-22
  0.448000014      -1.81771879E-22
  0.456000000      -1.31787027E-22
  0.463999987      -1.62866418E-22
  0.472000003      -1.24833326E-22
  0.479999989       1.37383282E-22
  0.488000005       4.39994655E-22
  0.495999992       3.95248621E-22
  0.504000008      -8.40885777E-23
  0.512000024      -5.75477741E-22
  0.519999981      -5.68732564E-22
  0.527999997      -4.85068930E-23
  0.536000013       4.82315818E-22
  0.544000030       5.67505122E-22
  0.551999986       2.41353244E-22
  0.560000002      -1.43259639E-22
  0.568000019      -3.59169784E-22
  0.575999975      -4.09243241E-22
  0.583999991      -2.96515825E-22
  0.592000008       3.20490141E-23
  0.600000024       4.51360966E-22
  0.607999980       5.99157048E-22
  0.615999997       2.44357579E-22
  0.624000013      -3.60884881E-22
  0.632000029      -6.69292261E-22
  0.639999986      -3.97323389E-22
  0.648000002       1.85205633E-22
  0.656000018       5.43239760E-22
  0.663999975       4.05496089E-22
  0.671999991      -1.51996646E-23
  0.680000007      -2.96247739E-22
  0.688000023      -2.43319034E-22
  0.695999980      -1.98134849E-23
  0.703999996       1.24698689E-22
  0.712000012       1.33808139E-22
  0.720000029       9.33958048E-23
  0.727999985       2.47010809E-23
  0.736000001      -1.14639412E-22
  0.744000018      -2.55891609E-22
  0.751999974      -2.30143972E-22
  0.759999990      -2.89431291E-24
  0.768000007       2.31198344E-22
  0.776000023       2.66296950E-22
  0.783999979       1.12534555E-22
  0.791999996      -6.39446863E-23
  0.800000012      -1.51804808E-22
  0.808000028      -1.56455591E-22
  0.815999985      -9.76664768E-23
  0.824000001       4.12793967E-23
  0.832000017       2.13579231E-22
  0.839999974       2.56428817E-22
  0.847999990       6.36954694E-23
  0.856000006      -2.03823823E-22
  0.864000022      -2.56964208E-22
  0.871999979      -5.38760002E-23
  0.879999995       1.24171869E-22
  0.888000011       4.67787038E-23
  0.896000028      -1.41464760E-22
  0.903999984      -1.27578814E-22
  0.912000000       1.50792327E-22
  0.920000017       4.41168278E-22
  0.927999973       4.47370365E-22
  0.935999990       5.73907794E-23
  0.944000006      -5.53445475E-22
  0.952000022      -9.41498044E-22
  0.959999979      -6.90174482E-22
  0.967999995       9.57242256E-23
  0.976000011       7.46054107E-22
  0.984000027       6.97863364E-22
  0.991999984       9.92431258E-23
   1.00000000      -4.17571820E-22
   1.00800002      -4.52892644E-22
   1.01600003      -9.25697791E-23
   1.02400005       3.44555612E-22
   1.03199995       5.55008656E-22
   1.03999996       3.18249915E-22
   1.04799998      -3.12032151E-22
   1.05599999      -9.02014912E-22
   1.06400001      -9.31924074E-22
   1.07200003      -2.81075609E-22
   1.08000004       6.54685990E-22
   1.08800006       1.27648105E-21
   1.09599996       1.18940454E-21
   1.10399997       4.55720578E-22
   1.11199999      -4.30546449E-22
   1.12000000      -9.20755520E-22
   1.12800002      -8.67230412E-22
   1.13600004      -5.35981533E-22
   1.14400005      -1.74416061E-22
   1.15199995       2.06671283E-22
   1.15999997       6.02947620E-22
   1.16799998       8.20836505E-22
   1.17600000       6.67327555E-22
   1.18400002       2.37165036E-22
   1.19200003      -1.05586508E-22
   1.20000005      -1.78594575E-23
   1.20799994       4.83515947E-22
   1.21599996       8.72886582E-22
   1.22399998       4.65468677E-22
   1.23199999      -8.09689711E-22
   1.24000001      -2.04626611E-21
   1.24800003      -2.10372083E-21
   1.25600004      -8.11864947E-22
   1.26400006       7.87664311E-22
   1.27199996       1.49331475E-21
   1.27999997       1.07391934E-21
   1.28799999       2.87796577E-22
   1.29600000      -2.30022389E-23
   1.30400002       3.13605506E-22
   1.31200004       8.38470840E-22
   1.32000005       1.00608922E-21
   1.32799995       5.94287719E-22
   1.33599997      -2.54720031E-22
   1.34399998      -1.15547761E-21
   1.35200000      -1.62643186E-21
   1.36000001      -1.36723474E-21
   1.36800003      -5.69526776E-22
   1.37600005       1.69202952E-22
   1.38399994       4.24482696E-22
   1.39199996       3.70048163E-22
   1.39999998       4.69743066E-22
   1.40799999       8.12543948E-22
   1.41600001       9.60215529E-22
   1.42400002       5.09765956E-22
   1.43200004      -3.37379780E-22
   1.44000006      -8.99992903E-22
   1.44799995      -7.18495371E-22
   1.45599997      -6.17819705E-23
   1.46399999       3.56456128E-22
   1.47200000       1.67515926E-22
   1.48000002      -2.73843357E-22
   1.48800004      -3.62859709E-22
   1.49600005       6.02287728E-23
   1.50399995       6.27328546E-22
   1.51199996       8.82718036E-22
   1.51999998       5.76121755E-22
   1.52800000      -3.31442926E-22
   1.53600001      -1.57363670E-21
   1.54400003      -2.44704522E-21
   1.55200005      -2.14590078E-21
   1.55999994      -5.27958376E-22
   1.56799996       1.53334234E-21
   1.57599998       2.78090367E-21
   1.58399999       2.64054853E-21
   1.59200001       1.62803018E-21
   1.60000002       7.14371080E-22
   1.60800004       3.77341151E-22
   1.61600006       3.17354829E-22
   1.62399995      -3.03986540E-23
   1.63199997      -9.05803463E-22
   1.63999999      -2.11386046E-21
   1.64800000      -3.21780791E-21
   1.65600002      -3.69064079E-21
   1.66400003      -3.08795065E-21
   1.67200005      -1.35873332E-21
   1.67999995       9.79982844E-22
   1.68799996       3.08126697E-21
   1.69599998       4.22327603E-21
   1.70400000       4.13679891E-21
   1.71200001       3.09596013E-21
   1.72000003       1.73718793E-21
   1.72800004       5.89863484E-22
   1.73599994      -3.45243852E-22
   1.74399996      -1.45718346E-21
   1.75199997      -2.90878789E-21
   1.75999999      -4.27160350E-21
   1.76800001      -4.81451832E-21
   1.77600002      -4.04286423E-21
   1.78400004      -1.97780197E-21
   1.79200006       8.61203767E-22
   1.79999995       3.60780317E-21
   1.80799997       5.32429342E-21
   1.81599998       5.37306799E-21
   1.82400000       3.73205798E-21
   1.83200002       1.07599012E-21
   1.84000003      -1.47867774E-21
   1.84800005      -2.95600807E-21
   1.85599995      -3.10157247E-21
   1.86399996      -2.45208201E-21
   1.87199998      -1.77663088E-21
   1.88000000      -1.40588170E-21
   1.88800001      -1.05676655E-21
   1.89600003      -2.62313341E-22
   1.90400004       1.02457638E-21
   1.91199994       2.25185765E-21
   1.91999996       2.75950401E-21
   1.92799997       2.42005865E-21
   1.93599999       1.61251671E-21
   1.94400001       5.88644221E-22
   1.95200002      -7.83650182E-22
   1.96000004      -2.45645157E-21
   1.96800005      -3.71351023E-21
   1.97599995      -3.63073724E-21
   1.98399997      -1.96032798E-21
   1.99199998       6.19810260E-22
   2.00000000       2.99799092E-21
   2.00799990       4.23649760E-21
   2.01600003       3.96391008E-21
   2.02399993       2.51223961E-21
   2.03200006       6.46078192E-22
   2.03999996      -1.00369754E-21
   2.04800010      -2.25235505E-21
   2.05599999      -3.13309298E-21
   2.06399989      -3.58079338E-21
   2.07200003      -3.45934687E-21
   2.07999992      -2.72997289E-21
   2.08800006      -1.43791375E-21
   2.09599996       3.68044027E-22
   2.10400009       2.53165473E-21
   2.11199999       4.57579957E-21
   2.11999989       5.69976394E-21
   2.12800002       5.18964554E-21
   2.13599992       3.02573378E-21
   2.14400005       7.49025701E-23
   2.15199995      -2.49666171E-21
   2.16000009      -4.05453886E-21
   2.16799998      -4.68895085E-21
   2.17600012      -4.70142722E-21
   2.18400002      -4.15387728E-21
   2.19199991      -2.91319138E-21
   2.20000005      -9.05239018E-22
   2.20799994       1.67796243E-21
   2.21600008       4.24559981E-21
   2.22399998       5.95153300E-21
   2.23200011       6.20315787E-21
   2.24000001       5.00300524E-21
   2.24799991       2.69377768E-21
   2.25600004      -3.69482531E-22
   2.26399994      -3.61465649E-21
   2.27200007      -6.01884604E-21
   2.27999997      -6.61930848E-21
   2.28800011      -5.32061230E-21
   2.29600000      -2.94589753E-21
   2.30399990      -5.02895874E-22
   2.31200004       1.45464800E-21
   2.31999993       2.90748593E-21
   2.32800007       4.07606252E-21
   2.33599997       5.00169904E-21
   2.34400010       5.28293317E-21
   2.35200000       4.32659566E-21
   2.35999990       1.96163903E-21
   2.36800003      -1.28063927E-21
   2.37599993      -4.47507781E-21
   2.38400006      -6.70053535E-21
   2.39199996      -7.21699575E-21
   2.40000010      -5.69653923E-21
   2.40799999      -2.56288261E-21
   2.41599989       1.04581327E-21
   2.42400002       3.89798160E-21
   2.43199992       5.37005209E-21
   2.44000006       5.62123631E-21
   2.44799995       5.14263357E-21
   2.45600009       4.12523898E-21
   2.46399999       2.31983207E-21
   2.47199988      -3.87138071E-22
   2.48000002      -3.38820813E-21
   2.48799992      -5.62614891E-21
   2.49600005      -6.43461537E-21
   2.50399995      -5.85464382E-21
   2.51200008      -4.19902001E-21
   2.51999998      -1.71969294E-21
   2.52800012       1.21244968E-21
   2.53600001       3.95815899E-21
   2.54399991       5.83325102E-21
   2.55200005       6.38450187E-21
   2.55999994       5.50844288E-21
   2.56800008       3.51150893E-21
   2.57599998       9.80076750E-22
   2.58400011      -1.60623622E-21
   2.59200001      -4.02189027E-21
   2.59999990      -5.92394322E-21
   2.60800004      -6.64086728E-21
   2.61599994      -5.68145126E-21
   2.62400007      -3.29275096E-21
   2.63199997      -2.40189087E-22
   2.64000010       2.77357496E-21
   2.64800000       5.22943341E-21
   2.65599990       6.62219311E-21
   2.66400003       6.58502491E-21
   2.67199993       5.13389405E-21
   2.68000007       2.59289032E-21
   2.68799996      -5.70062344E-22
   2.69600010      -3.68270583E-21
   2.70400000      -5.91210702E-21
   2.71199989      -6.70134598E-21
   2.72000003      -6.11115826E-21
   2.72799993      -4.56669897E-21
   2.73600006      -2.37271508E-21
   2.74399996       3.41254563E-22
   2.75200009       3.26569634E-21
   2.75999999       5.73486257E-21
   2.76799989       7.03433504E-21
   2.77600002       6.83957844E-21
   2.78399992       5.27510121E-21
   2.79200006       2.61669216E-21
   2.79999995      -7.98326176E-22
   2.80800009      -4.26255338E-21
   2.81599998      -6.65266712E-21
   2.82399988      -7.13517676E-21
   2.83200002      -5.89022995E-21
   2.83999991      -3.84158792E-21
   2.84800005      -1.71382533E-21
   2.85599995       3.83029835E-22
   2.86400008       2.55423882E-21
   2.87199998       4.67097381E-21
   2.88000011       6.30275276E-21
   2.88800001       6.82709076E-21
   2.89599991       5.69060518E-21
   2.90400004       2.90426041E-21
   2.91199994      -6.88773061E-22
   2.92000008      -3.85772683E-21
   2.92799997      -5.72948752E-21
   2.93600011      -6.07951901E-21
   2.94400001      -5.15404204E-21
   2.95199990      -3.45610317E-21
   2.96000004      -1.52161247E-21
   2.96799994       3.92329079E-22
   2.97600007       2.32775834E-21
   2.98399997       4.16297142E-21
   2.99200010       5.28554962E-21
   3.00000000       5.01670986E-21
   3.00799990       3.34041744E-21
   3.01600003       1.01046827E-21
   3.02399993      -1.08916059E-21
   3.03200006      -2.56538980E-21
   3.03999996      -3.50669246E-21
   3.04800010      -4.04247043E-21
   3.05599999      -4.07154373E-21
   3.06399989      -3.38108500E-21
   3.07200003      -1.87776158E-21
   3.07999992       3.09128462E-22
   3.08800006       2.73845573E-21
   3.09599996       4.60360706E-21
   3.10400009       5.08585820E-21
   3.11199999       4.06056662E-21
   3.11999989       2.28801994E-21
   3.12800002       6.41453422E-22
   3.13599992      -6.99712151E-22
   3.14400005      -2.04770742E-21
   3.15199995      -3.43277046E-21
   3.16000009      -4.40352588E-21
   3.16799998      -4.48581016E-21
   3.17600012      -3.53011968E-21
   3.18400002      -1.71767649E-21
   3.19199991       4.88198474E-22
   3.20000005       2.49721021E-21
   3.20799994       3.93364327E-21
   3.21600008       4.73168717E-21
   3.22399998       4.78440135E-21
   3.23200011       3.80128023E-21
   3.24000001       1.77778441E-21
   3.24799991      -6.47662174E-22
   3.25600004      -2.62274900E-21
   3.26399994      -3.73733368E-21
   3.27200007      -4.06707299E-21
   3.27999997      -3.79593587E-21
   3.28800011      -3.06808458E-21
   3.29600000      -2.05732420E-21
   3.30399990      -8.86278790E-22
   3.31200004       5.04268163E-22
   3.31999993       2.19666455E-21
   3.32800007       3.94730709E-21
   3.33599997       5.10274755E-21
   3.34400010       4.98890399E-21
   3.35200000       3.46813122E-21
   3.35999990       1.11039344E-21
   3.36800003      -1.24209126E-21
   3.37599993      -3.05884868E-21
   3.38400006      -4.23010593E-21
   3.39199996      -4.74294377E-21
   3.40000010      -4.48459604E-21
   3.40799999      -3.36446384E-21
   3.41599989      -1.46830506E-21
   3.42400002       8.74534683E-22
   3.43199992       3.06016336E-21
   3.44000006       4.41217452E-21
   3.44799995       4.66036223E-21
   3.45600009       4.11150608E-21
   3.46399999       3.13965651E-21
   3.47199988       1.70872149E-21
   3.48000002      -3.12688635E-22
   3.48799992      -2.56742059E-21
   3.49600005      -4.32963741E-21
   3.50399995      -5.12589447E-21
   3.51200008      -4.93277405E-21
   3.51999998      -3.87728472E-21
   3.52800012      -2.09436214E-21
   3.53600001       1.43320577E-22
   3.54399991       2.42891086E-21
   3.55200005       4.37399416E-21
   3.55999994       5.62264268E-21
   3.56800008       5.81661573E-21
   3.57599998       4.75397742E-21
   3.58400011       2.58802135E-21
   3.59200001      -1.95121741E-22
   3.59999990      -2.93589341E-21
   3.60800004      -4.95067718E-21
   3.61599994      -5.75065978E-21
   3.62400007      -5.29796379E-21
   3.63199997      -4.00094257E-21
   3.64000010      -2.35079076E-21
   3.64800000      -5.62482514E-22
   3.65599990       1.40202873E-21
   3.66400003       3.48033173E-21
   3.67199993       5.22924600E-21
   3.68000007       5.97475384E-21
   3.68799996       5.30917112E-21
   3.69600010       3.41637185E-21
   3.70400000       8.82348874E-22
   3.71199989      -1.70171287E-21
   3.72000003      -3.87060588E-21
   3.72799993      -5.22546432E-21
   3.73600006      -5.51432887E-21
   3.74399996      -4.76081782E-21
   3.75200009      -3.18578818E-21
   3.75999999      -1.07980139E-21
   3.76799989       1.16114469E-21
   3.77600002       3.07473474E-21
   3.78399992       4.38959306E-21
   3.79200006       5.07616104E-21
   3.79999995       5.00746345E-21
   3.80800009       3.86011992E-21
   3.81599998       1.63123238E-21
   3.82399988      -9.78903329E-22
   3.83200002      -3.04834191E-21
   3.83999991      -4.19720975E-21
   3.84800005      -4.62108205E-21
   3.85599995      -4.50639193E-21
   3.86400008      -3.73922149E-21
   3.87199998      -2.19544135E-21
   3.88000011      -7.01906093E-23
   3.88800001       2.16620811E-21
   3.89599991       4.02537994E-21
   3.90400004       5.15499806E-21
   3.91199994       5.32345412E-21
   3.92000008       4.41450783E-21
   3.92799997       2.55932691E-21
   3.93600011       2.36334927E-22
   3.94400001      -1.93091884E-21
   3.95199990      -3.55120148E-21
   3.96000004      -4.57620670E-21
   3.96799994      -5.05628690E-21
   3.97600007      -4.92618124E-21
   3.98399997      -4.03564255E-21
   3.99200010      -2.26710496E-21
   4.00000000       3.12609067E-22
   4.00799990       3.21791696E-21
   4.01599979       5.52373038E-21
   4.02400017       6.35999907E-21
   4.03200006       5.50193611E-21
   4.03999996       3.37232953E-21
   4.04799986       5.71234099E-22
   4.05600023      -2.41712939E-21
   4.06400013      -5.24330040E-21
   4.07200003      -7.76980443E-21
   4.07999992      -1.00900776E-20
   4.08799982      -1.22166539E-20
   4.09600019      -1.38401001E-20
   4.10400009      -1.46781245E-20
   4.11199999      -1.49891848E-20
   4.11999989      -1.54580314E-20
   4.12799978      -1.66168953E-20
   4.13600016      -1.86213672E-20
   4.14400005      -2.15091435E-20
   4.15199995      -2.53398800E-20
   4.15999985      -2.99851680E-20
   4.16800022      -3.49416568E-20
   4.17600012      -3.94206653E-20
   4.18400002      -4.25853000E-20
   4.19199991      -4.37829994E-20
   4.19999981      -4.27179462E-20
   4.20800018      -3.94905880E-20
   4.21600008      -3.44848722E-20
   4.22399998      -2.82036988E-20
   4.23199987      -2.11284030E-20
   4.23999977      -1.36277796E-20
   4.24800014      -5.98189998E-21
   4.25600004       1.48255363E-21
   4.26399994       8.31444228E-21
   4.27199984       1.40464170E-20
   4.28000021       1.84012450E-20
   4.28800011       2.14740691E-20
   4.29600000       2.38064454E-20
   4.30399990       2.61809611E-20
   4.31199980       2.90882586E-20
   4.32000017       3.23438606E-20
   4.32800007       3.53811773E-20
   4.33599997       3.79014641E-20
   4.34399986       4.00140479E-20
   4.35200024       4.17419571E-20
   4.36000013       4.26760056E-20
   4.36800003       4.22386564E-20
   4.37599993       4.01084111E-20
   4.38399982       3.63489366E-20
   4.39200020       3.13800627E-20
   4.40000010       2.59656841E-20
   4.40799999       2.10413842E-20
   4.41599989       1.73263432E-20
   4.42399979       1.50643581E-20
   4.43200016       1.41158937E-20
   4.44000006       1.41822766E-20
   4.44799995       1.49156966E-20
   4.45599985       1.59622901E-20
   4.46400023       1.70242640E-20
   4.47200012       1.78590556E-20
   4.48000002       1.81846917E-20
   4.48799992       1.76521926E-20
   4.49599981       1.60075637E-20
   4.50400019       1.32970915E-20
   4.51200008       9.88284781E-21
   4.51999998       6.25460665E-21
   4.52799988       2.86057029E-21
   4.53599977       9.04772719E-23
   4.54400015      -1.73134799E-21
   4.55200005      -2.49499483E-21
   4.55999994      -2.43911470E-21
   4.56799984      -2.00593601E-21
   4.57600021      -1.49544299E-21
   4.58400011      -8.83675170E-22
   4.59200001       2.20705090E-23
   4.59999990       1.26047553E-21
   4.60799980       2.47621222E-21
   4.61600018       2.98604022E-21
   4.62400007       2.26488453E-21
   4.63199997       5.50101411E-22
   4.63999987      -1.14826947E-21
   4.64799976      -1.87003161E-21
   4.65600014      -1.52721361E-21
   4.66400003      -7.64321449E-22
   4.67199993      -1.05938933E-22
   4.67999983       4.95267778E-22
   4.68800020       1.31066092E-21
   4.69600010       2.39269484E-21
   4.70400000       3.60970068E-21
   4.71199989       4.83777349E-21
   4.71999979       5.86072327E-21
   4.72800016       6.21770018E-21
   4.73600006       5.46226092E-21
   4.74399996       3.65672355E-21
   4.75199986       1.46543447E-21
   4.76000023      -3.37524046E-22
   4.76800013      -1.39206399E-21
   4.77600002      -1.75966721E-21
   4.78399992      -1.57648750E-21
   4.79199982      -9.26045861E-22
   4.80000019      -7.58444133E-23
   4.80800009       3.85441351E-22
   4.81599998      -1.39466367E-22
   4.82399988      -1.80350415E-21
   4.83199978      -4.28181966E-21
   4.84000015      -7.20868921E-21
   4.84800005      -1.05628541E-20
   4.85599995      -1.45587229E-20
   4.86399984      -1.92002579E-20
   4.87200022      -2.40397782E-20
   4.88000011      -2.84085003E-20
   4.88800001      -3.17887125E-20
   4.89599991      -3.38503859E-20
   4.90399981      -3.42120060E-20
   4.91200018      -3.24232602E-20
   4.92000008      -2.83151743E-20
   4.92799997      -2.22298683E-20
   4.93599987      -1.47609395E-20
   4.94399977      -6.35031686E-21
   4.95200014       2.74606333E-21
   4.96000004       1.22268111E-20
   4.96799994       2.17037168E-20
   4.97599983       3.08743451E-20
   4.98400021       3.95369585E-20
   4.99200010       4.73939239E-20
   5.00000000       5.40152656E-20
   5.00799990       5.91096351E-20
   5.01599979       6.27403247E-20
   5.02400017       6.51607327E-20
   5.03200006       6.64785219E-20
   5.03999996       6.65882396E-20
   5.04799986       6.54079951E-20
   5.05600023       6.30245517E-20
   5.06400013       5.95350450E-20
   5.07200003       5.48910592E-20
   5.07999992       4.90778601E-20
   5.08799982       4.24018501E-20
   5.09600019       3.53940891E-20
   5.10400009       2.83775812E-20
   5.11199999       2.13013209E-20
   5.11999989       1.41013453E-20
   5.12799978       7.07698412E-21
   5.13600016       7.36084470E-22
   5.14400005      -4.68339081E-21
   5.15199995      -9.39800526E-21
   5.15999985      -1.37895289E-20
   5.16800022      -1.80238229E-20
   5.17600012      -2.19287325E-20
   5.18400002      -2.51005582E-20
   5.19199991      -2.70532731E-20
   5.19999981      -2.73632025E-20
   5.20800018      -2.58536625E-20
   5.21600008      -2.27558792E-20
   5.22399998      -1.86675988E-20
   5.23199987      -1.42502734E-20
   5.23999977      -9.89764578E-21
   5.24800014      -5.69564743E-21
   5.25600004      -1.68024960E-21
   5.26399994       1.94593674E-21
   5.27199984       4.87093462E-21
   5.28000021       6.83280024E-21
   5.28800011       7.63166769E-21
   5.29600000       7.08753552E-21
   5.30399990       5.19257581E-21
   5.31199980       2.36286404E-21
   5.32000017      -6.12980062E-22
   5.32800007      -3.03999174E-21
   5.33599997      -4.74833741E-21
   5.34399986      -6.01061381E-21
   5.35200024      -7.06446494E-21
   5.36000013      -7.81420642E-21
   5.36800003      -8.01039605E-21
   5.37599993      -7.60079544E-21
   5.38399982      -6.80754215E-21
   5.39200020      -5.92808397E-21
   5.40000010      -5.20311388E-21
   5.40799999      -4.89429076E-21
   5.41599989      -5.32169636E-21
   5.42399979      -6.65594192E-21
   5.43200016      -8.65972637E-21
   5.44000006      -1.07356169E-20
   5.44799995      -1.23005408E-20
   5.45599985      -1.31257351E-20
   5.46400023      -1.33522590E-20
   5.47200012      -1.32733327E-20
   5.48000002      -1.31552955E-20
   5.48799992      -1.31913659E-20
   5.49599981      -1.34845231E-20
   5.50400019      -1.39922512E-20
   5.51200008      -1.44958168E-20
   5.51999998      -1.46726622E-20
   5.52799988      -1.42731808E-20
   5.53599977      -1.33046347E-20
   5.54400015      -1.20260865E-20
   5.55200005      -1.06053246E-20
   5.55999994      -8.65301683E-21
   5.56799984      -5.19540834E-21
   5.57600021       6.30955590E-22
   5.58400011       8.70806635E-21
   5.59200001       1.78148741E-20
   5.59999990       2.64811033E-20
   5.60799980       3.39781853E-20
   5.61600018       4.04465502E-20
   5.62400007       4.60991439E-20
   5.63199997       5.04111783E-20
   5.63999987       5.21456597E-20
   5.64799976       5.01004879E-20
   5.65600014       4.37368905E-20
   5.66400003       3.31668794E-20
   5.67199993       1.88453441E-20
   5.67999983       1.55115328E-21
   5.68800020      -1.74033970E-20
   5.69600010      -3.62918030E-20
   5.70400000      -5.35485935E-20
   5.71199989      -6.82237502E-20
   5.71999979      -7.98218693E-20
   5.72800016      -8.77998712E-20
   5.73600006      -9.14100816E-20
   5.74399996      -9.01433126E-20
   5.75199986      -8.43186299E-20
   5.76000023      -7.51793504E-20
   5.76800013      -6.43593692E-20
   5.77600002      -5.32316767E-20
   5.78399992      -4.27273974E-20
   5.79199982      -3.36248919E-20
   5.80000019      -2.67875478E-20
   5.80800009      -2.30087735E-20
   5.81599998      -2.26663628E-20
   5.82399988      -2.55389510E-20
   5.83199978      -3.08542828E-20
   5.84000015      -3.74688745E-20
   5.84800005      -4.41545489E-20
   5.85599995      -4.99426451E-20
   5.86399984      -5.43089632E-20
   5.87200022      -5.70123380E-20
   5.88000011      -5.76948848E-20
   5.88800001      -5.55960691E-20
   5.89599991      -4.96879704E-20
   5.90399981      -3.92163485E-20
   5.91200018      -2.42266629E-20
   5.92000008      -5.54822874E-21
   5.92799997       1.58325907E-20
   5.93599987       3.94340715E-20
   5.94399977       6.53261494E-20
   5.95200014       9.35517491E-20
   5.96000004       1.23530494E-19
   5.96799994       1.53988331E-19
   5.97599983       1.83353656E-19
   5.98400021       2.10109058E-19
   5.99200010       2.32762317E-19
   6.00000000       2.49668390E-19
   6.00799990       2.59159512E-19
   6.01599979       2.59985271E-19
   6.02400017       2.51577626E-19
   6.03200006       2.33909927E-19
   6.03999996       2.07320090E-19
   6.04799986       1.72641796E-19
   6.05600023       1.31405369E-19
   6.06400013       8.57429897E-20
   6.07200003       3.80819220E-20
   6.07999992      -9.11699488E-21
   6.08799982      -5.36012455E-20
   6.09600019      -9.36091154E-20
   6.10400009      -1.27974832E-19
   6.11199999      -1.55938564E-19
   6.11999989      -1.76987054E-19
   6.12799978      -1.91015171E-19
   6.13600016      -1.98570341E-19
   6.14400005      -2.00772981E-19
   6.15199995      -1.98888095E-19
   6.15999985      -1.93807797E-19
   6.16800022      -1.85700846E-19
   6.17600012      -1.74089918E-19
   6.18400002      -1.58443435E-19
   6.19199991      -1.38836411E-19
   6.19999981      -1.16004093E-19
   6.20800018      -9.08083012E-20
   6.21600008      -6.39039093E-20
   6.22399998      -3.60415711E-20
   6.23199987      -8.45863424E-21
   6.23999977       1.73124605E-20
   6.24800014       4.00170496E-20
   6.25600004       5.89166758E-20
   6.26399994       7.35138222E-20
   6.27199984       8.32923831E-20
   6.28000021       8.78975496E-20
   6.28800011       8.75012913E-20
   6.29600000       8.28317210E-20
   6.30399990       7.48142730E-20
   6.31199980       6.42919863E-20
   6.32000017       5.21236263E-20
   6.32800007       3.93648177E-20
   6.33599997       2.70995920E-20
   6.34399986       1.60050805E-20
   6.35200024       6.15465593E-21
   6.36000013      -2.67013478E-21
   6.36800003      -1.04282143E-20
   6.37599993      -1.65406606E-20
   6.38399982      -2.01636454E-20
   6.39200020      -2.07691303E-20
   6.40000010      -1.84121809E-20
   6.40799999      -1.33587060E-20
   6.41599989      -5.58671727E-21
   6.42399979       5.03752347E-21
   6.43200016       1.79842927E-20
   6.44000006       3.16852244E-20
   6.44799995       4.41277011E-20
   6.45599985       5.37683296E-20
   6.46400023       5.98299737E-20
   6.47200012       6.19434072E-20
   6.48000002       5.97849634E-20
   6.48799992       5.30971242E-20
   6.49599981       4.19463644E-20
   6.50400019       2.69246885E-20
   6.51200008       9.08612343E-21
   6.51999998      -1.04342703E-20
   6.52799988      -3.08544282E-20
   6.53599977      -5.17807923E-20
   6.54400015      -7.27758285E-20
   6.55200005      -9.29742866E-20
   6.55999994      -1.11220560E-19
   6.56799984      -1.26497332E-19
   6.57600021      -1.38013676E-19
   6.58400011      -1.44793068E-19
   6.59200001      -1.45314334E-19
   6.59999990      -1.37772359E-19
   6.60799980      -1.20813955E-19