 -0.239999995       0.00000000    
 -0.231999993       0.00000000    
 -0.224000007       0.00000000    
 -0.216000006       0.00000000    
 -0.208000004       0.00000000    
 -0.200000003       0.00000000    
 -0.192000002       0.00000000    
 -0.184000000       0.00000000    
 -0.175999999       0.00000000    
 -0.167999998       0.00000000    
 -0.159999996      -4.10580450E-43
 -0.151999995      -4.96760306E-42
 -0.143999994       8.97888885E-38
 -0.136000007       5.49604907E-37
 -0.128000006      -1.05690405E-36
 -0.119999997      -1.81273124E-35
 -0.112000003      -5.13176925E-35
 -0.104000002       4.30297599E-35
  -9.60000008E-02   5.92195549E-34
  -8.79999995E-02   1.25503776E-33
  -7.99999982E-02  -6.35459205E-34
  -7.19999969E-02  -8.27770044E-33
  -6.40000030E-02  -1.48590744E-32
  -5.60000017E-02   4.97464471E-33
  -4.80000004E-02   6.74620910E-32
  -3.99999991E-02   1.09464961E-31
  -3.20000015E-02  -2.18866689E-32
  -2.40000002E-02  -3.71101803E-31
  -1.60000008E-02  -5.72255900E-31
  -8.00000038E-03   3.34837832E-32
   1.38777878E-17   1.48351356E-30
   8.00000038E-03   2.27139231E-30
   1.60000008E-02   2.12487743E-31
   2.40000002E-02  -4.47312389E-30
   3.20000015E-02  -7.05376883E-30
   3.99999991E-02  -1.70654019E-30
   4.80000004E-02   1.03542681E-29
   5.60000017E-02   1.72591234E-29
   6.40000030E-02   6.28285894E-30
   7.19999969E-02  -1.87038974E-29
   7.99999982E-02  -3.30775850E-29
   8.79999995E-02  -1.40525900E-29
   9.60000008E-02   2.80905489E-29
  0.104000002       4.95350115E-29
  0.112000003       1.74407190E-29
  0.119999997      -4.28790547E-29
  0.128000006      -6.12662510E-29
  0.136000007      -9.28036897E-31
  0.143999994       8.09914329E-29
  0.151999995       7.82785800E-29
  0.159999996      -3.85284663E-29
  0.167999998      -1.56653372E-28
  0.175999999      -1.22484799E-28
  0.184000000       7.12533834E-29
  0.192000002       2.31993308E-28
  0.200000003       1.58255963E-28
  0.208000004      -1.01171507E-28
  0.216000006      -2.39912588E-28
  0.224000007      -2.93052419E-29
  0.231999993       3.32974871E-28
  0.239999995       3.21016507E-28
  0.247999996      -3.31307930E-28
  0.256000012      -1.12408750E-27
  0.263999999      -1.05077004E-27
  0.272000015       3.83891499E-28
  0.280000001       2.31506062E-27
  0.287999988       2.90080506E-27
  0.296000004       9.50510080E-28
  0.303999990      -2.57968975E-27
  0.312000006      -4.88209836E-27
  0.319999993      -3.59258118E-27
  0.328000009       7.71548721E-28
  0.335999995       4.72019815E-27
  0.344000012       4.70214255E-27
  0.351999998       6.96969828E-28
  0.360000014      -3.12212330E-27
  0.368000001      -2.09202773E-27
  0.375999987       3.68354324E-27
  0.384000003       7.79578924E-27
  0.391999990       2.61400771E-27
  0.400000006      -1.22144850E-26
  0.407999992      -2.57261269E-26
  0.416000009      -2.20196039E-26
  0.423999995       5.53913976E-27
  0.432000011       4.35478861E-26
  0.439999998       6.28881886E-26
  0.448000014       3.91850693E-26
  0.456000000      -2.41456179E-26
  0.463999987      -8.99630905E-26
  0.472000003      -1.08352104E-25
  0.479999989      -5.34230225E-26
  0.488000005       5.08663613E-26
  0.495999992       1.38992287E-25
  0.504000008       1.45908798E-25
  0.512000024       5.55586970E-26
  0.519999981      -8.05221202E-26
  0.527999997      -1.72595851E-25
  0.536000013      -1.53764607E-25
  0.544000030      -3.06298512E-26
  0.551999986       1.15042396E-25
  0.560000002       1.79684296E-25
  0.568000019       1.12249409E-25
  0.575999975      -4.33381970E-26
  0.583999991      -1.72207670E-25
  0.592000008      -1.68199258E-25
  0.600000024      -1.60556151E-26
  0.607999980       1.84838418E-25
  0.615999997       2.80053288E-25
  0.624000013       1.69293470E-25
  0.632000029      -1.09267601E-25
  0.639999986      -3.84611156E-25
  0.648000002      -4.55643446E-25
  0.656000018      -2.29170404E-25
  0.663999975       2.00020009E-25
  0.671999991       5.87887595E-25
  0.680000007       6.82907271E-25
  0.688000023       3.85245104E-25
  0.695999980      -1.77499102E-25
  0.703999996      -7.08942985E-25
  0.712000012      -9.05944923E-25
  0.720000029      -6.31227219E-25
  0.727999985       1.68800903E-27
  0.736000001       6.79211557E-25
  0.744000018       1.04778211E-24
  0.751999974       8.99539668E-25
  0.759999990       2.86844764E-25
  0.768000007      -4.95315162E-25
  0.776000023      -1.05357630E-24
  0.783999979      -1.09632309E-24
  0.791999996      -5.87508301E-25
  0.800000012       2.27420661E-25
  0.808000028       9.40193122E-25
  0.815999985       1.18457917E-24
  0.824000001       8.23594204E-25
  0.832000017       2.51257498E-26
  0.839999974      -8.12389569E-25
  0.847999990      -1.25008155E-24
  0.856000006      -1.02787748E-24
  0.864000022      -2.12067505E-25
  0.871999979       8.04422616E-25
  0.879999995       1.46934445E-24
  0.888000011       1.34874852E-24
  0.896000028       3.92349709E-25
  0.903999984      -9.66917560E-25
  0.912000000      -1.97564731E-24
  0.920000017      -1.95283641E-24
  0.927999973      -7.22389908E-25
  0.935999990       1.18020593E-24
  0.944000006       2.70722686E-24
  0.952000022       2.86115788E-24
  0.959999979       1.33022360E-24
  0.967999995      -1.20827527E-24
  0.976000011      -3.36669465E-24
  0.984000027      -3.81643806E-24
  0.991999984      -2.11626295E-24
   1.00000000       9.25971833E-25
   1.00800002       3.63496022E-24
   1.01600003       4.42498272E-24
   1.02400005       2.75686060E-24
   1.03199995      -4.78219511E-25
   1.03999996      -3.45626784E-24
   1.04799998      -4.49782259E-24
   1.05599999      -3.06098995E-24
   1.06400001      -9.05734346E-27
   1.07200003       2.91288999E-24
   1.08000004       4.13913739E-24
   1.08800006       3.16957449E-24
   1.09599996       7.13033179E-25
   1.10399997      -1.80260436E-24
   1.11199999      -3.06612623E-24
   1.12000000      -2.61608640E-24
   1.12800002      -9.05048579E-25
   1.13600004       1.08752078E-24
   1.14400005       2.36753388E-24
   1.15199995       2.41852230E-24
   1.15999997       1.40709652E-24
   1.16799998      -8.81742189E-26
   1.17600000      -1.25461237E-24
   1.18400002      -1.44575317E-24
   1.19200003      -4.64512313E-25
   1.20000005       1.21429270E-24
   1.20799994       2.54563994E-24
   1.21599996       2.28161885E-24
   1.22399998      -1.96711699E-25
   1.23199999      -4.23648086E-24
   1.24000001      -7.97698908E-24
   1.24800003      -9.21614284E-24
   1.25600004      -6.85566117E-24
   1.26400006      -1.76016956E-24
   1.27199996       3.39784796E-24
   1.27999997       5.66825078E-24
   1.28799999       3.83277064E-24
   1.29600000      -7.60835685E-25
   1.30400002      -4.91295393E-24
   1.31200004      -5.75658782E-24
   1.32000005      -2.75344444E-24
   1.32799995       2.02064906E-24
   1.33599997       5.32929697E-24
   1.34399998       5.06749178E-24
   1.35200000       1.70777086E-24
   1.36000001      -2.10707114E-24
   1.36800003      -3.65865720E-24
   1.37600005      -2.16053698E-24
   1.38399994       7.68275136E-25
   1.39199996       2.42439656E-24
   1.39999998       9.76770630E-25
   1.40799999      -3.21795020E-24
   1.41600001      -7.99519284E-24
   1.42400002      -1.09010188E-23
   1.43200004      -1.05855927E-23
   1.44000006      -7.28020876E-24
   1.44799995      -2.19938838E-24
   1.45599997       3.22660874E-24
   1.46399999       7.83705384E-24
   1.47200000       1.07698044E-23
   1.48000002       1.13578071E-23
   1.48800004       9.36051858E-24
   1.49600005       5.25434808E-24
   1.50399995       2.57444066E-25
   1.51199996      -4.15646709E-24
   1.51999998      -6.96685269E-24
   1.52800000      -8.02338357E-24
   1.53600001      -7.87891947E-24
   1.54400003      -7.10831597E-24
   1.55200005      -5.78952789E-24
   1.55999994      -3.49243474E-24
   1.56799996       1.70920964E-25
   1.57599998       4.88162195E-24
   1.58399999       9.39588558E-24
   1.59200001       1.18631443E-23
   1.60000002       1.07963543E-23
   1.60800004       5.98988712E-24
   1.61600006      -1.00481641E-24
   1.62399995      -7.28476127E-24
   1.63199997      -9.92727570E-24
   1.63999999      -7.71753431E-24
   1.64800000      -2.23574856E-24
   1.65600002       2.67420751E-24
   1.66400003       3.12766566E-24
   1.67200005      -2.02436914E-24
   1.67999995      -9.92197140E-24
   1.68799996      -1.50619437E-23
   1.69599998      -1.28191988E-23
   1.70400000      -2.91113005E-24
   1.71200001       9.81970978E-24
   1.72000003       1.80964439E-23
   1.72800004       1.69926461E-23
   1.73599994       7.29934021E-24
   1.74399996      -4.86804092E-24
   1.75199997      -1.21119274E-23
   1.75999999      -1.06227883E-23
   1.76800001      -2.69080080E-24
   1.77600002       4.78980959E-24
   1.78400004       5.38590129E-24
   1.79200006      -2.10389657E-24
   1.79999995      -1.22512654E-23
   1.80799997      -1.67838078E-23
   1.81599998      -1.02968105E-23
   1.82400000       6.05726964E-24
   1.83200002       2.48003811E-23
   1.84000003       3.63991213E-23
   1.84800005       3.53252166E-23
   1.85599995       2.36815949E-23
   1.86399996       8.74934465E-24
   1.87199998      -2.66817548E-24
   1.88000000      -8.66629022E-24
   1.88800001      -1.35188876E-23
   1.89600003      -2.29381582E-23
   1.90400004      -3.88732100E-23
   1.91199994      -5.52909958E-23
   1.91999996      -6.18772838E-23
   1.92799997      -5.02265466E-23
   1.93599999      -1.80923908E-23
   1.94400001       2.83152187E-23
   1.95200002       7.62001138E-23
   1.96000004       1.13122136E-22
   1.96800005       1.29436941E-22
   1.97599995       1.22506956E-22
   1.98399997       9.41945549E-23
   1.99199998       4.95539070E-23
   2.00000000      -4.76505789E-24
   2.00799990      -6.20188307E-23
   2.01600003      -1.14605157E-22
   2.02399993      -1.52627521E-22
   2.03200006      -1.67486000E-22
   2.03999996      -1.54981355E-22
   2.04800010      -1.16017521E-22
   2.05599999      -6.19720986E-23
   2.06399989      -3.52324923E-24
   2.07200003       5.06932872E-23
   2.07999992       9.42318711E-23
   2.08800006       1.23940562E-22
   2.09599996       1.37179491E-22
   2.10400009       1.27028366E-22
   2.11199999       8.74863405E-23
   2.11999989       1.61600223E-23
   2.12800002      -7.69151184E-23
   2.13599992      -1.71266461E-22
   2.14400005      -2.39537425E-22
   2.15199995      -2.59584034E-22
   2.16000009      -2.24484949E-22
   2.16799998      -1.46584013E-22
   2.17600012      -4.89988708E-23
   2.18400002       4.73088846E-23
   2.19199991       1.27606746E-22
   2.20000005       1.87040322E-22
   2.20799994       2.21442495E-22
   2.21600008       2.24316650E-22
   2.22399998       1.87955135E-22
   2.23200011       1.12143229E-22
   2.24000001       9.86256702E-24
   2.24799991      -8.91650112E-23
   2.25600004      -1.57136649E-22
   2.26399994      -1.79003861E-22
   2.27200007      -1.63597180E-22
   2.27999997      -1.32868145E-22
   2.28800011      -1.05046220E-22
   2.29600000      -7.88251841E-23
   2.30399990      -3.84115528E-23
   2.31200004       3.17694544E-23
   2.31999993       1.29955595E-22
   2.32800007       2.33306509E-22
   2.33599997       3.08137526E-22
   2.34400010       3.29372324E-22
   2.35200000       2.93954640E-22
   2.35999990       2.22933985E-22
   2.36800003       1.45816836E-22
   2.37599993       7.77026161E-23
   2.38400006       1.31313778E-23
   2.39199996      -6.47172020E-23
   2.40000010      -1.67718505E-22
   2.40799999      -2.86813114E-22
   2.41599989      -3.91195921E-22
   2.42400002      -4.42136873E-22
   2.43199992      -4.12728693E-22
   2.44000006      -3.00741696E-22
   2.44799995      -1.28336423E-22
   2.45600009       6.91678480E-23
   2.46399999       2.57962514E-22
   2.47199988       4.14028004E-22
   2.48000002       5.22291805E-22
   2.48799992       5.70887454E-22
   2.49600005       5.47900376E-22
   2.50399995       4.44263137E-22
   2.51200008       2.61807965E-22
   2.51999998       1.97728191E-23
   2.52800012      -2.44907157E-22
   2.53600001      -4.86202062E-22
   2.54399991      -6.61535221E-22
   2.55200005      -7.41858629E-22
   2.55999994      -7.14896247E-22
   2.56800008      -5.82333435E-22
   2.57599998      -3.55979024E-22
   2.58400011      -5.71060890E-23
   2.59200001       2.78848143E-22
   2.59999990       6.00156592E-22
   2.60800004       8.43841961E-22
   2.61599994       9.50965889E-22
   2.62400007       8.86965717E-22
   2.63199997       6.57369884E-22
   2.64000010       3.09728955E-22
   2.64800000      -8.11738692E-23
   2.65599990      -4.37988802E-22
   2.66400003      -7.02883447E-22
   2.67199993      -8.47618497E-22
   2.68000007      -8.68442809E-22
   2.68799996      -7.74115946E-22
   2.69600010      -5.77989171E-22
   2.70400000      -2.99608261E-22
   2.71199989       2.75461267E-23
   2.72000003       3.51786197E-22
   2.72799993       6.11220436E-22
   2.73600006       7.53731579E-22
   2.74399996       7.57219278E-22
   2.75200009       6.37484076E-22
   2.75999999       4.36167581E-22
   2.76799989       1.97136328E-22
   2.77600002      -5.01560951E-23
   2.78399992      -2.90586141E-22
   2.79200006      -5.06990024E-22
   2.79999995      -6.66484825E-22
   2.80800009      -7.24541908E-22
   2.81599998      -6.49054861E-22
   2.82399988      -4.47231425E-22
   2.83200002      -1.74580649E-22
   2.83999991       8.69778029E-23
   2.84800005       2.69052384E-22
   2.85599995       3.48587259E-22
   2.86400008       3.51426300E-22
   2.87199998       3.24907144E-22
   2.88000011       3.02219201E-22
   2.88800001       2.86112277E-22
   2.89599991       2.56809742E-22
   2.90400004       1.97139420E-22
   2.91199994       1.10923928E-22
   2.92000008       1.96276529E-23
   2.92799997      -5.70055250E-23
   2.93600011      -1.17202049E-22
   2.94400001      -1.76825166E-22
   2.95199990      -2.51816745E-22
   2.96000004      -3.39531161E-22
   2.96799994      -4.15020151E-22
   2.97600007      -4.45166502E-22
   2.98399997      -4.09478107E-22
   2.99200010      -3.10968893E-22
   3.00000000      -1.70759810E-22
   3.00799990      -1.12501678E-23
   3.01600003       1.56534742E-22
   3.02399993       3.31726007E-22
   3.03200006       5.10484438E-22
   3.03999996       6.70576097E-22
   3.04800010       7.67671874E-22
   3.05599999       7.49074901E-22
   3.06399989       5.78573509E-22
   3.07200003       2.59864994E-22
   3.07999992      -1.55484775E-22
   3.08800006      -5.81027182E-22
   3.09599996      -9.23863910E-22
   3.10400009      -1.11490254E-21
   3.11199999      -1.12662918E-21
   3.11999989      -9.70947269E-22
   3.12800002      -6.82303341E-22
   3.13599992      -3.00700878E-22
   3.14400005       1.33678425E-22
   3.15199995       5.72120905E-22
   3.16000009       9.48322284E-22
   3.16799998       1.18414893E-21
   3.17600012       1.21463647E-21
   3.18400002       1.01871311E-21
   3.19199991       6.35811237E-22
   3.20000005       1.53590133E-22
   3.20799994      -3.26655916E-22
   3.21600008      -7.24621980E-22
   3.22399998      -9.95055666E-22
   3.23200011      -1.11757038E-21
   3.24000001      -1.07845369E-21
   3.24799991      -8.67072892E-22
   3.25600004      -4.92363861E-22
   3.26399994      -6.65784326E-24
   3.27200007       4.89441567E-22
   3.27999997       8.73524537E-22
   3.28800011       1.04977146E-21
   3.29600000       9.89703529E-22
   3.30399990       7.40464781E-22
   3.31200004       3.94899781E-22
   3.31999993       4.49478239E-23
   3.32800007      -2.52739523E-22
   3.33599997      -4.80779950E-22
   3.34400010      -6.39380170E-22
   3.35200000      -7.21076069E-22
   3.35999990      -7.03187481E-22
   3.36800003      -5.63611456E-22
   3.37599993      -3.07208362E-22
   3.38400006       1.83091540E-23
   3.39199996       3.30576088E-22
   3.40000010       5.42261169E-22
   3.40799999       5.96000191E-22
   3.41599989       4.86233162E-22
   3.42400002       2.57915687E-22
   3.43199992      -1.44118892E-23
   3.44000006      -2.54193274E-22
   3.44799995      -4.04095930E-22
   3.45600009      -4.35096043E-22
   3.46399999      -3.46438377E-22
   3.47199988      -1.62343964E-22
   3.48000002       7.12977787E-23
   3.48799992       2.92888353E-22
   3.49600005       4.38001525E-22
   3.50399995       4.59402753E-22
   3.51200008       3.46479877E-22
   3.51999998       1.32522170E-22
   3.52800012      -1.17026745E-22
   3.53600001      -3.31848514E-22
   3.54399991      -4.65122083E-22
   3.55200005      -5.07143000E-22
   3.55999994      -4.77390801E-22
   3.56800008      -4.01449775E-22
   3.57599998      -2.90168890E-22
   3.58400011      -1.35572222E-22
   3.59200001       7.39356286E-23
   3.59999990       3.29734013E-22
   3.60800004       5.88510178E-22
   3.61599994       7.79851432E-22
   3.62400007       8.34972741E-22
   3.63199997       7.20362636E-22
   3.64000010       4.56710680E-22
   3.64800000       1.10856932E-22
   3.65599990      -2.34363128E-22
   3.66400003      -5.14231439E-22
   3.67199993      -7.00379439E-22
   3.68000007      -7.94772288E-22
   3.68799996      -8.08076194E-22
   3.69600010      -7.41483358E-22
   3.70400000      -5.85796193E-22
   3.71199989      -3.37640343E-22
   3.72000003      -1.78012743E-23
   3.72799993       3.25139082E-22
   3.73600006       6.30282597E-22
   3.74399996       8.47889612E-22
   3.75200009       9.53522657E-22
   3.75999999       9.44620872E-22
   3.76799989       8.26665947E-22
   3.77600002       6.04718253E-22
   3.78399992       2.89804071E-22
   3.79200006      -8.64855978E-23
   3.79999995      -4.65362604E-22
   3.80800009      -7.73917128E-22
   3.81599998      -9.52844817E-22
   3.82399988      -9.79943464E-22
   3.83200002      -8.72824281E-22
   3.83999991      -6.70073448E-22
   3.84800005      -4.07592691E-22
   3.85599995      -1.08737938E-22
   3.86400008       2.06338030E-22
   3.87199998       5.04800550E-22
   3.88000011       7.37143386E-22
   3.88800001       8.52974370E-22
   3.89599991       8.25937368E-22
   3.90400004       6.69796627E-22
   3.91199994       4.32743445E-22
   3.92000008       1.74308460E-22
   3.92799997      -5.90234186E-23
   3.93600011      -2.44445402E-22
   3.94400001      -3.77940483E-22
   3.95199990      -4.62792609E-22
   3.96000004      -5.01003819E-22
   3.96799994      -4.91674157E-22
   3.97600007      -4.33632674E-22
   3.98399997      -3.28481227E-22
   3.99200010      -1.83141216E-22
   4.00000000      -1.34029677E-23
   4.00799990       1.53283651E-22
   4.01599979       2.81964459E-22
   4.02400017       3.42919880E-22
   4.03200006       3.28592349E-22
   4.03999996       2.60794538E-22
   4.04799986       1.79889897E-22
   4.05600023       1.19675097E-22
   4.06400013       8.56617557E-23
   4.07200003       5.52872219E-23
   4.07999992       1.11687686E-24
   4.08799982      -7.99803416E-23
   4.09600019      -1.57737585E-22
   4.10400009      -1.88444847E-22
   4.11199999      -1.50080308E-22
   4.11999989      -6.47011598E-23
   4.12799978       1.25775060E-23
   4.13600016       3.15838860E-23
   4.14400005      -1.74758439E-23
   4.15199995      -9.73819947E-23
   4.15999985      -1.52777354E-22
   4.16800022      -1.50573365E-22
   4.17600012      -1.00478185E-22
   4.18400002      -4.13212505E-23
   4.19199991      -6.18676984E-24
   4.19999981       3.97203101E-24
   4.20800018       1.76173040E-23
   4.21600008       6.49919718E-23
   4.22399998       1.50187113E-22
   4.23199987       2.46182360E-22
   4.23999977       3.15484838E-22
   4.24800014       3.37315509E-22
   4.25600004       3.17735452E-22
   4.26399994       2.75782668E-22
   4.27199984       2.19698974E-22
   4.28000021       1.36985456E-22
   4.28800011       7.90772946E-24
   4.29600000      -1.68008011E-22
   4.30399990      -3.56860302E-22
   4.31199980      -5.01834534E-22
   4.32000017      -5.55077621E-22
   4.32800007      -5.05683115E-22
   4.33599997      -3.82253444E-22
   4.34399986      -2.28830272E-22
   4.35200024      -7.39458081E-23
   4.36000013       8.15678137E-23
   4.36800003       2.49797589E-22
   4.37599993       4.27485062E-22
   4.38399982       5.80150776E-22
   4.39200020       6.53608444E-22
   4.40000010       6.05652214E-22
   4.40799999       4.33818013E-22
   4.41599989       1.78515449E-22
   4.42399979      -9.96852666E-23
   4.43200016      -3.50048734E-22
   4.44000006      -5.47042095E-22
   4.44799995      -6.82388311E-22
   4.45599985      -7.45363090E-22
   4.46400023      -7.11734088E-22
   4.47200012      -5.52824938E-22
   4.48000002      -2.59460870E-22
   4.48799992       1.37160773E-22
   4.49599981       5.62423040E-22
   4.50400019       9.14901440E-22
   4.51200008       1.09109293E-21
   4.51999998       1.00553123E-21
   4.52799988       6.00531711E-22
   4.53599977      -1.50558635E-22
   4.54400015      -1.24053585E-21
   4.55200005      -2.62560919E-21
   4.55999994      -4.22868098E-21
   4.56799984      -5.95396769E-21
   4.57600021      -7.71166429E-21
   4.58400011      -9.44361248E-21
   4.59200001      -1.11387657E-20
   4.59999990      -1.28312475E-20
   4.60799980      -1.45836934E-20
   4.61600018      -1.64635583E-20
   4.62400007      -1.85204091E-20
   4.63199997      -2.07679364E-20
   4.63999987      -2.31710544E-20
   4.64799976      -2.56378912E-20
   4.65600014      -2.80177383E-20
   4.66400003      -3.01075164E-20
   4.67199993      -3.16678343E-20
   4.67999983      -3.24492485E-20
   4.68800020      -3.22246431E-20
   4.69600010      -3.08219516E-20
   4.70400000      -2.81517286E-20
   4.71199989      -2.42235997E-20
   4.71999979      -1.91498564E-20
   4.72800016      -1.31374957E-20
   4.73600006      -6.47114783E-21
   4.74399996       5.09982949E-22
   4.75199986       7.44089674E-21
   4.76000023       1.39655488E-20
   4.76800013       1.97745474E-20
   4.77600002       2.46385084E-20
   4.78399992       2.84273154E-20
   4.79199982       3.11104890E-20
   4.80000019       3.27422191E-20
   4.80800009       3.34407408E-20
   4.81599998       3.33714127E-20
   4.82399988       3.27328745E-20
   4.83199978       3.17385711E-20
   4.84000015       3.05887578E-20
   4.84800005       2.94365824E-20
   4.85599995       2.83631863E-20
   4.86399984       2.73759753E-20
   4.87200022       2.64309894E-20
   4.88000011       2.54653465E-20
   4.88800001       2.44209695E-20
   4.89599991       2.32513620E-20
   4.90399981       2.19192151E-20
   4.91200018       2.03999186E-20
   4.92000008       1.86978830E-20
   4.92799997       1.68647894E-20
   4.93599987       1.49995488E-20
   4.94399977       1.32202712E-20
   4.95200014       1.16182178E-20
   4.96000004       1.02206873E-20
   4.96799994       8.98560322E-21
   4.97599983       7.82986146E-21
   4.98400021       6.67169147E-21
   4.99200010       5.46122856E-21
   5.00000000       4.18665673E-21
   5.00799990       2.86254111E-21
   5.01599979       1.51662394E-21
   5.02400017       1.85963293E-22
   5.03200006      -1.07919908E-21
   5.03999996      -2.21339658E-21
   5.04799986      -3.14251408E-21
   5.05600023      -3.79700781E-21
   5.06400013      -4.12620994E-21
   5.07200003      -4.11029156E-21
   5.07999992      -3.77139389E-21
   5.08799982      -3.18483923E-21
   5.09600019      -2.48414515E-21
   5.10400009      -1.84861397E-21
   5.11199999      -1.46803475E-21
   5.11999989      -1.49369078E-21
   5.12799978      -1.99867172E-21
   5.13600016      -2.96902244E-21
   5.14400005      -4.32951502E-21
   5.15199995      -5.98510450E-21
   5.15999985      -7.85034549E-21
   5.16800022      -9.85084787E-21
   5.17600012      -1.19044675E-20
   5.18400002      -1.39067802E-20
   5.19199991      -1.57404102E-20
   5.19999981      -1.73055555E-20
   5.20800018      -1.85479274E-20
   5.21600008      -1.94583221E-20
   5.22399998      -2.00388235E-20
   5.23199987      -2.02582704E-20
   5.23999977      -2.00310283E-20
   5.24800014      -1.92380982E-20
   5.25600004      -1.77789031E-20
   5.26399994      -1.56187258E-20
   5.27199984      -1.27996983E-20
   5.28000021      -9.41144614E-21
   5.28800011      -5.54785311E-21
   5.29600000      -1.28553854E-21
   5.30399990       3.30025273E-21
   5.31199980       8.09933897E-21
   5.32000017       1.29459477E-20
   5.32800007       1.76388285E-20
   5.33599997       2.19944982E-20
   5.34399986       2.58983674E-20
   5.35200024       2.93179789E-20
   5.36000013       3.22702835E-20
   5.36800003       3.47678487E-20
   5.37599993       3.67817847E-20
   5.38399982       3.82423175E-20
   5.39200020       3.90668808E-20
   5.40000010       3.91881113E-20
   5.40799999       3.85617837E-20
   5.41599989       3.71594637E-20
   5.42399979       3.49679004E-20
   5.43200016       3.20104518E-20
   5.44000006       2.83810127E-20
   5.44799995       2.42615030E-20
   5.45599985       1.98992740E-20
   5.46400023       1.55490083E-20
   5.47200012       1.14126440E-20
   5.48000002       7.61506430E-21
   5.48799992       4.22803596E-21
   5.49599981       1.31921303E-21
   5.50400019      -1.01585817E-21
   5.51200008      -2.66725984E-21
   5.51999998      -3.56250696E-21
   5.52799988      -3.71998671E-21
   5.53599977      -3.26496185E-21
   5.54400015      -2.39519032E-21
   5.55200005      -1.31835606E-21
   5.55999994      -2.01104462E-22
   5.56799984       8.40990096E-22
   5.57600021       1.71292787E-21
   5.58400011       2.29707329E-21
   5.59200001       2.43013224E-21
   5.59999990       1.91707670E-21
   5.60799980       5.71201888E-22
   5.61600018      -1.74674534E-21
   5.62400007      -5.11235383E-21
   5.63199997      -9.54683153E-21
   5.63999987      -1.50342403E-20
   5.64799976      -2.15240053E-20
   5.65600014      -2.89095133E-20
   5.66400003      -3.69938564E-20
   5.67199993      -4.54655688E-20
   5.67999983      -5.39021228E-20
   5.68800020      -6.17998785E-20
   5.69600010      -6.86131390E-20
   5.70400000      -7.37851956E-20
   5.71199989      -7.67678862E-20
   5.71999979      -7.70447784E-20
   5.72800016      -7.41770854E-20
   5.73600006      -6.78771809E-20
   5.74399996      -5.80903935E-20
   5.75199986      -4.50512902E-20
   5.76000023      -2.92868304E-20
   5.76800013      -1.15633929E-20
   5.77600002       7.20003693E-21
   5.78399992       2.60208823E-20
   5.79199982       4.39242373E-20
   5.80000019       5.99963275E-20
   5.80800009       7.34343677E-20
   5.81599998       8.36023820E-20
   5.82399988       9.00868899E-20
   5.83199978       9.27318322E-20
   5.84000015       9.16323928E-20
   5.84800005       8.70838494E-20
   5.85599995       7.95028813E-20
   5.86399984       6.93528776E-20
   5.87200022       5.70987720E-20
   5.88000011       4.31984832E-20
   5.88800001       2.81169579E-20
   5.89599991       1.23397309E-20
   5.90399981      -3.63053125E-21
   5.91200018      -1.92929990E-20
   5.92000008      -3.41673382E-20
   5.92799997      -4.77956816E-20
   5.93599987      -5.97268346E-20
   5.94399977      -6.94997732E-20
   5.95200014      -7.66518482E-20
   5.96000004      -8.07660184E-20
   5.96799994      -8.15462501E-20
   5.97599983      -7.88892490E-20
   5.98400021      -7.29177740E-20
   5.99200010      -6.39609525E-20
   6.00000000      -5.24953761E-20
   6.00799990      -3.90780187E-20
   6.01599979      -2.42969118E-20
   6.02400017      -8.74262699E-21
   6.03200006       7.01651027E-21
   6.03999996       2.24743115E-20
   6.04799986       3.72411704E-20
   6.05600023       5.10890528E-20
   6.06400013       6.39548972E-20
   6.07200003       7.58868160E-20
   6.07999992       8.69493292E-20
   6.08799982       9.71275023E-20
   6.09600019       1.06268934E-19
   6.10400009       1.14078753E-19
   6.11199999       1.20152857E-19
   6.11999989       1.24020546E-19
   6.12799978       1.25177242E-19
   6.13600016       1.23112147E-19
   6.14400005       1.17351648E-19
   6.15199995       1.07535515E-19
   6.15999985       9.35190755E-20
   6.16800022       7.54689412E-20
   6.17600012       5.39125918E-20
   6.18400002       2.97184668E-20
   6.19199991       4.01396420E-21
   6.19999981      -2.19262768E-20
   6.20800018      -4.67870447E-20
   6.21600008      -6.92970106E-20
   6.22399998      -8.82984866E-20
   6.23199987      -1.02820560E-19
   6.23999977      -1.12163882E-19
   6.24800014      -1.15982884E-19
   6.25600004      -1.14335877E-19
   6.26399994      -1.07678811E-19
   6.27199984      -9.68028985E-20
   6.28000021      -8.27432644E-20
   6.28800011      -6.66930331E-20
   6.29600000      -4.99402088E-20
   6.30399990      -3.38157283E-20
   6.31199980      -1.96229956E-20
   6.32000017      -8.52878626E-21
   6.32800007      -1.42606099E-21
   6.33599997       1.19047224E-21
   6.34399986      -7.09583388E-22
   6.35200024      -6.70384812E-21
   6.36000013      -1.59883301E-20
   6.36800003      -2.74666453E-20
   6.37599993      -3.98256963E-20
   6.38399982      -5.15980532E-20
   6.39200020      -6.12403360E-20
   6.40000010      -6.72571380E-20
   6.40799999      -6.83702840E-20
   6.41599989      -6.36948588E-20
   6.42399979      -5.28646574E-20
   6.43200016      -3.60676144E-20
   6.44000006      -1.39917633E-20
   6.44799995       1.22806408E-20
   6.45599985       4.13850416E-20
   6.46400023       7.17666165E-20
   6.47200012       1.01758008E-19
   6.48000002       1.29665550E-19
   6.48799992       1.53878238E-19
   6.49599981       1.72988915E-19
   6.50400019       1.85897689E-19
   6.51200008       1.91868912E-19
   6.51999998       1.90535587E-19
   6.52799988       1.81870805E-19
   6.53599977       1.66157941E-19
   6.54400015       1.43978993E-19
   6.55200005       1.16216291E-19
   6.55999994       8.40431141E-20
   6.56799984       4.88789231E-20
   6.57600021       1.23038996E-20
   6.58400011      -2.40497222E-20
   6.59200001      -5.86021986E-20
   6.59999990      -8.99084192E-20
   6.60799980      -1.16719708E-19