 -0.239999995         0.00000000    
 -0.231999993         0.00000000    
 -0.224000007         0.00000000    
 -0.216000006         0.00000000    
 -0.208000004         0.00000000    
 -0.200000003         0.00000000    
 -0.192000002         0.00000000    
 -0.184000000         4.89695995E-36
 -0.175999999        -3.92771971E-30
 -0.167999998        -2.52300524E-29
 -0.159999996        -1.71097058E-29
 -0.151999995         2.94271647E-28
 -0.143999994         1.04518061E-27
 -0.136000007         6.25099852E-28
 -0.128000006        -4.52833123E-27
 -0.119999997        -1.28675817E-26
 -0.112000003        -7.74493930E-27
 -0.104000002         3.08331338E-26
  -9.60000008E-02     8.05182314E-26
  -8.79999995E-02     5.32264359E-26
  -7.99999982E-02    -1.16992201E-25
  -7.19999969E-02    -3.15219992E-25
  -6.40000030E-02    -2.48687759E-25
  -5.60000017E-02     2.37282532E-25
  -4.80000004E-02     8.13545300E-25
  -3.99999991E-02     8.22202161E-25
  -3.20000015E-02    -3.13915611E-26
  -2.40000002E-02    -1.21038183E-24
  -1.60000008E-02    -1.78766117E-24
  -8.00000038E-03    -1.33323912E-24
   0.00000000        -8.50171606E-26
   8.00000038E-03     1.71743085E-24
   1.60000008E-02     3.95420236E-24
   2.40000002E-02     5.46464657E-24
   3.20000015E-02     3.46810706E-24
   3.99999991E-02    -3.95838885E-24
   4.80000004E-02    -1.36918454E-23
   5.60000017E-02    -1.71894558E-23
   6.40000030E-02    -7.19807335E-24
   7.19999969E-02     1.35165068E-23
   7.99999982E-02     3.11951732E-23
   8.79999995E-02     3.11285113E-23
   9.60000008E-02     1.01448002E-23
  0.104000002        -2.03395415E-23
  0.112000003        -4.30088259E-23
  0.119999997        -4.61218036E-23
  0.128000006        -2.83836729E-23
  0.136000007         3.42801597E-24
  0.143999994         3.85703979E-23
  0.151999995         6.47918093E-23
  0.159999996         7.04874608E-23
  0.167999998         4.84172279E-23
  0.175999999        -5.03370541E-26
  0.184000000        -6.27358800E-23
  0.192000002        -1.17911393E-22
  0.200000003        -1.39126665E-22
  0.208000004        -1.03821858E-22
  0.216000006        -5.84531455E-24
  0.224000007         1.31361736E-22
  0.231999993         2.50616111E-22
  0.239999995         2.78314116E-22
  0.247999996         1.65379489E-22
  0.256000012        -6.81531898E-23
  0.263999999        -3.20565632E-22
  0.272000015        -4.51501220E-22
  0.280000001        -3.65248935E-22
  0.287999988        -8.15689055E-23
  0.296000004         2.60782370E-22
  0.303999990         4.80975133E-22
  0.312000006         4.67410108E-22
  0.319999993         2.45857475E-22
  0.328000009        -4.61000500E-23
  0.335999995        -2.57992882E-22
  0.344000012        -3.21246577E-22
  0.351999998        -2.70465922E-22
  0.360000014        -1.87566839E-22
  0.368000001        -1.25995084E-22
  0.375999987        -7.64406974E-23
  0.384000003         8.78101978E-24
  0.391999990         1.60703487E-22
  0.400000006         3.50717436E-22
  0.407999992         4.89800025E-22
  0.416000009         4.74963786E-22
  0.423999995         2.58344272E-22
  0.432000011        -1.06975900E-22
  0.439999998        -4.83009965E-22
  0.448000014        -7.21319367E-22
  0.456000000        -7.44161446E-22
  0.463999987        -5.70480680E-22
  0.472000003        -2.69544532E-22
  0.479999989         1.09689922E-22
  0.488000005         5.58461570E-22
  0.495999992         1.04605036E-21
  0.504000008         1.42924511E-21
  0.512000024         1.44040660E-21
  0.519999981         8.22823172E-22
  0.527999997        -4.38494683E-22
  0.536000013        -1.95770366E-21
  0.544000030        -3.03019402E-21
  0.551999986        -2.97771773E-21
  0.560000002        -1.57610885E-21
  0.568000019         7.18765022E-22
  0.575999975         2.92655471E-21
  0.583999991         4.02103118E-21
  0.592000008         3.46048707E-21
  0.600000024         1.46727593E-21
  0.607999980        -1.09307152E-21
  0.615999997        -3.15728903E-21
  0.624000013        -3.98564134E-21
  0.632000029        -3.46998753E-21
  0.639999986        -2.07871457E-21
  0.648000002        -4.93152823E-22
  0.656000018         8.04582941E-22
  0.663999975         1.71432616E-21
  0.671999991         2.36994011E-21
  0.680000007         2.82405499E-21
  0.688000023         2.86537081E-21
  0.695999980         2.15505248E-21
  0.703999996         5.89190239E-22
  0.712000012        -1.43904193E-21
  0.720000029        -3.13144589E-21
  0.727999985        -3.71810617E-21
  0.736000001        -2.92394028E-21
  0.744000018        -1.13419548E-21
  0.751999974         8.62132629E-22
  0.759999990         2.36467289E-21
  0.768000007         3.14905216E-21
  0.776000023         3.47936763E-21
  0.783999979         3.74750703E-21
  0.791999996         4.02246582E-21
  0.800000012         3.89508647E-21
  0.808000028         2.78412414E-21
  0.815999985         5.11284204E-22
  0.824000001        -2.32986708E-21
  0.832000017        -4.55727484E-21
  0.839999974        -5.05695575E-21
  0.847999990        -3.48274178E-21
  0.856000006        -5.35043028E-22
  0.864000022         2.34732371E-21
  0.871999979         3.68539619E-21
  0.879999995         2.63915811E-21
  0.888000011        -6.81559616E-22
  0.896000028        -5.37518401E-21
  0.903999984        -1.01903910E-20
  0.912000000        -1.39243206E-20
  0.920000017        -1.55960995E-20
  0.927999973        -1.44703261E-20
  0.935999990        -1.01269768E-20
  0.944000006        -2.68731271E-21
  0.952000022         6.92615291E-21
  0.959999979         1.69307716E-20
  0.967999995         2.49974676E-20
  0.976000011         2.89120821E-20
  0.984000027         2.73265642E-20
  0.991999984         2.02628053E-20
   1.00000000         9.12436600E-21
   1.00800002        -3.77673825E-21
   1.01600003        -1.59193429E-20
   1.02400005        -2.51407734E-20
   1.03199995        -2.98717214E-20
   1.03999996        -2.91171873E-20
   1.04799998        -2.24304628E-20
   1.05599999        -1.00838761E-20
   1.06400001         6.61360182E-21
   1.07200003         2.51232233E-20
   1.08000004         4.19129541E-20
   1.08800006         5.32038240E-20
   1.09599996         5.59782977E-20
   1.10399997         4.87951129E-20
   1.11199999         3.20280488E-20
   1.12000000         7.55850583E-21
   1.12800002        -2.17415942E-20
   1.13600004        -5.23553887E-20
   1.14400005        -8.02418573E-20
   1.15199995        -1.01006921E-19
   1.15999997        -1.10503704E-19
   1.16799998        -1.05857676E-19
   1.17600000        -8.65289987E-20
   1.18400002        -5.48005088E-20
   1.19200003        -1.53165108E-20
   1.20000005         2.61858402E-20
   1.20799994         6.43653145E-20
   1.21599996         9.52646592E-20
   1.22399998         1.16497261E-19
   1.23199999         1.26890488E-19
   1.24000001         1.26098825E-19
   1.24800003         1.14642580E-19
   1.25600004         9.42914102E-20
   1.26400006         6.82798434E-20
   1.27199996         4.07912002E-20
   1.27999997         1.56811763E-20
   1.28799999        -4.99448827E-21
   1.29600000        -2.17614562E-20
   1.30400002        -3.72336806E-20
   1.31200004        -5.45471524E-20
   1.32000005        -7.55697409E-20
   1.32799995        -9.98589367E-20
   1.33599997        -1.24857123E-19
   1.34399998        -1.46936848E-19
   1.35200000        -1.62609414E-19
   1.36000001        -1.69104849E-19
   1.36800003        -1.64204593E-19
   1.37600005        -1.45783862E-19
   1.38399994        -1.11790151E-19
   1.39199996        -6.10091714E-20
   1.39999998         5.62832672E-21
   1.40799999         8.40000490E-20
   1.41600001         1.66744050E-19
   1.42400002         2.44359389E-19
   1.43200004         3.07015503E-19
   1.44000006         3.46228465E-19
   1.44799995         3.55799669E-19
   1.45599997         3.32110664E-19
   1.46399999         2.74239066E-19
   1.47200000         1.84370519E-19
   1.48000002         6.84654033E-20
   1.48800004        -6.33962143E-20
   1.49600005        -1.97613410E-19
   1.50399995        -3.18869156E-19
   1.51199996        -4.12659857E-19
   1.51999998        -4.67655038E-19
   1.52800000        -4.77087585E-19
   1.53600001        -4.39038104E-19
   1.54400003        -3.56137391E-19
   1.55200005        -2.35322545E-19
   1.55999994        -8.77728004E-20
   1.56799996         7.14897953E-20
   1.57599998         2.24986147E-19
   1.58399999         3.55250705E-19
   1.59200001         4.47686484E-19
   1.60000002         4.92749940E-19
   1.60800004         4.86723877E-19
   1.61600006         4.31152798E-19
   1.62399995         3.31764540E-19
   1.63199997         1.97720323E-19
   1.63999999         4.14748811E-20
   1.64800000        -1.21321223E-19
   1.65600002        -2.72781961E-19
   1.66400003        -3.95008237E-19
   1.67200005        -4.73089511E-19
   1.67999995        -4.97765601E-19
   1.68799996        -4.66740797E-19
   1.69599998        -3.84402618E-19
   1.70400000        -2.60489980E-19
   1.71200001        -1.08547202E-19
   1.72000003         5.53261239E-20
   1.72800004         2.13508965E-19
   1.73599994         3.48158691E-19
   1.74399996         4.43145470E-19
   1.75199997         4.86500435E-19
   1.75999999         4.72712213E-19
   1.76800001         4.04071448E-19
   1.77600002         2.90548922E-19
   1.78400004         1.48196489E-19
   1.79200006        -3.49863472E-21
   1.79999995        -1.44682187E-19
   1.80799997        -2.57994092E-19
   1.81599998        -3.30757551E-19
   1.82400000        -3.56268008E-19
   1.83200002        -3.34237940E-19
   1.84000003        -2.70584685E-19
   1.84800005        -1.76714614E-19
   1.85599995        -6.82659816E-20
   1.86399996         3.68515748E-20
   1.87199998         1.21156705E-19
   1.88000000         1.70713832E-19
   1.88800001         1.77900868E-19
   1.89600003         1.42932868E-19
   1.90400004         7.36075263E-20
   1.91199994        -1.65703712E-20
   1.91999996        -1.11122022E-19
   1.92799997        -1.93298551E-19
   1.93599999        -2.48246854E-19
   1.94400001        -2.64655842E-19
   1.95200002        -2.36168182E-19
   1.96000004        -1.62645499E-19
   1.96800005        -5.09541803E-20
   1.97599995         8.52898046E-20
   1.98399997         2.27388564E-19
   1.99199998         3.54444825E-19
   2.00000000         4.46768986E-19
   2.00799990         4.89019045E-19
   2.01600003         4.72523668E-19
   2.02399993         3.96600172E-19
   2.03200006         2.68841945E-19
   2.03999996         1.04306590E-19
   2.04800010        -7.64777913E-20
   2.05599999        -2.50555205E-19
   2.06399989        -3.96067441E-19
   2.07200003        -4.95406430E-19
   2.07999992        -5.37245174E-19
   2.08800006        -5.17236709E-19
   2.09599996        -4.37790095E-19
   2.10400009        -3.07536808E-19
   2.11199999        -1.40779807E-19
   2.11999989         4.33863598E-20
   2.12800002         2.22880301E-19
   2.13599992         3.75603769E-19
   2.14400005         4.83004770E-19
   2.15199995         5.33043045E-19
   2.16000009         5.21487073E-19
   2.16799998         4.51316515E-19
   2.17600012         3.30968482E-19
   2.18400002         1.72596844E-19
   2.19199991        -8.94017614E-21
   2.20000005        -1.96518895E-19
   2.20799994        -3.71432323E-19
   2.21600008        -5.15036926E-19
   2.22399998        -6.11322041E-19
   2.23200011        -6.49552830E-19
   2.24000001        -6.25871735E-19
   2.24799991        -5.43258053E-19
   2.25600004        -4.10140627E-19
   2.26399994        -2.38584195E-19
   2.27200007        -4.29099523E-20
   2.27999997         1.61024936E-19
   2.28800011         3.56314951E-19
   2.29600000         5.25900547E-19
   2.30399990         6.54160071E-19
   2.31200004         7.28893461E-19
   2.31999993         7.43017157E-19
   2.32800007         6.95371812E-19
   2.33599997         5.90538612E-19
   2.34400010         4.38026462E-19
   2.35200000         2.51325594E-19
   2.35999990         4.70309435E-20
   2.36800003        -1.56169658E-19
   2.37599993        -3.39008911E-19
   2.38400006        -4.83781699E-19
   2.39199996        -5.76777325E-19
   2.40000010        -6.10303524E-19
   2.40799999        -5.83661432E-19
   2.41599989        -5.02848057E-19
   2.42400002        -3.79314630E-19
   2.43199992        -2.28389349E-19
   2.44000006        -6.77983015E-20
   2.44799995         8.37336452E-20
   2.45600009         2.08162276E-19
   2.46399999         2.90331761E-19
   2.47199988         3.20424359E-19
   2.48000002         2.95823801E-19
   2.48799992         2.21545515E-19
   2.49600005         1.09021681E-19
   2.50399995        -2.61142519E-20
   2.51200008        -1.66167027E-19
   2.51999998        -2.92784042E-19
   2.52800012        -3.87864188E-19
   2.53600001        -4.34867666E-19
   2.54399991        -4.21225287E-19
   2.55200005        -3.41555851E-19
   2.55999994        -2.00340870E-19
   2.56800008        -1.24318525E-20
   2.57599998         1.99366955E-19
   2.58400011         4.08862581E-19
   2.59200001         5.91276146E-19
   2.59999990         7.26446919E-19
   2.60800004         7.99846636E-19
   2.61599994         8.02291420E-19
   2.62400007         7.29868035E-19
   2.63199997         5.84945630E-19
   2.64000010         3.77813426E-19
   2.64800000         1.27489923E-19
   2.65599990        -1.39650447E-19
   2.66400003        -3.93692115E-19
   2.67199993        -6.06358544E-19
   2.68000007        -7.55781329E-19
   2.68799996        -8.29395647E-19
   2.69600010        -8.24489639E-19
   2.70400000        -7.46965445E-19
   2.71199989        -6.09302221E-19
   2.72000003        -4.28540252E-19
   2.72799993        -2.24569119E-19
   2.73600006        -1.85546386E-20
   2.74399996         1.68794889E-19
   2.75200009         3.19270520E-19
   2.75999999         4.19337428E-19
   2.76799989         4.61978976E-19
   2.77600002         4.47637267E-19
   2.78399992         3.83834345E-19
   2.79200006         2.83472469E-19
   2.79999995         1.62309535E-19
   2.80800009         3.64168333E-20
   2.81599998        -7.96648148E-20
   2.82399988        -1.73818590E-19
   2.83200002        -2.36619512E-19
   2.83999991        -2.61544351E-19
   2.84800005        -2.45508808E-19
   2.85599995        -1.89616253E-19
   2.86400008        -9.96120362E-20
   2.87199998         1.44598377E-20
   2.88000011         1.39507461E-19
   2.88800001         2.61173360E-19
   2.89599991         3.65570921E-19
   2.90400004         4.40581313E-19
   2.91199994         4.76711735E-19
   2.92000008         4.67765467E-19
   2.92799997         4.11508577E-19
   2.93600011         3.10258594E-19
   2.94400001         1.71147973E-19
   2.95199990         5.86076407E-21
   2.96000004        -1.70188663E-19
   2.96799994        -3.39177707E-19
   2.97600007        -4.82681446E-19
   2.98399997        -5.83971573E-19
   2.99200010        -6.30625232E-19
   3.00000000        -6.16884676E-19
   3.00799990        -5.44968249E-19
   3.01600003        -4.24716790E-19
   3.02399993        -2.71615301E-19
   3.03200006        -1.03953927E-19
   3.03999996         5.98318026E-20
   3.04800010         2.02975918E-19
   3.05599999         3.11469405E-19
   3.06399989         3.75074063E-19
   3.07200003         3.88745937E-19
   3.07999992         3.54183074E-19
   3.08800006         2.80515273E-19
   3.09599996         1.83169065E-19
   3.10400009         8.07773921E-20
   3.11199999        -8.92202340E-21
   3.11999989        -7.27094796E-20
   3.12800002        -1.03871409E-19
   3.13599992        -1.02321951E-19
   3.14400005        -7.34537030E-20
   3.15199995        -2.65528951E-20
   3.16000009         2.67399785E-20
   3.16799998         7.39625548E-20
   3.17600012         1.03601328E-19
   3.18400002         1.07105756E-19
   3.19199991         8.07259389E-20
   3.20000005         2.65594398E-20
   3.20799994        -4.76231563E-20
   3.21600008        -1.29753515E-19
   3.22399998        -2.05674310E-19
   3.23200011        -2.61697121E-19
   3.24000001        -2.87081355E-19
   3.24799991        -2.76051393E-19
   3.25600004        -2.28965765E-19
   3.26399994        -1.52335986E-19
   3.27200007        -5.76494933E-20
   3.27999997         4.06985560E-20
   3.28800011         1.27811631E-19
   3.29600000         1.90565663E-19
   3.30399990         2.19532545E-19
   3.31200004         2.10559949E-19
   3.31999993         1.65946131E-19
   3.32800007         9.49124225E-20
   3.33599997         1.29181111E-20
   3.34400010        -6.04442522E-20
   3.35200000        -1.04754922E-19
   3.35999990        -1.02543571E-19
   3.36800003        -4.25942116E-20
   3.37599993         7.79307793E-20
   3.38400006         2.52771325E-19
   3.39199996         4.67089091E-19
   3.40000010         6.98988194E-19
   3.40799999         9.21967032E-19
   3.41599989         1.10827209E-18
   3.42400002         1.23287496E-18
   3.43199992         1.27736735E-18
   3.44000006         1.23283950E-18
   3.44799995         1.10107014E-18
   3.45600009         8.93970691E-19
   3.46399999         6.31800862E-19
   3.47199988         3.40799524E-19
   3.48000002         5.05583583E-20
   3.48799992        -2.08971362E-19
   3.49600005        -4.11014569E-19
   3.50399995        -5.35803864E-19
   3.51200008        -5.73862495E-19
   3.51999998        -5.27630595E-19
   3.52800012        -4.10741005E-19
   3.53600001        -2.45126858E-19
   3.54399991        -5.69690791E-20
   3.55200005         1.27258609E-19
   3.55999994         2.83798017E-19
   3.56800008         3.93535571E-19
   3.57599998         4.43235012E-19
   3.58400011         4.26458833E-19
   3.59200001         3.44166149E-19
   3.59999990         2.04579614E-19
   3.60800004         2.19269247E-20
   3.61599994        -1.85889404E-19
   3.62400007        -4.00063060E-19
   3.63199997        -6.03218722E-19
   3.64000010        -7.80726356E-19
   3.64800000        -9.21005848E-19
   3.65599990        -1.01532315E-18
   3.66400003        -1.05766798E-18
   3.67199993        -1.04496651E-18
   3.68000007        -9.77458030E-19
   3.68799996        -8.58870677E-19
   3.69600010        -6.96177124E-19
   3.70400000        -4.99048300E-19
   3.71199989        -2.79319558E-19
   3.72000003        -5.06767097E-20
   3.72799993         1.71558732E-19
   3.73600006         3.70947440E-19
   3.74399996         5.31100877E-19
   3.75200009         6.37496983E-19
   3.75999999         6.79540661E-19
   3.76799989         6.52321610E-19
   3.77600002         5.57699231E-19
   3.78399992         4.04645873E-19
   3.79200006         2.08925609E-19
   3.79999995        -7.90497899E-21
   3.80800009        -2.20357193E-19
   3.81599998        -4.01886967E-19
   3.82399988        -5.28583921E-19
   3.83200002        -5.82967479E-19
   3.83999991        -5.56890093E-19
   3.84800005        -4.52772456E-19
   3.85599995        -2.83028041E-19
   3.86400008        -6.81658863E-20
   3.87199998         1.65725558E-19
   3.88000011         3.89694377E-19
   3.88800001         5.74850356E-19
   3.89599991         6.95641214E-19
   3.90400004         7.33313863E-19
   3.91199994         6.78924980E-19
   3.92000008         5.35029984E-19
   3.92799997         3.15463861E-19
   3.93600011         4.32756533E-20
   3.94400001        -2.52524670E-19
   3.95199990        -5.40557309E-19
   3.96000004        -7.90416829E-19
   3.96799994        -9.75607420E-19
   3.97600007        -1.07612434E-18
   3.98399997        -1.08062400E-18
   3.99200010        -9.87871200E-19
   4.00000000        -8.07046002E-19
   4.00799990        -5.56701806E-19
   4.01599979        -2.62538700E-19
   4.02400017         4.55745466E-20
   4.03200006         3.36860852E-19
   4.03999996         5.82824997E-19
   4.04799986         7.60117410E-19
   4.05600023         8.52828020E-19
   4.06400013         8.53977594E-19
   4.07200003         7.66086914E-19
   4.07999992         6.00871028E-19
   4.08799982         3.78185658E-19
   4.09600019         1.24280475E-19
   4.10400009        -1.30716871E-19
   4.11199999        -3.56117771E-19
   4.11999989        -5.24513882E-19
   4.12799978        -6.15481467E-19
   4.13600016        -6.18320248E-19
   4.14400005        -5.33263540E-19
   4.15199995        -3.71157027E-19
   4.15999985        -1.52074558E-19
   4.16800022         9.66326867E-20
   4.17600012         3.42758727E-19
   4.18400002         5.52444101E-19
   4.19199991         6.94389225E-19
   4.19999981         7.44678704E-19
   4.20800018         6.91078279E-19
   4.21600008         5.35462755E-19
   4.22399998         2.93639863E-19
   4.23199987        -7.14564738E-21
   4.23999977        -3.31998400E-19
   4.24800014        -6.42447194E-19
   4.25600004        -9.00428800E-19
   4.26399994        -1.07237287E-18
   4.27199984        -1.13353078E-18
   4.28000021        -1.07204355E-18
   4.28800011        -8.91602679E-19
   4.29600000        -6.11572522E-19
   4.30399990        -2.64259442E-19
   4.31199980         1.09894861E-19
   4.32000017         4.67809049E-19
   4.32800007         7.68786986E-19
   4.33599997         9.78672228E-19
   4.34399986         1.07331503E-18
   4.35200024         1.04147871E-18
   4.36000013         8.86773702E-19
   4.36800003         6.27805580E-19
   4.37599993         2.95976907E-19
   4.38399982        -6.87964888E-20
   4.39200020        -4.23367323E-19
   4.40000010        -7.26322480E-19
   4.40799999        -9.41805305E-19
   4.41599989        -1.04214883E-18
   4.42399979        -1.00974899E-18
   4.43200016        -8.38482123E-19
   4.44000006        -5.34482753E-19
   4.44799995        -1.15756120E-19
   4.45599985         3.89716219E-19
   4.46400023         9.47114667E-19
   4.47200012         1.51833055E-18
   4.48000002         2.06502517E-18
   4.48799992         2.55075824E-18
   4.49599981         2.94237532E-18
   4.50400019         3.21117800E-18
   4.51200008         3.33428192E-18
   4.51999998         3.29617722E-18
   4.52799988         3.09017554E-18
   4.53599977         2.71933517E-18
   4.54400015         2.19661534E-18
   4.55200005         1.54422771E-18
   4.55999994         7.92310659E-19
   4.56799984        -2.29173006E-20
   4.57600021        -8.61413431E-19
   4.58400011        -1.68188442E-18
   4.59200001        -2.44456748E-18
   4.59999990        -3.11407837E-18
   4.60799980        -3.66215067E-18
   4.61600018        -4.07002681E-18
   4.62400007        -4.33016808E-18
   4.63199997        -4.44687458E-18
   4.63999987        -4.43546445E-18
   4.64799976        -4.31995943E-18
   4.65600014        -4.12962228E-18
   4.66400003        -3.89502269E-18
   4.67199993        -3.64436381E-18
   4.67999983        -3.40054674E-18
   4.68800020        -3.17907926E-18
   4.69600010        -2.98674674E-18
   4.70400000        -2.82102421E-18
   4.71199989        -2.67041922E-18
   4.71999979        -2.51603465E-18
   4.72800016        -2.33444141E-18
   4.73600006        -2.10153279E-18
   4.74399996        -1.79666524E-18
   4.75199986        -1.40627932E-18
   4.76000023        -9.26399169E-19
   4.76800013        -3.63776508E-19
   4.77600002         2.64271229E-19
   4.78399992         9.31151839E-19
   4.79199982         1.60325832E-18
   4.80000019         2.24303217E-18
   4.80800009         2.81255512E-18
   4.81599998         3.27725174E-18
   4.82399988         3.60922517E-18
   4.83199978         3.78985578E-18
   4.84000015         3.81147910E-18
   4.84800005         3.67809830E-18
   4.85599995         3.40507617E-18
   4.86399984         3.01775505E-18
   4.87200022         2.54902530E-18
   4.88000011         2.03609867E-18
   4.88800001         1.51699444E-18
   4.89599991         1.02727974E-18
   4.90399981         5.97410363E-19
   4.91200018         2.50733617E-19
   4.92000008         2.07595798E-21
   4.92799997        -1.43076345E-19
   4.93599987        -1.88619565E-19
   4.94399977        -1.46874642E-19
   4.95200014        -3.66094985E-20
   4.96000004         1.19625723E-19
   4.96799994         2.98247725E-19
   4.97599983         4.76894904E-19
   4.98400021         6.35927097E-19
   4.99200010         7.59319956E-19
   5.00000000         8.35309161E-19
   5.00799990         8.57022497E-19
   5.01599979         8.23016637E-19
   5.02400017         7.37405512E-19
   5.03200006         6.09295604E-19
   5.03999996         4.51518760E-19
   5.04799986         2.78953892E-19
   5.05600023         1.06856122E-19
   5.06400013        -5.04827165E-20
   5.07200003        -1.80665681E-19
   5.07999992        -2.73872160E-19
   5.08799982        -3.23528380E-19
   5.09600019        -3.27080759E-19
   5.10400009        -2.86736653E-19
   5.11199999        -2.09833323E-19
   5.11999989        -1.08485371E-19
   5.12799978         1.63615002E-21
   5.13600016         1.03224489E-19
   5.14400005         1.79542861E-19
   5.15199995         2.16459582E-19
   5.15999985         2.04036170E-19
   5.16800022         1.37672775E-19
   5.17600012         1.89881264E-20
   5.18400002        -1.43473314E-19
   5.19199991        -3.33913659E-19
   5.19999981        -5.29807269E-19
   5.20800018        -7.03724940E-19
   5.21600008        -8.26513698E-19
   5.22399998        -8.71354642E-19
   5.23199987        -8.17846862E-19
   5.23999977        -6.55281728E-19
   5.24800014        -3.84596127E-19
   5.25600004        -1.89304177E-20
   5.26399994         4.17018918E-19
   5.27199984         8.88640752E-19
   5.28000021         1.35399540E-18
   5.28800011         1.76740021E-18
   5.29600000         2.08397216E-18
   5.30399990         2.26476448E-18
   5.31199980         2.28177917E-18
   5.32000017         2.12195133E-18
   5.32800007         1.78934138E-18
   5.33599997         1.30516745E-18
   5.34399986         7.05780846E-19
   5.35200024         3.90416680E-20
   5.36000013        -6.40339434E-19
   5.36800003        -1.27598979E-18
   5.37599993        -1.81519243E-18
   5.38399982        -2.21394002E-18
   5.39200020        -2.44124325E-18
   5.40000010        -2.48212417E-18
   5.40799999        -2.33878597E-18
   5.41599989        -2.02972772E-18
   5.42399979        -1.58698488E-18
   5.43200016        -1.05202557E-18
   5.44000006        -4.70961020E-19
   5.44799995         1.10358560E-19
   5.45599985         6.50919488E-19
   5.46400023         1.11835946E-18
   5.47200012         1.49150715E-18
   5.48000002         1.76116120E-18
   5.48799992         1.92894631E-18
   5.49599981         2.00463230E-18
   5.50400019         2.00277508E-18
   5.51200008         1.93958778E-18
   5.51999998         1.83053084E-18
   5.52799988         1.68853423E-18
   5.53599977         1.52251474E-18
   5.54400015         1.33608177E-18
   5.55200005         1.12685502E-18
   5.55999994         8.87066421E-19
   5.56799984         6.05807125E-19
   5.57600021         2.72492319E-19
   5.58400011        -1.19556757E-19
   5.59200001        -5.70570316E-19
   5.59999990        -1.07333653E-18
   5.60799980        -1.61339004E-18
   5.61600018        -2.16957460E-18
   5.62400007        -2.71444571E-18
   5.63199997        -3.21469786E-18
   5.63999987        -3.63229648E-18
   5.64799976        -3.92687287E-18
   5.65600014        -4.05925403E-18
   5.66400003        -3.99533861E-18
   5.67199993        -3.70940833E-18
   5.67999983        -3.18643310E-18
   5.68800020        -2.42358191E-18
   5.69600010        -1.43140720E-18
   5.70400000        -2.34857643E-19
   5.71199989         1.12628943E-18
   5.71999979         2.59823407E-18
   5.72800016         4.11554118E-18
   5.73600006         5.60482198E-18
   5.74399996         6.98900368E-18
   5.75199986         8.19159690E-18
   5.76000023         9.14085945E-18
   5.76800013         9.77410591E-18
   5.77600002         1.00422820E-17
   5.78399992         9.91441973E-18
   5.79199982         9.38103465E-18
   5.80000019         8.45559739E-18
   5.80800009         7.17368995E-18
   5.81599998         5.59028345E-18
   5.82399988         3.77589834E-18
   5.83199978         1.81232108E-18
   5.84000015        -2.11999967E-19
   5.84800005        -2.20706925E-18
   5.85599995        -4.08704688E-18
   5.86399984        -5.77610337E-18
   5.87200022        -7.21348064E-18
   5.88000011        -8.35679811E-18
   5.88800001        -9.18311514E-18
   5.89599991        -9.68797159E-18
   5.90399981        -9.88314238E-18
   5.91200018        -9.79381763E-18
   5.92000008        -9.45562318E-18
   5.92799997        -8.91148971E-18
   5.93599987        -8.20826294E-18
   5.94399977        -7.39315585E-18
   5.95200014        -6.51041683E-18
   5.96000004        -5.59874882E-18
   5.96799994        -4.68988122E-18
   5.97599983        -3.80835857E-18
   5.98400021        -2.97224895E-18
   5.99200010        -2.19428434E-18
   6.00000000        -1.48300807E-18
   6.00799990        -8.43726706E-19
   6.01599979        -2.79308856E-19
   6.02400017         2.09045524E-19
   6.03200006         6.21056975E-19
   6.03999996         9.56816668E-19
   6.04799986         1.21668197E-18
   6.05600023         1.40170480E-18
   6.06400013         1.51439006E-18
   6.07200003         1.55935250E-18
   6.07999992         1.54349183E-18
   6.08799982         1.47559964E-18
   6.09600019         1.36566103E-18
   6.10400009         1.22426132E-18
   6.11199999         1.06234165E-18
   6.11999989         8.91188469E-19
   6.12799978         7.22306622E-19
   6.13600016         5.66899909E-19
   6.14400005         4.35036256E-19
   6.15199995         3.34880375E-19
   6.15999985         2.72352448E-19
   6.16800022         2.51215450E-19
   6.17600012         2.73220522E-19
   6.18400002         3.37904082E-19
   6.19199991         4.41995068E-19
   6.19999981         5.78856908E-19
   6.20800018         7.38548985E-19
   6.21600008         9.08767091E-19
   6.22399998         1.07636722E-18
   6.23199987         1.22881981E-18