 -0.239999995       0.00000000    
 -0.231999993       0.00000000    
 -0.224000007       0.00000000    
 -0.216000006       0.00000000    
 -0.208000004       2.45235654E-33
 -0.200000003       8.05168910E-28
 -0.192000002       9.07180720E-27
 -0.184000000       2.24009996E-26
 -0.175999999      -4.63676763E-27
 -0.167999998      -9.16078778E-26
 -0.159999996      -7.31589172E-26
 -0.151999995       2.42735927E-25
 -0.143999994       5.20028744E-25
 -0.136000007      -5.09978145E-26
 -0.128000006      -1.42201812E-24
 -0.119999997      -1.78023838E-24
 -0.112000003       6.15205404E-25
 -0.104000002       4.22688673E-24
  -9.60000008E-02   4.40900789E-24
  -8.79999995E-02  -1.34911751E-24
  -7.99999982E-02  -8.55550338E-24
  -7.19999969E-02  -8.61138471E-24
  -6.40000030E-02   1.23503097E-24
  -5.60000017E-02   1.21688476E-23
  -4.80000004E-02   1.20103458E-23
  -3.99999991E-02  -4.49470726E-26
  -3.20000015E-02  -1.14685442E-23
  -2.40000002E-02  -1.17013734E-23
  -1.60000008E-02  -3.93164094E-24
  -8.00000038E-03   3.01988675E-24
   1.38777878E-17   7.56733677E-24
   8.00000038E-03   1.12766641E-23
   1.60000008E-02   8.65096502E-24
   2.40000002E-02  -4.92341580E-24
   3.20000015E-02  -1.80478122E-23
   3.99999991E-02  -1.30795449E-23
   4.80000004E-02   7.08752711E-24
   5.60000017E-02   1.85704736E-23
   6.40000030E-02   7.99099452E-24
   7.19999969E-02  -1.04324488E-23
   7.99999982E-02  -1.57818361E-23
   8.79999995E-02  -5.14147392E-24
   9.60000008E-02   9.32316917E-24
  0.104000002       1.60295526E-23
  0.112000003       1.04881700E-23
  0.119999997      -3.33051592E-24
  0.128000006      -1.35918935E-23
  0.136000007      -1.16579395E-23
  0.143999994      -3.10408661E-24
  0.151999995       2.10829979E-24
  0.159999996       5.67529373E-24
  0.167999998       1.26339837E-23
  0.175999999       1.46693308E-23
  0.184000000       2.74795476E-24
  0.192000002      -1.01765810E-23
  0.200000003      -4.33462935E-24
  0.208000004       1.37126413E-23
  0.216000006       2.02239418E-23
  0.224000007       1.19279697E-23
  0.231999993       5.18816305E-24
  0.239999995       2.96515538E-24
  0.247999996      -4.14485821E-24
  0.256000012      -9.08607861E-24
  0.263999999       2.06103362E-24
  0.272000015       1.56777175E-23
  0.280000001       7.16697487E-24
  0.287999988      -1.04159103E-23
  0.296000004      -7.25429241E-25
  0.303999990       3.05280051E-23
  0.312000006       3.49094459E-23
  0.319999993      -3.15989753E-24
  0.328000009      -3.81470983E-23
  0.335999995      -2.93000516E-23
  0.344000012       4.94669785E-24
  0.351999998       1.89016989E-23
  0.360000014      -3.26503592E-24
  0.368000001      -3.79637859E-23
  0.375999987      -5.02524150E-23
  0.384000003      -2.82641605E-23
  0.391999990      -6.28099415E-24
  0.400000006      -3.96897284E-23
  0.407999992      -1.31498089E-22
  0.416000009      -2.07375136E-22
  0.423999995      -2.01502805E-22
  0.432000011      -1.39821758E-22
  0.439999998      -8.93467585E-23
  0.448000014      -5.50434891E-23
  0.456000000       5.65652081E-24
  0.463999987       8.65701827E-23
  0.472000003       1.31567358E-22
  0.479999989       1.30945596E-22
  0.488000005       1.44434676E-22
  0.495999992       2.10117179E-22
  0.504000008       2.87486713E-22
  0.512000024       3.10090569E-22
  0.519999981       2.55650458E-22
  0.527999997       1.54783105E-22
  0.536000013       6.47077168E-23
  0.544000030       3.64053502E-23
  0.551999986       7.33786234E-23
  0.560000002       1.20536255E-22
  0.568000019       1.17710038E-22
  0.575999975       5.89506036E-23
  0.583999991      -1.45594441E-23
  0.592000008      -5.85455771E-23
  0.600000024      -5.16792845E-23
  0.607999980      -1.88921458E-23
  0.615999997      -4.59355977E-23
  0.624000013      -2.13272017E-22
  0.632000029      -4.73305890E-22
  0.639999986      -6.47997358E-22
  0.648000002      -6.07168947E-22
  0.656000018      -4.11476109E-22
  0.663999975      -2.25519303E-22
  0.671999991      -1.29150856E-22
  0.680000007      -7.35370645E-23
  0.688000023       1.24547711E-23
  0.695999980       1.45605434E-22
  0.703999996       3.02010311E-22
  0.712000012       4.36349436E-22
  0.720000029       4.78303709E-22
  0.727999985       3.68823649E-22
  0.736000001       1.28605898E-22
  0.744000018      -1.36428483E-22
  0.751999974      -3.23339217E-22
  0.759999990      -4.18146212E-22
  0.768000007      -4.79321226E-22
  0.776000023      -5.34586221E-22
  0.783999979      -5.16416167E-22
  0.791999996      -3.21989293E-22
  0.800000012       6.52357992E-23
  0.808000028       5.38497759E-22
  0.815999985       9.56594696E-22
  0.824000001       1.24354407E-21
  0.832000017       1.39705757E-21
  0.839999974       1.43711524E-21
  0.847999990       1.36739175E-21
  0.856000006       1.16103351E-21
  0.864000022       7.68048912E-22
  0.871999979       1.68118161E-22
  0.879999995      -5.61747573E-22
  0.888000011      -1.25625329E-21
  0.896000028      -1.76007919E-21
  0.903999984      -2.00714083E-21
  0.912000000      -2.01186158E-21
  0.920000017      -1.82174958E-21
  0.927999973      -1.48467146E-21
  0.935999990      -1.02082701E-21
  0.944000006      -4.14382701E-22
  0.952000022       3.27722002E-22
  0.959999979       1.09479293E-21
  0.967999995       1.69073879E-21
  0.976000011       1.95769417E-21
  0.984000027       1.86240603E-21
  0.991999984       1.46308227E-21
   1.00000000       8.38385164E-22
   1.00800002       6.95200333E-23
   1.01600003      -7.48652980E-22
   1.02400005      -1.51722928E-21
   1.03199995      -2.14339905E-21
   1.03999996      -2.52351156E-21
   1.04799998      -2.53796622E-21
   1.05599999      -2.10297302E-21
   1.06400001      -1.24342482E-21
   1.07200003      -1.02625540E-22
   1.08000004       1.13227465E-21
   1.08800006       2.30876429E-21
   1.09599996       3.30870730E-21
   1.10399997       4.00152135E-21
   1.11199999       4.25401218E-21
   1.12000000       4.00386113E-21
   1.12800002       3.28596892E-21
   1.13600004       2.17367333E-21
   1.14400005       7.47943788E-22
   1.15199995      -8.44435184E-22
   1.15999997      -2.36541343E-21
   1.16799998      -3.58451327E-21
   1.17600000      -4.37734569E-21
   1.18400002      -4.69123852E-21
   1.19200003      -4.47893462E-21
   1.20000005      -3.74687008E-21
   1.20799994      -2.62926648E-21
   1.21599996      -1.32589934E-21
   1.22399998       1.66785958E-23
   1.23199999       1.29247314E-21
   1.24000001       2.34306219E-21
   1.24800003       2.98476310E-21
   1.25600004       3.13923444E-21
   1.26400006       2.86461168E-21
   1.27199996       2.25691666E-21
   1.27999997       1.39451191E-21
   1.28799999       3.83382639E-22
   1.29600000      -6.20401009E-22
   1.30400002      -1.46145043E-21
   1.31200004      -2.02086827E-21
   1.32000005      -2.21131752E-21
   1.32799995      -2.00179405E-21
   1.33599997      -1.46018542E-21
   1.34399998      -7.22513992E-22
   1.35200000       9.37488358E-23
   1.36000001       9.18533381E-22
   1.36800003       1.68794807E-21
   1.37600005       2.32390940E-21
   1.38399994       2.75060091E-21
   1.39199996       2.89206758E-21
   1.39999998       2.67457885E-21
   1.40799999       2.09274352E-21
   1.41600001       1.27017420E-21
   1.42400002       3.96725394E-22
   1.43200004      -4.04421622E-22
   1.44000006      -1.11394602E-21
   1.44799995      -1.74018990E-21
   1.45599997      -2.26431282E-21
   1.46399999      -2.65421397E-21
   1.47200000      -2.86733516E-21
   1.48000002      -2.83323254E-21
   1.48800004      -2.50024367E-21
   1.49600005      -1.92593779E-21
   1.50399995      -1.27058809E-21
   1.51199996      -6.67241424E-22
   1.51999998      -1.28043182E-22
   1.52800000       4.01485974E-22
   1.53600001       9.30687645E-22
   1.54400003       1.39434459E-21
   1.55200005       1.70951959E-21
   1.55999994       1.83248375E-21
   1.56799996       1.77421335E-21
   1.57599998       1.58755973E-21
   1.58399999       1.33615629E-21
   1.59200001       1.05570592E-21
   1.60000002       7.41445038E-22
   1.60800004       3.81866107E-22
   1.61600006       2.69557637E-24
   1.62399995      -3.34050736E-22
   1.63199997      -5.76887593E-22
   1.63999999      -7.19711908E-22
   1.64800000      -7.84871061E-22
   1.65600002      -7.84364272E-22
   1.66400003      -7.10296468E-22
   1.67200005      -5.52910008E-22
   1.67999995      -3.10770857E-22
   1.68799996       7.57026423E-24
   1.69599998       3.69323295E-22
   1.70400000       7.12215432E-22
   1.71200001       9.80397747E-22
   1.72000003       1.16048462E-21
   1.72800004       1.25376519E-21
   1.73599994       1.22327391E-21
   1.74399996       1.00990019E-21
   1.75199997       5.99296696E-22
   1.75999999       3.23421107E-23
   1.76800001      -6.44268886E-22
   1.77600002      -1.38383702E-21
   1.78400004      -2.09383162E-21
   1.79200006      -2.64594459E-21
   1.79999995      -2.95369395E-21
   1.80799997      -2.99664776E-21
   1.81599998      -2.75841571E-21
   1.82400000      -2.19725182E-21
   1.83200002      -1.30634185E-21
   1.84000003      -1.66541714E-22
   1.84800005       1.07925148E-21
   1.85599995       2.27326277E-21
   1.86399996       3.26070760E-21
   1.87199998       3.90912552E-21
   1.88000000       4.13974170E-21
   1.88800001       3.92925614E-21
   1.89600003       3.28674400E-21
   1.90400004       2.25717213E-21
   1.91199994       9.46543522E-22
   1.91999996      -4.80662517E-22
   1.92799997      -1.83102709E-21
   1.93599999      -2.91285029E-21
   1.94400001      -3.58068675E-21
   1.95200002      -3.78371315E-21
   1.96000004      -3.54933911E-21
   1.96800005      -2.90763295E-21
   1.97599995      -1.88088977E-21
   1.98399997      -5.74820147E-22
   1.99199998       7.81238161E-22
   2.00000000       1.94360726E-21
   2.00799990       2.77620090E-21
   2.01600003       3.23570094E-21
   2.02399993       3.29696905E-21
   2.03200006       2.95960922E-21
   2.03999996       2.29336229E-21
   2.04800010       1.40712984E-21
   2.05599999       3.81971019E-22
   2.06399989      -7.16129141E-22
   2.07200003      -1.77026365E-21
   2.07999992      -2.61697025E-21
   2.08800006      -3.13329311E-21
   2.09599996      -3.29589146E-21
   2.10400009      -3.15005523E-21
   2.11199999      -2.74645390E-21
   2.11999989      -2.12391183E-21
   2.12800002      -1.33678991E-21
   2.13599992      -4.63755347E-22
   2.14400005       4.28856343E-22
   2.15199995       1.31186120E-21
   2.16000009       2.15275612E-21
   2.16799998       2.86432229E-21
   2.17600012       3.33330543E-21
   2.18400002       3.49742666E-21
   2.19199991       3.35477860E-21
   2.20000005       2.90495168E-21
   2.20799994       2.13969955E-21
   2.21600008       1.10483188E-21
   2.22399998      -8.03908963E-23
   2.23200011      -1.28257141E-21
   2.24000001      -2.38910319E-21
   2.24799991      -3.27848189E-21
   2.25600004      -3.81798258E-21
   2.26399994      -3.92088094E-21
   2.27200007      -3.56938895E-21
   2.27999997      -2.77456047E-21
   2.28800011      -1.57235008E-21
   2.29600000      -8.53977082E-23
   2.30399990       1.46084933E-21
   2.31200004       2.81969049E-21
   2.31999993       3.80301295E-21
   2.32800007       4.28788700E-21
   2.33599997       4.20887146E-21
   2.34400010       3.58150666E-21
   2.35200000       2.50360632E-21
   2.35999990       1.10894719E-21
   2.36800003      -4.58461573E-22
   2.37599993      -2.01725461E-21
   2.38400006      -3.34103217E-21
   2.39199996      -4.22150414E-21
   2.40000010      -4.54419707E-21
   2.40799999      -4.30323104E-21
   2.41599989      -3.56648251E-21
   2.42400002      -2.44478036E-21
   2.43199992      -1.08176918E-21
   2.44000006       3.54662775E-22
   2.44799995       1.69325194E-21
   2.45600009       2.78656873E-21
   2.46399999       3.52860184E-21
   2.47199988       3.85664640E-21
   2.48000002       3.75204643E-21
   2.48799992       3.25089372E-21
   2.49600005       2.44601245E-21
   2.50399995       1.46077552E-21
   2.51200008       4.15344152E-22
   2.51999998      -5.84762722E-22
   2.52800012      -1.44968784E-21
   2.53600001      -2.11908729E-21
   2.54399991      -2.56892470E-21
   2.55200005      -2.78697444E-21
   2.55999994      -2.75018833E-21
   2.56800008      -2.44511237E-21
   2.57599998      -1.90188129E-21
   2.58400011      -1.18704578E-21
   2.59200001      -3.69479931E-22
   2.59999990       4.87336305E-22
   2.60800004       1.30855096E-21
   2.61599994       2.00954139E-21
   2.62400007       2.51805108E-21
   2.63199997       2.78427621E-21
   2.64000010       2.77506635E-21
   2.64800000       2.47237358E-21
   2.65599990       1.87854474E-21
   2.66400003       1.02488657E-21
   2.67199993      -1.11775145E-23
   2.68000007      -1.09812528E-21
   2.68799996      -2.08418152E-21
   2.69600010      -2.85118696E-21
   2.70400000      -3.32437406E-21
   2.71199989      -3.44154875E-21
   2.72000003      -3.15705174E-21
   2.72799993      -2.49122506E-21
   2.73600006      -1.54205530E-21
   2.74399996      -4.30349246E-22
   2.75200009       7.39267176E-22
   2.75999999       1.85522657E-21
   2.76799989       2.78025178E-21
   2.77600002       3.38573123E-21
   2.78399992       3.58931358E-21
   2.79200006       3.35762546E-21
   2.79999995       2.71260170E-21
   2.80800009       1.75203841E-21
   2.81599998       6.29300067E-22
   2.82399988      -5.08385134E-22
   2.83200002      -1.54445122E-21
   2.83999991      -2.36673680E-21
   2.84800005      -2.86862339E-21
   2.85599995      -2.99298402E-21
   2.86400008      -2.74270190E-21
   2.87199998      -2.14872947E-21
   2.88000011      -1.27532156E-21
   2.88800001      -2.59774622E-22
   2.89599991       7.12523858E-22
   2.90400004       1.49949670E-21
   2.91199994       2.04054471E-21
   2.92000008       2.30935801E-21
   2.92799997       2.28515975E-21
   2.93600011       1.98282423E-21
   2.94400001       1.46020986E-21
   2.95199990       7.79469043E-22
   2.96000004       5.31854203E-24
   2.96799994      -7.50157647E-22
   2.97600007      -1.33976430E-21
   2.98399997      -1.67329742E-21
   2.99200010      -1.77002111E-21
   3.00000000      -1.70256873E-21
   3.00799990      -1.51793741E-21
   3.01600003      -1.22904034E-21
   3.02399993      -8.53605863E-22
   3.03200006      -4.33554975E-22
   3.03999996      -2.21321427E-23
   3.04800010       3.36627471E-22
   3.05599999       6.19103844E-22
   3.06399989       8.20417613E-22
   3.07200003       9.48972759E-22
   3.07999992       1.02797285E-21
   3.08800006       1.08919260E-21
   3.09599996       1.14087967E-21
   3.10400009       1.14216871E-21
   3.11199999       1.03356369E-21
   3.11999989       7.96962115E-22
   3.12800002       4.66475137E-22
   3.13599992       8.24506374E-23
   3.14400005      -3.38204385E-22
   3.15199995      -7.80907420E-22
   3.16000009      -1.20433145E-21
   3.16799998      -1.54063914E-21
   3.17600012      -1.71699693E-21
   3.18400002      -1.68271872E-21
   3.19199991      -1.42822325E-21
   3.20000005      -9.78410070E-22
   3.20799994      -3.74561558E-22
   3.21600008       3.16620419E-22
   3.22399998       9.82272636E-22
   3.23200011       1.49179398E-21
   3.24000001       1.76245410E-21
   3.24799991       1.77687261E-21
   3.25600004       1.54319924E-21
   3.26399994       1.08231999E-21
   3.27200007       4.57981592E-22
   3.27999997      -2.28355315E-22
   3.28800011      -8.84733683E-22
   3.29600000      -1.43447073E-21
   3.30399990      -1.78251505E-21
   3.31200004      -1.83866801E-21
   3.31999993      -1.59243385E-21
   3.32800007      -1.12348172E-21
   3.33599997      -5.33540583E-22
   3.34400010       9.05956073E-23
   3.35200000       6.58246643E-22
   3.35999990       1.08490947E-21
   3.36800003       1.33214944E-21
   3.37599993       1.39208701E-21
   3.38400006       1.24039004E-21
   3.39199996       8.66533690E-22
   3.40000010       3.51525280E-22
   3.40799999      -1.48941041E-22
   3.41599989      -5.14362907E-22
   3.42400002      -7.10782608E-22
   3.43199992      -7.41266920E-22
   3.44000006      -6.11020759E-22
   3.44799995      -3.55760239E-22
   3.45600009      -4.93710712E-23
   3.46399999       2.42195141E-22
   3.47199988       4.82562599E-22
   3.48000002       6.30194446E-22
   3.48799992       6.21731344E-22
   3.49600005       4.19211893E-22
   3.50399995       6.42765633E-23
   3.51200008      -3.28976934E-22
   3.51999998      -6.39054326E-22
   3.52800012      -8.03827402E-22
   3.53600001      -8.32579400E-22
   3.54399991      -7.54893994E-22
   3.55200005      -5.69455943E-22
   3.55999994      -2.61458342E-22
   3.56800008       1.38252443E-22
   3.57599998       5.42069166E-22
   3.58400011       8.56419105E-22
   3.59200001       1.01859467E-21
   3.59999990       9.88808493E-22
   3.60800004       7.51599206E-22
   3.61599994       3.47860750E-22
   3.62400007      -1.20856469E-22
   3.63199997      -5.46118030E-22
   3.64000010      -8.68457753E-22
   3.64800000      -1.07863797E-21
   3.65599990      -1.17757491E-21
   3.66400003      -1.14183610E-21
   3.67199993      -9.28067567E-22
   3.68000007      -5.23250353E-22
   3.68799996       9.40713375E-25
   3.69600010       5.03462894E-22
   3.70400000       8.64665566E-22
   3.71199989       1.05222988E-21
   3.72000003       1.09043983E-21
   3.72799993       1.00042598E-21
   3.73600006       8.04085189E-22
   3.74399996       5.56105034E-22
   3.75200009       3.17753501E-22
   3.75999999       1.02814886E-22
   3.76799989      -1.07821243E-22
   3.77600002      -2.99013473E-22
   3.78399992      -4.12130775E-22
   3.79200006      -4.13936875E-22
   3.79999995      -3.42578310E-22
   3.80800009      -2.70766042E-22
   3.81599998      -2.43874493E-22
   3.82399988      -2.63115076E-22
   3.83200002      -3.08586306E-22
   3.83999991      -3.61265781E-22
   3.84800005      -4.06008558E-22
   3.85599995      -4.22889298E-22
   3.86400008      -3.85865872E-22
   3.87199998      -2.81636596E-22
   3.88000011      -1.26870076E-22
   3.88800001       5.18659227E-23
   3.89599991       2.54513665E-22
   3.90400004       4.94083401E-22
   3.91199994       7.36950778E-22
   3.92000008       8.91642034E-22
   3.92799997       8.84409959E-22
   3.93600011       7.24757538E-22
   3.94400001       4.73336536E-22
   3.95199990       1.70992606E-22
   3.96000004      -1.66360087E-22
   3.96799994      -5.00981958E-22
   3.97600007      -7.65529101E-22
   3.98399997      -9.06848142E-22
   3.99200010      -9.09894635E-22
   4.00000000      -7.73121855E-22
   4.00799990      -4.87477568E-22
   4.01599979      -5.99032004E-23
   4.02400017       4.51775011E-22
   4.03200006       9.49334853E-22
   4.03999996       1.34966785E-21
   4.04799986       1.62284304E-21
   4.05600023       1.76837886E-21
   4.06400013       1.76887727E-21
   4.07200003       1.59313875E-21
   4.07999992       1.24484896E-21
   4.08799982       7.80956342E-22
   4.09600019       2.74027458E-22
   4.10400009      -2.19507602E-22
   4.11199999      -6.47616433E-22
   4.11999989      -9.52964976E-22
   4.12799978      -1.09881796E-21
   4.13600016      -1.08956701E-21
   4.14400005      -9.53545881E-22
   4.15199995      -7.22038606E-22
   4.15999985      -4.32099735E-22
   4.16800022      -1.28559475E-22
   4.17600012       1.46785722E-22
   4.18400002       3.55038955E-22
   4.19199991       4.54941713E-22
   4.19999981       4.24039116E-22
   4.20800018       2.84397887E-22
   4.21600008       8.27118450E-23
   4.22399998      -1.52132823E-22
   4.23199987      -4.09412095E-22
   4.23999977      -6.67060024E-22
   4.24800014      -8.93150185E-22
   4.25600004      -1.06832446E-21
   4.26399994      -1.17814400E-21
   4.27199984      -1.19611851E-21
   4.28000021      -1.10687096E-21
   4.28800011      -9.36679858E-22
   4.29600000      -7.33005817E-22
   4.30399990      -5.23394292E-22
   4.31199980      -3.13132114E-22
   4.32000017      -1.01763934E-22
   4.32800007       1.20011997E-22
   4.33599997       3.64226218E-22
   4.34399986       6.12678200E-22
   4.35200024       8.15215726E-22
   4.36000013       9.40460433E-22
   4.36800003       9.99802968E-22
   4.37599993       1.00603025E-21
   4.38399982       9.45124532E-22
   4.39200020       8.07435058E-22
   4.40000010       6.09308944E-22
   4.40799999       3.67461810E-22
   4.41599989       9.29208159E-23
   4.42399979      -1.73395123E-22
   4.43200016      -3.63685779E-22
   4.44000006      -4.42919827E-22
   4.44799995      -4.28707809E-22
   4.45599985      -3.40591466E-22
   4.46400023      -1.73987425E-22
   4.47200012       6.15087974E-23
   4.48000002       3.22975028E-22
   4.48799992       5.70405757E-22
   4.49599981       7.82296068E-22
   4.50400019       9.22771672E-22
   4.51200008       9.37477756E-22
   4.51999998       8.03745915E-22
   4.52799988       5.53698718E-22
   4.53599977       2.34475866E-22
   4.54400015      -1.22939693E-22
   4.55200005      -4.84043234E-22
   4.55999994      -7.94629813E-22
   4.56799984      -1.00681623E-21
   4.57600021      -1.10422260E-21
   4.58400011      -1.08846104E-21
   4.59200001      -9.56957698E-22
   4.59999990      -7.10301113E-22
   4.60799980      -3.77551404E-22
   4.61600018      -2.42359369E-23
   4.62400007       2.71597842E-22
   4.63199997       4.59021424E-22
   4.63999987       5.35795084E-22
   4.64799976       5.31355602E-22
   4.65600014       4.71417824E-22
   4.66400003       3.63552973E-22
   4.67199993       2.12293577E-22
   4.67999983       3.71610695E-23
   4.68800020      -1.28307633E-22
   4.69600010      -2.54206375E-22
   4.70400000      -3.31912128E-22
   4.71199989      -3.72491335E-22
   4.71999979      -3.85024479E-22
   4.72800016      -3.66154699E-22
   4.73600006      -3.21614527E-22
   4.74399996      -2.82723886E-22
   4.75199986      -2.77070139E-22
   4.76000023      -2.92278620E-22
   4.76800013      -2.96527639E-22
   4.77600002      -2.84627805E-22
   4.78399992      -2.68112213E-22
   4.79199982      -2.27085337E-22
   4.80000019      -1.16760615E-22
   4.80800009       7.24551576E-23
   4.81599998       2.99065929E-22
   4.82399988       5.19177963E-22
   4.83199978       7.13267785E-22
   4.84000015       8.58788767E-22
   4.84800005       9.16623151E-22
   4.85599995       8.61442167E-22
   4.86399984       7.01426844E-22
   4.87200022       4.62727026E-22
   4.88000011       1.78886630E-22
   4.88800001      -1.04387143E-22
   4.89599991      -3.40448082E-22
   4.90399981      -4.97931225E-22
   4.91200018      -5.48309927E-22
   4.92000008      -4.56778838E-22
   4.92799997      -2.22000706E-22
   4.93599987       8.79253321E-23
   4.94399977       3.80167166E-22
   4.95200014       6.11765292E-22
   4.96000004       7.84217607E-22
   4.96799994       8.79437990E-22
   4.97599983       8.53846484E-22
   4.98400021       6.97556857E-22
   4.99200010       4.51632940E-22
   5.00000000       1.58690339E-22
   5.00799990      -1.59930858E-22
   5.01599979      -4.65883833E-22
   5.02400017      -6.86789322E-22
   5.03200006      -7.66278228E-22
   5.03999996      -7.11067002E-22
   5.04799986      -5.70443319E-22
   5.05600023      -3.85949983E-22
   5.06400013      -1.78650906E-22
   5.07200003       2.50017978E-23
   5.07999992       1.76201991E-22
   5.08799982       2.24184071E-22
   5.09600019       1.56715877E-22
   5.10400009       1.59126987E-23
   5.11199999      -1.35565582E-22
   5.11999989      -2.62201588E-22
   5.12799978      -3.58099912E-22
   5.13600016      -4.10944101E-22
   5.14400005      -3.96070046E-22
   5.15199995      -3.17160959E-22
   5.15999985      -2.22702981E-22
   5.16800022      -1.58855659E-22
   5.17600012      -1.25319743E-22
   5.18400002      -1.02544263E-22
   5.19199991      -1.09094238E-22
   5.19999981      -2.01693533E-22
   5.20800018      -4.11821920E-22
   5.21600008      -6.94692976E-22
   5.22399998      -9.47666052E-22
   5.23199987      -1.07940183E-21
   5.23999977      -1.06368126E-21
   5.24800014      -9.30548301E-22
   5.25600004      -7.16355273E-22
   5.26399994      -4.39511342E-22
   5.27199984      -1.23099599E-22
   5.28000021       1.89567087E-22
   5.28800011       4.60342874E-22
   5.29600000       6.73330269E-22
   5.30399990       8.04729051E-22
   5.31199980       8.03483029E-22
   5.32000017       6.41909119E-22
   5.32800007       3.77026767E-22
   5.33599997       1.26827982E-22
   5.34399986      -1.67350167E-23
   5.35200024      -3.35670917E-23
   5.36000013       5.37308561E-23
   5.36800003       2.26052699E-22
   5.37599993       4.82804785E-22
   5.38399982       8.25723807E-22
   5.39200020       1.22783249E-21
   5.40000010       1.61704268E-21
   5.40799999       1.90577021E-21
   5.41599989       2.04266739E-21
   5.42399979       2.02037855E-21
   5.43200016       1.83848242E-21
   5.44000006       1.49608266E-21
   5.44799995       1.02917242E-21
   5.45599985       5.12990567E-22
   5.46400023       4.76596627E-24
   5.47200012      -4.81593852E-22
   5.48000002      -9.22609810E-22
   5.48799992      -1.24902243E-21
   5.49599981      -1.40349437E-21
   5.50400019      -1.41200377E-21
   5.51200008      -1.35936016E-21
   5.51999998      -1.30520235E-21
   5.52799988      -1.25475746E-21
   5.53599977      -1.19952064E-21
   5.54400015      -1.14721136E-21
   5.55200005      -1.10561978E-21
   5.55999994      -1.06633567E-21
   5.56799984      -1.02078086E-21
   5.57600021      -9.77274110E-22
   5.58400011      -9.44265241E-22
   5.59200001      -9.00294008E-22
   5.59999990      -7.98019972E-22
   5.60799980      -6.07023393E-22
   5.61600018      -3.46104808E-22
   5.62400007      -6.59418991E-23
   5.63199997       1.94370998E-22
   5.63999987       4.25009024E-22
   5.64799976       6.26563869E-22
   5.65600014       7.88609025E-22
   5.66400003       8.90388844E-22
   5.67199993       9.16612549E-22
   5.67999983       8.72618092E-22
   5.68800020       7.87066493E-22
   5.69600010       6.94835552E-22
   5.70400000       6.13098455E-22
   5.71199989       5.39595046E-22
   5.71999979       4.73631482E-22
   5.72800016       4.23600686E-22
   5.73600006       3.89606587E-22
   5.74399996       3.58104733E-22
   5.75199986       3.24153422E-22
   5.76000023       2.99075193E-22
   5.76800013       2.80398476E-22
   5.77600002       2.33124553E-22
   5.78399992       1.23639280E-22
   5.79199982      -3.69425708E-23
   5.80000019      -2.01809641E-22
   5.80800009      -3.33131820E-22
   5.81599998      -4.21344140E-22
   5.82399988      -4.68408187E-22
   5.83199978      -4.73869074E-22
   5.84000015      -4.40348721E-22
   5.84800005      -3.78154220E-22
   5.85599995      -2.97321196E-22
   5.86399984      -2.01418138E-22
   5.87200022      -9.58060967E-23
   5.88000011      -1.69173647E-24
   5.88800001       4.34890434E-23
   5.89599991       6.57466497E-24
   5.90399981      -1.16945133E-22
   5.91200018      -2.99516476E-22
   5.92000008      -4.99923042E-22
   5.92799997      -6.79868298E-22
   5.93599987      -8.07042319E-22
   5.94399977      -8.57625746E-22
   5.95200014      -8.22993011E-22
   5.96000004      -7.05204844E-22
   5.96799994      -5.02287605E-22
   5.97599983      -2.11372364E-22
   5.98400021       1.44622274E-22
   5.99200010       5.05550788E-22
   6.00000000       8.03443952E-22
   6.00799990       9.99933224E-22
   6.01599979       1.08822506E-21
   6.02400017       1.06969771E-21
   6.03200006       9.46590172E-22
   6.03999996       7.38126976E-22
   6.04799986       4.89537391E-22
   6.05600023       2.57141089E-22
   6.06400013       8.61568069E-23
   6.07200003       7.35131934E-25
   6.07999992       6.05866908E-24
   6.08799982       9.37610285E-23
   6.09600019       2.46096582E-22
   6.10400009       4.36104371E-22
   6.11199999       6.23598458E-22
   6.11999989       7.55630348E-22
   6.12799978       7.80354233E-22
   6.13600016       6.66662388E-22
   6.14400005       4.12287032E-22
   6.15199995       3.89092010E-23
   6.15999985      -4.11138678E-22
   6.16800022      -8.74217725E-22
   6.17600012      -1.27598506E-21
   6.18400002      -1.55463810E-21
   6.19199991      -1.67450113E-21
   6.19999981      -1.62054315E-21
   6.20800018      -1.39527578E-21
   6.21600008      -1.03010724E-21
   6.22399998      -5.85978048E-22
   6.23199987      -1.24773132E-22
   6.23999977       3.17163155E-22
   6.24800014       7.16011961E-22
   6.25600004       1.03085273E-21
   6.26399994       1.21092002E-21
   6.27199984       1.23683080E-21
   6.28000021       1.13675891E-21
   6.28800011       9.55699155E-22
   6.29600000       7.26410637E-22
   6.30399990       4.78637328E-22
   6.31199980       2.52760677E-22
   6.32000017       7.82980988E-23
   6.32800007      -5.36549677E-23
   6.33599997      -1.74871315E-22
   6.34399986      -3.00141354E-22
   6.35200024      -4.20626138E-22
   6.36000013      -5.29775810E-22
   6.36800003      -6.31025767E-22
   6.37599993      -7.20691358E-22
   6.38399982      -7.87995607E-22
   6.39200020      -8.33537645E-22
   6.40000010      -8.62728073E-22
   6.40799999      -8.58592372E-22
   6.41599989      -7.88096329E-22
   6.42399979      -6.40643710E-22
   6.43200016      -4.35715974E-22
   6.44000006      -1.92459922E-22
   6.44799995       7.64602549E-23
   6.45599985       3.40204760E-22
   6.46400023       5.59580667E-22
   6.47200012       7.30933120E-22
   6.48000002       8.81171212E-22
   6.48799992       1.00855511E-21
   6.49599981       1.07122757E-21
   6.50400019       1.05019222E-21
   6.51200008       9.79002283E-22
   6.51999998       8.87800370E-22
   6.52799988       7.59086947E-22
   6.53599977       5.66211440E-22
   6.54400015       3.19419626E-22
   6.55200005       4.56344927E-23
   6.55999994      -2.43999853E-22
   6.56799984      -5.36011724E-22
   6.57600021      -7.92128986E-22
   6.58400011      -9.76081807E-22
   6.59200001      -1.08368294E-21
   6.59999990      -1.12173668E-21
   6.60799980      -1.07595841E-21