 -0.239999995       0.00000000    
 -0.231999993       0.00000000    
 -0.224000007       0.00000000    
 -0.216000006       0.00000000    
 -0.208000004       0.00000000    
 -0.200000003       0.00000000    
 -0.192000002       3.66773174E-26
 -0.184000000       2.03277129E-25
 -0.175999999       1.19497846E-25
 -0.167999998      -1.65853312E-24
 -0.159999996      -4.96967974E-24
 -0.151999995      -3.04314828E-24
 -0.143999994       1.23964111E-23
 -0.136000007       3.26840787E-23
 -0.128000006       3.01789215E-23
 -0.119999997      -8.68184892E-24
 -0.112000003      -6.54906139E-23
 -0.104000002      -1.24663739E-22
  -9.60000008E-02  -1.69705261E-22
  -8.79999995E-02  -8.50638685E-23
  -7.99999982E-02   3.03377350E-22
  -7.19999969E-02   8.48213033E-22
  -6.40000030E-02   8.44222633E-22
  -5.60000017E-02  -2.94438862E-22
  -4.80000004E-02  -1.88993645E-21
  -3.99999991E-02  -2.17021941E-21
  -3.20000015E-02  -3.16585027E-22
  -2.40000002E-02   2.04345135E-21
  -1.60000008E-02   2.49279238E-21
  -8.00000038E-03   9.96239992E-22
   1.38777878E-17  -1.85999616E-24
   8.00000038E-03   6.47292003E-22
   1.60000008E-02   5.37205290E-22
   2.40000002E-02  -2.74957320E-21
   3.20000015E-02  -6.58291940E-21
   3.99999991E-02  -4.95004871E-21
   4.80000004E-02   3.30945754E-21
   5.60000017E-02   1.04641530E-20
   6.40000030E-02   7.61359816E-21
   7.19999969E-02  -3.69369627E-21
   7.99999982E-02  -1.12226978E-20
   8.79999995E-02  -5.65664917E-21
   9.60000008E-02   7.67894139E-21
  0.104000002       1.40087367E-20
  0.112000003       5.91396939E-21
  0.119999997      -8.16431223E-21
  0.128000006      -1.38558310E-20
  0.136000007      -7.37634757E-21
  0.143999994       7.11362453E-22
  0.151999995      -1.17738841E-21
  0.159999996      -1.04876695E-20
  0.167999998      -1.15262764E-20
  0.175999999       6.48438555E-21
  0.184000000       3.33920050E-20
  0.192000002       4.42264684E-20
  0.200000003       2.44574430E-20
  0.208000004      -1.27934670E-20
  0.216000006      -3.92562341E-20
  0.224000007      -4.12657531E-20
  0.231999993      -3.18875121E-20
  0.239999995      -3.07826896E-20
  0.247999996      -3.69987968E-20
  0.256000012      -2.89579809E-20
  0.263999999       7.32263899E-21
  0.272000015       5.53960142E-20
  0.280000001       8.05500790E-20
  0.287999988       6.92583140E-20
  0.296000004       5.60809262E-20
  0.303999990       1.04481900E-19
  0.312000006       2.53177522E-19
  0.319999993       4.83200347E-19
  0.328000009       7.49104689E-19
  0.335999995       1.04812024E-18
  0.344000012       1.44957674E-18
  0.351999998       2.04709190E-18
  0.360000014       2.89063766E-18
  0.368000001       3.98512996E-18
  0.375999987       5.36074166E-18
  0.384000003       7.12726940E-18
  0.391999990       9.43978101E-18
  0.400000006       1.24080963E-17
  0.407999992       1.60488077E-17
  0.416000009       2.03281902E-17
  0.423999995       2.52397554E-17
  0.432000011       3.08216231E-17
  0.439999998       3.70881912E-17
  0.448000014       4.39494592E-17
  0.456000000       5.12084290E-17
  0.463999987       5.86390057E-17
  0.472000003       6.60524299E-17
  0.479999989       7.32731741E-17
  0.488000005       8.00563396E-17
  0.495999992       8.60567012E-17
  0.504000008       9.09067126E-17
  0.512000024       9.43328351E-17
  0.519999981       9.61883203E-17
  0.527999997       9.63700685E-17
  0.536000013       9.47207431E-17
  0.544000030       9.10410268E-17
  0.551999986       8.52137843E-17
  0.560000002       7.73091669E-17
  0.568000019       6.75544179E-17
  0.575999975       5.62069491E-17
  0.583999991       4.34818739E-17
  0.592000008       2.96173044E-17
  0.600000024       1.49951566E-17
  0.607999980       1.76048746E-19
  0.615999997      -1.41870094E-17
  0.624000013      -2.74646463E-17
  0.632000029      -3.91050826E-17
  0.639999986      -4.86307489E-17
  0.648000002      -5.56492970E-17
  0.656000018      -5.99325838E-17
  0.663999975      -6.15505623E-17
  0.671999991      -6.09858693E-17
  0.680000007      -5.91497202E-17
  0.688000023      -5.73030296E-17
  0.695999980      -5.69894156E-17
  0.703999996      -6.00569322E-17
  0.712000012      -6.86734609E-17
  0.720000029      -8.51603153E-17
  0.727999985      -1.11650867E-16
  0.736000001      -1.49807346E-16
  0.744000018      -2.00750064E-16
  0.751999974      -2.65049553E-16
  0.759999990      -3.42553226E-16
  0.768000007      -4.32095409E-16
  0.776000023      -5.31346627E-16
  0.783999979      -6.36883491E-16
  0.791999996      -7.44307915E-16
  0.800000012      -8.48320437E-16
  0.808000028      -9.42883301E-16
  0.815999985      -1.02156970E-15
  0.824000001      -1.07795890E-15
  0.832000017      -1.10594276E-15
  0.839999974      -1.10004529E-15
  0.847999990      -1.05588872E-15
  0.856000006      -9.70671911E-16
  0.864000022      -8.43440098E-16
  0.871999979      -6.75181027E-16
  0.879999995      -4.68956350E-16
  0.888000011      -2.30044672E-16
  0.896000028       3.41732465E-17
  0.903999984       3.14674460E-16
  0.912000000       6.01338230E-16
  0.920000017       8.83345250E-16
  0.927999973       1.14955013E-15
  0.935999990       1.38905971E-15
  0.944000006       1.59197418E-15
  0.952000022       1.75001856E-15
  0.959999979       1.85692683E-15
  0.967999995       1.90869684E-15
  0.976000011       1.90383445E-15
  0.984000027       1.84350644E-15
  0.991999984       1.73144112E-15
   1.00000000       1.57358382E-15
   1.00800002       1.37766912E-15
   1.01600003       1.15280147E-15
   1.02400005       9.08982290E-16
   1.03199995       6.56506915E-16
   1.03999996       4.05317124E-16
   1.04799998       1.64464801E-16
   1.05599999      -5.82793409E-17
   1.06400001      -2.56745162E-16
   1.07200003      -4.26610447E-16
   1.08000004      -5.65466120E-16
   1.08800006      -6.72662639E-16
   1.09599996      -7.49059611E-16
   1.10399997      -7.96784571E-16
   1.11199999      -8.18953276E-16
   1.12000000      -8.19274089E-16
   1.12800002      -8.01610170E-16
   1.13600004      -7.69643411E-16
   1.14400005      -7.26668083E-16
   1.15199995      -6.75431378E-16
   1.15999997      -6.18001062E-16
   1.16799998      -5.55752504E-16
   1.17600000      -4.89530833E-16
   1.18400002      -4.19913778E-16
   1.19200003      -3.47453656E-16
   1.20000005      -2.72841647E-16
   1.20799994      -1.97015417E-16
   1.21599996      -1.21244839E-16
   1.22399998      -4.72031742E-17
   1.23199999       2.30127073E-17
   1.24000001       8.69697365E-17
   1.24800003       1.42114711E-16
   1.25600004       1.86064961E-16
   1.26400006       2.16883408E-16
   1.27199996       2.33290714E-16
   1.27999997       2.34823579E-16
   1.28799999       2.21944774E-16
   1.29600000       1.96067574E-16
   1.30400002       1.59456467E-16
   1.31200004       1.15027948E-16
   1.32000005       6.61209536E-17
   1.32799995       1.62714301E-17
   1.33599997      -3.10444126E-17
   1.34399998      -7.27319994E-17
   1.35200000      -1.06407965E-16
   1.36000001      -1.30615299E-16
   1.36800003      -1.44861083E-16
   1.37600005      -1.49530551E-16
   1.38399994      -1.45761188E-16
   1.39199996      -1.35284397E-16
   1.39999998      -1.20190044E-16
   1.40799999      -1.02620060E-16
   1.41600001      -8.44758928E-17
   1.42400002      -6.72193237E-17
   1.43200004      -5.17704949E-17
   1.44000006      -3.84658572E-17
   1.44799995      -2.70743196E-17
   1.45599997      -1.69098713E-17
   1.46399999      -7.04435612E-18
   1.47200000       3.45297634E-18
   1.48000002       1.53316057E-17
   1.48800004       2.90312800E-17
   1.49600005       4.45576586E-17
   1.50399995       6.13849409E-17
   1.51199996       7.84915389E-17
   1.51999998       9.45549232E-17
   1.52800000       1.08167934E-16
   1.53600001       1.17948809E-16
   1.54400003       1.22615087E-16
   1.55200005       1.21167031E-16
   1.55999994       1.13134128E-16
   1.56799996       9.86749907E-17
   1.57599998       7.84702638E-17
   1.58399999       5.35927738E-17
   1.59200001       2.54900173E-17
   1.60000002      -4.04515142E-18
   1.60800004      -3.30782049E-17
   1.61600006      -5.98211460E-17
   1.62399995      -8.27814498E-17
   1.63199997      -1.00750916E-16
   1.63999999      -1.12826840E-16
   1.64800000      -1.18548230E-16
   1.65600002      -1.17989215E-16
   1.66400003      -1.11669634E-16
   1.67200005      -1.00382741E-16
   1.67999995      -8.51165872E-17
   1.68799996      -6.70500759E-17
   1.69599998      -4.74626309E-17
   1.70400000      -2.75383696E-17
   1.71200001      -8.23525384E-18
   1.72000003       9.68687972E-18
   1.72800004       2.56134161E-17
   1.73599994       3.91430005E-17
   1.74399996       5.01933857E-17
   1.75199997       5.89601304E-17
   1.75999999       6.57375785E-17
   1.76800001       7.07956622E-17
   1.77600002       7.43944869E-17
   1.78400004       7.68028001E-17
   1.79200006       7.82063866E-17
   1.79999995       7.85873727E-17
   1.80799997       7.77029049E-17
   1.81599998       7.51485447E-17
   1.82400000       7.04171907E-17
   1.83200002       6.29517930E-17
   1.84000003       5.22496740E-17
   1.84800005       3.80051309E-17
   1.85599995       2.02159104E-17
   1.86399996      -7.71121807E-19
   1.87199998      -2.42406668E-17
   1.88000000      -4.91060899E-17
   1.88800001      -7.39551348E-17
   1.89600003      -9.71618325E-17
   1.90400004      -1.17045792E-16
   1.91199994      -1.32048201E-16
   1.91999996      -1.40892959E-16
   1.92799997      -1.42706152E-16
   1.93599999      -1.37093103E-16
   1.94400001      -1.24189840E-16
   1.95200002      -1.04677821E-16
   1.96000004      -7.97230851E-17
   1.96800005      -5.08403005E-17
   1.97599995      -1.97417142E-17
   1.98399997       1.17832176E-17
   1.99199998       4.19769180E-17
   2.00000000       6.92413038E-17
   2.00799990       9.22585639E-17
   2.01600003       1.10053039E-16
   2.02399993       1.21985265E-16
   2.03200006       1.27718989E-16
   2.03999996       1.27196780E-16
   2.04800010       1.20622164E-16
   2.05599999       1.08425696E-16
   2.06399989       9.12100364E-17
   2.07200003       6.96986156E-17
   2.07999992       4.47179563E-17
   2.08800006       1.72124821E-17
   2.09599996      -1.17378873E-17
   2.10400009      -4.09213594E-17
   2.11199999      -6.90191297E-17
   2.11999989      -9.46470777E-17
   2.12800002      -1.16418696E-16
   2.13599992      -1.33028443E-16
   2.14400005      -1.43343518E-16
   2.15199995      -1.46497538E-16
   2.16000009      -1.41992725E-16
   2.16799998      -1.29806185E-16
   2.17600012      -1.10468952E-16
   2.18400002      -8.50756120E-17
   2.19199991      -5.52041977E-17
   2.20000005      -2.27711391E-17
   2.20799994       1.01268257E-17
   2.21600008       4.13590505E-17
   2.22399998       6.89255525E-17
   2.23200011       9.11633040E-17
   2.24000001       1.06935011E-16
   2.24799991       1.15706606E-16
   2.25600004       1.17514373E-16
   2.26399994       1.12917962E-16
   2.27200007       1.02975112E-16
   2.27999997       8.91521103E-17
   2.28800011       7.31126944E-17
   2.29600000       5.64754718E-17
   2.30399990       4.06593781E-17
   2.31200004       2.68042335E-17
   2.31999993       1.56845720E-17
   2.32800007       7.62983622E-18
   2.33599997       2.53758870E-18
   2.34400010      -2.00729819E-20
   2.35200000      -6.93695840E-19
   2.35999990      -2.97031149E-19
   2.36800003       2.77344069E-19
   2.37599993       2.11234890E-19
   2.38400006      -1.08663853E-18
   2.39199996      -3.91827019E-18
   2.40000010      -8.31615376E-18
   2.40799999      -1.40716177E-17
   2.41599989      -2.07442670E-17
   2.42400002      -2.76960997E-17
   2.43199992      -3.41854722E-17
   2.44000006      -3.94863897E-17
   2.44799995      -4.29664973E-17
   2.45600009      -4.41099356E-17
   2.46399999      -4.25410254E-17
   2.47199988      -3.80917929E-17
   2.48000002      -3.08695367E-17
   2.48799992      -2.12447741E-17
   2.49600005      -9.76262795E-18
   2.50399995       2.92788105E-18
   2.51200008       1.60697685E-17
   2.51999998       2.87809884E-17
   2.52800012       4.01118673E-17
   2.53600001       4.91604390E-17
   2.54399991       5.51512813E-17
   2.55200005       5.74443451E-17
   2.55999994       5.55422135E-17
   2.56800008       4.91573023E-17
   2.57599998       3.83010002E-17
   2.58400011       2.33125586E-17
   2.59200001       4.81349799E-18
   2.59999990      -1.63490147E-17
   2.60800004      -3.91238927E-17
   2.61599994      -6.22723138E-17
   2.62400007      -8.44276649E-17
   2.63199997      -1.04193417E-16
   2.64000010      -1.20234514E-16
   2.64800000      -1.31350776E-16
   2.65599990      -1.36560849E-16
   2.66400003      -1.35201427E-16
   2.67199993      -1.27000613E-16
   2.68000007      -1.12098762E-16
   2.68799996      -9.10412585E-17
   2.69600010      -6.47695191E-17
   2.70400000      -3.45892124E-17
   2.71199989      -2.08418433E-18
   2.72000003       3.10094692E-17
   2.72799993       6.29287842E-17
   2.73600006       9.19980483E-17
   2.74399996       1.16747292E-16
   2.75200009       1.36032194E-16
   2.75999999       1.49126503E-16
   2.76799989       1.55763655E-16
   2.77600002       1.56122122E-16
   2.78399992       1.50762785E-16
   2.79200006       1.40541189E-16
   2.79999995       1.26521033E-16
   2.80800009       1.09886504E-16
   2.81599998       9.18274308E-17
   2.82399988       7.34027833E-17
   2.83200002       5.54390145E-17
   2.83999991       3.85014062E-17
   2.84800005       2.29055063E-17
   2.85599995       8.72026954E-18
   2.86400008      -4.22265528E-18
   2.87199998      -1.62614560E-17
   2.88000011      -2.77776977E-17
   2.88800001      -3.90747912E-17
   2.89599991      -5.03133865E-17
   2.90400004      -6.14928119E-17
   2.91199994      -7.24394356E-17
   2.92000008      -8.27919847E-17
   2.92799997      -9.20088215E-17
   2.93600011      -9.94180437E-17
   2.94400001      -1.04299600E-16
   2.95199990      -1.05972888E-16
   2.96000004      -1.03879300E-16
   2.96799994      -9.76619525E-17
   2.97600007      -8.72287565E-17
   2.98399997      -7.27724585E-17
   2.99200010      -5.47494800E-17
   3.00000000      -3.38526610E-17
   3.00799990      -1.09909589E-17
   3.01600003       1.27559406E-17
   3.02399993       3.62259349E-17
   3.03200006       5.82644517E-17
   3.03999996       7.77728778E-17
   3.04800010       9.37397598E-17
   3.05599999       1.05305174E-16
   3.06399989       1.11846188E-16
   3.07200003       1.13020586E-16
   3.07999992       1.08751136E-16
   3.08800006       9.92031356E-17
   3.09599996       8.47975735E-17
   3.10400009       6.62305848E-17
   3.11199999       4.44439478E-17
   3.11999989       2.05430520E-17
   3.12800002      -4.28617572E-18
   3.13599992      -2.88220463E-17
   3.14400005      -5.18346941E-17
   3.15199995      -7.21464945E-17
   3.16000009      -8.87338150E-17
   3.16799998      -1.00819619E-16
   3.17600012      -1.07908365E-16
   3.18400002      -1.09775159E-16
   3.19199991      -1.06456894E-16
   3.20000005      -9.82603945E-17
   3.20799994      -8.57583206E-17
   3.21600008      -6.97491729E-17
   3.22399998      -5.11949063E-17
   3.23200011      -3.11587224E-17
   3.24000001      -1.07412695E-17
   3.24799991       8.99884246E-18
   3.25600004       2.71324456E-17
   3.26399994       4.29207046E-17
   3.27200007       5.58258703E-17
   3.27999997       6.54934941E-17
   3.28800011       7.17506257E-17
   3.29600000       7.46246747E-17
   3.30399990       7.43337586E-17
   3.31200004       7.12184442E-17
   3.31999993       6.56625896E-17
   3.32800007       5.80691709E-17
   3.33599997       4.88751543E-17
   3.34400010       3.85304170E-17
   3.35200000       2.74284290E-17
   3.35999990       1.58663929E-17
   3.36800003       4.08393420E-18
   3.37599993      -7.67648920E-18
   3.38400006      -1.91626431E-17
   3.39199996      -3.01413498E-17
   3.40000010      -4.03915139E-17
   3.40799999      -4.96544577E-17
   3.41599989      -5.76081732E-17
   3.42400002      -6.39009265E-17
   3.43199992      -6.81994798E-17
   3.44000006      -7.02036193E-17
   3.44799995      -6.96480451E-17
   3.45600009      -6.63409902E-17
   3.46399999      -6.02331283E-17
   3.47199988      -5.14596272E-17
   3.48000002      -4.03297135E-17
   3.48799992      -2.72999629E-17
   3.49600005      -1.29648286E-17
   3.50399995       1.95561110E-18
   3.51200008       1.66647710E-17
   3.51999998       3.03647613E-17
   3.52800012       4.23201616E-17
   3.53600001       5.19034659E-17
   3.54399991       5.86433004E-17
   3.55200005       6.22750071E-17
   3.55999994       6.27667891E-17
   3.56800008       6.03127229E-17
   3.57599998       5.53104805E-17
   3.58400011       4.83288578E-17
   3.59200001       4.00473571E-17
   3.59999990       3.11696048E-17
   3.60800004       2.23457615E-17
   3.61599994       1.41281473E-17
   3.62400007       6.94264848E-18
   3.63199997       1.05266353E-18
   3.64000010      -3.47035106E-18
   3.64800000      -6.73748990E-18
   3.65599990      -8.99255672E-18
   3.66400003      -1.05544789E-17
   3.67199993      -1.17756257E-17
   3.68000007      -1.30046557E-17
   3.68799996      -1.45323276E-17
   3.69600010      -1.65278611E-17
   3.70400000      -1.90026233E-17
   3.71199989      -2.18245914E-17
   3.72000003      -2.47624854E-17
   3.72799993      -2.75183700E-17
   3.73600006      -2.97400348E-17
   3.74399996      -3.10443928E-17
   3.75200009      -3.10736187E-17
   3.75999999      -2.95615624E-17
   3.76799989      -2.63740318E-17
   3.77600002      -2.15179869E-17
   3.78399992      -1.51404112E-17
   3.79200006      -7.52587946E-18
   3.79999995       9.16576710E-19
   3.80800009       9.68268756E-18
   3.81599998       1.82144360E-17
   3.82399988       2.59530101E-17
   3.83200002       3.23989374E-17
   3.83999991       3.71588821E-17
   3.84800005       3.99618630E-17
   3.85599995       4.06598479E-17
   3.86400008       3.92411405E-17
   3.87199998       3.58516588E-17
   3.88000011       3.07886285E-17
   3.88800001       2.44544351E-17
   3.89599991       1.73006777E-17
   3.90400004       9.79040964E-18
   3.91199994       2.36966773E-18
   3.92000008      -4.57112911E-18
   3.92799997      -1.07396052E-17
   3.93600011      -1.59657389E-17
   3.94400001      -2.02005198E-17
   3.95199990      -2.34980042E-17
   3.96000004      -2.59898842E-17
   3.96799994      -2.78564718E-17
   3.97600007      -2.92948893E-17
   3.98399997      -3.04801861E-17
   3.99200010      -3.15168089E-17
   4.00000000      -3.23950365E-17
   4.00799990      -3.29791749E-17
   4.01599979      -3.30348904E-17
   4.02400017      -3.22719950E-17
   4.03200006      -3.03776587E-17
   4.03999996      -2.70446255E-17
   4.04799986      -2.20149173E-17
   4.05600023      -1.51406362E-17
   4.06400013      -6.43915439E-18
   4.07200003       3.87814076E-18
   4.07999992       1.54050511E-17
   4.08799982       2.75586140E-17
   4.09600019       3.96110094E-17
   4.10400009       5.07373596E-17
   4.11199999       6.00828991E-17
   4.11999989       6.68473770E-17
   4.12799978       7.03723377E-17
   4.13600016       7.02080795E-17
   4.14400005       6.61474564E-17
   4.15199995       5.82393980E-17
   4.15999985       4.68025441E-17
   4.16800022       3.24330007E-17
   4.17600012       1.59743250E-17
   4.18400002      -1.56337105E-18
   4.19199991      -1.91050928E-17
   4.19999981      -3.55954049E-17
   4.20800018      -5.00627839E-17
   4.21600008      -6.16823554E-17
   4.22399998      -6.98350673E-17
   4.23199987      -7.41428850E-17
   4.23999977      -7.44773042E-17
   4.24800014      -7.09563934E-17
   4.25600004      -6.39311087E-17
   4.26399994      -5.39455961E-17
   4.27199984      -4.16762776E-17
   4.28000021      -2.78771579E-17
   4.28800011      -1.33398971E-17
   4.29600000       1.15292661E-18
   4.30399990       1.48883494E-17
   4.31199980       2.72675771E-17
   4.32000017       3.78123548E-17
   4.32800007       4.61569131E-17
   4.33599997       5.20591942E-17
   4.34399986       5.54205518E-17
   4.35200024       5.62754595E-17
   4.36000013       5.47477065E-17
   4.36800003       5.10138430E-17
   4.37599993       4.52996330E-17
   4.38399982       3.78865099E-17
   4.39200020       2.90976828E-17
   4.40000010       1.92747972E-17
   4.40799999       8.77623162E-18
   4.41599989      -2.00677966E-18
   4.42399979      -1.26516108E-17
   4.43200016      -2.27340020E-17
   4.44000006      -3.18560356E-17
   4.44799995      -3.96528945E-17
   4.45599985      -4.58000442E-17
   4.46400023      -5.00397684E-17
   4.47200012      -5.22032427E-17
   4.48000002      -5.22013204E-17
   4.48799992      -5.00072403E-17
   4.49599981      -4.56725095E-17
   4.50400019      -3.93644169E-17
   4.51200008      -3.13710398E-17
   4.51999998      -2.20595388E-17
   4.52799988      -1.18342158E-17
   4.53599977      -1.12997369E-18
   4.54400015       9.58381053E-18
   4.55200005       1.98287419E-17
   4.55999994       2.91660972E-17
   4.56799984       3.72326236E-17
   4.57600021       4.37510285E-17
   4.58400011       4.85328604E-17
   4.59200001       5.14848695E-17
   4.59999990       5.26089318E-17
   4.60799980       5.19872593E-17
   4.61600018       4.97590167E-17
   4.62400007       4.60964561E-17
   4.63199997       4.11804622E-17
   4.63999987       3.51774272E-17
   4.64799976       2.82279718E-17
   4.65600014       2.04532384E-17
   4.66400003       1.19679378E-17
   4.67199993       2.88646681E-18
   4.67999983      -6.67319811E-18
   4.68800020      -1.65703616E-17
   4.69600010      -2.66049244E-17
   4.70400000      -3.64856762E-17
   4.71199989      -4.58256438E-17
   4.71999979      -5.41611428E-17
   4.72800016      -6.09757314E-17
   4.73600006      -6.57239664E-17
   4.74399996      -6.78696134E-17
   4.75199986      -6.69487298E-17
   4.76000023      -6.26448892E-17
   4.76800013      -5.48508493E-17
   4.77600002      -4.37034358E-17
   4.78399992      -2.95975546E-17
   4.79199982      -1.31869125E-17
   4.80000019       4.63472399E-18
   4.80800009       2.27854262E-17
   4.81599998       4.00817049E-17
   4.82399988       5.53442394E-17
   4.83199978       6.75040128E-17
   4.84000015       7.56977926E-17
   4.84800005       7.93444151E-17
   4.85599995       7.81931451E-17
   4.86399984       7.23425562E-17
   4.87200022       6.22378435E-17
   4.88000011       4.86469087E-17
   4.88800001       3.26006107E-17
   4.89599991       1.52904204E-17
   4.90399981      -2.05105719E-18
   4.91200018      -1.82480808E-17
   4.92000008      -3.22510872E-17
   4.92799997      -4.32049900E-17
   4.93599987      -5.05297405E-17
   4.94399977      -5.39810392E-17
   4.95200014      -5.36510007E-17
   4.96000004      -4.99159130E-17
   4.96799994      -4.33753231E-17
   4.97599983      -3.48025225E-17
   4.98400021      -2.50815224E-17
   4.99200010      -1.51124806E-17
   5.00000000      -5.71466122E-18
   5.00799990       2.43341585E-18
   5.01599979       8.82244372E-18
   5.02400017       1.31435732E-17
   5.03200006       1.53217027E-17
   5.03999996       1.55113951E-17
   5.04799986       1.40423206E-17
   5.05600023       1.13543170E-17
   5.06400013       7.95763797E-18
   5.07200003       4.40079152E-18
   5.07999992       1.21451693E-18
   5.08799982      -1.15444108E-18
   5.09600019      -2.38088843E-18
   5.10400009      -2.26797373E-18
   5.11199999      -7.56052954E-19
   5.11999989       2.05818770E-18
   5.12799978       5.92261567E-18
   5.13600016       1.04657960E-17
   5.14400005       1.52416498E-17
   5.15199995       1.97584993E-17
   5.15999985       2.35086351E-17
   5.16800022       2.60213336E-17
   5.17600012       2.69229571E-17
   5.18400002       2.59690607E-17
   5.19199991       2.30475150E-17
   5.19999981       1.81832464E-17
   5.20800018       1.15538851E-17
   5.21600008       3.48830460E-18
   5.22399998      -5.57075785E-18
   5.23199987      -1.51163386E-17
   5.23999977      -2.46059150E-17
   5.24800014      -3.34733392E-17
   5.25600004      -4.11546806E-17
   5.26399994      -4.71360336E-17
   5.27199984      -5.09982259E-17
   5.28000021      -5.24385524E-17
   5.28800011      -5.12798345E-17
   5.29600000      -4.74835321E-17
   5.30399990      -4.11629756E-17
   5.31199980      -3.25826344E-17
   5.32000017      -2.21420649E-17
   5.32800007      -1.03525467E-17
   5.33599997       2.19143036E-18
   5.34399986       1.48455048E-17
   5.35200024       2.69457823E-17
   5.36000013       3.78331964E-17
   5.36800003       4.68858114E-17
   5.37599993       5.35699072E-17
   5.38399982       5.74924804E-17
   5.39200020       5.84279092E-17
   5.40000010       5.63207228E-17
   5.40799999       5.12909882E-17
   5.41599989       4.36483026E-17
   5.42399979       3.38875019E-17
   5.43200016       2.26461687E-17
   5.44000006       1.06419805E-17
   5.44799995      -1.37875592E-18
   5.45599985      -1.26771351E-17
   5.46400023      -2.25640213E-17
   5.47200012      -3.04617268E-17
   5.48000002      -3.59676659E-17
   5.48799992      -3.88882322E-17
   5.49599981      -3.92305162E-17
   5.50400019      -3.71725736E-17
   5.51200008      -3.30403300E-17
   5.51999998      -2.72903031E-17
   5.52799988      -2.04719989E-17
   5.53599977      -1.31612079E-17
   5.54400015      -5.89272591E-18
   5.55200005       8.77782663E-19
   5.55999994       6.78837433E-18
   5.56799984       1.15836669E-17
   5.57600021       1.51247874E-17
   5.58400011       1.73786660E-17
   5.59200001       1.83880927E-17
   5.59999990       1.82451724E-17
   5.60799980       1.70801249E-17
   5.61600018       1.50567799E-17
   5.62400007       1.23666876E-17
   5.63199997       9.22369497E-18
   5.63999987       5.85816920E-18
   5.64799976       2.50543330E-18
   5.65600014      -6.07789980E-19
   5.66400003      -3.26854587E-18
   5.67199993      -5.27702808E-18
   5.67999983      -6.45584979E-18
   5.68800020      -6.67426559E-18
   5.69600010      -5.87349148E-18
   5.70400000      -4.08109201E-18
   5.71199989      -1.41866697E-18
   5.71999979       1.89051012E-18
   5.72800016       5.52085528E-18
   5.73600006       9.06322689E-18
   5.74399996       1.20640744E-17
   5.75199986       1.40748322E-17
   5.76000023       1.47025547E-17
   5.76800013       1.36578446E-17
   5.77600002       1.07956070E-17
   5.78399992       6.14282149E-18
   5.79199982      -8.87942198E-20
   5.80000019      -7.50410807E-18
   5.80800009      -1.55428445E-17
   5.81599998      -2.35225036E-17
   5.82399988      -3.07070321E-17
   5.83199978      -3.63871226E-17
   5.84000015      -3.99512122E-17
   5.84800005      -4.09369965E-17
   5.85599995      -3.90690241E-17
   5.86399984      -3.42894918E-17
   5.87200022      -2.67768357E-17
   5.88000011      -1.69385926E-17
   5.88800001      -5.37467096E-18
   5.89599991       7.17536995E-18
   5.90399981       1.98842126E-17
   5.91200018       3.18868266E-17
   5.92000008       4.23409569E-17
   5.92799997       5.05002201E-17
   5.93599987       5.57803357E-17
   5.94399977       5.77970285E-17
   5.95200014       5.63773417E-17
   5.96000004       5.15622803E-17
   5.96799994       4.36071421E-17
   5.97599983       3.29682892E-17
   5.98400021       2.02717235E-17
   5.99200010       6.27400778E-18
   6.00000000      -8.17930583E-18
   6.00799990      -2.22083420E-17
   6.01599979      -3.49686170E-17
   6.02400017      -4.57126145E-17
   6.03200006      -5.38239973E-17
   6.03999996      -5.88394348E-17
   6.04799986      -6.04822420E-17
   6.05600023      -5.86959819E-17
   6.06400013      -5.36428778E-17
   6.07200003      -4.56667358E-17
   6.07999992      -3.52619551E-17
   6.08799982      -2.30689589E-17
   6.09600019      -9.85970091E-18
   6.10400009       3.52612992E-18
   6.11199999       1.62735758E-17
   6.11999989       2.76582595E-17
   6.12799978       3.70701422E-17
   6.13600016       4.40313236E-17
   6.14400005       4.82335963E-17
   6.15199995       4.95737547E-17
   6.15999985       4.81538561E-17
   6.16800022       4.42488953E-17
   6.17600012       3.82680254E-17
   6.18400002       3.07195854E-17
   6.19199991       2.21700005E-17
   6.19999981       1.31939882E-17
   6.20800018       4.32972017E-18
   6.21600008      -3.95162666E-18
   6.22399998      -1.12675325E-17
   6.23199987      -1.73423676E-17
   6.23999977      -2.20150232E-17
   6.24800014      -2.52290401E-17
   6.25600004      -2.70139602E-17
   6.26399994      -2.74720330E-17
   6.27199984      -2.67692885E-17
   6.28000021      -2.51167818E-17
   6.28800011      -2.27380949E-17
   6.29600000      -1.98381866E-17
   6.30399990      -1.65894149E-17
   6.31199980      -1.31331367E-17
   6.32000017      -9.58402725E-18
   6.32800007      -6.03063884E-18
   6.33599997      -2.53624205E-18
   6.34399986       8.54513038E-19
   6.35200024       4.10277572E-18
   6.36000013       7.16133104E-18
   6.36800003       9.96659746E-18
   6.37599993       1.24417237E-17
   6.38399982       1.45065956E-17
   6.39200020       1.60842210E-17
   6.40000010       1.71006357E-17
   6.40799999       1.74893047E-17
   6.41599989       1.72096167E-17
   6.42399979       1.62695425E-17
   6.43200016       1.47308608E-17
   6.44000006       1.26914181E-17
   6.44799995       1.02641203E-17
   6.45599985       7.57260938E-18
   6.46400023       4.75723316E-18
   6.47200012       1.96866442E-18
   6.48000002      -6.56187542E-19
   6.48799992      -3.01565277E-18
   6.49599981      -5.04603045E-18
   6.50400019      -6.71611266E-18
   6.51200008      -8.03087488E-18
   6.51999998      -9.03839162E-18
   6.52799988      -9.81981178E-18
   6.53599977      -1.04620704E-17
   6.54400015      -1.10355828E-17
   6.55200005      -1.15888699E-17
   6.55999994      -1.21471680E-17
   6.56799984      -1.27028323E-17
   6.57600021      -1.32063827E-17
   6.58400011      -1.35711950E-17
   6.59200001      -1.36872856E-17
   6.59999990      -1.34320028E-17
   6.60799980      -1.26786787E-17