 -0.239999995       0.00000000    
 -0.231999993       0.00000000    
 -0.224000007       3.31504785E-38
 -0.216000006       1.32101024E-29
 -0.208000004      -2.42240676E-28
 -0.200000003       5.51262666E-24
 -0.192000002       1.76396367E-23
 -0.184000000       6.25208082E-24
 -0.175999999      -5.17008078E-23
 -0.167999998      -7.81599788E-23
 -0.159999996       3.91397724E-23
 -0.151999995       2.01255974E-22
 -0.143999994       1.14324133E-22
 -0.136000007      -2.50874681E-22
 -0.128000006      -4.28675296E-22
 -0.119999997      -2.77735900E-23
 -0.112000003       5.93654106E-22
 -0.104000002       6.36750751E-22
  -9.60000008E-02  -1.14131803E-22
  -8.79999995E-02  -9.16183813E-22
  -7.99999982E-02  -8.73035115E-22
  -7.19999969E-02   4.56602127E-23
  -6.40000030E-02   9.37516328E-22
  -5.60000017E-02   9.23630054E-22
  -4.80000004E-02   8.53485211E-23
  -3.99999991E-02  -6.91066185E-22
  -3.20000015E-02  -7.68620123E-22
  -2.40000002E-02  -3.36411790E-22
  -1.60000008E-02   1.51060540E-22
  -8.00000038E-03   5.74588562E-22
   1.38777878E-17   8.38521580E-22
   8.00000038E-03   5.56441480E-22
   1.60000008E-02  -3.19774297E-22
   2.40000002E-02  -1.00553790E-21
   3.20000015E-02  -7.40487197E-22
   3.99999991E-02   1.91807755E-22
   4.80000004E-02   9.19856547E-22
   5.60000017E-02   1.05459530E-21
   6.40000030E-02   7.06682147E-22
   7.19999969E-02   6.14291154E-24
   7.99999982E-02  -6.89648002E-22
   8.79999995E-02  -7.02858153E-22
   9.60000008E-02   3.39319494E-23
  0.104000002       5.23483856E-22
  0.112000003      -2.07782476E-23
  0.119999997      -1.02330340E-21
  0.128000006      -1.41538085E-21
  0.136000007      -1.03919462E-21
  0.143999994      -4.48842973E-22
  0.151999995      -1.63192326E-27
  0.159999996       1.77106278E-22
  0.167999998      -1.38578249E-23
  0.175999999      -2.29702008E-22
  0.184000000       1.21817517E-22
  0.192000002       8.21354805E-22
  0.200000003       9.24790853E-22
  0.208000004       4.30591534E-22
  0.216000006       5.64489123E-22
  0.224000007       1.74708664E-21
  0.231999993       2.64144437E-21
  0.239999995       2.12096601E-21
  0.247999996       9.30074227E-22
  0.256000012       2.23728501E-22
  0.263999999      -3.37263558E-22
  0.272000015      -1.65427136E-21
  0.280000001      -3.37044273E-21
  0.287999988      -4.31009244E-21
  0.296000004      -4.16659518E-21
  0.303999990      -3.51243224E-21
  0.312000006      -2.49374740E-21
  0.319999993      -7.56643927E-22
  0.328000009       1.46187331E-21
  0.335999995       3.28849449E-21
  0.344000012       4.33592567E-21
  0.351999998       5.09059308E-21
  0.360000014       5.79257215E-21
  0.368000001       5.70952896E-21
  0.375999987       3.93878447E-21
  0.384000003       6.83401133E-22
  0.391999990      -2.75803665E-21
  0.400000006      -5.30919697E-21
  0.407999992      -6.86175156E-21
  0.416000009      -7.71269100E-21
  0.423999995      -7.73398282E-21
  0.432000011      -6.49119242E-21
  0.439999998      -3.89355772E-21
  0.448000014      -4.18072627E-22
  0.456000000       3.39222932E-21
  0.463999987       7.08559601E-21
  0.472000003       9.97628044E-21
  0.479999989       1.11418320E-20
  0.488000005       9.98464353E-21
  0.495999992       6.57191442E-21
  0.504000008       1.59234964E-21
  0.512000024      -3.71870596E-21
  0.519999981      -7.79710300E-21
  0.527999997      -9.68097131E-21
  0.536000013      -9.66373945E-21
  0.544000030      -8.58599016E-21
  0.551999986      -6.61501546E-21
  0.560000002      -3.37841322E-21
  0.568000019       8.24219898E-22
  0.575999975       4.81587582E-21
  0.583999991       7.73665177E-21
  0.592000008       9.57443303E-21
  0.600000024       1.02160699E-20
  0.607999980       8.90233343E-21
  0.615999997       5.28484522E-21
  0.624000013       3.62563577E-22
  0.632000029      -4.23544544E-21
  0.639999986      -7.48295855E-21
  0.648000002      -9.04975091E-21
  0.656000018      -8.73846120E-21
  0.663999975      -6.60841215E-21
  0.671999991      -3.44449276E-21
  0.680000007      -3.51571248E-22
  0.688000023       2.21975755E-21
  0.695999980       4.54227250E-21
  0.703999996       6.58815471E-21
  0.712000012       7.45712531E-21
  0.720000029       6.23463314E-21
  0.727999985       3.19807250E-21
  0.736000001      -2.64661849E-22
  0.744000018      -2.93868151E-21
  0.751999974      -4.59847434E-21
  0.759999990      -5.49076069E-21
  0.768000007      -5.50447864E-21
  0.776000023      -4.24093844E-21
  0.783999979      -1.68525115E-21
  0.791999996       1.55017474E-21
  0.800000012       4.52758803E-21
  0.808000028       6.31977459E-21
  0.815999985       6.31993049E-21
  0.824000001       4.60576306E-21
  0.832000017       1.93686986E-21
  0.839999974      -8.17524955E-22
  0.847999990      -3.17248201E-21
  0.856000006      -4.95952454E-21
  0.864000022      -6.09004658E-21
  0.871999979      -6.48297474E-21
  0.879999995      -5.89692818E-21
  0.888000011      -3.86000319E-21
  0.896000028      -2.66447881E-22
  0.903999984       3.92499866E-21
  0.912000000       7.18318232E-21
  0.920000017       8.67951085E-21
  0.927999973       8.52728619E-21
  0.935999990       6.87019301E-21
  0.944000006       3.65292087E-21
  0.952000022      -5.29128263E-22
  0.959999979      -4.29996998E-21
  0.967999995      -6.68660697E-21
  0.976000011      -7.82131662E-21
  0.984000027      -8.11067070E-21
  0.991999984      -7.33579714E-21
   1.00000000      -5.04181972E-21
   1.00800002      -1.44261208E-21
   1.01600003       2.48096568E-21
   1.02400005       5.65971919E-21
   1.03199995       7.53361528E-21
   1.03999996       8.07977502E-21
   1.04799998       7.42882184E-21
   1.05599999       5.60895906E-21
   1.06400001       2.73275534E-21
   1.07200003      -7.63064068E-22
   1.08000004      -4.26484469E-21
   1.08800006      -7.14089756E-21
   1.09599996      -8.59707067E-21
   1.10399997      -7.93322995E-21
   1.11199999      -5.41527682E-21
   1.12000000      -2.33072718E-21
   1.12800002       3.87756513E-22
   1.13600004       2.94659930E-21
   1.14400005       5.50304359E-21
   1.15199995       7.14300186E-21
   1.15999997       7.00154186E-21
   1.16799998       5.51893814E-21
   1.17600000       3.48731713E-21
   1.18400002       7.50685793E-22
   1.19200003      -2.87646848E-21
   1.20000005      -6.22806053E-21
   1.20799994      -7.73756781E-21
   1.21599996      -7.19082001E-21
   1.22399998      -5.34289448E-21
   1.23199999      -2.50829859E-21
   1.24000001       1.15515833E-21
   1.24800003       4.57484314E-21
   1.25600004       6.36716218E-21
   1.26400006       6.30463371E-21
   1.27199996       5.22130418E-21
   1.27999997       3.74847759E-21
   1.28799999       1.92500216E-21
   1.29600000      -2.65403025E-22
   1.30400002      -2.65479478E-21
   1.31200004      -4.95626913E-21
   1.32000005      -6.63071937E-21
   1.32799995      -6.96742631E-21
   1.33599997      -5.64078572E-21
   1.34399998      -3.01600654E-21
   1.35200000       1.73014450E-22
   1.36000001       3.23165289E-21
   1.36800003       5.66088847E-21
   1.37600005       7.18599021E-21
   1.38399994       7.61366036E-21
   1.39199996       6.65603199E-21
   1.39999998       4.20640567E-21
   1.40799999       7.89069568E-22
   1.41600001      -2.70044137E-21
   1.42400002      -5.65624851E-21
   1.43200004      -7.70282865E-21
   1.44000006      -8.27352753E-21
   1.44799995      -7.05793958E-21
   1.45599997      -4.66171649E-21
   1.46399999      -1.96466361E-21
   1.47200000       9.19589773E-22
   1.48000002       4.15947973E-21
   1.48800004       7.06762664E-21
   1.49600005       8.50768427E-21
   1.50399995       8.14728798E-21
   1.51199996       6.35276245E-21
   1.51999998       3.28980514E-21
   1.52800000      -7.74552660E-22
   1.53600001      -4.68275709E-21
   1.54400003      -7.06069012E-21
   1.55200005      -7.60753970E-21
   1.55999994      -6.91108917E-21
   1.56799996      -5.36379977E-21
   1.57599998      -3.07034540E-21
   1.58399999      -4.27561752E-22
   1.59200001       2.02000717E-21
   1.60000002       4.08570071E-21
   1.60800004       5.76507325E-21
   1.61600006       6.79366911E-21
   1.62399995       6.73744304E-21
   1.63199997       5.30739720E-21
   1.63999999       2.51451092E-21
   1.64800000      -1.12992670E-21
   1.65600002      -4.58324743E-21
   1.66400003      -6.83775202E-21
   1.67200005      -7.49740028E-21
   1.67999995      -6.63718414E-21
   1.68799996      -4.49059674E-21
   1.69599998      -1.58242882E-21
   1.70400000       1.32009574E-21
   1.71200001       3.75970875E-21
   1.72000003       5.65900106E-21
   1.72800004       6.70057857E-21
   1.73599994       6.32248675E-21
   1.74399996       4.51472391E-21
   1.75199997       1.92047852E-21
   1.75999999      -9.30025557E-22
   1.76800001      -3.72813735E-21
   1.77600002      -5.82799794E-21
   1.78400004      -6.54123483E-21
   1.79200006      -5.94721414E-21
   1.79999995      -4.51921525E-21
   1.80799997      -2.19408365E-21
   1.81599998       1.11884963E-21
   1.82400000       4.40858913E-21
   1.83200002       6.21363940E-21
   1.84000003       6.29068352E-21
   1.84800005       5.50684870E-21
   1.85599995       4.24925427E-21
   1.86399996       2.14633800E-21
   1.87199998      -7.14390820E-22
   1.88000000      -3.44973897E-21
   1.88800001      -5.36313375E-21
   1.89600003      -6.38686063E-21
   1.90400004      -6.48648298E-21
   1.91199994      -5.37101216E-21
   1.91999996      -2.97807053E-21
   1.92799997       1.90559323E-22
   1.93599999       3.30859159E-21
   1.94400001       5.62752579E-21
   1.95200002       6.72954403E-21
   1.96000004       6.56213043E-21
   1.96800005       5.24205478E-21
   1.97599995       2.93134250E-21
   1.98399997      -8.72723821E-25
   1.99199998      -2.94110327E-21
   2.00000000      -5.33908533E-21
   2.00799990      -6.80769321E-21
   2.01600003      -6.87226096E-21
   2.02399993      -5.18634732E-21
   2.03200006      -2.23729091E-21
   2.03999996       7.43693380E-22
   2.04800010       2.91144473E-21
   2.05599999       4.36152869E-21
   2.06399989       5.37662915E-21
   2.07200003       5.74975788E-21
   2.07999992       5.13746975E-21
   2.08800006       3.50518835E-21
   2.09599996       9.96727294E-22
   2.10400009      -2.06590034E-21
   2.11199999      -4.87398283E-21
   2.11999989      -6.41275163E-21
   2.12800002      -6.28477370E-21
   2.13599992      -4.87979774E-21
   2.14400005      -2.74865494E-21
   2.15199995      -2.86971113E-22
   2.16000009       2.05749909E-21
   2.16799998       3.84299631E-21
   2.17600012       4.93148804E-21
   2.18400002       5.33646000E-21
   2.19199991       4.87862078E-21
   2.20000005       3.40394354E-21
   2.20799994       1.21547941E-21
   2.21600008      -1.10881057E-21
   2.22399998      -3.20299419E-21
   2.23200011      -4.87948189E-21
   2.24000001      -5.78945084E-21
   2.24799991      -5.52018659E-21
   2.25600004      -4.01488791E-21
   2.26399994      -1.67257283E-21
   2.27200007       9.20427152E-22
   2.27999997       3.23261941E-21
   2.28800011       4.88295500E-21
   2.29600000       5.66342454E-21
   2.30399990       5.47967614E-21
   2.31200004       4.30021999E-21
   2.31999993       2.27221607E-21
   2.32800007      -1.63197928E-22
   2.33599997      -2.42782397E-21
   2.34400010      -4.10167321E-21
   2.35200000      -4.98903526E-21
   2.35999990      -4.99987665E-21
   2.36800003      -4.16401145E-21
   2.37599993      -2.75490685E-21
   2.38400006      -1.16911458E-21
   2.39199996       4.12405096E-22
   2.40000010       2.07902052E-21
   2.40799999       3.76847493E-21
   2.41599989       4.93448334E-21
   2.42400002       4.90666939E-21
   2.43199992       3.58401567E-21
   2.44000006       1.55878238E-21
   2.44799995      -4.50692315E-22
   2.45600009      -2.04668778E-21
   2.46399999      -3.07127779E-21
   2.47199988      -3.47036517E-21
   2.48000002      -3.37935552E-21
   2.48799992      -3.02383486E-21
   2.49600005      -2.36515191E-21
   2.50399995      -1.14205602E-21
   2.51200008       5.95901085E-22
   2.51999998       2.29890638E-21
   2.52800012       3.39116627E-21
   2.53600001       3.66156345E-21
   2.54399991       3.14140417E-21
   2.55200005       1.98437640E-21
   2.55999994       5.59212464E-22
   2.56800008      -7.21609415E-22
   2.57599998      -1.76493120E-21
   2.58400011      -2.65592165E-21
   2.59200001      -3.16045012E-21
   2.59999990      -2.80989215E-21
   2.60800004      -1.56647197E-21
   2.61599994      -6.76139831E-25
   2.62400007       1.29133031E-21
   2.63199997       2.09735603E-21
   2.64000010       2.37220355E-21
   2.64800000       2.03827925E-21
   2.65599990       1.21135916E-21
   2.66400003       3.29346651E-22
   2.67199993      -2.10884886E-22
   2.68000007      -4.71127826E-22
   2.68799996      -8.52124369E-22
   2.69600010      -1.53253899E-21
   2.70400000      -2.15488183E-21
   2.71199989      -2.18219515E-21
   2.72000003      -1.50474120E-21
   2.72799993      -5.03491621E-22
   2.73600006       4.54383377E-22
   2.74399996       1.29378853E-21
   2.75200009       1.97083818E-21
   2.75999999       2.30668260E-21
   2.76799989       2.23409023E-21
   2.77600002       1.87354369E-21
   2.78399992       1.21480692E-21
   2.79200006       1.12928796E-22
   2.79999995      -1.22099886E-21
   2.80800009      -2.14124022E-21
   2.81599998      -2.24408668E-21
   2.82399988      -1.79235095E-21
   2.83200002      -1.25554617E-21
   2.83999991      -7.88821475E-22
   2.84800005      -3.61332298E-22
   2.85599995      -5.05575195E-24
   2.86400008       3.21186952E-22
   2.87199998       7.86644774E-22
   2.88000011       1.36510721E-21
   2.88800001       1.71993084E-21
   2.89599991       1.60223128E-21
   2.90400004       1.11645048E-21
   2.91199994       4.63746310E-22
   2.92000008      -2.83405967E-22
   2.92799997      -9.71901778E-22
   2.93600011      -1.24395575E-21
   2.94400001      -9.28619189E-22
   2.95199990      -3.99265501E-22
   2.96000004      -2.26942509E-22
   2.96799994      -4.94488358E-22
   2.97600007      -7.08988751E-22
   2.98399997      -4.39816385E-22
   2.99200010       1.98187898E-22
   3.00000000       8.04123660E-22
   3.00799990       1.18025779E-21
   3.01600003       1.33553096E-21
   3.02399993       1.19660319E-21
   3.03200006       6.53434768E-22
   3.03999996      -1.43806415E-22
   3.04800010      -8.14481138E-22
   3.05599999      -1.10025997E-21
   3.06399989      -1.02278853E-21
   3.07200003      -7.39719137E-22
   3.07999992      -4.07329124E-22
   3.08800006      -1.09798899E-22
   3.09599996       2.14384424E-22
   3.10400009       6.59222962E-22
   3.11199999       1.07346203E-21
   3.11999989       1.11170479E-21
   3.12800002       6.94292916E-22
   3.13599992       1.52896566E-22
   3.14400005      -2.42511771E-22
   3.15199995      -6.15319332E-22
   3.16000009      -1.14010227E-21
   3.16799998      -1.63833379E-21
   3.17600012      -1.75352839E-21
   3.18400002      -1.35160191E-21
   3.19199991      -5.64482711E-22
   3.20000005       4.13167881E-22
   3.20799994       1.40411607E-21
   3.21600008       2.20472714E-21
   3.22399998       2.57439125E-21
   3.23200011       2.32307172E-21
   3.24000001       1.48070348E-21
   3.24799991       3.51621357E-22
   3.25600004      -7.40228097E-22
   3.26399994      -1.70848158E-21
   3.27200007      -2.51996373E-21
   3.27999997      -2.89379060E-21
   3.28800011      -2.53634881E-21
   3.29600000      -1.58874133E-21
   3.30399990      -4.59073830E-22
   3.31200004       6.81659176E-22
   3.31999993       1.82668177E-21
   3.32800007       2.71848425E-21
   3.33599997       2.99934135E-21
   3.34400010       2.67367251E-21
   3.35200000       1.97975441E-21
   3.35999990       9.64084759E-22
   3.36800003      -3.90020076E-22
   3.37599993      -1.81681780E-21
   3.38400006      -2.95546402E-21
   3.39199996      -3.63933418E-21
   3.40000010      -3.69398263E-21
   3.40799999      -2.84537065E-21
   3.41599989      -1.19550924E-21
   3.42400002       6.33999861E-22
   3.43199992       2.15840967E-21
   3.44000006       3.36904767E-21
   3.44799995       4.16349123E-21
   3.45600009       4.06520901E-21
   3.46399999       2.88942589E-21
   3.47199988       1.14576955E-21
   3.48000002      -5.61529368E-22
   3.48799992      -2.05176072E-21
   3.49600005      -3.25087272E-21
   3.50399995      -3.88999535E-21
   3.51200008      -3.79118160E-21
   3.51999998      -3.04746545E-21
   3.52800012      -1.76379443E-21
   3.53600001       5.38683826E-25
   3.54399991       1.94401156E-21
   3.55200005       3.51216082E-21
   3.55999994       4.24390062E-21
   3.56800008       3.96821522E-21
   3.57599998       2.80837693E-21
   3.58400011       1.19142261E-21
   3.59200001      -3.58929920E-22
   3.59999990      -1.62705013E-21
   3.60800004      -2.69460345E-21
   3.61599994      -3.47728595E-21
   3.62400007      -3.63579847E-21
   3.63199997      -3.03003246E-21
   3.64000010      -1.88035379E-21
   3.64800000      -4.14976253E-22
   3.65599990       1.25170329E-21
   3.66400003       2.83363967E-21
   3.67199993       3.84243004E-21
   3.68000007       3.93659858E-21
   3.68799996       3.11693388E-21
   3.69600010       1.65741438E-21
   3.70400000       9.24049024E-24
   3.71199989      -1.41141327E-21
   3.72000003      -2.48875402E-21
   3.72799993      -3.25427333E-21
   3.73600006      -3.48030790E-21
   3.74399996      -2.84008101E-21
   3.75200009      -1.49717389E-21
   3.75999999      -4.32516594E-23
   3.76799989       1.18653111E-21
   3.77600002       2.22687744E-21
   3.78399992       2.94426619E-21
   3.79200006       3.00227405E-21
   3.79999995       2.39846330E-21
   3.80800009       1.47749604E-21
   3.81599998       4.04224874E-22
   3.82399988      -8.56473833E-22
   3.83200002      -2.08725881E-21
   3.83999991      -2.85474792E-21
   3.84800005      -2.95789003E-21
   3.85599995      -2.45804514E-21
   3.86400008      -1.42614975E-21
   3.87199998      -3.58225429E-23
   3.88000011       1.29102416E-21
   3.88800001       2.17051284E-21
   3.89599991       2.50618843E-21
   3.90400004       2.29007214E-21
   3.91199994       1.50683197E-21
   3.92000008       4.19885972E-22
   3.92799997      -4.51944193E-22
   3.93600011      -8.71179815E-22
   3.94400001      -1.06993278E-21
   3.95199990      -1.28364890E-21
   3.96000004      -1.43126712E-21
   3.96799994      -1.32462181E-21
   3.97600007      -8.85557329E-22
   3.98399997      -1.50425501E-22
   3.99200010       6.46541108E-22
   4.00000000       1.05134272E-21
   4.00799990       7.20112271E-22
   4.01599979      -3.11140802E-22
   4.02400017      -1.84868566E-21
   4.03200006      -3.81309502E-21
   4.03999996      -6.11839529E-21
   4.04799986      -8.57747925E-21
   4.05600023      -1.11543722E-20
   4.06400013      -1.40731695E-20
   4.07200003      -1.75436607E-20
   4.07999992      -2.16438706E-20
   4.08799982      -2.65301121E-20
   4.09600019      -3.23944898E-20
   4.10400009      -3.90799186E-20
   4.11199999      -4.60202225E-20
   4.11999989      -5.26437549E-20
   4.12799978      -5.85947992E-20
   4.13600016      -6.35344633E-20
   4.14400005      -6.69702291E-20
   4.15199995      -6.83431162E-20
   4.15999985      -6.71822070E-20
   4.16800022      -6.32458613E-20
   4.17600012      -5.66363909E-20
   4.18400002      -4.77214422E-20
   4.19199991      -3.69029925E-20
   4.19999981      -2.45407621E-20
   4.20800018      -1.10336620E-20
   4.21600008       3.21315421E-21
   4.22399998       1.78608586E-20
   4.23199987       3.25171646E-20
   4.23999977       4.66546377E-20
   4.24800014       5.98006153E-20
   4.25600004       7.16164315E-20
   4.26399994       8.16061948E-20
   4.27199984       8.90157233E-20
   4.28000021       9.32837232E-20
   4.28800011       9.43787876E-20
   4.29600000       9.24616349E-20
   4.30399990       8.74735032E-20
   4.31199980       7.93379299E-20
   4.32000017       6.84122375E-20
   4.32800007       5.55492236E-20
   4.33599997       4.18251954E-20
   4.34399986       2.82389477E-20
   4.35200024       1.54532363E-20
   4.36000013       3.75631077E-21
   4.36800003      -6.60728568E-21
   4.37599993      -1.51720305E-20
   4.38399982      -2.15488175E-20
   4.39200020      -2.58796266E-20
   4.40000010      -2.87410431E-20
   4.40799999      -3.06542634E-20
   4.41599989      -3.18502728E-20
   4.42399979      -3.23452370E-20
   4.43200016      -3.19960149E-20
   4.44000006      -3.05407458E-20
   4.44799995      -2.77128640E-20
   4.45599985      -2.32693516E-20
   4.46400023      -1.69673032E-20
   4.47200012      -8.75415017E-21
   4.48000002       9.95019416E-22
   4.48799992       1.16086083E-20
   4.49599981       2.24191779E-20
   4.50400019       3.27499675E-20
   4.51200008       4.18098376E-20
   4.51999998       4.89621226E-20
   4.52799988       5.40039662E-20
   4.53599977       5.69063814E-20
   4.54400015       5.74747514E-20
   4.55200005       5.56438776E-20
   4.55999994       5.19666559E-20
   4.56799984       4.73941662E-20
   4.57600021       4.25820947E-20
   4.58400011       3.76969793E-20
   4.59200001       3.28446861E-20
   4.59999990       2.83538838E-20
   4.60799980       2.45215285E-20
   4.61600018       2.12324274E-20
   4.62400007       1.79718171E-20
   4.63199997       1.42552849E-20
   4.63999987       1.00418054E-20
   4.64799976       5.70085406E-21
   4.65600014       1.62667370E-21
   4.66400003      -2.00096888E-21
   4.67199993      -5.12695147E-21
   4.67999983      -7.70234720E-21
   4.68800020      -9.68171852E-21
   4.69600010      -1.09579548E-20
   4.70400000      -1.13055443E-20
   4.71199989      -1.05967047E-20
   4.71999979      -9.07378358E-21
   4.72800016      -7.23718816E-21
   4.73600006      -5.51241238E-21
   4.74399996      -4.16403649E-21
   4.75199986      -3.37295860E-21
   4.76000023      -3.16300820E-21
   4.76800013      -3.38174941E-21
   4.77600002      -3.92126221E-21
   4.78399992      -4.76599457E-21
   4.79199982      -5.71187560E-21
   4.80000019      -6.37632821E-21
   4.80800009      -6.67993864E-21
   4.81599998      -6.93692726E-21
   4.82399988      -7.23441339E-21
   4.83199978      -7.13316051E-21
   4.84000015      -6.28445583E-21
   4.84800005      -4.95943891E-21
   4.85599995      -3.63111407E-21
   4.86399984      -2.35023984E-21
   4.87200022      -8.65485275E-22
   4.88000011       8.69758301E-22
   4.88800001       2.59938054E-21
   4.89599991       4.04132700E-21
   4.90399981       5.09073081E-21
   4.91200018       5.85414824E-21
   4.92000008       6.55429402E-21
   4.92799997       7.30387637E-21
   4.93599987       7.97410592E-21
   4.94399977       8.37235785E-21
   4.95200014       8.47953024E-21
   4.96000004       8.43792645E-21
   4.96799994       8.44388070E-21
   4.97599983       8.75479640E-21
   4.98400021       9.62518912E-21
   4.99200010       1.10821191E-20
   5.00000000       1.28662879E-20
   5.00799990       1.46712033E-20
   5.01599979       1.63255597E-20
   5.02400017       1.76953417E-20
   5.03200006       1.85282560E-20
   5.03999996       1.84522346E-20
   5.04799986       1.71133119E-20
   5.05600023       1.43990092E-20
   5.06400013       1.05752578E-20
   5.07200003       6.08888699E-21
   5.07999992       1.22136772E-21
   5.08799982      -3.87605445E-21
   5.09600019      -8.82131497E-21
   5.10400009      -1.29877534E-20
   5.11199999      -1.59228019E-20
   5.11999989      -1.74893511E-20
   5.12799978      -1.75349591E-20
   5.13600016      -1.57706007E-20
   5.14400005      -1.21388335E-20
   5.15199995      -7.08183977E-21
   5.15999985      -1.35201157E-21
   5.16800022       4.28599676E-21
   5.17600012       9.19687112E-21
   5.18400002       1.29672872E-20
   5.19199991       1.54158630E-20
   5.19999981       1.64370594E-20
   5.20800018       1.59298459E-20
   5.21600008       1.39721145E-20
   5.22399998       1.09239645E-20
   5.23199987       7.29557225E-21
   5.23999977       3.69062301E-21
   5.24800014       8.34349175E-22
   5.25600004      -7.03054144E-22
   5.26399994      -8.73837860E-22
   5.27199984       8.85398989E-23
   5.28000021       2.26652617E-21
   5.28800011       5.94597134E-21
   5.29600000       1.08006427E-20
   5.30399990       1.56400838E-20
   5.31199980       1.91710691E-20
   5.32000017       2.07414068E-20
   5.32800007       2.02886385E-20
   5.33599997       1.79317231E-20
   5.34399986       1.37675408E-20
   5.35200024       7.84841486E-21
   5.36000013       2.83348462E-22
   5.36800003      -8.49074645E-21
   5.37599993      -1.75609685E-20
   5.38399982      -2.58055326E-20
   5.39200020      -3.22925107E-20
   5.40000010      -3.64512033E-20
   5.40799999      -3.81603781E-20
   5.41599989      -3.78642378E-20
   5.42399979      -3.63551857E-20
   5.43200016      -3.42081867E-20
   5.44000006      -3.15688699E-20
   5.44799995      -2.85911101E-20
   5.45599985      -2.58299457E-20
   5.46400023      -2.39947017E-20
   5.47200012      -2.34558485E-20
   5.48000002      -2.41191116E-20
   5.48799992      -2.56232669E-20
   5.49599981      -2.75144376E-20
   5.50400019      -2.93208256E-20
   5.51200008      -3.06038344E-20
   5.51999998      -3.09970780E-20
   5.52799988      -3.02691009E-20
   5.53599977      -2.83906028E-20
   5.54400015      -2.54903251E-20
   5.55200005      -2.17409157E-20
   5.55999994      -1.73934741E-20
   5.56799984      -1.28929556E-20
   5.57600021      -8.73235266E-21
   5.58400011      -5.10776273E-21
   5.59200001      -1.89084602E-21
   5.59999990       9.76274263E-22
   5.60799980       3.20591658E-21
   5.61600018       4.32914142E-21
   5.62400007       3.97403900E-21
   5.63199997       1.94385041E-21
   5.63999987      -1.78988839E-21
   5.64799976      -7.04024567E-21
   5.65600014      -1.34018696E-20
   5.66400003      -2.03307327E-20
   5.67199993      -2.72018797E-20
   5.67999983      -3.33481031E-20
   5.68800020      -3.81322508E-20
   5.69600010      -4.09684366E-20
   5.70400000      -4.12922519E-20
   5.71199989      -3.86999842E-20
   5.71999979      -3.32641119E-20
   5.72800016      -2.56221893E-20
   5.73600006      -1.66641544E-20
   5.74399996      -7.24660623E-21
   5.75199986       1.73876152E-21
   5.76000023       9.29508509E-21
   5.76800013       1.46148500E-20
   5.77600002       1.74078722E-20
   5.78399992       1.78117254E-20
   5.79199982       1.61398383E-20
   5.80000019       1.29458588E-20
   5.80800009       9.19568044E-21
   5.81599998       6.00180806E-21
   5.82399988       4.06746679E-21
   5.83199978       3.55175482E-21
   5.84000015       4.51718607E-21
   5.84800005       7.32326018E-21
   5.85599995       1.24690159E-20
   5.86399984       2.01378752E-20
   5.87200022       3.00067102E-20
   5.88000011       4.15387679E-20
   5.88800001       5.44836792E-20
   5.89599991       6.90676424E-20
   5.90399981       8.56229709E-20
   5.91200018       1.04072802E-19
   5.92000008       1.23930241E-19
   5.92799997       1.44722538E-19
   5.93599987       1.66017786E-19
   5.94399977       1.86816919E-19
   5.95200014       2.05173789E-19
   5.96000004       2.18713456E-19
   5.96799994       2.25465576E-19
   5.97599983       2.24105846E-19
   5.98400021       2.13657534E-19
   5.99200010       1.93323754E-19
   6.00000000       1.62729355E-19
   6.00799990       1.22382134E-19
   6.01599979       7.40542620E-20
   6.02400017       2.06913866E-20
   6.03200006      -3.43283379E-20
   6.03999996      -8.80166959E-20
   6.04799986      -1.37917452E-19
   6.05600023      -1.81763750E-19
   6.06400013      -2.17476330E-19
   6.07200003      -2.43563564E-19
   6.07999992      -2.59292378E-19
   6.08799982      -2.64571909E-19
   6.09600019      -2.59986718E-19
   6.10400009      -2.46801433E-19
   6.11199999      -2.26475770E-19
   6.11999989      -2.00124639E-19
   6.12799978      -1.68649900E-19
   6.13600016      -1.33146016E-19
   6.14400005      -9.47231338E-20
   6.15199995      -5.40457937E-20
   6.15999985      -1.15029691E-20
   6.16800022       3.21552569E-20
   6.17600012       7.56281088E-20
   6.18400002       1.17408194E-19
   6.19199991       1.56004661E-19
   6.19999981       1.89848562E-19
   6.20800018       2.17156081E-19
   6.21600008       2.35865976E-19
   6.22399998       2.43812571E-19
   6.23199987       2.39408171E-19
   6.23999977       2.22448719E-19
   6.24800014       1.94124375E-19
   6.25600004       1.56239658E-19
   6.26399994       1.10754624E-19
   6.27199984       6.01364506E-20
   6.28000021       7.68814377E-21
   6.28800011      -4.28351344E-20
   6.29600000      -8.79275801E-20
   6.30399990      -1.24789036E-19
   6.31199980      -1.51547734E-19
   6.32000017      -1.67357883E-19
   6.32800007      -1.72304552E-19
   6.33599997      -1.67225159E-19
   6.34399986      -1.53640579E-19
   6.35200024      -1.33697526E-19
   6.36000013      -1.09992558E-19
   6.36800003      -8.53959551E-20
   6.37599993      -6.28399935E-20
   6.38399982      -4.48114337E-20
   6.39200020      -3.27562262E-20
   6.40000010      -2.70260973E-20
   6.40799999      -2.73604754E-20
   6.41599989      -3.31622524E-20
   6.42399979      -4.33019163E-20
   6.43200016      -5.59896649E-20
   6.44000006      -6.89942108E-20
   6.44799995      -7.98919147E-20
   6.45599985      -8.62788799E-20
   6.46400023      -8.62554733E-20
   6.47200012      -7.90568759E-20
   6.48000002      -6.52674261E-20
   6.48799992      -4.64990243E-20
   6.49599981      -2.49513506E-20
   6.50400019      -3.09616773E-21
   6.51200008       1.65841409E-20
   6.51999998       3.18160321E-20
   6.52799988       4.07166409E-20
   6.53599977       4.21088375E-20
   6.54400015       3.59907674E-20
   6.55200005       2.38199744E-20
   6.55999994       8.33048183E-21
   6.56799984      -6.97787027E-21
   6.57600021      -1.83535884E-20
   6.58400011      -2.21586693E-20
   6.59200001      -1.51905613E-20
   6.59999990       4.80044494E-21
   6.60799980       3.83809672E-20