 -0.239999995         0.00000000    
 -0.231999993         0.00000000    
 -0.224000007         0.00000000    
 -0.216000006         0.00000000    
 -0.208000004         0.00000000    
 -0.200000003         0.00000000    
 -0.192000002         0.00000000    
 -0.184000000         0.00000000    
 -0.175999999         0.00000000    
 -0.167999998        -0.00000000    
 -0.159999996        -0.00000000    
 -0.151999995         4.19466485E-36
 -0.143999994        -6.88006914E-35
 -0.136000007        -5.93888766E-34
 -0.128000006        -8.47605171E-34
 -0.119999997         5.63444895E-33
 -0.112000003         2.50696358E-32
 -0.104000002         1.99701150E-32
  -9.60000008E-02    -1.16805371E-31
  -8.79999995E-02    -3.66791900E-31
  -7.99999982E-02    -1.92417470E-31
  -7.19999969E-02     1.18309576E-30
  -6.40000030E-02     2.91571612E-30
  -5.60000017E-02     1.06480896E-30
  -4.80000004E-02    -7.41912300E-30
  -3.99999991E-02    -1.53150235E-29
  -3.20000015E-02    -4.31456004E-30
  -2.40000002E-02     3.20394215E-29
  -1.60000008E-02     5.86274983E-29
  -8.00000038E-03     1.51437782E-29
   0.00000000        -1.01032937E-28
   8.00000038E-03    -1.71921940E-28
   1.60000008E-02    -4.69904156E-29
   2.40000002E-02     2.41516165E-28
   3.20000015E-02     3.94185258E-28
   3.99999991E-02     1.15895808E-28
   4.80000004E-02    -4.53843803E-28
   5.60000017E-02    -7.08437249E-28
   6.40000030E-02    -1.91402060E-28
   7.19999969E-02     7.20430062E-28
   7.99999982E-02     1.00337512E-27
   8.79999995E-02     1.20693781E-28
   9.60000008E-02    -1.11418466E-27
  0.104000002        -1.20231791E-27
  0.112000003         2.79009832E-28
  0.119999997         1.84554914E-27
  0.128000006         1.52890334E-27
  0.136000007        -7.64511710E-28
  0.143999994        -2.77354231E-27
  0.151999995        -2.23162780E-27
  0.159999996         4.48194424E-28
  0.167999998         2.48023589E-27
  0.175999999         2.01469894E-27
  0.184000000         5.47589887E-28
  0.192000002         9.98473246E-28
  0.200000003         3.15566568E-27
  0.208000004         2.34036041E-27
  0.216000006        -5.38796698E-27
  0.224000007        -1.60033700E-26
  0.231999993        -1.74560312E-26
  0.239999995        -4.91653274E-28
  0.247999996         2.81819788E-26
  0.256000012         4.52607496E-26
  0.263999999         2.86387693E-26
  0.272000015        -1.91938255E-26
  0.280000001        -6.52510427E-26
  0.287999988        -6.90095088E-26
  0.296000004        -1.87812451E-26
  0.303999990         5.13200518E-26
  0.312000006         8.46604784E-26
  0.319999993         5.11059593E-26
  0.328000009        -2.08860231E-26
  0.335999995        -6.35757487E-26
  0.344000012        -3.15641213E-26
  0.351999998         4.68724910E-26
  0.360000014         8.26455551E-26
  0.368000001         5.72573927E-27
  0.375999987        -1.51038477E-25
  0.384000003        -2.47896113E-25
  0.391999990        -1.42398268E-25
  0.400000006         1.67136379E-25
  0.407999992         4.85472002E-25
  0.416000009         5.31519588E-25
  0.423999995         1.63047479E-25
  0.432000011        -4.56397745E-25
  0.439999998        -9.10589243E-25
  0.448000014        -8.10072389E-25
  0.456000000        -1.10535819E-25
  0.463999987         7.86070211E-25
  0.472000003         1.26706799E-24
  0.479999989         9.43512944E-25
  0.488000005        -3.27421187E-26
  0.495999992        -1.02937947E-24
  0.504000008        -1.36136399E-24
  0.512000024        -7.89242615E-25
  0.519999981         2.86259947E-25
  0.527999997         1.09898530E-24
  0.536000013         1.07629934E-24
  0.544000030         2.69250430E-25
  0.551999986        -6.79270869E-25
  0.560000002        -1.01950628E-24
  0.568000019        -4.73648259E-25
  0.575999975         5.35982273E-25
  0.583999991         1.19601213E-24
  0.592000008         9.23754542E-25
  0.600000024        -1.69613390E-25
  0.607999980        -1.33183781E-24
  0.615999997        -1.70597541E-24
  0.624000013        -9.53824441E-25
  0.632000029         4.91001621E-25
  0.639999986         1.71759533E-24
  0.648000002         1.95736585E-24
  0.656000018         1.08606267E-24
  0.663999975        -3.28248301E-25
  0.671999991        -1.43462126E-24
  0.680000007        -1.65928175E-24
  0.688000023        -1.03227774E-24
  0.695999980        -8.47617176E-26
  0.703999996         5.72671010E-25
  0.712000012         6.73557741E-25
  0.720000029         4.23363307E-25
  0.727999985         2.57395231E-25
  0.736000001         4.31137087E-25
  0.744000018         7.69380034E-25
  0.751999974         7.89782245E-25
  0.759999990         1.30715374E-25
  0.768000007        -1.05194040E-24
  0.776000023        -2.06364435E-24
  0.783999979        -2.10521791E-24
  0.791999996        -8.86212948E-25
  0.800000012         1.05000000E-24
  0.808000028         2.58092155E-24
  0.815999985         2.72476738E-24
  0.824000001         1.32779963E-24
  0.832000017        -7.71378959E-25
  0.839999974        -2.26240377E-24
  0.847999990        -2.23808674E-24
  0.856000006        -8.18872477E-25
  0.864000022         9.41713454E-25
  0.871999979         1.76795266E-24
  0.879999995         1.04997110E-24
  0.888000011        -6.85059333E-25
  0.896000028        -2.10660335E-24
  0.903999984        -2.00903624E-24
  0.912000000        -2.18270442E-25
  0.920000017         2.15895630E-24
  0.927999973         3.47434892E-24
  0.935999990         2.67323208E-24
  0.944000006         1.18973500E-25
  0.952000022        -2.51693724E-24
  0.959999979        -3.52795400E-24
  0.967999995        -2.43422635E-24
  0.976000011        -3.41361191E-25
  0.984000027         1.05437472E-24
  0.991999984         7.55961954E-25
   1.00000000        -4.96041802E-25
   1.00800002        -9.82630584E-25
   1.01600003         5.73898231E-25
   1.02400005         3.46524192E-24
   1.03199995         5.42265511E-24
   1.03999996         4.22670056E-24
   1.04799998        -1.84154155E-25
   1.05599999        -5.38916165E-24
   1.06400001        -8.16456443E-24
   1.07200003        -6.85837880E-24
   1.08000004        -2.79015487E-24
   1.08800006         9.15735771E-25
   1.09599996         1.99500694E-24
   1.10399997         7.99840271E-25
   1.11199999        -3.03057261E-25
   1.12000000         4.30678069E-25
   1.12800002         2.14607539E-24
   1.13600004         1.92839592E-24
   1.14400005        -2.10740404E-24
   1.15199995        -8.08519556E-24
   1.15999997        -1.08237483E-23
   1.16799998        -5.91289627E-24
   1.17600000         5.81381494E-24
   1.18400002         1.70677456E-23
   1.19200003         1.86795746E-23
   1.20000005         6.78713993E-24
   1.20799994        -1.26555078E-23
   1.21599996        -2.67527472E-23
   1.22399998        -2.41790538E-23
   1.23199999        -4.01080116E-24
   1.24000001         2.22490077E-23
   1.24800003         3.76208365E-23
   1.25600004         3.13689782E-23
   1.26400006         6.93585914E-24
   1.27199996        -1.99174646E-23
   1.27999997        -3.17791290E-23
   1.28799999        -2.16330667E-23
   1.29600000         2.35688209E-24
   1.30400002         2.28952410E-23
   1.31200004         2.59571951E-23
   1.32000005         1.06012658E-23
   1.32799995        -1.09223125E-23
   1.33599997        -2.23938505E-23
   1.34399998        -1.54615270E-23
   1.35200000         4.68598406E-24
   1.36000001         2.35739596E-23
   1.36800003         2.81713904E-23
   1.37600005         1.60249267E-23
   1.38399994        -3.68351382E-24
   1.39199996        -1.71599651E-23
   1.39999998        -1.60032031E-23
   1.40799999        -2.57022952E-24
   1.41600001         1.27076065E-23
   1.42400002         1.92690667E-23
   1.43200004         1.37394484E-23
   1.44000006         1.43671421E-24
   1.44799995        -8.35464283E-24
   1.45599997        -9.61843981E-24
   1.46399999        -3.20222169E-24
   1.47200000         5.03899339E-24
   1.48000002         9.71001079E-24
   1.48800004         9.89996218E-24
   1.49600005         8.95591814E-24
   1.50399995         1.04326208E-23
   1.51199996         1.35826449E-23
   1.51999998         1.28578096E-23
   1.52800000         2.71387735E-24
   1.53600001        -1.67334627E-23
   1.54400003        -3.71140912E-23
   1.55200005        -4.68933853E-23
   1.55999994        -3.77483164E-23
   1.56799996        -1.19668006E-23
   1.57599998         1.79337934E-23
   1.58399999         3.53685534E-23
   1.59200001         3.20121365E-23
   1.60000002         1.47491225E-23
   1.60800004        -6.03242970E-25
   1.61600006        -1.59621875E-26
   1.62399995         1.68854351E-23
   1.63199997         3.60190955E-23
   1.63999999         3.95814840E-23
   1.64800000         1.79630728E-23
   1.65600002        -2.29028535E-23
   1.66400003        -6.13747100E-23
   1.67200005        -7.81958246E-23
   1.67999995        -6.31252681E-23
   1.68799996        -2.54673535E-23
   1.69599998         1.93465045E-23
   1.70400000         5.34870476E-23
   1.71200001         7.08935412E-23
   1.72000003         8.09417926E-23
   1.72800004         9.31382322E-23
   1.73599994         1.11248118E-22
   1.74399996         1.27024920E-22
   1.75199997         1.26740589E-22
   1.75999999         9.91290250E-23
   1.76800001         4.71686757E-23
   1.77600002        -1.60327065E-23
   1.78400004        -6.73873510E-23
   1.79200006        -9.28133415E-23
   1.79999995        -8.94740301E-23
   1.80799997        -6.78095746E-23
   1.81599998        -4.30193399E-23
   1.82400000        -2.66502615E-23
   1.83200002        -1.53142151E-23
   1.84000003         9.70884643E-25
   1.84800005         3.05632199E-23
   1.85599995         7.60035549E-23
   1.86399996         1.23822485E-22
   1.87199998         1.52900328E-22
   1.88000000         1.48983993E-22
   1.88800001         1.08127359E-22
   1.89600003         3.98234182E-23
   1.90400004        -4.14716673E-23
   1.91199994        -1.21381737E-22
   1.91999996        -1.88470192E-22
   1.92799997        -2.36458090E-22
   1.93599999        -2.59240848E-22
   1.94400001        -2.50921735E-22
   1.95200002        -2.07749877E-22
   1.96000004        -1.31528344E-22
   1.96800005        -3.44851334E-23
   1.97599995         6.47981707E-23
   1.98399997         1.47201129E-22
   1.99199998         1.97801874E-22
   2.00000000         2.12199115E-22
   2.00799990         1.92046117E-22
   2.01600003         1.44282003E-22
   2.02399993         7.45411835E-23
   2.03200006        -1.18943035E-23
   2.03999996        -1.04914165E-22
   2.04800010        -1.88906842E-22
   2.05599999        -2.47518046E-22
   2.06399989        -2.66225308E-22
   2.07200003        -2.40182725E-22
   2.07999992        -1.77926025E-22
   2.08800006        -9.59207655E-23
   2.09599996        -8.93602306E-24
   2.10400009         7.66875857E-23
   2.11199999         1.63589519E-22
   2.11999989         2.53160989E-22
   2.12800002         3.32725626E-22
   2.13599992         3.72544750E-22
   2.14400005         3.39157784E-22
   2.15199995         2.16962750E-22
   2.16000009         2.67774669E-23
   2.16799998        -1.78421821E-22
   2.17600012        -3.36253109E-22
   2.18400002        -4.07313245E-22
   2.19199991        -3.91600954E-22
   2.20000005        -3.19092621E-22
   2.20799994        -2.21777755E-22
   2.21600008        -1.11097793E-22
   2.22399998         2.31017932E-23
   2.23200011         1.90684821E-22
   2.24000001         3.75396110E-22
   2.24799991         5.29439970E-22
   2.25600004         5.93612252E-22
   2.26399994         5.31086556E-22
   2.27200007         3.49978709E-22
   2.27999997         9.93109552E-23
   2.28800011        -1.57216507E-22
   2.29600000        -3.70439741E-22
   2.30399990        -5.18528042E-22
   2.31200004        -6.01339858E-22
   2.31999993        -6.24604363E-22
   2.32800007        -5.89201649E-22
   2.33599997        -4.91796083E-22
   2.34400010        -3.31645026E-22
   2.35200000        -1.15932513E-22
   2.35999990         1.39414126E-22
   2.36800003         4.09981362E-22
   2.37599993         6.62371893E-22
   2.38400006         8.53405631E-22
   2.39199996         9.36440448E-22
   2.40000010         8.75684072E-22
   2.40799999         6.63618470E-22
   2.41599989         3.30488997E-22
   2.42400002        -6.16975624E-23
   2.43199992        -4.38602473E-22
   2.44000006        -7.33713444E-22
   2.44799995        -9.00865522E-22
   2.45600009        -9.16002261E-22
   2.46399999        -7.75835638E-22
   2.47199988        -4.99956666E-22
   2.48000002        -1.36106148E-22
   2.48799992         2.42732198E-22
   2.49600005         5.57227615E-22
   2.50399995         7.51823772E-22
   2.51200008         8.15099454E-22
   2.51999998         7.76416744E-22
   2.52800012         6.78963165E-22
   2.53600001         5.46632443E-22
   2.54399991         3.71127325E-22
   2.55200005         1.31864222E-22
   2.55999994        -1.68204330E-22
   2.56800008        -4.78067682E-22
   2.57599998        -7.10536787E-22
   2.58400011        -7.85946235E-22
   2.59200001        -6.80617779E-22
   2.59999990        -4.43376886E-22
   2.60800004        -1.68463796E-22
   2.61599994         5.49528774E-23
   2.62400007         1.85269083E-22
   2.63199997         2.34704295E-22
   2.64000010         2.42908347E-22
   2.64800000         2.42439524E-22
   2.65599990         2.42352686E-22
   2.66400003         2.38683587E-22
   2.67199993         2.33027315E-22
   2.68000007         2.39707667E-22
   2.68799996         2.70457036E-22
   2.69600010         3.12699742E-22
   2.70400000         3.22526627E-22
   2.71199989         2.46570656E-22
   2.72000003         5.80666124E-23
   2.72799993        -2.17025404E-22
   2.73600006        -5.07762375E-22
   2.74399996        -7.33597021E-22
   2.75200009        -8.42782792E-22
   2.75999999        -8.27906920E-22
   2.76799989        -7.10658713E-22
   2.77600002        -5.12974361E-22
   2.78399992        -2.40488273E-22
   2.79200006         1.07561487E-22
   2.79999995         5.11852739E-22
   2.80800009         9.14321445E-22
   2.81599998         1.22688222E-21
   2.82399988         1.36305986E-21
   2.83200002         1.27380806E-21
   2.83999991         9.63928552E-22
   2.84800005         4.83690884E-22
   2.85599995        -9.45910048E-23
   2.86400008        -6.94352239E-22
   2.87199998        -1.23814670E-21
   2.88000011        -1.64311199E-21
   2.88800001        -1.82414328E-21
   2.89599991        -1.71478398E-21
   2.90400004        -1.29914895E-21
   2.91199994        -6.35416781E-22
   2.92000008         1.47632554E-22
   2.92799997         8.85106580E-22
   2.93600011         1.42773504E-21
   2.94400001         1.68620576E-21
   2.95199990         1.64823603E-21
   2.96000004         1.36471755E-21
   2.96799994         9.17800914E-22
   2.97600007         3.91433968E-22
   2.98399997        -1.42323192E-22
   2.99200010        -6.21135546E-22
   3.00000000        -9.86161455E-22
   3.00799990        -1.18413480E-21
   3.01600003        -1.18157722E-21
   3.02399993        -9.81954769E-22
   3.03200006        -6.32561938E-22
   3.03999996        -2.13471542E-22
   3.04800010         1.86724070E-22
   3.05599999         4.94643051E-22
   3.06399989         6.65262885E-22
   3.07200003         6.81897627E-22
   3.07999992         5.51971655E-22
   3.08800006         3.06726412E-22
   3.09599996         4.29094657E-24
   3.10400009        -2.73344090E-22
   3.11199999        -4.38363315E-22
   3.11999989        -4.28202181E-22
   3.12800002        -2.34977379E-22
   3.13599992         8.61826437E-23
   3.14400005         4.36646906E-22
   3.15199995         7.12091688E-22
   3.16000009         8.38978690E-22
   3.16799998         7.91333006E-22
   3.17600012         5.84755654E-22
   3.18400002         2.58876785E-22
   3.19199991        -1.38237877E-22
   3.20000005        -5.54633284E-22
   3.20799994        -9.33491800E-22
   3.21600008        -1.21263032E-21
   3.22399998        -1.33143181E-21
   3.23200011        -1.24422302E-21
   3.24000001        -9.36351591E-22
   3.24799991        -4.36131382E-22
   3.25600004         1.81599403E-22
   3.26399994         8.04894497E-22
   3.27200007         1.30923344E-21
   3.27999997         1.59093519E-21
   3.28800011         1.59845292E-21
   3.29600000         1.34579741E-21
   3.30399990         9.00517161E-22
   3.31200004         3.54183249E-22
   3.31999993        -2.07895974E-22
   3.32800007        -7.19249345E-22
   3.33599997        -1.12596083E-21
   3.34400010        -1.37551129E-21
   3.35200000        -1.41899694E-21
   3.35999990        -1.23222840E-21
   3.36800003        -8.41900429E-22
   3.37599993        -3.33102462E-22
   3.38400006         1.74758136E-22
   3.39199996         5.72867053E-22
   3.40000010         7.99821604E-22
   3.40799999         8.52166879E-22
   3.41599989         7.64016305E-22
   3.42400002         5.78144015E-22
   3.43199992         3.30641670E-22
   3.44000006         5.71149432E-23
   3.44799995        -1.93567357E-22
   3.45600009        -3.59511379E-22
   3.46399999        -3.88754945E-22
   3.47199988        -2.70209750E-22
   3.48000002        -4.77010400E-23
   3.48799992         1.97622859E-22
   3.49600005         3.87813134E-22
   3.50399995         4.83150824E-22
   3.51200008         4.87925843E-22
   3.51999998         4.24483554E-22
   3.52800012         3.00953667E-22
   3.53600001         1.02151340E-22
   3.54399991        -1.86626340E-22
   3.55200005        -5.41373505E-22
   3.55999994        -8.81428494E-22
   3.56800008        -1.09454413E-21
   3.57599998        -1.09334657E-21
   3.58400011        -8.65717414E-22
   3.59200001        -4.81931308E-22
   3.59999990        -5.12746367E-23
   3.60800004         3.42964284E-22
   3.61599994         6.80108566E-22
   3.62400007         9.84656636E-22
   3.63199997         1.26863747E-21
   3.64000010         1.48281384E-21
   3.64800000         1.52027123E-21
   3.65599990         1.27699279E-21
   3.66400003         7.30159304E-22
   3.67199993        -2.38762053E-23
   3.68000007        -8.02397405E-22
   3.68799996        -1.41955401E-21
   3.69600010        -1.76410927E-21
   3.70400000        -1.82657171E-21
   3.71199989        -1.66517405E-21
   3.72000003        -1.34453150E-21
   3.72799993        -8.99473088E-22
   3.73600006        -3.43866463E-22
   3.74399996         2.90427687E-22
   3.75200009         9.23284015E-22
   3.75999999         1.43548804E-21
   3.76799989         1.71434495E-21
   3.77600002         1.70510621E-21
   3.78399992         1.43449456E-21
   3.79200006         9.93909003E-22
   3.79999995         4.96445238E-22
   3.80800009         3.49059907E-23
   3.81599998        -3.38045553E-22
   3.82399988        -6.05381855E-22
   3.83200002        -7.68019124E-22
   3.83999991        -8.29519882E-22
   3.84800005        -7.92668137E-22
   3.85599995        -6.67409395E-22
   3.86400008        -4.81970032E-22
   3.87199998        -2.87030335E-22
   3.88000011        -1.45407802E-22
   3.88800001        -1.07838220E-22
   3.89599991        -1.85534531E-22
   3.90400004        -3.36085719E-22
   3.91199994        -4.75421350E-22
   3.92000008        -5.13053575E-22
   3.92799997        -3.92407031E-22
   3.93600011        -1.12177662E-22
   3.94400001         2.82322362E-22
   3.95199990         7.26653379E-22
   3.96000004         1.15981678E-21
   3.96799994         1.52492432E-21
   3.97600007         1.75420047E-21
   3.98399997         1.76250176E-21
   3.99200010         1.47074611E-21
   4.00000000         8.54273807E-22
   4.00799990        -1.55833461E-23
   4.01599979        -9.72980990E-22
   4.02400017        -1.81206353E-21
   4.03200006        -2.36632321E-21
   4.03999996        -2.56441197E-21
   4.04799986        -2.42894620E-21
   4.05600023        -2.02671044E-21
   4.06400013        -1.41481156E-21
   4.07200003        -6.25429676E-22
   4.07999992         3.01390658E-22
   4.08799982         1.27108246E-21
   4.09600019         2.12240813E-21
   4.10400009         2.67360486E-21
   4.11199999         2.80253335E-21
   4.11999989         2.50700046E-21
   4.12799978         1.90106905E-21
   4.13600016         1.14923175E-21
   4.14400005         3.84089458E-22
   4.15199995        -3.34920730E-22
   4.15999985        -1.00024402E-21
   4.16800022        -1.59729223E-21
   4.17600012        -2.06060950E-21
   4.18400002        -2.28535402E-21
   4.19199991        -2.18689530E-21
   4.19999981        -1.76378333E-21
   4.20800018        -1.11531189E-21
   4.21600008        -3.99042575E-22
   4.22399998         2.42570740E-22
   4.23199987         7.37428992E-22
   4.23999977         1.08775038E-21
   4.24800014         1.32933922E-21
   4.25600004         1.48196334E-21
   4.26399994         1.52993416E-21
   4.27199984         1.44128346E-21
   4.28000021         1.20518014E-21
   4.28800011         8.54865213E-22
   4.29600000         4.57574767E-22
   4.30399990         7.99795780E-23
   4.31199980        -2.43916322E-22
   4.32000017        -5.20281661E-22
   4.32800007        -7.74574672E-22
   4.33599997        -1.01993197E-21
   4.34399986        -1.23749118E-21
   4.35200024        -1.38272973E-21
   4.36000013        -1.41251651E-21
   4.36800003        -1.31384675E-21
   4.37599993        -1.11725383E-21
   4.38399982        -8.86336244E-22
   4.39200020        -6.95287159E-22
   4.40000010        -6.10268148E-22
   4.40799999        -6.89888775E-22
   4.41599989        -1.00202137E-21
   4.42399979        -1.63929890E-21
   4.43200016        -2.71153581E-21
   4.44000006        -4.30917115E-21
   4.44799995        -6.45512201E-21
   4.45599985        -9.07675303E-21
   4.46400023        -1.20234709E-20
   4.47200012        -1.51216193E-20
   4.48000002        -1.82299459E-20
   4.48799992        -2.12556676E-20
   4.49599981        -2.41179629E-20
   4.50400019        -2.66909002E-20
   4.51200008        -2.87786055E-20
   4.51999998        -3.01551827E-20
   4.52799988        -3.06523408E-20
   4.53599977        -3.02355646E-20
   4.54400015        -2.90106975E-20
   4.55200005        -2.71511470E-20
   4.55999994        -2.47934367E-20
   4.56799984        -2.19736911E-20
   4.57600021        -1.86460372E-20
   4.58400011        -1.47644033E-20
   4.59200001        -1.03642241E-20
   4.59999990        -5.58471193E-21
   4.60799980        -6.21463662E-22
   4.61600018         4.34816859E-21
   4.62400007         9.20860109E-21
   4.63199997         1.38896113E-20
   4.63999987         1.83109757E-20
   4.64799976         2.23377653E-20
   4.65600014         2.57843878E-20
   4.66400003         2.84670524E-20
   4.67199993         3.02682479E-20
   4.67999983         3.11730478E-20
   4.68800020         3.12609745E-20
   4.69600010         3.06678892E-20
   4.70400000         2.95480289E-20
   4.71199989         2.80564800E-20
   4.71999979         2.63511713E-20
   4.72800016         2.45975048E-20
   4.73600006         2.29586532E-20
   4.74399996         2.15679218E-20
   4.75199986         2.04949006E-20
   4.76000023         1.97237986E-20
   4.76800013         1.91576419E-20
   4.77600002         1.86495834E-20
   4.78399992         1.80489194E-20
   4.79199982         1.72420710E-20
   4.80000019         1.61716605E-20
   4.80800009         1.48294646E-20
   4.81599998         1.32337427E-20
   4.82399988         1.14098903E-20
   4.83199978         9.38873825E-21
   4.84000015         7.22110903E-21
   4.84800005         4.99131485E-21
   4.85599995         2.80958014E-21
   4.86399984         7.77289767E-22
   4.87200022        -1.05872888E-21
   4.88000011        -2.73295587E-21
   4.88800001        -4.34597867E-21
   4.89599991        -6.01159811E-21
   4.90399981        -7.79460450E-21
   4.91200018        -9.67681602E-21
   4.92000008        -1.15683091E-20
   4.92799997        -1.33500561E-20
   4.93599987        -1.49129549E-20
   4.94399977        -1.61641367E-20
   4.95200014        -1.70012435E-20
   4.96000004        -1.72855351E-20
   4.96799994        -1.68500552E-20
   4.97599983        -1.55536144E-20
   4.98400021        -1.33541864E-20
   4.99200010        -1.03545306E-20
   5.00000000        -6.78728592E-21
   5.00799990        -2.94715890E-21
   5.01599979         8.86788912E-22
   5.02400017         4.49473425E-21
   5.03200006         7.71238162E-21
   5.03999996         1.04059386E-20
   5.04799986         1.24673405E-20
   5.05600023         1.38461052E-20
   5.06400013         1.45936874E-20
   5.07200003         1.48747754E-20
   5.07999992         1.49195271E-20
   5.08799982         1.49366572E-20
   5.09600019         1.50408949E-20
   5.10400009         1.52399594E-20
   5.11199999         1.54813863E-20
   5.11999989         1.57156804E-20
   5.12799978         1.59230555E-20
   5.13600016         1.60893528E-20
   5.14400005         1.61626988E-20
   5.15199995         1.60404990E-20
   5.15999985         1.56092294E-20
   5.16800022         1.48116188E-20
   5.17600012         1.36899038E-20
   5.18400002         1.23721105E-20
   5.19199991         1.10135205E-20
   5.19999981         9.73893453E-21
   5.20800018         8.62475779E-21
   5.21600008         7.72091192E-21
   5.22399998         7.07978555E-21
   5.23199987         6.75728891E-21
   5.23999977         6.78294242E-21
   5.24800014         7.12788077E-21
   5.25600004         7.70240456E-21
   5.26399994         8.38886511E-21
   5.27199984         9.08256833E-21
   5.28000021         9.70804208E-21
   5.28800011         1.02020410E-20
   5.29600000         1.04865281E-20
   5.30399990         1.04648396E-20
   5.31199980         1.00512049E-20
   5.32000017         9.21298499E-21
   5.32800007         7.99027957E-21
   5.33599997         6.47657015E-21
   5.34399986         4.77610935E-21
   5.35200024         2.97263509E-21
   5.36000013         1.13117242E-21
   5.36800003        -6.75436995E-22
   5.37599993        -2.34506168E-21
   5.38399982        -3.75471659E-21
   5.39200020        -4.79562645E-21
   5.40000010        -5.40806767E-21
   5.40799999        -5.58898031E-21
   5.41599989        -5.36816388E-21
   5.42399979        -4.77476074E-21
   5.43200016        -3.82050935E-21
   5.44000006        -2.51035967E-21
   5.44799995        -8.66102934E-22
   5.45599985         1.06066042E-21
   5.46400023         3.19789176E-21
   5.47200012         5.47470094E-21
   5.48000002         7.83455797E-21
   5.48799992         1.02263951E-20
   5.49599981         1.25793734E-20
   5.50400019         1.47792683E-20
   5.51200008         1.66607229E-20
   5.51999998         1.80150761E-20
   5.52799988         1.86033049E-20
   5.53599977         1.81674001E-20
   5.54400015         1.64456511E-20
   5.55200005         1.32036855E-20
   5.55999994         8.28344562E-21
   5.56799984         1.65353273E-21
   5.57600021        -6.56639396E-21
   5.58400011        -1.61233399E-20
   5.59200001        -2.66811824E-20
   5.59999990        -3.78727325E-20
   5.60799980        -4.93245053E-20
   5.61600018        -6.06503818E-20
   5.62400007        -7.14365714E-20
   5.63199997        -8.12463325E-20
   5.63999987        -8.96523745E-20
   5.64799976        -9.62777939E-20
   5.65600014        -1.00815170E-19
   5.66400003        -1.03012912E-19
   5.67199993        -1.02645702E-19
   5.67999983        -9.95011035E-20
   5.68800020        -9.34000390E-20
   5.69600010        -8.42397957E-20
   5.70400000        -7.20293885E-20
   5.71199989        -5.68978769E-20
   5.71999979        -3.90845489E-20
   5.72800016        -1.89393373E-20
   5.73600006         3.04976524E-21
   5.74399996         2.62193248E-20
   5.75199986         4.97253260E-20
   5.76000023         7.26024954E-20
   5.76800013         9.38789960E-20
   5.77600002         1.12696651E-19
   5.78399992         1.28382373E-19
   5.79199982         1.40450912E-19
   5.80000019         1.48569432E-19
   5.80800009         1.52536163E-19
   5.81599998         1.52302291E-19
   5.82399988         1.48019835E-19
   5.83199978         1.40067475E-19
   5.84000015         1.29016743E-19
   5.84800005         1.15543638E-19
   5.85599995         1.00329499E-19
   5.86399984         8.39995902E-20
   5.87200022         6.71178033E-20
   5.88000011         5.02143060E-20
   5.88800001         3.38082643E-20
   5.89599991         1.84029527E-20
   5.90399981         4.45952294E-21
   5.91200018        -7.62609876E-21
   5.92000008        -1.75282173E-20
   5.92799997        -2.49856399E-20
   5.93599987        -2.98076892E-20
   5.94399977        -3.19068539E-20
   5.95200014        -3.13504651E-20
   5.96000004        -2.84047683E-20
   5.96799994        -2.35459385E-20
   5.97599983        -1.74284160E-20
   5.98400021        -1.08241058E-20
   5.99200010        -4.55182708E-21
   6.00000000         5.89663202E-22
   6.00799990         3.88513809E-21
   6.01599979         4.76887516E-21
   6.02400017         2.89258113E-21
   6.03200006        -1.81598557E-21
   6.03999996        -9.12165746E-21
   6.04799986        -1.84917615E-20
   6.05600023        -2.91482841E-20
   6.06400013        -4.01517605E-20
   6.07200003        -5.05006204E-20
   6.07999992        -5.92325813E-20
   6.08799982        -6.55187339E-20
   6.09600019        -6.87465348E-20
   6.10400009        -6.85876838E-20
   6.11199999        -6.50443910E-20
   6.11999989        -5.84657525E-20
   6.12799978        -4.95267380E-20
   6.13600016        -3.91666078E-20
   6.14400005        -2.84912668E-20
   6.15199995        -1.86526159E-20
   6.15999985        -1.07241656E-20
   6.16800022        -5.59390300E-21
   6.17600012        -3.88906639E-21
   6.18400002        -5.93590704E-21
   6.19199991        -1.17461893E-20
   6.19999981        -2.10188306E-20
   6.20800018        -3.31498964E-20
   6.21600008        -4.72556587E-20
   6.22399998        -6.22207002E-20
   6.23199987        -7.67795507E-20