 -0.239999995       0.00000000    
 -0.231999993       0.00000000    
 -0.224000007       0.00000000    
 -0.216000006       0.00000000    
 -0.208000004       0.00000000    
 -0.200000003       0.00000000    
 -0.192000002       0.00000000    
 -0.184000000      -6.58360118E-38
 -0.175999999      -7.85527333E-33
 -0.167999998      -5.23113735E-32
 -0.159999996       1.39585752E-32
 -0.151999995       9.99171139E-31
 -0.143999994       3.11583247E-30
 -0.136000007       4.53704426E-31
 -0.128000006      -1.95358103E-29
 -0.119999997      -4.90603871E-29
 -0.112000003      -1.97892627E-29
 -0.104000002       1.51338347E-28
  -9.60000008E-02   3.66291701E-28
  -8.79999995E-02   2.23624974E-28
  -7.99999982E-02  -6.09388694E-28
  -7.19999969E-02  -1.62088652E-27
  -6.40000030E-02  -1.33213666E-27
  -5.60000017E-02   1.23323968E-27
  -4.80000004E-02   4.56901033E-27
  -3.99999991E-02   4.99965482E-27
  -3.20000015E-02   2.49003627E-28
  -2.40000002E-02  -7.21145517E-27
  -1.60000008E-02  -1.15842129E-26
  -8.00000038E-03  -9.05778026E-27
   1.38777878E-17  -5.52213130E-28
   8.00000038E-03   1.12849834E-26
   1.60000008E-02   2.46974246E-26
   2.40000002E-02   3.41430278E-26
   3.20000015E-02   2.47627937E-26
   3.99999991E-02  -1.79595047E-26
   4.80000004E-02  -8.27230915E-26
   5.60000017E-02  -1.19838301E-25
   6.40000030E-02  -7.21327016E-26
   7.19999969E-02   6.42961019E-26
   7.99999982E-02   2.10020953E-25
   8.79999995E-02   2.49080883E-25
   9.60000008E-02   1.23451752E-25
  0.104000002      -1.10340083E-25
  0.112000003      -3.16887077E-25
  0.119999997      -3.76346778E-25
  0.128000006      -2.55348334E-25
  0.136000007      -8.20582127E-27
  0.143999994       2.68403070E-25
  0.151999995       4.77797618E-25
  0.159999996       5.41775322E-25
  0.167999998       4.10087936E-25
  0.175999999       7.95557841E-26
  0.184000000      -3.80975888E-25
  0.192000002      -8.23087361E-25
  0.200000003      -1.04985376E-24
  0.208000004      -8.86628677E-25
  0.216000006      -2.70969530E-25
  0.224000007       6.71505815E-25
  0.231999993       1.60647845E-24
  0.239999995       2.07117797E-24
  0.247999996       1.67559894E-24
  0.256000012       3.62352755E-25
  0.263999999      -1.43650476E-24
  0.272000015      -2.91297618E-24
  0.280000001      -3.27863076E-24
  0.287999988      -2.22594992E-24
  0.296000004      -1.40242767E-25
  0.303999990       2.10166705E-24
  0.312000006       3.60806440E-24
  0.319999993       3.88818733E-24
  0.328000009       2.95344691E-24
  0.335999995       1.13520605E-24
  0.344000012      -1.13375198E-24
  0.351999998      -3.37827316E-24
  0.360000014      -5.02369146E-24
  0.368000001      -5.42344791E-24
  0.375999987      -4.08796754E-24
  0.384000003      -1.01431558E-24
  0.391999990       3.10799817E-24
  0.400000006       6.98184184E-24
  0.407999992       9.09333534E-24
  0.416000009       8.28836984E-24
  0.423999995       4.32100572E-24
  0.432000011      -1.87887518E-24
  0.439999998      -8.39726420E-24
  0.448000014      -1.29587727E-23
  0.456000000      -1.37238163E-23
  0.463999987      -9.93335861E-24
  0.472000003      -2.20727443E-24
  0.479999989       7.51281228E-24
  0.488000005       1.63274880E-23
  0.495999992       2.10561286E-23
  0.504000008       1.92225776E-23
  0.512000024       1.01581706E-23
  0.519999981      -4.22511574E-24
  0.527999997      -1.95155558E-23
  0.536000013      -3.00257847E-23
  0.544000030      -3.09291062E-23
  0.551999986      -2.05375487E-23
  0.560000002      -1.60491769E-24
  0.568000019       1.92251666E-23
  0.575999975       3.39270427E-23
  0.583999991       3.65695342E-23
  0.592000008       2.60681121E-23
  0.600000024       6.72551017E-24
  0.607999980      -1.38685155E-23
  0.615999997      -2.84663108E-23
  0.624000013      -3.32693883E-23
  0.632000029      -2.89074166E-23
  0.639999986      -1.89101492E-23
  0.648000002      -6.95418911E-24
  0.656000018       5.09290178E-24
  0.663999975       1.70883949E-23
  0.671999991       2.88061111E-23
  0.680000007       3.80386330E-23
  0.688000023       4.05069630E-23
  0.695999980       3.20055416E-23
  0.703999996       1.15855071E-23
  0.712000012      -1.64882815E-23
  0.720000029      -4.34574290E-23
  0.727999985      -5.93763297E-23
  0.736000001      -5.73326688E-23
  0.744000018      -3.63467157E-23
  0.751999974      -1.77764204E-24
  0.759999990       3.68166780E-23
  0.768000007       6.88562542E-23
  0.776000023       8.55122129E-23
  0.783999979       8.12025963E-23
  0.791999996       5.46548647E-23
  0.800000012       9.77113252E-24
  0.808000028      -4.38005930E-23
  0.815999985      -9.17576941E-23
  0.824000001      -1.18851450E-22
  0.832000017      -1.14592257E-22
  0.839999974      -7.82559295E-23
  0.847999990      -2.03702818E-23
  0.856000006       4.07409991E-23
  0.864000022       8.57483474E-23
  0.871999979       1.01093244E-22
  0.879999995       8.29885774E-23
  0.888000011       3.74999736E-23
  0.896000028      -2.20549700E-23
  0.903999984      -7.88108143E-23
  0.912000000      -1.15936943E-22
  0.920000017      -1.20049686E-22
  0.927999973      -8.47925761E-23
  0.935999990      -1.38590381E-23
  0.944000006       7.78876577E-23
  0.952000022       1.66845457E-22
  0.959999979       2.26978532E-22
  0.967999995       2.37820459E-22
  0.976000011       1.91221259E-22
  0.984000027       9.36906368E-23
  0.991999984      -3.59669896E-23
   1.00000000      -1.72025736E-22
   1.00800002      -2.87271713E-22
   1.01600003      -3.56797269E-22
   1.02400005      -3.60526019E-22
   1.03199995      -2.86168974E-22
   1.03999996      -1.33657587E-22
   1.04799998       8.01796394E-23
   1.05599999       3.20134498E-22
   1.06400001       5.37035502E-22
   1.07200003       6.78531804E-22
   1.08000004       7.02726029E-22
   1.08800006       5.89422984E-22
   1.09599996       3.44733503E-22
   1.10399997      -1.46141127E-24
   1.11199999      -4.02211196E-22
   1.12000000      -8.00321779E-22
   1.12800002      -1.13370515E-21
   1.13600004      -1.34082059E-21
   1.14400005      -1.36920575E-21
   1.15199995      -1.18768000E-21
   1.15999997      -7.98920611E-22
   1.16799998      -2.46064800E-22
   1.17600000       3.91737471E-22
   1.18400002       1.01489477E-21
   1.19200003       1.52506781E-21
   1.20000005       1.84530383E-21
   1.20799994       1.93286179E-21
   1.21599996       1.78305062E-21
   1.22399998       1.42611703E-21
   1.23199999       9.19986905E-22
   1.24000001       3.40939827E-22
   1.24800003      -2.27980499E-22
   1.25600004      -7.10960121E-22
   1.26400006      -1.05454340E-21
   1.27199996      -1.23967939E-21
   1.27999997      -1.28562345E-21
   1.28799999      -1.24211145E-21
   1.29600000      -1.17101774E-21
   1.30400002      -1.12393459E-21
   1.31200004      -1.12409695E-21
   1.32000005      -1.15976639E-21
   1.32799995      -1.18959619E-21
   1.33599997      -1.15673232E-21
   1.34399998      -1.00457612E-21
   1.35200000      -6.89679961E-22
   1.36000001      -1.91040048E-22
   1.36800003       4.82398314E-22
   1.37600005       1.28582490E-21
   1.38399994       2.13621271E-21
   1.39199996       2.91825261E-21
   1.39999998       3.50118411E-21
   1.40799999       3.76441334E-21
   1.41600001       3.62503583E-21
   1.42400002       3.05694410E-21
   1.43200004       2.09697333E-21
   1.44000006       8.37497197E-22
   1.44799995      -5.89080783E-22
   1.45599997      -2.02809580E-21
   1.46399999      -3.31960282E-21
   1.47200000      -4.31477885E-21
   1.48000002      -4.89333797E-21
   1.48800004      -4.98126953E-21
   1.49600005      -4.56422066E-21
   1.50399995      -3.69138638E-21
   1.51199996      -2.46763769E-21
   1.51999998      -1.03454910E-21
   1.52800000       4.52659898E-22
   1.53600001       1.84567017E-21
   1.54400003       3.01754781E-21
   1.55200005       3.87103886E-21
   1.55999994       4.34410055E-21
   1.56799996       4.41431679E-21
   1.57599998       4.10121116E-21
   1.58399999       3.46239266E-21
   1.59200001       2.58101919E-21
   1.60000002       1.54721387E-21
   1.60800004       4.41534511E-22
   1.61600006      -6.71134484E-22
   1.62399995      -1.73434390E-21
   1.63199997      -2.68579264E-21
   1.63999999      -3.44779946E-21
   1.64800000      -3.93193963E-21
   1.65600002      -4.05807781E-21
   1.66400003      -3.77854367E-21
   1.67200005      -3.09466867E-21
   1.67999995      -2.05895110E-21
   1.68799996      -7.65621240E-22
   1.69599998       6.61525073E-22
   1.70400000       2.07747118E-21
   1.71200001       3.32173176E-21
   1.72000003       4.22918262E-21
   1.72800004       4.65214535E-21
   1.73599994       4.49182014E-21
   1.74399996       3.72844956E-21
   1.75199997       2.43723315E-21
   1.75999999       7.82654021E-22
   1.76800001      -1.00698859E-21
   1.77600002      -2.67670618E-21
   1.78400004      -3.98443046E-21
   1.79200006      -4.73696974E-21
   1.79999995      -4.81903025E-21
   1.80799997      -4.21260145E-21
   1.81599998      -3.00321593E-21
   1.82400000      -1.37030668E-21
   1.83200002       4.38223971E-22
   1.84000003       2.14308481E-21
   1.84800005       3.47613524E-21
   1.85599995       4.22221782E-21
   1.86399996       4.25497587E-21
   1.87199998       3.56154608E-21
   1.88000000       2.25029275E-21
   1.88800001       5.37000312E-22
   1.89600003      -1.29055029E-21
   1.90400004      -2.92305151E-21
   1.91199994      -4.08314122E-21
   1.91999996      -4.56983765E-21
   1.92799997      -4.28657999E-21
   1.93599999      -3.25205230E-21
   1.94400001      -1.59653552E-21
   1.95200002       4.54033703E-22
   1.96000004       2.60597173E-21
   1.96800005       4.53744674E-21
   1.97599995       5.94621651E-21
   1.98399997       6.59731428E-21
   1.99199998       6.36079596E-21
   2.00000000       5.23212821E-21
   2.00799990       3.33273613E-21
   2.01600003       8.92714582E-22
   2.02399993      -1.78043377E-21
   2.03200006      -4.34297771E-21
   2.03999996      -6.46136020E-21
   2.04800010      -7.85730705E-21
   2.05599999      -8.34420947E-21
   2.06399989      -7.84860792E-21
   2.07200003      -6.41534828E-21
   2.07999992      -4.19945541E-21
   2.08800006      -1.44900162E-21
   2.09599996       1.51890737E-21
   2.10400009       4.35043567E-21
   2.11199999       6.69702670E-21
   2.11999989       8.26391964E-21
   2.12800002       8.85546283E-21
   2.13599992       8.40402174E-21
   2.14400005       6.97392582E-21
   2.15199995       4.74144653E-21
   2.16000009       1.96155058E-21
   2.16799998      -1.06533108E-21
   2.17600012      -4.01936834E-21
   2.18400002      -6.58251954E-21
   2.19199991      -8.46273702E-21
   2.20000005      -9.42637255E-21
   2.20799994      -9.33474695E-21
   2.21600008      -8.17306709E-21
   2.22399998      -6.05920300E-21
   2.23200011      -3.22729019E-21
   2.24000001       8.16272717E-24
   2.24799991       3.29555037E-21
   2.25600004       6.28589047E-21
   2.26399994       8.66461029E-21
   2.27200007       1.01774065E-20
   2.27999997       1.06537155E-20
   2.28800011       1.00276432E-20
   2.29600000       8.35175022E-21
   2.30399990       5.79723474E-21
   2.31200004       2.63738056E-21
   2.31999993      -7.83930588E-22
   2.32800007      -4.09285857E-21
   2.33599997      -6.92896564E-21
   2.34400010      -8.98636820E-21
   2.35200000      -1.00490780E-20
   2.35999990      -1.00169957E-20
   2.36800003      -8.91852404E-21
   2.37599993      -6.90651948E-21
   2.38400006      -4.23781793E-21
   2.39199996      -1.24015286E-21
   2.40000010       1.72717796E-21
   2.40799999       4.31351708E-21
   2.41599989       6.21528043E-21
   2.42400002       7.21161665E-21
   2.43199992       7.19511100E-21
   2.44000006       6.19215653E-21
   2.44799995       4.36587785E-21
   2.45600009       1.99629277E-21
   2.46399999      -5.61384722E-22
   2.47199988      -2.93240495E-21
   2.48000002      -4.77978279E-21
   2.48799992      -5.85119535E-21
   2.49600005      -6.00805997E-21
   2.50399995      -5.23531455E-21
   2.51200008      -3.63533116E-21
   2.51999998      -1.41115841E-21
   2.52800012       1.15676927E-21
   2.53600001       3.73947150E-21
   2.54399991       5.99483478E-21
   2.55200005       7.61018523E-21
   2.55999994       8.34840192E-21
   2.56800008       8.08872779E-21
   2.57599998       6.85020577E-21
   2.58400011       4.78859340E-21
   2.59200001       2.16581370E-21
   2.59999990      -6.98394337E-22
   2.60800004      -3.47711429E-21
   2.61599994      -5.87574420E-21
   2.62400007      -7.65589100E-21
   2.63199997      -8.64887447E-21
   2.64000010      -8.76709667E-21
   2.64800000      -8.01647631E-21
   2.65599990      -6.50432028E-21
   2.66400003      -4.43223163E-21
   2.67199993      -2.06768698E-21
   2.68000007       3.01505970E-22
   2.68799996       2.41596253E-21
   2.69600010       4.08064958E-21
   2.70400000       5.17901053E-21
   2.71199989       5.66761457E-21
   2.72000003       5.56159005E-21
   2.72799993       4.92152754E-21
   2.73600006       3.84627191E-21
   2.74399996       2.46886392E-21
   2.75200009       9.49373122E-22
   2.75999999      -5.39450451E-22
   2.76799989      -1.83260411E-21
   2.77600002      -2.79384089E-21
   2.78399992      -3.33090022E-21
   2.79200006      -3.40146765E-21
   2.79999995      -3.01075043E-21
   2.80800009      -2.20490485E-21
   2.81599998      -1.06493203E-21
   2.82399988       2.96728477E-22
   2.83200002       1.73865307E-21
   2.83999991       3.09635897E-21
   2.84800005       4.19594919E-21
   2.85599995       4.87602695E-21
   2.86400008       5.01371658E-21
   2.87199998       4.54737008E-21
   2.88000011       3.48933701E-21
   2.88800001       1.92607976E-21
   2.89599991       7.51278546E-24
   2.90400004      -2.06992760E-21
   2.91199994      -4.08282133E-21
   2.92000008      -5.80152210E-21
   2.92799997      -7.01268133E-21
   2.93600011      -7.54381529E-21
   2.94400001      -7.28821648E-21
   2.95199990      -6.22629672E-21
   2.96000004      -4.43865924E-21
   2.96799994      -2.10625549E-21
   2.97600007       5.05307390E-22
   2.98399997       3.07769329E-21
   2.99200010       5.28469739E-21
   3.00000000       6.84238390E-21
   3.00799990       7.55387798E-21
   3.01600003       7.33859938E-21
   3.02399993       6.24047713E-21
   3.03200006       4.41601841E-21
   3.03999996       2.10852155E-21
   3.04800010      -3.84311298E-22
   3.05599999      -2.74502613E-21
   3.06399989      -4.67202031E-21
   3.07200003      -5.91581762E-21
   3.07999992      -6.31326862E-21
   3.08800006      -5.81383086E-21
   3.09599996      -4.49092753E-21
   3.10400009      -2.53374550E-21
   3.11199999      -2.19750067E-22
   3.11999989       2.12684675E-21
   3.12800002       4.18254749E-21
   3.13599992       5.66952460E-21
   3.14400005       6.39125664E-21
   3.15199995       6.25463452E-21
   3.16000009       5.27721157E-21
   3.16799998       3.58100098E-21
   3.17600012       1.37579028E-21
   3.18400002      -1.06514317E-21
   3.19199991      -3.43531097E-21
   3.20000005      -5.43061197E-21
   3.20799994      -6.78843703E-21
   3.21600008      -7.32523282E-21
   3.22399998      -6.96495446E-21
   3.23200011      -5.75085487E-21
   3.24000001      -3.83753562E-21
   3.24799991      -1.46588208E-21
   3.25600004       1.07201557E-21
   3.26399994       3.47063377E-21
   3.27200007       5.44687770E-21
   3.27999997       6.77222461E-21
   3.28800011       7.29988506E-21
   3.29600000       6.98379867E-21
   3.30399990       5.88508390E-21
   3.31200004       4.16301504E-21
   3.31999993       2.05163935E-21
   3.32800007      -1.72719025E-22
   3.33599997      -2.22643619E-21
   3.34400010      -3.85161385E-21
   3.35200000      -4.84565028E-21
   3.35999990      -5.08696811E-21
   3.36800003      -4.55411678E-21
   3.37599993      -3.33269756E-21
   3.38400006      -1.60434648E-21
   3.39199996       3.82931385E-22
   3.40000010       2.35635221E-21
   3.40799999       4.06011749E-21
   3.41599989       5.28646040E-21
   3.42400002       5.89203618E-21
   3.43199992       5.80355895E-21
   3.44000006       5.01990913E-21
   3.44799995       3.61448039E-21
   3.45600009       1.73429563E-21
   3.46399999      -4.11670888E-22
   3.47199988      -2.57973682E-21
   3.48000002      -4.53009098E-21
   3.48799992      -6.06433814E-21
   3.49600005      -7.04880586E-21
   3.50399995      -7.41822520E-21
   3.51200008      -7.16551910E-21
   3.51999998      -6.32979365E-21
   3.52800012      -4.99108463E-21
   3.53600001      -3.27105968E-21
   3.54399991      -1.33083192E-21
   3.55200005       6.42385263E-22
   3.55999994       2.45954178E-21
   3.56800008       3.95539634E-21
   3.57599998       5.00387563E-21
   3.58400011       5.51884363E-21
   3.59200001       5.44684701E-21
   3.59999990       4.76401345E-21
   3.60800004       3.48518011E-21
   3.61599994       1.68209763E-21
   3.62400007      -5.01667472E-22
   3.63199997      -2.85209351E-21
   3.64000010      -5.10693232E-21
   3.64800000      -6.99219326E-21
   3.65599990      -8.26042593E-21
   3.66400003      -8.72059119E-21
   3.67199993      -8.25680944E-21
   3.68000007      -6.83990398E-21
   3.68799996      -4.53632876E-21
   3.69600010      -1.51454155E-21
   3.70400000       1.95661132E-21
   3.71199989       5.52476435E-21
   3.72000003       8.78979002E-21
   3.72799993       1.13548375E-20
   3.73600006       1.28827669E-20
   3.74399996       1.31455486E-20
   3.75200009       1.20571777E-20
   3.75999999       9.68628982E-21
   3.76799989       6.25010683E-21
   3.77600002       2.09371550E-21
   3.78399992      -2.34247351E-21
   3.79200006      -6.56635761E-21
   3.79999995      -1.00883610E-20
   3.80800009      -1.24824923E-20
   3.81599998      -1.34457029E-20
   3.82399988      -1.28438919E-20
   3.83200002      -1.07342404E-20
   3.83999991      -7.35957212E-21
   3.84800005      -3.11690379E-21
   3.85599995       1.49263863E-21
   3.86400008       5.92473243E-21
   3.87199998       9.65669630E-21
   3.88000011       1.22500247E-20
   3.88800001       1.34032114E-20
   3.89599991       1.29867712E-20
   3.90400004       1.10545516E-20
   3.91199994       7.83043014E-21
   3.92000008       3.67627337E-21
   3.92799997      -9.50561790E-22
   3.93600011      -5.54342358E-21
   3.94400001      -9.59431041E-21
   3.95199990      -1.26443087E-20
   3.96000004      -1.43352775E-20
   3.96799994      -1.44564175E-20
   3.97600007      -1.29749338E-20
   3.98399997      -1.00417481E-20
   3.99200010      -5.96960658E-21
   4.00000000      -1.18994212E-21
   4.00799990       3.79988477E-21
   4.01599979       8.48818333E-21
   4.02400017       1.23941956E-20
   4.03200006       1.51077624E-20
   4.03999996       1.63265145E-20
   4.04799986       1.58907503E-20
   4.05600023       1.38108434E-20
   4.06400013       1.02782716E-20
   4.07200003       5.65257426E-21
   4.07999992       4.22513850E-22
   4.08799982      -4.85243494E-21
   4.09600019      -9.60825777E-21
   4.10400009      -1.33382607E-20
   4.11199999      -1.56431034E-20
   4.11999989      -1.62681482E-20
   4.12799978      -1.51302158E-20
   4.13600016      -1.23345934E-20
   4.14400005      -8.17756085E-21
   4.15199995      -3.12625703E-21
   4.15999985       2.22980145E-21
   4.16800022       7.25274465E-21
   4.17600012       1.13428943E-20
   4.18400002       1.40194932E-20
   4.19199991       1.49797982E-20
   4.19999981       1.41294129E-20
   4.20800018       1.15854852E-20
   4.21600008       7.65827156E-21
   4.22399998       2.81570604E-21
   4.23199987      -2.36774028E-21
   4.23999977      -7.27644855E-21
   4.24800014      -1.13280373E-20
   4.25600004      -1.40460422E-20
   4.26399994      -1.51179083E-20
   4.27199984      -1.44288200E-20
   4.28000021      -1.20684092E-20
   4.28800011      -8.31404565E-21
   4.29600000      -3.59633856E-21
   4.30399990       1.54887156E-21
   4.31199980       6.53952190E-21
   4.32000017       1.08138986E-20
   4.32800007       1.38973662E-20
   4.33599997       1.54583933E-20
   4.34399986       1.53433796E-20
   4.35200024       1.35855869E-20
   4.36000013       1.03910921E-20
   4.36800003       6.11022203E-21
   4.37599993       1.20205852E-21
   4.38399982      -3.80519278E-21
   4.39200020      -8.36039846E-21
   4.40000010      -1.19445511E-20
   4.40799999      -1.41312854E-20
   4.41599989      -1.46421777E-20
   4.42399979      -1.33828970E-20
   4.43200016      -1.04515393E-20
   4.44000006      -6.12014658E-21
   4.44799995      -7.99966502E-22
   4.45599985       4.99741773E-21
   4.46400023       1.06972257E-20
   4.47200012       1.56999737E-20
   4.48000002       1.94291607E-20
   4.48799992       2.13917469E-20
   4.49599981       2.12448254E-20
   4.50400019       1.88528162E-20
   4.51200008       1.43180295E-20
   4.51999998       7.97565042E-21
   4.52799988       3.56549100E-22
   4.53599977      -7.87065503E-21
   4.54400015      -1.59654485E-20
   4.55200005      -2.31825849E-20
   4.55999994      -2.88397748E-20
   4.56799984      -3.23864571E-20
   4.57600021      -3.34692301E-20
   4.58400011      -3.19828996E-20
   4.59200001      -2.80929762E-20
   4.59999990      -2.22204930E-20
   4.60799980      -1.49889877E-20
   4.61600018      -7.14486786E-21
   4.62400007       5.32913785E-22
   4.63199997       7.31867434E-21
   4.63999987       1.26124558E-20
   4.64799976       1.59957844E-20
   4.65600014       1.72701838E-20
   4.66400003       1.64765218E-20
   4.67199993       1.38910250E-20
   4.67999983       9.99388388E-21
   4.68800020       5.41023659E-21
   4.69600010       8.29973862E-22
   4.70400000      -3.08111470E-21
   4.71199989      -5.76420568E-21
   4.71999979      -6.83183735E-21
   4.72800016      -6.10675579E-21
   4.73600006      -3.63381614E-21
   4.74399996       3.32782374E-22
   4.75199986       5.36340920E-21
   4.76000023       1.09041331E-20
   4.76800013       1.63400143E-20
   4.77600002       2.10637956E-20
   4.78399992       2.45415634E-20
   4.79199982       2.63675469E-20
   4.80000019       2.63030042E-20
   4.80800009       2.42969732E-20
   4.81599998       2.04889681E-20
   4.82399988       1.51937133E-20
   4.83199978       8.86827282E-21
   4.84000015       2.06322049E-21
   4.84800005      -4.63684130E-21
   4.85599995      -1.06747747E-20
   4.86399984      -1.55749482E-20
   4.87200022      -1.89829889E-20
   4.88000011      -2.06894625E-20
   4.88800001      -2.06399528E-20
   4.89599991      -1.89345617E-20
   4.90399981      -1.58173784E-20
   4.91200018      -1.16540935E-20
   4.92000008      -6.89548341E-21
   4.92799997      -2.02902457E-21
   4.93599987       2.47406773E-21
   4.94399977       6.20610834E-21
   4.95200014       8.85647338E-21
   4.96000004       1.02296085E-20
   4.96799994       1.02514820E-20
   4.97599983       8.97029795E-21
   4.98400021       6.55376290E-21
   4.99200010       3.28030023E-21
   5.00000000      -4.81310923E-22
   5.00799990      -4.30687661E-21
   5.01599979      -7.76381060E-21
   5.02400017      -1.04620536E-20
   5.03200006      -1.20989196E-20
   5.03999996      -1.24906470E-20
   5.04799986      -1.15880273E-20
   5.05600023      -9.47782900E-21
   5.06400013      -6.37278402E-21
   5.07200003      -2.59226873E-21
   5.07999992       1.46570881E-21
   5.08799982       5.36116354E-21
   5.09600019       8.65628678E-21
   5.10400009       1.09640278E-20
   5.11199999       1.19958266E-20
   5.11999989       1.16015159E-20
   5.12799978       9.79426678E-21
   5.13600016       6.75514664E-21
   5.14400005       2.81525166E-21
   5.15199995      -1.58196010E-21
   5.15999985      -5.93210920E-21
   5.16800022      -9.72741459E-21
   5.17600012      -1.25132910E-20
   5.18400002      -1.39389562E-20
   5.19199991      -1.37983290E-20
   5.19999981      -1.20577044E-20
   5.20800018      -8.86613540E-21
   5.21600008      -4.54477707E-21
   5.22399998       4.45868172E-22
   5.23199987       5.55781159E-21
   5.23999977       1.02191613E-20
   5.24800014       1.38999398E-20
   5.25600004       1.61712275E-20
   5.26399994       1.67512410E-20
   5.27199984       1.55346813E-20
   5.28000021       1.26033196E-20
   5.28800011       8.21731883E-21
   5.29600000       2.78781535E-21
   5.30399990      -3.16639791E-21
   5.31199980      -9.07307434E-21
   5.32000017      -1.43649865E-20
   5.32800007      -1.85357524E-20
   5.33599997      -2.11869971E-20
   5.34399986      -2.20627503E-20
   5.35200024      -2.10686989E-20
   5.36000013      -1.82757365E-20
   5.36800003      -1.39086510E-20
   5.37599993      -8.32217367E-21
   5.38399982      -1.96746928E-21
   5.39200020       4.64764958E-21
   5.40000010       1.10016597E-20
   5.40799999       1.66028203E-20
   5.41599989       2.10306147E-20
   5.42399979       2.39721707E-20
   5.43200016       2.52498514E-20
   5.44000006       2.48361464E-20
   5.44799995       2.28526060E-20
   5.45599985       1.95524462E-20
   5.46400023       1.52891977E-20
   5.47200012       1.04765656E-20
   5.48000002       5.54573265E-21
   5.48799992       9.04795741E-22
   5.49599981      -3.09671481E-21
   5.50400019      -6.19733206E-21
   5.51200008      -8.24622653E-21
   5.51999998      -9.21644719E-21
   5.52799988      -9.20542485E-21
   5.53599977      -8.42012833E-21
   5.54400015      -7.14760224E-21
   5.55200005      -5.71563507E-21
   5.55999994      -4.45070143E-21
   5.56799984      -3.63944970E-21
   5.57600021      -3.49677235E-21
   5.58400011      -4.14070297E-21
   5.59200001      -5.57434672E-21
   5.59999990      -7.67724987E-21
   5.60799980      -1.02107417E-20
   5.61600018      -1.28405759E-20
   5.62400007      -1.51752196E-20
   5.63199997      -1.68126382E-20
   5.63999987      -1.73860182E-20
   5.64799976      -1.66017233E-20
   5.65600014      -1.42683276E-20
   5.66400003      -1.03192017E-20
   5.67199993      -4.83027232E-21
   5.67999983       1.97043429E-21
   5.68800020       9.70786518E-21
   5.69600010       1.78845366E-20
   5.70400000       2.59227046E-20
   5.71199989       3.32152436E-20
   5.71999979       3.91747601E-20
   5.72800016       4.32755176E-20
   5.73600006       4.50890239E-20
   5.74399996       4.43182854E-20
   5.75199986       4.08307207E-20
   5.76000023       3.46840514E-20
   5.76800013       2.61339766E-20
   5.77600002       1.56175367E-20
   5.78399992       3.71510078E-21
   5.79199982      -8.89812160E-21
   5.80000019      -2.14990461E-20
   5.80800009      -3.33581585E-20
   5.81599998      -4.37794839E-20
   5.82399988      -5.21463673E-20
   5.83199978      -5.79728175E-20
   5.84000015      -6.09516112E-20
   5.84800005      -6.09837162E-20
   5.85599995      -5.81793930E-20
   5.86399984      -5.28311695E-20
   5.87200022      -4.53705432E-20
   5.88000011      -3.63226251E-20
   5.88800001      -2.62667795E-20
   5.89599991      -1.58025537E-20
   5.90399981      -5.51511082E-21
   5.91200018       4.06290962E-21
   5.92000008       1.24903069E-20
   5.92799997       1.94484912E-20
   5.93599987       2.47570181E-20
   5.94399977       2.83708022E-20
   5.95200014       3.03628535E-20
   5.96000004       3.08996840E-20
   5.96799994       3.02151080E-20
   5.97599983       2.85854136E-20
   5.98400021       2.63041399E-20
   5.99200010       2.36562378E-20
   6.00000000       2.08920797E-20
   6.00799990       1.82050934E-20
   6.01599979       1.57180198E-20
   6.02400017       1.34810310E-20
   6.03200006       1.14815084E-20
   6.03999996       9.66157214E-21
   6.04799986       7.93774390E-21
   6.05600023       6.21857179E-21
   6.06400013       4.41935217E-21
   6.07200003       2.47587133E-21
   6.07999992       3.59070173E-22
   6.08799982      -1.91063495E-21
   6.09600019      -4.25431631E-21
   6.10400009      -6.53656619E-21
   6.11199999      -8.58092207E-21
   6.11999989      -1.01953880E-20
   6.12799978      -1.12008091E-20
   6.13600016      -1.14557859E-20
   6.14400005      -1.08758854E-20
   6.15199995      -9.44901985E-21
   6.15999985      -7.24826624E-21
   6.16800022      -4.43946381E-21
   6.17600012      -1.27648660E-21
   6.18400002       1.92188589E-21
   6.19199991       4.81302471E-21
   6.19999981       7.08026053E-21
   6.20800018       8.47777410E-21
   6.21600008       8.86008906E-21
   6.22399998       8.19407781E-21
   6.23199987       6.55861653E-21
   6.23999977       4.13834825E-21
   6.24800014       1.21288811E-21
   6.25600004      -1.86323241E-21
   6.26399994      -4.69547257E-21
   6.27199984      -6.89906759E-21
   6.28000021      -8.15493698E-21
   6.28800011      -8.25783130E-21
   6.29600000      -7.14481939E-21
   6.30399990      -4.90019937E-21
   6.31199980      -1.74112694E-21
   6.32000017       2.00815380E-21
   6.32800007       5.94792095E-21
   6.33599997       9.63973668E-21
   6.34399986       1.26500004E-20
   6.35200024       1.45996393E-20
   6.36000013       1.52134509E-20
   6.36800003       1.43586938E-20
   6.37599993       1.20631852E-20
   6.38399982       8.50929501E-21
   6.39200020       4.00771147E-21
   6.40000010      -1.04063724E-21
   6.40799999      -6.18611181E-21
   6.41599989      -1.09711259E-20
   6.42399979      -1.49696830E-20
   6.43200016      -1.78265031E-20
   6.44000006      -1.92936356E-20
   6.44799995      -1.92595144E-20
   6.45599985      -1.77630429E-20
   6.46400023      -1.49874351E-20
   6.47200012      -1.12340271E-20
   6.48000002      -6.88142941E-21
   6.48799992      -2.33918458E-21
   6.49599981       1.99569076E-21
   6.50400019       5.77443840E-21
   6.51200008       8.72347986E-21
   6.51999998       1.06635916E-20
   6.52799988       1.15218408E-20
   6.53599977       1.13345150E-20
   6.54400015       1.02384846E-20
   6.55200005       8.44968550E-21
   6.55999994       6.23151466E-21
   6.56799984       3.85936099E-21
   6.57600021       1.58881988E-21
   6.58400011      -3.67428287E-22
   6.59200001      -1.85332543E-21
   6.59999990      -2.77633297E-21
   6.60799980      -3.11018335E-21