 -0.239999995       0.00000000    
 -0.231999993       1.21964540E-21
 -0.224000007       3.78177888E-21
 -0.216000006       7.78254253E-21
 -0.208000004       1.34947901E-20
 -0.200000003       2.10000510E-20
 -0.192000002       2.99549694E-20
 -0.184000000       4.06333897E-20
 -0.175999999       5.50646573E-20
 -0.167999998       7.59313222E-20
 -0.159999996       1.04396998E-19
 -0.151999995       1.40418924E-19
 -0.143999994       1.84989548E-19
 -0.136000007       2.40217024E-19
 -0.128000006       3.07223565E-19
 -0.119999997       3.85848633E-19
 -0.112000003       4.76233211E-19
 -0.104000002       5.78526605E-19
  -9.60000008E-02   6.90971159E-19
  -8.79999995E-02   8.09964554E-19
  -7.99999982E-02   9.31308073E-19
  -7.19999969E-02   1.04916135E-18
  -6.40000030E-02   1.15435805E-18
  -5.60000017E-02   1.23593284E-18
  -4.80000004E-02   1.28388378E-18
  -3.99999991E-02   1.28894406E-18
  -3.20000015E-02   1.24124034E-18
  -2.40000002E-02   1.13172504E-18
  -1.60000008E-02   9.54453930E-19
  -8.00000038E-03   7.06556069E-19
   1.38777878E-17   3.88126352E-19
   8.00000038E-03   4.52429546E-21
   1.60000008E-02  -4.32014953E-19
   2.40000002E-02  -9.03957139E-19
   3.20000015E-02  -1.39020989E-18
   3.99999991E-02  -1.86595299E-18
   4.80000004E-02  -2.30360164E-18
   5.60000017E-02  -2.67625023E-18
   6.40000030E-02  -2.96024036E-18
   7.19999969E-02  -3.13565269E-18
   7.99999982E-02  -3.18768856E-18
   8.79999995E-02  -3.10925736E-18
   9.60000008E-02  -2.90186850E-18
  0.104000002      -2.57499670E-18
  0.112000003      -2.14631097E-18
  0.119999997      -1.64138173E-18
  0.128000006      -1.09054365E-18
  0.136000007      -5.25201321E-19
  0.143999994       2.36443180E-20
  0.151999995       5.26717957E-19
  0.159999996       9.59593307E-19
  0.167999998       1.30495414E-18
  0.175999999       1.55238237E-18
  0.184000000       1.69837220E-18
  0.192000002       1.74746309E-18
  0.200000003       1.71126577E-18
  0.208000004       1.60502238E-18
  0.216000006       1.44582207E-18
  0.224000007       1.25263103E-18
  0.231999993       1.04425576E-18
  0.239999995       8.36010404E-19
  0.247999996       6.39350126E-19
  0.256000012       4.63431040E-19
  0.263999999       3.14282853E-19
  0.272000015       1.93020244E-19
  0.280000001       9.74067598E-20
  0.287999988       2.47280523E-20
  0.296000004      -2.82013045E-20
  0.303999990      -6.60168840E-20
  0.312000006      -9.29060119E-20
  0.319999993      -1.10476705E-19
  0.328000009      -1.19038942E-19
  0.335999995      -1.19553603E-19
  0.344000012      -1.12718170E-19
  0.351999998      -9.78452624E-20
  0.360000014      -7.44186932E-20
  0.368000001      -4.35487070E-20
  0.375999987      -6.85694358E-21
  0.384000003       3.44494908E-20
  0.391999990       7.82549436E-20
  0.400000006       1.20661469E-19
  0.407999992       1.57270234E-19
  0.416000009       1.84349633E-19
  0.423999995       1.98680899E-19
  0.432000011       1.97811597E-19
  0.439999998       1.81057183E-19
  0.448000014       1.49605553E-19
  0.456000000       1.05813306E-19
  0.463999987       5.30259220E-20
  0.472000003      -4.45366361E-21
  0.479999989      -6.19873448E-20
  0.488000005      -1.14955293E-19
  0.495999992      -1.58612244E-19
  0.504000008      -1.88740463E-19
  0.512000024      -2.02827245E-19
  0.519999981      -2.00028208E-19
  0.527999997      -1.80476528E-19
  0.536000013      -1.45768960E-19
  0.544000030      -9.95654362E-20
  0.551999986      -4.64036401E-20
  0.560000002       9.60117746E-21
  0.568000019       6.40686992E-20
  0.575999975       1.11764974E-19
  0.583999991       1.48261371E-19
  0.592000008       1.71312685E-19
  0.600000024       1.79729597E-19
  0.607999980       1.72541022E-19
  0.615999997       1.50550206E-19
  0.624000013       1.17130933E-19
  0.632000029       7.62014678E-20
  0.639999986       3.07929906E-20
  0.648000002      -1.56649768E-20
  0.656000018      -5.86770390E-20
  0.663999975      -9.45108069E-20
  0.671999991      -1.21213276E-19
  0.680000007      -1.37221056E-19
  0.688000023      -1.40863934E-19
  0.695999980      -1.32095561E-19
  0.703999996      -1.13151406E-19
  0.712000012      -8.68599420E-20
  0.720000029      -5.56228749E-20
  0.727999985      -2.22051466E-20
  0.736000001       1.01599372E-20
  0.744000018       3.90213794E-20
  0.751999974       6.30533608E-20
  0.759999990       8.11062675E-20
  0.768000007       9.19924943E-20
  0.776000023       9.52899141E-20
  0.783999979       9.15559627E-20
  0.791999996       8.17915026E-20
  0.800000012       6.72502103E-20
  0.808000028       4.95313812E-20
  0.815999985       3.02925496E-20
  0.824000001       1.08859344E-20
  0.832000017      -7.65056683E-21
  0.839999974      -2.45190583E-20
  0.847999990      -3.91056258E-20
  0.856000006      -5.07933131E-20
  0.864000022      -5.90027543E-20
  0.871999979      -6.35643387E-20
  0.879999995      -6.46675844E-20
  0.888000011      -6.23356847E-20
  0.896000028      -5.64892885E-20
  0.903999984      -4.75412267E-20
  0.912000000      -3.61902342E-20
  0.920000017      -2.26647246E-20
  0.927999973      -7.05451292E-21
  0.935999990       9.67758019E-21
  0.944000006       2.59455539E-20
  0.952000022       4.06380102E-20
  0.959999979       5.30243614E-20
  0.967999995       6.19405315E-20
  0.976000011       6.62303160E-20
  0.984000027       6.57443474E-20
  0.991999984       6.08951691E-20
   1.00000000       5.16446661E-20
   1.00800002       3.79644494E-20
   1.01600003       2.08475719E-20
   1.02400005       1.91258536E-21
   1.03199995      -1.74907437E-20
   1.03999996      -3.59697454E-20
   1.04799998      -5.15856358E-20
   1.05599999      -6.26116981E-20
   1.06400001      -6.83675181E-20
   1.07200003      -6.87586711E-20
   1.08000004      -6.36570088E-20
   1.08800006      -5.32975733E-20
   1.09599996      -3.86773660E-20
   1.10399997      -2.11047637E-20
   1.11199999      -1.86543203E-21
   1.12000000       1.74508759E-20
   1.12800002       3.49180822E-20
   1.13600004       4.88700309E-20
   1.14400005       5.82366235E-20
   1.15199995       6.23972774E-20
   1.15999997       6.11829051E-20
   1.16799998       5.49994199E-20
   1.17600000       4.46476875E-20
   1.18400002       3.11153487E-20
   1.19200003       1.56298976E-20
   1.20000005      -4.13561503E-22
   1.20799994      -1.57173541E-20
   1.21599996      -2.90591360E-20
   1.22399998      -3.91880693E-20
   1.23199999      -4.52305913E-20
   1.24000001      -4.71105434E-20
   1.24800003      -4.52112140E-20
   1.25600004      -3.99146408E-20
   1.26400006      -3.18551778E-20
   1.27199996      -2.21480452E-20
   1.27999997      -1.18316482E-20
   1.28799999      -1.46834353E-21
   1.29600000       8.35348052E-21
   1.30400002       1.67107867E-20
   1.31200004       2.29457850E-20
   1.32000005       2.70127251E-20
   1.32799995       2.89492373E-20
   1.33599997       2.86585867E-20
   1.34399998       2.64419220E-20
   1.35200000       2.30256063E-20
   1.36000001       1.88287908E-20
   1.36800003       1.38364553E-20
   1.37600005       8.26197851E-21
   1.38399994       2.64192663E-21
   1.39199996      -2.74629436E-21
   1.39999998      -7.89472970E-21
   1.40799999      -1.25424378E-20
   1.41600001      -1.62636859E-20
   1.42400002      -1.89710335E-20
   1.43200004      -2.07776251E-20
   1.44000006      -2.15287713E-20
   1.44799995      -2.09474637E-20
   1.45599997      -1.90215788E-20
   1.46399999      -1.58603998E-20
   1.47200000      -1.14658582E-20
   1.48000002      -5.99803849E-21
   1.48800004       1.25127878E-23
   1.49600005       5.96555186E-21
   1.50399995       1.14460786E-20
   1.51199996       1.60937876E-20
   1.51999998       1.95549180E-20
   1.52800000       2.16326568E-20
   1.53600001       2.22283222E-20
   1.54400003       2.11949926E-20
   1.55200005       1.84954079E-20
   1.55999994       1.43686733E-20
   1.56799996       9.15403868E-21
   1.57599998       3.18796963E-21
   1.58399999      -2.98590552E-21
   1.59200001      -8.65912214E-21
   1.60000002      -1.33784791E-20
   1.60800004      -1.70112407E-20
   1.61600006      -1.93692628E-20
   1.62399995      -2.01871457E-20
   1.63199997      -1.94729173E-20
   1.63999999      -1.74433133E-20
   1.64800000      -1.41670448E-20
   1.65600002      -9.71683573E-21
   1.66400003      -4.55659468E-21
   1.67200005       6.76083886E-22
   1.67999995       5.62668205E-21
   1.68799996       1.00757691E-20
   1.69599998       1.36053165E-20
   1.70400000       1.58494672E-20
   1.71200001       1.68261946E-20
   1.72000003       1.66492167E-20
   1.72800004       1.52072131E-20
   1.73599994       1.24637531E-20
   1.74399996       8.76309244E-21
   1.75199997       4.54767866E-21
   1.75999999       8.37687356E-23
   1.76800001      -4.31708268E-21
   1.77600002      -8.15456458E-21
   1.78400004      -1.10403150E-20
   1.79200006      -1.28789517E-20
   1.79999995      -1.36462554E-20
   1.80799997      -1.32673655E-20
   1.81599998      -1.17870038E-20
   1.82400000      -9.41697468E-21
   1.83200002      -6.38255711E-21
   1.84000003      -2.90930226E-21
   1.84800005       6.68372840E-22
   1.85599995       3.95467054E-21
   1.86399996       6.62874795E-21
   1.87199998       8.47688229E-21
   1.88000000       9.39998274E-21
   1.88800001       9.44417066E-21
   1.89600003       8.73051655E-21
   1.90400004       7.36090821E-21
   1.91199994       5.47684038E-21
   1.91999996       3.31438286E-21
   1.92799997       1.08477942E-21
   1.93599999      -1.07261879E-21
   1.94400001      -2.93047937E-21
   1.95200002      -4.17395579E-21
   1.96000004      -4.68424141E-21
   1.96800005      -4.62189308E-21
   1.97599995      -4.15038236E-21
   1.98399997      -3.31978256E-21
   1.99199998      -2.27127095E-21
   2.00000000      -1.26326181E-21
   2.00799990      -4.21563355E-22
   2.01600003       2.81514973E-22
   2.02399993       7.78350905E-22
   2.03200006       9.00976998E-22
   2.03999996       6.30310869E-22
   2.04800010       1.13235606E-22
   2.05599999      -5.39698494E-22
   2.06399989      -1.25424633E-21
   2.07200003      -1.84357798E-21
   2.07999992      -2.07212681E-21
   2.08800006      -1.84836093E-21
   2.09599996      -1.22997042E-21
   2.10400009      -3.04813708E-22
   2.11199999       8.35457821E-22
   2.11999989       2.05951554E-21
   2.12800002       3.19921230E-21
   2.13599992       4.07672128E-21
   2.14400005       4.55679259E-21
   2.15199995       4.59333636E-21
   2.16000009       4.16774427E-21
   2.16799998       3.21855027E-21
   2.17600012       1.77058475E-21
   2.18400002       6.73496309E-23
   2.19199991      -1.61489869E-21
   2.20000005      -3.18341711E-21
   2.20799994      -4.53922874E-21
   2.21600008      -5.37412297E-21
   2.22399998      -5.47751085E-21
   2.23200011      -5.03150864E-21
   2.24000001      -4.25847079E-21
   2.24799991      -3.05604886E-21
   2.25600004      -1.36603537E-21
   2.26399994       4.30782930E-22
   2.27200007       1.91467533E-21
   2.27999997       3.06988717E-21
   2.28800011       3.93144405E-21
   2.29600000       4.23102197E-21
   2.30399990       3.83360813E-21
   2.31200004       3.08357059E-21
   2.31999993       2.30221732E-21
   2.32800007       1.40276352E-21
   2.33599997       3.56487026E-22
   2.34400010      -4.89619332E-22
   2.35200000      -9.12075980E-22
   2.35999990      -1.10310149E-21
   2.36800003      -1.17252630E-21
   2.37599993      -9.02804126E-22
   2.38400006      -2.55225230E-22
   2.39199996       4.16104513E-22
   2.40000010       8.60844804E-22
   2.40799999       1.13654939E-21
   2.41599989       1.19571048E-21
   2.42400002       7.89878170E-22
   2.43199992      -1.02890554E-22
   2.44000006      -1.19796685E-21
   2.44799995      -2.29006427E-21
   2.45600009      -3.33546284E-21
   2.46399999      -4.19319461E-21
   2.47199988      -4.64748317E-21
   2.48000002      -4.63151471E-21
   2.48799992      -4.16594652E-21
   2.49600005      -3.20203251E-21
   2.50399995      -1.73246779E-21
   2.51200008       9.85637904E-23
   2.51999998       2.11629212E-21
   2.52800012       4.15112876E-21
   2.53600001       5.92183811E-21
   2.54399991       7.13857596E-21
   2.55200005       7.72812874E-21
   2.55999994       7.73093986E-21
   2.56800008       7.07149032E-21
   2.57599998       5.68497244E-21
   2.58400011       3.72215362E-21
   2.59200001       1.38279587E-21
   2.59999990      -1.24888743E-21
   2.60800004      -3.97899684E-21
   2.61599994      -6.38401275E-21
   2.62400007      -8.14276595E-21
   2.63199997      -9.22260743E-21
   2.64000010      -9.59381361E-21
   2.64800000      -9.10644671E-21
   2.65599990      -7.78730528E-21
   2.66400003      -5.89890848E-21
   2.67199993      -3.59822920E-21
   2.68000007      -8.88819200E-22
   2.68799996       2.04536885E-21
   2.69600010       4.82477165E-21
   2.70400000       7.20322044E-21
   2.71199989       9.07595250E-21
   2.72000003       1.02240962E-20
   2.72799993       1.04109097E-20
   2.73600006       9.67421573E-21
   2.74399996       8.22891390E-21
   2.75200009       6.19032324E-21
   2.75999999       3.64818962E-21
   2.76799989       8.50115891E-22
   2.77600002      -1.93506989E-21
   2.78399992      -4.58070813E-21
   2.79200006      -6.95169615E-21
   2.79999995      -8.77981458E-21
   2.80800009      -9.84282971E-21
   2.81599998      -1.01063740E-20
   2.82399988      -9.61448263E-21
   2.83200002      -8.42064209E-21
   2.83999991      -6.66215910E-21
   2.84800005      -4.52664735E-21
   2.85599995      -2.13189284E-21
   2.86400008       4.30859115E-22
   2.87199998       2.97913662E-21
   2.88000011       5.27536374E-21
   2.88800001       7.12088851E-21
   2.89599991       8.36598032E-21
   2.90400004       8.93957756E-21
   2.91199994       8.89880741E-21
   2.92000008       8.33991201E-21
   2.92799997       7.29149451E-21
   2.93600011       5.80136660E-21
   2.94400001       4.01380830E-21
   2.95199990       2.02759618E-21
   2.96000004      -1.56067194E-22
   2.96799994      -2.41180239E-21
   2.97600007      -4.43889431E-21
   2.98399997      -6.05927207E-21
   2.99200010      -7.30557274E-21
   3.00000000      -8.12182875E-21
   3.00799990      -8.31340426E-21
   3.01600003      -7.88666146E-21
   3.02399993      -7.06958554E-21
   3.03200006      -5.92214103E-21
   3.03999996      -4.30716944E-21
   3.04800010      -2.27712160E-21
   3.05599999      -8.57098762E-23
   3.06399989       2.16225618E-21
   3.07200003       4.44835883E-21
   3.07999992       6.49614137E-21
   3.08800006       7.93410641E-21
   3.09599996       8.72171725E-21
   3.10400009       9.00758247E-21
   3.11199999       8.71804422E-21
   3.11999989       7.69848676E-21
   3.12800002       6.07713965E-21
   3.13599992       4.09440024E-21
   3.14400005       1.78512604E-21
   3.15199995      -8.05679016E-22
   3.16000009      -3.33403608E-21
   3.16799998      -5.42332002E-21
   3.17600012      -6.99316584E-21
   3.18400002      -8.07618033E-21
   3.19199991      -8.58249807E-21
   3.20000005      -8.46195023E-21
   3.20799994      -7.82712708E-21
   3.21600008      -6.75245265E-21
   3.22399998      -5.20828699E-21
   3.23200011      -3.28540286E-21
   3.24000001      -1.23268379E-21
   3.24799991       7.60356142E-22
   3.25600004       2.59774759E-21
   3.26399994       4.15454573E-21
   3.27200007       5.35408848E-21
   3.27999997       6.27449170E-21
   3.28800011       6.97784927E-21
   3.29600000       7.36707733E-21
   3.30399990       7.35987908E-21
   3.31200004       7.00433036E-21
   3.31999993       6.29755461E-21
   3.32800007       5.13265853E-21
   3.33599997       3.53131845E-21
   3.34400010       1.68097792E-21
   3.35200000      -3.10597308E-22
   3.35999990      -2.43360070E-21
   3.36800003      -4.55317085E-21
   3.37599993      -6.45145382E-21
   3.38400006      -8.05042384E-21
   3.39199996      -9.31276284E-21
   3.40000010      -1.00129527E-20
   3.40799999      -9.89519251E-21
   3.41599989      -8.95101673E-21
   3.42400002      -7.29962738E-21
   3.43199992      -4.97474943E-21
   3.44000006      -2.08072133E-21
   3.44799995       1.04623424E-21
   3.45600009       4.07680852E-21
   3.46399999       6.89148887E-21
   3.47199988       9.36859188E-21
   3.48000002       1.12162605E-20
   3.48799992       1.21877753E-20
   3.49600005       1.22357962E-20
   3.50399995       1.13446811E-20
   3.51200008       9.47027370E-21
   3.51999998       6.74408068E-21
   3.52800012       3.49640440E-21
   3.53600001       1.02608116E-23
   3.54399991      -3.54445075E-21
   3.55200005      -6.94183622E-21
   3.55999994      -9.88991842E-21
   3.56800008      -1.21758571E-20
   3.57599998      -1.36425832E-20
   3.58400011      -1.40879424E-20
   3.59200001      -1.33684964E-20
   3.59999990      -1.15427723E-20
   3.60800004      -8.79203245E-21
   3.61599994      -5.30392934E-21
   3.62400007      -1.32405777E-21
   3.63199997       2.81910968E-21
   3.64000010       6.83105379E-21
   3.64800000       1.04729870E-20
   3.65599990       1.34395176E-20
   3.66400003       1.53724586E-20
   3.67199993       1.60322078E-20
   3.68000007       1.53440953E-20
   3.68799996       1.33159180E-20
   3.69600010       1.00642443E-20
   3.70400000       5.88975820E-21
   3.71199989       1.19689854E-21
   3.72000003      -3.62394773E-21
   3.72799993      -8.16967032E-21
   3.73600006      -1.20053553E-20
   3.74399996      -1.47886048E-20
   3.75200009      -1.63250104E-20
   3.75999999      -1.64544545E-20
   3.76799989      -1.50419305E-20
   3.77600002      -1.21677388E-20
   3.78399992      -8.19465134E-21
   3.79200006      -3.58122676E-21
   3.79999995       1.25393492E-21
   3.80800009       5.86976531E-21
   3.81599998       9.78971567E-21
   3.82399988       1.26478606E-20
   3.83200002       1.42700740E-20
   3.83999991       1.45913335E-20
   3.84800005       1.35959057E-20
   3.85599995       1.13731300E-20
   3.86400008       8.16026276E-21
   3.87199998       4.30304726E-21
   3.88000011       2.02206494E-22
   3.88800001      -3.72623661E-21
   3.89599991      -7.11171844E-21
   3.90400004      -9.69577009E-21
   3.91199994      -1.13542769E-20
   3.92000008      -1.20661741E-20
   3.92799997      -1.18623605E-20
   3.93600011      -1.08066551E-20
   3.94400001      -9.02508574E-21
   3.95199990      -6.71920104E-21
   3.96000004      -4.11568924E-21
   3.96799994      -1.42683122E-21
   3.97600007       1.12147657E-21
   3.98399997       3.30222436E-21
   3.99200010       4.99559898E-21
   4.00000000       6.21865903E-21
   4.00799990       6.98696845E-21
   4.01599979       7.23700156E-21
   4.02400017       6.95084231E-21
   4.03200006       6.23816805E-21
   4.03999996       5.20606556E-21
   4.04799986       3.87086074E-21
   4.05600023       2.29350345E-21
   4.06400013       6.75609711E-22
   4.07200003      -7.77430980E-22
   4.07999992      -1.97684615E-21
   4.08799982      -2.86895034E-21
   4.09600019      -3.37109623E-21
   4.10400009      -3.45766787E-21
   4.11199999      -3.18163027E-21
   4.11999989      -2.56473690E-21
   4.12799978      -1.59838184E-21
   4.13600016      -3.78614057E-22
   4.14400005       8.98820896E-22
   4.15199995       2.08886349E-21
   4.15999985       3.10816225E-21
   4.16800022       3.81919023E-21
   4.17600012       4.07281640E-21
   4.18400002       3.87132522E-21
   4.19199991       3.35006007E-21
   4.19999981       2.60801040E-21
   4.20800018       1.68172725E-21
   4.21600008       6.55962405E-22
   4.22399998      -3.34042229E-22
   4.23199987      -1.19833985E-21
   4.23999977      -1.89291559E-21
   4.24800014      -2.35648711E-21
   4.25600004      -2.53763442E-21
   4.26399994      -2.46236542E-21
   4.27199984      -2.21726934E-21
   4.28000021      -1.89999832E-21
   4.28800011      -1.61580342E-21
   4.29600000      -1.45666960E-21
   4.30399990      -1.43799665E-21
   4.31199980      -1.50089842E-21
   4.32000017      -1.59402955E-21
   4.32800007      -1.70142530E-21
   4.33599997      -1.79274252E-21
   4.34399986      -1.81576949E-21
   4.35200024      -1.74010811E-21
   4.36000013      -1.54233369E-21
   4.36800003      -1.16078906E-21
   4.37599993      -5.47616487E-22
   4.38399982       2.31794824E-22
   4.39200020       1.02226629E-21
   4.40000010       1.70040990E-21
   4.40799999       2.20940689E-21
   4.41599989       2.49260740E-21
   4.42399979       2.48507513E-21
   4.43200016       2.18439578E-21
   4.44000006       1.66013543E-21
   4.44799995       9.86576661E-22
   4.45599985       2.27493677E-22
   4.46400023      -5.20552373E-22
   4.47200012      -1.14587870E-21
   4.48000002      -1.57952955E-21
   4.48799992      -1.76838209E-21
   4.49599981      -1.62267320E-21
   4.50400019      -1.09446567E-21
   4.51200008      -2.93190442E-22
   4.51999998       5.82127952E-22
   4.52799988       1.40534715E-21
   4.53599977       2.11205080E-21
   4.54400015       2.57886137E-21
   4.55200005       2.67157931E-21
   4.55999994       2.39277805E-21
   4.56799984       1.83409893E-21
   4.57600021       1.01581697E-21
   4.58400011      -6.60243824E-23
   4.59200001      -1.26943022E-21
   4.59999990      -2.35007404E-21
   4.60799980      -3.14488859E-21
   4.61600018      -3.57309915E-21
   4.62400007      -3.52868868E-21
   4.63199997      -2.94159926E-21
   4.63999987      -1.89440557E-21
   4.64799976      -5.49623046E-22
   4.65600014       9.57642606E-22
   4.66400003       2.45711537E-21
   4.67199993       3.71264872E-21
   4.67999983       4.56992045E-21
   4.68800020       4.99881400E-21
   4.69600010       4.91914213E-21
   4.70400000       4.18097189E-21
   4.71199989       2.80489090E-21
   4.71999979       1.04433198E-21
   4.72800016      -8.54097304E-22
   4.73600006      -2.74466282E-21
   4.74399996      -4.41788603E-21
   4.75199986      -5.60109075E-21
   4.76000023      -6.17448766E-21
   4.76800013      -6.18071575E-21
   4.77600002      -5.63479836E-21
   4.78399992      -4.54097801E-21
   4.79199982      -3.04435322E-21
   4.80000019      -1.34874677E-21
   4.80800009       4.31142247E-22
   4.81599998       2.14641898E-21
   4.82399988       3.50452838E-21
   4.83199978       4.30624774E-21
   4.84000015       4.63403906E-21
   4.84800005       4.62612430E-21
   4.85599995       4.28079336E-21
   4.86399984       3.65964534E-21
   4.87200022       3.02914005E-21
   4.88000011       2.60564175E-21
   4.88800001       2.38395169E-21
   4.89599991       2.34640403E-21
   4.90399981       2.58438547E-21
   4.91200018       3.10242813E-21
   4.92000008       3.74554571E-21
   4.92799997       4.37900329E-21
   4.93599987       4.90778576E-21
   4.94399977       5.13684855E-21
   4.95200014       4.87515292E-21
   4.96000004       4.14516038E-21
   4.96799994       3.06775056E-21
   4.97599983       1.65686680E-21
   4.98400021      -3.92687165E-23
   4.99200010      -1.75747931E-21
   5.00000000      -3.22196037E-21
   5.00799990      -4.36035174E-21
   5.01599979      -5.13079818E-21
   5.02400017      -5.35853659E-21
   5.03200006      -4.93213832E-21
   5.03999996      -3.94928619E-21
   5.04799986      -2.54932683E-21
   5.05600023      -8.46873711E-22
   5.06400013       8.99362723E-22
   5.07200003       2.33185749E-21
   5.07999992       3.26174097E-21
   5.08799982       3.65349400E-21
   5.09600019       3.40122168E-21
   5.10400009       2.41335457E-21
   5.11199999       8.35368105E-22
   5.11999989      -1.10832236E-21
   5.12799978      -3.37628853E-21
   5.13600016      -5.93067335E-21
   5.14400005      -8.46065614E-21
   5.15199995      -1.05769961E-20
   5.15999985      -1.21270098E-20
   5.16800022      -1.30867809E-20
   5.17600012      -1.33520465E-20
   5.18400002      -1.28660464E-20
   5.19199991      -1.17554046E-20
   5.19999981      -1.01597893E-20
   5.20800018      -8.11579938E-21
   5.21600008      -5.71034402E-21
   5.22399998      -3.12839829E-21
   5.23199987      -4.81624750E-22
   5.23999977       2.20115063E-21
   5.24800014       4.80445402E-21
   5.25600004       7.15944611E-21
   5.26399994       9.21693429E-21
   5.27199984       1.09972523E-20
   5.28000021       1.24313073E-20
   5.28800011       1.34055491E-20
   5.29600000       1.38559845E-20
   5.30399990       1.36923094E-20
   5.31199980       1.27651376E-20
   5.32000017       1.10004779E-20
   5.32800007       8.43404662E-21
   5.33599997       5.10759431E-21
   5.34399986       1.11348234E-21
   5.35200024      -3.29018399E-21
   5.36000013      -7.79484926E-21
   5.36800003      -1.21824026E-20
   5.37599993      -1.61707719E-20
   5.38399982      -1.92850811E-20
   5.39200020      -2.10917728E-20
   5.40000010      -2.13898244E-20
   5.40799999      -2.00379430E-20
   5.41599989      -1.68849939E-20
   5.42399979      -1.20468969E-20
   5.43200016      -5.96061301E-21
   5.44000006       9.60231685E-22
   5.44799995       8.39939712E-21
   5.45599985       1.58177047E-20
   5.46400023       2.24686214E-20
   5.47200012       2.78067070E-20
   5.48000002       3.15210614E-20
   5.48799992       3.32172922E-20
   5.49599981       3.25265996E-20
   5.50400019       2.95106312E-20
   5.51200008       2.45603495E-20
   5.51999998       1.80014066E-20
   5.52799988       1.01909314E-20
   5.53599977       1.80944305E-21
   5.54400015      -6.38376597E-21
   5.55200005      -1.39211508E-20
   5.55999994      -2.04253689E-20
   5.56799984      -2.53344225E-20
   5.57600021      -2.82049848E-20
   5.58400011      -2.90255900E-20
   5.59200001      -2.79455312E-20
   5.59999990      -2.50246725E-20
   5.60799980      -2.05091613E-20
   5.61600018      -1.49920945E-20
   5.62400007      -9.04654397E-21
   5.63199997      -3.00031939E-21
   5.63999987       2.80203979E-21
   5.64799976       7.88280909E-21
   5.65600014       1.18997072E-20
   5.66400003       1.47230313E-20
   5.67199993       1.62192347E-20
   5.67999983       1.62758465E-20
   5.68800020       1.50329543E-20
   5.69600010       1.28102150E-20
   5.70400000       9.85716482E-21
   5.71199989       6.39363317E-21
   5.71999979       2.75673166E-21
   5.72800016      -7.19299176E-22
   5.73600006      -3.83817903E-21
   5.74399996      -6.41186346E-21
   5.75199986      -8.17681687E-21
   5.76000023      -8.95804292E-21
   5.76800013      -8.75209272E-21
   5.77600002      -7.61331462E-21
   5.78399992      -5.64588775E-21
   5.79199982      -3.09372516E-21
   5.80000019      -2.53593739E-22
   5.80800009       2.64725725E-21
   5.81599998       5.35449682E-21
   5.82399988       7.51343579E-21
   5.83199978       8.83555233E-21
   5.84000015       9.18387857E-21
   5.84800005       8.42929437E-21
   5.85599995       6.46494802E-21
   5.86399984       3.42926585E-21
   5.87200022      -3.19011362E-22
   5.88000011      -4.44255766E-21
   5.88800001      -8.60155635E-21
   5.89599991      -1.22956375E-20
   5.90399981      -1.50383649E-20
   5.91200018      -1.65861183E-20
   5.92000008      -1.67591041E-20
   5.92799997      -1.52760436E-20
   5.93599987      -1.20519068E-20
   5.94399977      -7.40478756E-21
   5.95200014      -1.74533898E-21
   5.96000004       4.59946711E-21
   5.96799994       1.10740364E-20
   5.97599983       1.68486173E-20
   5.98400021       2.12988975E-20
   5.99200010       2.41395682E-20
   6.00000000       2.50268648E-20
   6.00799990       2.35637503E-20
   6.01599979       1.97856901E-20
   6.02400017       1.41456221E-20
   6.03200006       7.03338508E-21
   6.03999996      -1.17270280E-21
   6.04799986      -9.68607656E-21
   6.05600023      -1.75129613E-20
   6.06400013      -2.39712951E-20
   6.07200003      -2.85657874E-20
   6.07999992      -3.06499174E-20
   6.08799982      -2.97611248E-20
   6.09600019      -2.60308423E-20
   6.10400009      -1.98365391E-20
   6.11199999      -1.14292676E-20
   6.11999989      -1.30539127E-21
   6.12799978       9.50798151E-21
   6.13600016       1.99302803E-20
   6.14400005       2.91739978E-20
   6.15199995       3.64140448E-20
   6.15999985       4.07087277E-20
   6.16800022       4.15309129E-20
   6.17600012       3.89052478E-20
   6.18400002       3.29401318E-20
   6.19199991       2.37889341E-20
   6.19999981       1.21061792E-20
   6.20800018      -1.02178525E-21
   6.21600008      -1.45793022E-20
   6.22399998      -2.75855008E-20
   6.23199987      -3.87875781E-20
   6.23999977      -4.69909997E-20
   6.24800014      -5.15617057E-20
   6.25600004      -5.22186455E-20
   6.26399994      -4.86987044E-20
   6.27199984      -4.10859318E-20
   6.28000021      -3.01099333E-20
   6.28800011      -1.67357363E-20
   6.29600000      -1.84505867E-21
   6.30399990       1.34368333E-20
   6.31199980       2.76474715E-20
   6.32000017       3.95394175E-20
   6.32800007       4.83224891E-20
   6.33599997       5.32924551E-20
   6.34399986       5.38131330E-20
   6.35200024       4.98125871E-20
   6.36000013       4.18247107E-20
   6.36800003       3.05300021E-20
   6.37599993       1.67121535E-20
   6.38399982       1.55076584E-21
   6.39200020      -1.35689722E-20
   6.40000010      -2.74864427E-20
   6.40799999      -3.91916429E-20
   6.41599989      -4.76204518E-20
   6.42399979      -5.19651501E-20
   6.43200016      -5.19985993E-20
   6.44000006      -4.78434933E-20
   6.44799995      -3.97519867E-20
   6.45599985      -2.83474085E-20
   6.46400023      -1.47145851E-20
   6.47200012      -2.28734448E-23
   6.48000002       1.46605324E-20
   6.48799992       2.81605174E-20
   6.49599981       3.92389635E-20
   6.50400019       4.69763399E-20
   6.51200008       5.08589221E-20
   6.51999998       5.05874194E-20
   6.52799988       4.61511884E-20
   6.53599977       3.80181192E-20
   6.54400015       2.69745989E-20
   6.55200005       1.38927262E-20
   6.55999994      -1.83044318E-22
   6.56799984      -1.39908812E-20
   6.57600021      -2.63432387E-20
   6.58400011      -3.63193164E-20
   6.59200001      -4.31519640E-20
   6.59999990      -4.62563308E-20
   6.60799980      -4.54737792E-20