 -0.239999995         0.00000000    
 -0.231999993         0.00000000    
 -0.224000007         0.00000000    
 -0.216000006         0.00000000    
 -0.208000004         0.00000000    
 -0.200000003         0.00000000    
 -0.192000002         0.00000000    
 -0.184000000         4.17420748E-32
 -0.175999999        -1.70415377E-31
 -0.167999998        -1.81725502E-30
 -0.159999996        -3.44739843E-30
 -0.151999995         6.01950946E-30
 -0.143999994         3.58756663E-29
 -0.136000007         5.18360253E-29
 -0.128000006        -2.95934182E-29
 -0.119999997        -2.26846188E-28
 -0.112000003        -3.61931444E-28
 -0.104000002        -1.54305495E-28
  -9.60000008E-02     4.95942464E-28
  -8.79999995E-02     1.37495750E-27
  -7.99999982E-02     1.93339600E-27
  -7.19999969E-02     1.02690440E-27
  -6.40000030E-02    -2.78467399E-27
  -5.60000017E-02    -8.73537343E-27
  -4.80000004E-02    -1.07858178E-26
  -3.99999991E-02    -4.77970794E-28
  -3.20000015E-02     2.16165560E-26
  -2.40000002E-02     3.73028471E-26
  -1.60000008E-02     2.21784546E-26
  -8.00000038E-03    -2.58938877E-26
   0.00000000        -7.23764042E-26
   8.00000038E-03    -7.16165586E-26
   1.60000008E-02    -1.30597186E-26
   2.40000002E-02     6.37166897E-26
   3.20000015E-02     1.06685426E-25
   3.99999991E-02     9.88004465E-26
   4.80000004E-02     5.74795856E-26
   5.60000017E-02    -7.62775417E-27
   6.40000030E-02    -1.09258234E-25
   7.19999969E-02    -2.32678715E-25
   7.99999982E-02    -2.86646341E-25
   8.79999995E-02    -1.54006504E-25
   9.60000008E-02     1.70166147E-25
  0.104000002         5.03865921E-25
  0.112000003         5.91921139E-25
  0.119999997         3.29876486E-25
  0.128000006        -1.31715908E-25
  0.136000007        -5.24671142E-25
  0.143999994        -6.95856325E-25
  0.151999995        -6.77278305E-25
  0.159999996        -5.31648123E-25
  0.167999998        -1.92223734E-25
  0.175999999         4.61999692E-25
  0.184000000         1.33829503E-24
  0.192000002         1.98117348E-24
  0.200000003         1.78613571E-24
  0.208000004         4.65620613E-25
  0.216000006        -1.61266421E-24
  0.224000007        -3.50476780E-24
  0.231999993        -4.14401886E-24
  0.239999995        -2.88823356E-24
  0.247999996         1.04778108E-25
  0.256000012         3.80731449E-24
  0.263999999         6.60888694E-24
  0.272000015         6.94219369E-24
  0.280000001         4.06777309E-24
  0.287999988        -1.34960089E-24
  0.296000004        -7.25131120E-24
  0.303999990        -1.09189133E-23
  0.312000006        -1.02024667E-23
  0.319999993        -4.70907401E-24
  0.328000009         3.68885638E-24
  0.335999995         1.14586717E-23
  0.344000012         1.50058084E-23
  0.351999998         1.24843873E-23
  0.360000014         4.76347702E-24
  0.368000001        -5.05340667E-24
  0.375999987        -1.32103436E-23
  0.384000003        -1.69318170E-23
  0.391999990        -1.51888604E-23
  0.400000006        -8.51402902E-24
  0.407999992         1.48410305E-24
  0.416000009         1.23153107E-23
  0.423999995         2.06528944E-23
  0.432000011         2.29296322E-23
  0.439999998         1.68491886E-23
  0.448000014         3.15007917E-24
  0.456000000        -1.37497525E-23
  0.463999987        -2.71505603E-23
  0.472000003        -3.10468736E-23
  0.479999989        -2.30527544E-23
  0.488000005        -5.67001428E-24
  0.495999992         1.46393178E-23
  0.504000008         3.00057255E-23
  0.512000024         3.42746590E-23
  0.519999981         2.56110051E-23
  0.527999997         7.52399360E-24
  0.536000013        -1.24375849E-23
  0.544000030        -2.60816222E-23
  0.551999986        -2.84446676E-23
  0.560000002        -1.99497275E-23
  0.568000019        -5.60140704E-24
  0.575999975         8.07725094E-24
  0.583999991         1.63407819E-23
  0.592000008         1.78624630E-23
  0.600000024         1.43420655E-23
  0.607999980         8.94176913E-24
  0.615999997         4.62442727E-24
  0.624000013         3.01111126E-24
  0.632000029         3.83377841E-24
  0.639999986         5.02003983E-24
  0.648000002         3.71466002E-24
  0.656000018        -2.13264858E-24
  0.663999975        -1.22031836E-23
  0.671999991        -2.33203329E-23
  0.680000007        -3.03980576E-23
  0.688000023        -2.90744027E-23
  0.695999980        -1.80889355E-23
  0.703999996        -5.01325493E-25
  0.712000012         1.75477596E-23
  0.720000029         2.91592210E-23
  0.727999985         2.91554881E-23
  0.736000001         1.58518838E-23
  0.744000018        -7.87483475E-24
  0.751999974        -3.50874539E-23
  0.759999990        -5.70364862E-23
  0.768000007        -6.59383524E-23
  0.776000023        -5.75216483E-23
  0.783999979        -3.12165797E-23
  0.791999996         9.43885642E-24
  0.800000012         5.65100951E-23
  0.808000028         9.83361693E-23
  0.815999985         1.21924410E-22
  0.824000001         1.17234273E-22
  0.832000017         8.11069044E-23
  0.839999974         1.98425607E-23
  0.847999990        -5.10066922E-23
  0.856000006        -1.10683774E-22
  0.864000022        -1.40105786E-22
  0.871999979        -1.28755353E-22
  0.879999995        -7.82053414E-23
  0.888000011        -1.04042865E-24
  0.896000028         8.32139897E-23
  0.903999984         1.53171544E-22
  0.912000000         1.90603045E-22
  0.920000017         1.84702580E-22
  0.927999973         1.34806143E-22
  0.935999990         5.05819032E-23
  0.944000006        -4.98758506E-23
  0.952000022        -1.43532598E-22
  0.959999979        -2.07228433E-22
  0.967999995        -2.23291055E-22
  0.976000011        -1.85321312E-22
  0.984000027        -1.01710373E-22
  0.991999984         5.30467859E-24
   1.00000000         1.05564432E-22
   1.00800002         1.69680333E-22
   1.01600003         1.76615266E-22
   1.02400005         1.17606022E-22
   1.03199995        -3.88716970E-24
   1.03999996        -1.72485346E-22
   1.04799998        -3.60616163E-22
   1.05599999        -5.27817567E-22
   1.06400001        -6.24476025E-22
   1.07200003        -6.02341976E-22
   1.08000004        -4.31629851E-22
   1.08800006        -1.14921206E-22
   1.09599996         3.07263847E-22
   1.10399997         7.65771641E-22
   1.11199999         1.17949230E-21
   1.12000000         1.47277448E-21
   1.12800002         1.58567949E-21
   1.13600004         1.48295904E-21
   1.14400005         1.15739329E-21
   1.15199995         6.33990622E-22
   1.15999997        -2.58161295E-23
   1.16799998        -7.30936099E-22
   1.17600000        -1.37539668E-21
   1.18400002        -1.85851691E-21
   1.19200003        -2.10930975E-21
   1.20000005        -2.09732533E-21
   1.20799994        -1.83801572E-21
   1.21599996        -1.38655332E-21
   1.22399998        -8.18441094E-22
   1.23199999        -2.19218993E-22
   1.24000001         3.32445145E-22
   1.24800003         7.74099336E-22
   1.25600004         1.06610495E-21
   1.26400006         1.19692883E-21
   1.27199996         1.18423809E-21
   1.27999997         1.06785584E-21
   1.28799999         9.05706730E-22
   1.29600000         7.60648059E-22
   1.30400002         6.87000105E-22
   1.31200004         7.11786241E-22
   1.32000005         8.27032281E-22
   1.32799995         9.88311296E-22
   1.33599997         1.12836644E-21
   1.34399998         1.16733198E-21
   1.35200000         1.03393053E-21
   1.36000001         6.87603376E-22
   1.36800003         1.21775877E-22
   1.37600005        -6.24227477E-22
   1.38399994        -1.46708146E-21
   1.39199996        -2.29317690E-21
   1.39999998        -2.97343783E-21
   1.40799999        -3.38974011E-21
   1.41600001        -3.45977096E-21
   1.42400002        -3.15162033E-21
   1.43200004        -2.48436851E-21
   1.44000006        -1.52601000E-21
   1.44799995        -3.76595178E-22
   1.45599997         8.37302468E-22
   1.46399999         1.97991354E-21
   1.47200000         2.91995140E-21
   1.48000002         3.55407561E-21
   1.48800004         3.82385160E-21
   1.49600005         3.72624267E-21
   1.50399995         3.30593031E-21
   1.51199996         2.64015695E-21
   1.51999998         1.81833342E-21
   1.52800000         9.22035469E-22
   1.53600001         2.55783431E-23
   1.54400003        -8.10772457E-22
   1.55200005        -1.53921459E-21
   1.55999994        -2.12129398E-21
   1.56799996        -2.52818868E-21
   1.57599998        -2.74168247E-21
   1.58399999        -2.75225790E-21
   1.59200001        -2.56272408E-21
   1.60000002        -2.18682562E-21
   1.60800004        -1.64970702E-21
   1.61600006        -9.85737060E-22
   1.62399995        -2.36744276E-22
   1.63199997         5.42026606E-22
   1.63999999         1.27893805E-21
   1.64800000         1.88564868E-21
   1.65600002         2.26863128E-21
   1.66400003         2.34867131E-21
   1.67200005         2.08377156E-21
   1.67999995         1.48716068E-21
   1.68799996         6.31371048E-22
   1.69599998        -3.61036166E-22
   1.70400000        -1.33524308E-21
   1.71200001        -2.12655029E-21
   1.72000003        -2.58401914E-21
   1.72800004        -2.59496131E-21
   1.73599994        -2.10972759E-21
   1.74399996        -1.15961624E-21
   1.75199997         1.36160119E-22
   1.75999999         1.58226545E-21
   1.76800001         2.93629024E-21
   1.77600002         3.95130204E-21
   1.78400004         4.42152110E-21
   1.79200006         4.22263505E-21
   1.79999995         3.33693282E-21
   1.80799997         1.85893050E-21
   1.81599998        -1.75367234E-23
   1.82400000        -2.02711716E-21
   1.83200002        -3.86867607E-21
   1.84000003        -5.24872675E-21
   1.84800005        -5.92620544E-21
   1.85599995        -5.75586238E-21
   1.86399996        -4.72115758E-21
   1.87199998        -2.94833444E-21
   1.88000000        -6.89688493E-22
   1.88800001         1.71800950E-21
   1.89600003         3.91322063E-21
   1.90400004         5.56946321E-21
   1.91199994         6.44301763E-21
   1.91999996         6.40354884E-21
   1.92799997         5.44931926E-21
   1.93599999         3.70860288E-21
   1.94400001         1.42483981E-21
   1.95200002        -1.07775192E-21
   1.96000004        -3.44601343E-21
   1.96800005        -5.35744526E-21
   1.97599995        -6.56901929E-21
   1.98399997        -6.94388882E-21
   1.99199998        -6.45442691E-21
   2.00000000        -5.17117009E-21
   2.00799990        -3.24902146E-21
   2.01600003        -9.13611091E-22
   2.02399993         1.55679319E-21
   2.03200006         3.86149478E-21
   2.03999996         5.71912797E-21
   2.04800010         6.90927002E-21
   2.05599999         7.30125912E-21
   2.06399989         6.86385506E-21
   2.07200003         5.65771385E-21
   2.07999992         3.82114226E-21
   2.08800006         1.55437324E-21
   2.09599996        -8.95714021E-22
   2.10400009        -3.25879737E-21
   2.11199999        -5.26994062E-21
   2.11999989        -6.70152167E-21
   2.12800002        -7.39004290E-21
   2.13599992        -7.25351529E-21
   2.14400005        -6.29838704E-21
   2.15199995        -4.61848056E-21
   2.16000009        -2.38774044E-21
   2.16799998         1.57169580E-22
   2.17600012         2.74101361E-21
   2.18400002         5.08132325E-21
   2.19199991         6.91823895E-21
   2.20000005         8.04059380E-21
   2.20799994         8.30282540E-21
   2.21600008         7.64161809E-21
   2.22399998         6.08925777E-21
   2.23200011         3.78134671E-21
   2.24000001         9.51909493E-22
   2.24799991        -2.08967552E-21
   2.25600004        -4.99696860E-21
   2.26399994        -7.43367829E-21
   2.27200007        -9.11414014E-21
   2.27999997        -9.83652408E-21
   2.28800011        -9.50359519E-21
   2.29600000        -8.13338989E-21
   2.30399990        -5.86134649E-21
   2.31200004        -2.93012031E-21
   2.31999993         3.35789815E-22
   2.32800007         3.56934493E-21
   2.33599997         6.40656110E-21
   2.34400010         8.53009246E-21
   2.35200000         9.70283747E-21
   2.35999990         9.79178685E-21
   2.36800003         8.78326062E-21
   2.37599993         6.78999768E-21
   2.38400006         4.04735233E-21
   2.39199996         8.91424637E-22
   2.40000010        -2.28028088E-21
   2.40799999        -5.06405262E-21
   2.41599989        -7.10716167E-21
   2.42400002        -8.15684660E-21
   2.43199992        -8.09060268E-21
   2.44000006        -6.92747042E-21
   2.44799995        -4.82362902E-21
   2.45600009        -2.05586734E-21
   2.46399999         1.00726950E-21
   2.47199988         3.94804219E-21
   2.48000002         6.35347937E-21
   2.48799992         7.87534104E-21
   2.49600005         8.28359749E-21
   2.50399995         7.50095619E-21
   2.51200008         5.61202383E-21
   2.51999998         2.84733742E-21
   2.52800012        -4.50648190E-22
   2.53600001        -3.86986150E-21
   2.54399991        -6.97492748E-21
   2.55200005        -9.35596607E-21
   2.55999994        -1.06808065E-20
   2.56800008        -1.07446642E-20
   2.57599998        -9.50601211E-21
   2.58400011        -7.09668217E-21
   2.59200001        -3.80227826E-21
   2.59999990        -1.79104305E-23
   2.60800004         3.80593878E-21
   2.61599994         7.21687135E-21
   2.62400007         9.80978207E-21
   2.63199997         1.12730767E-20
   2.64000010         1.14329164E-20
   2.64800000         1.02861662E-20
   2.65599990         8.00872715E-21
   2.66400003         4.92843054E-21
   2.67199993         1.46715951E-21
   2.68000007        -1.93182741E-21
   2.68799996        -4.86765619E-21
   2.69600010        -7.02577647E-21
   2.70400000        -8.20140934E-21
   2.71199989        -8.31034838E-21
   2.72000003        -7.39526286E-21
   2.72799993        -5.62305627E-21
   2.73600006        -3.26634459E-21
   2.74399996        -6.65809004E-22
   2.75200009         1.82218397E-21
   2.75999999         3.87922262E-21
   2.76799989         5.26682011E-21
   2.77600002         5.85011412E-21
   2.78399992         5.60426215E-21
   2.79200006         4.60691497E-21
   2.79999995         3.02169017E-21
   2.80800009         1.07353241E-21
   2.81599998        -9.81692438E-22
   2.82399988        -2.89091344E-21
   2.83200002        -4.43639662E-21
   2.83999991        -5.46025275E-21
   2.84800005        -5.87768209E-21
   2.85599995        -5.67740987E-21
   2.86400008        -4.91082993E-21
   2.87199998        -3.67539813E-21
   2.88000011        -2.09733502E-21
   2.88800001        -3.20219164E-22
   2.89599991         1.50084400E-21
   2.90400004         3.20284030E-21
   2.91199994         4.62342829E-21
   2.92000008         5.61768040E-21
   2.92799997         6.08061397E-21
   2.93600011         5.96548521E-21
   2.94400001         5.29128697E-21
   2.95199990         4.13539456E-21
   2.96000004         2.61984599E-21
   2.96799994         8.97755012E-22
   2.97600007        -8.56633170E-22
   2.98399997        -2.45799647E-21
   2.99200010        -3.72744871E-21
   3.00000000        -4.51972739E-21
   3.00799990        -4.75068001E-21
   3.01600003        -4.41489921E-21
   3.02399993        -3.58469301E-21
   3.03200006        -2.39131291E-21
   3.03999996        -1.00042820E-21
   3.04800010         4.09515316E-22
   3.05599999         1.66317991E-21
   3.06399989         2.60444440E-21
   3.07200003         3.11600310E-21
   3.07999992         3.14109377E-21
   3.08800006         2.69633152E-21
   3.09599996         1.86763771E-21
   3.10400009         7.88890743E-22
   3.11199999        -3.87073397E-22
   3.11999989        -1.51227801E-21
   3.12800002        -2.45748070E-21
   3.13599992        -3.11709100E-21
   3.14400005        -3.41362616E-21
   3.15199995        -3.30483696E-21
   3.16000009        -2.79156796E-21
   3.16799998        -1.92377654E-21
   3.17600012        -7.98293612E-22
   3.18400002         4.50332898E-22
   3.19199991         1.66611058E-21
   3.20000005         2.69144376E-21
   3.20799994         3.38934509E-21
   3.21600008         3.66399854E-21
   3.22399998         3.47469818E-21
   3.23200011         2.84115901E-21
   3.24000001         1.83855088E-21
   3.24799991         5.86538404E-22
   3.25600004        -7.63286868E-22
   3.26399994        -2.04010305E-21
   3.27200007        -3.06831016E-21
   3.27999997        -3.68599961E-21
   3.28800011        -3.76994875E-21
   3.29600000        -3.26163313E-21
   3.30399990        -2.18691993E-21
   3.31200004        -6.60151370E-22
   3.31999993         1.13085566E-21
   3.32800007         2.95646771E-21
   3.33599997         4.58208097E-21
   3.34400010         5.80010402E-21
   3.35200000         6.45013833E-21
   3.35999990         6.43027550E-21
   3.36800003         5.70514385E-21
   3.37599993         4.31720183E-21
   3.38400006         2.39438212E-21
   3.39199996         1.47519652E-22
   3.40000010        -2.15533662E-21
   3.40799999        -4.23218357E-21
   3.41599989        -5.83748628E-21
   3.42400002        -6.79984873E-21
   3.43199992        -7.03669380E-21
   3.44000006        -6.54925056E-21
   3.44799995        -5.40948615E-21
   3.45600009        -3.74993485E-21
   3.46399999        -1.75615715E-21
   3.47199988         3.46944888E-22
   3.48000002         2.32338696E-21
   3.48799992         3.96533301E-21
   3.49600005         5.12554550E-21
   3.50399995         5.72924720E-21
   3.51200008         5.76106215E-21
   3.51999998         5.24263922E-21
   3.52800012         4.21949637E-21
   3.53600001         2.76730305E-21
   3.54399991         1.00558041E-21
   3.55200005        -8.98562705E-22
   3.55999994        -2.74920504E-21
   3.56800008        -4.35586162E-21
   3.57599998        -5.56364709E-21
   3.58400011        -6.26440357E-21
   3.59200001        -6.38986926E-21
   3.59999990        -5.90320796E-21
   3.60800004        -4.80358120E-21
   3.61599994        -3.14547767E-21
   3.62400007        -1.05831519E-21
   3.63199997         1.25179326E-21
   3.64000010         3.52418644E-21
   3.64800000         5.48335766E-21
   3.65599990         6.87945921E-21
   3.66400003         7.51891344E-21
   3.67199993         7.28387782E-21
   3.68000007         6.14517485E-21
   3.68799996         4.17325382E-21
   3.69600010         1.54356699E-21
   3.70400000        -1.47023306E-21
   3.71199989        -4.52098108E-21
   3.72000003        -7.22994306E-21
   3.72799993        -9.23958644E-21
   3.73600006        -1.02662614E-20
   3.74399996        -1.01416350E-20
   3.75200009        -8.83658873E-21
   3.75999999        -6.46447828E-21
   3.76799989        -3.26654149E-21
   3.77600002         4.16177215E-22
   3.78399992         4.17909053E-21
   3.79200006         7.59636953E-21
   3.79999995         1.02671209E-20
   3.80800009         1.18637580E-20
   3.81599998         1.21759023E-20
   3.82399988         1.11413385E-20
   3.83200002         8.85648630E-21
   3.83999991         5.56381754E-21
   3.84800005         1.62205393E-21
   3.85599995        -2.53555617E-21
   3.86400008        -6.44672742E-21
   3.87199998        -9.66967270E-21
   3.88000011        -1.18339294E-20
   3.88800001        -1.26868899E-20
   3.89599991        -1.21288217E-20
   3.90400004        -1.02252069E-20
   3.91199994        -7.19467803E-21
   3.92000008        -3.37647957E-21
   3.92799997         8.11771950E-22
   3.93600011         4.91753502E-21
   3.94400001         8.49511581E-21
   3.95199990         1.11473784E-20
   3.96000004         1.25681725E-20
   3.96799994         1.25799906E-20
   3.97600007         1.11585930E-20
   3.98399997         8.43846121E-21
   3.99200010         4.69658329E-21
   4.00000000         3.21470235E-22
   4.00799990        -4.22620348E-21
   4.01599979        -8.45790076E-21
   4.02400017        -1.19044861E-20
   4.03200006        -1.41666506E-20
   4.03999996        -1.49638621E-20
   4.04799986        -1.41738723E-20
   4.05600023        -1.18539013E-20
   4.06400013        -8.23752902E-21
   4.07200003        -3.70739725E-21
   4.07999992         1.25050746E-21
   4.08799982         6.10275923E-21
   4.09600019         1.03276416E-20
   4.10400009         1.34705644E-20
   4.11199999         1.51922528E-20
   4.11999989         1.53069966E-20
   4.12799978         1.38066525E-20
   4.13600016         1.08661628E-20
   4.14400005         6.82619330E-21
   4.15199995         2.15233082E-21
   4.15999985        -2.62394312E-21
   4.16800022        -6.96990462E-21
   4.17600012        -1.04108645E-20
   4.18400002        -1.25766455E-20
   4.19199991        -1.32348720E-20
   4.19999981        -1.23135560E-20
   4.20800018        -9.91247040E-21
   4.21600008        -6.29717697E-21
   4.22399998        -1.87031716E-21
   4.23199987         2.87996299E-21
   4.23999977         7.44375794E-21
   4.24800014         1.13486587E-20
   4.25600004         1.42040676E-20
   4.26399994         1.57275388E-20
   4.27199984         1.57604225E-20
   4.28000021         1.42800874E-20
   4.28800011         1.14076801E-20
   4.29600000         7.40362757E-21
   4.30399990         2.64410565E-21
   4.31199980        -2.42065642E-21
   4.32000017        -7.31649411E-21
   4.32800007        -1.15922957E-20
   4.33599997        -1.48577293E-20
   4.34399986        -1.68127335E-20
   4.35200024        -1.72732793E-20
   4.36000013        -1.61914401E-20
   4.36800003        -1.36652871E-20
   4.37599993        -9.93254246E-21
   4.38399982        -5.34507673E-21
   4.39200020        -3.30637177E-22
   4.40000010         4.65037628E-21
   4.40799999         9.14681377E-21
   4.41599989         1.27557519E-20
   4.42399979         1.51595000E-20
   4.43200016         1.61592770E-20
   4.44000006         1.57005116E-20
   4.44799995         1.38836191E-20
   4.45599985         1.09545645E-20
   4.46400023         7.27759481E-21
   4.47200012         3.29341133E-21
   4.48000002        -5.30131997E-22
   4.48799992        -3.75039772E-21
   4.49599981        -6.00100026E-21
   4.50400019        -7.03679720E-21
   4.51200008        -6.76658056E-21
   4.51999998        -5.26758671E-21
   4.52799988        -2.77856874E-21
   4.53599977         3.27682041E-22
   4.54400015         3.58801425E-21
   4.55200005         6.50309970E-21
   4.55999994         8.59600034E-21
   4.56799984         9.47090540E-21
   4.57600021         8.86666450E-21
   4.58400011         6.69843913E-21
   4.59200001         3.08033215E-21
   4.59999990        -1.67690281E-21
   4.60799980        -7.09509485E-21
   4.61600018        -1.25821029E-20
   4.62400007        -1.75026022E-20
   4.63199997        -2.12561458E-20
   4.63999987        -2.33518467E-20
   4.64799976        -2.34708363E-20
   4.65600014        -2.15082873E-20
   4.66400003        -1.75905919E-20
   4.67199993        -1.20648735E-20
   4.67999983        -5.46140264E-21
   4.68800020         1.56699239E-21
   4.69600010         8.32007098E-21
   4.70400000         1.41287780E-20
   4.71199989         1.84273610E-20
   4.71999979         2.08111065E-20
   4.72800016         2.10760483E-20
   4.73600006         1.92398091E-20
   4.74399996         1.55395426E-20
   4.75199986         1.04057035E-20
   4.76000023         4.41067647E-21
   4.76800013        -1.80252874E-21
   4.77600002        -7.59839871E-21
   4.78399992        -1.24194860E-20
   4.79199982        -1.58388608E-20
   4.80000019        -1.75917826E-20
   4.80800009        -1.75897760E-20
   4.81599998        -1.59212671E-20
   4.82399988        -1.28370951E-20
   4.83199978        -8.72029715E-21
   4.84000015        -4.03835634E-21
   4.84800005         7.14386781E-22
   4.85599995         5.07325662E-21
   4.86399984         8.64739944E-21
   4.87200022         1.11473267E-20
   4.88000011         1.23985981E-20
   4.88800001         1.23481845E-20
   4.89599991         1.10655602E-20
   4.90399981         8.73690539E-21
   4.91200018         5.64770448E-21
   4.92000008         2.15235505E-21
   4.92799997        -1.36515558E-21
   4.93599987        -4.53147917E-21
   4.94399977        -7.01863154E-21
   4.95200014        -8.57085696E-21
   4.96000004        -9.02426745E-21
   4.96799994        -8.32129075E-21
   4.97599983        -6.51900395E-21
   4.98400021        -3.78915283E-21
   4.99200010        -4.05954789E-22
   5.00000000         3.27883146E-21
   5.00799990         6.87154687E-21
   5.01599979         9.97786695E-21
   5.02400017         1.22436415E-20
   5.03200006         1.33901170E-20
   5.03999996         1.32412366E-20
   5.04799986         1.17423870E-20
   5.05600023         8.97095630E-21
   5.06400013         5.13784012E-21
   5.07200003         5.76985589E-22
   5.07999992        -4.28034746E-21
   5.08799982        -8.94761915E-21
   5.09600019        -1.29373600E-20
   5.10400009        -1.58183283E-20
   5.11199999        -1.72654194E-20
   5.11999989        -1.70951365E-20
   5.12799978        -1.52857290E-20
   5.13600016        -1.19830602E-20
   5.14400005        -7.49233219E-21
   5.15199995        -2.25371558E-21
   5.15999985         3.20149230E-21
   5.16800022         8.31184845E-21
   5.17600012         1.25560435E-20
   5.18400002         1.55182459E-20
   5.19199991         1.69366830E-20
   5.19999981         1.67294888E-20
   5.20800018         1.49993824E-20
   5.21600008         1.20212979E-20
   5.22399998         8.21465312E-21
   5.23199987         4.09900386E-21
   5.23999977         2.31915665E-22
   5.24800014        -2.86429685E-21
   5.25600004        -4.77417267E-21
   5.26399994        -5.24427904E-21
   5.27199984        -4.21212202E-21
   5.28000021        -1.80856498E-21
   5.28800011         1.66066222E-21
   5.29600000         5.74825175E-21
   5.30399990         9.91123125E-21
   5.31199980         1.35693777E-20
   5.32000017         1.61734425E-20
   5.32800007         1.72744102E-20
   5.33599997         1.65817530E-20
   5.34399986         1.39987976E-20
   5.35200024         9.63151172E-21
   5.36000013         3.77329503E-21
   5.36800003        -3.12803640E-21
   5.37599993        -1.05161467E-20
   5.38399982        -1.77816948E-20
   5.39200020        -2.43243962E-20
   5.40000010        -2.96148463E-20
   5.40799999        -3.32473873E-20
   5.41599989        -3.49755292E-20
   5.42399979        -3.47266222E-20
   5.43200016        -3.25972072E-20
   5.44000006        -2.88333900E-20
   5.44799995        -2.38007230E-20
   5.45599985        -1.79451292E-20
   5.46400023        -1.17468791E-20
   5.47200012        -5.67160103E-21
   5.48000002        -1.24883611E-22
   5.48799992         4.58188145E-21
   5.49599981         8.25086085E-21
   5.50400019         1.08035927E-20
   5.51200008         1.22768038E-20
   5.51999998         1.28117005E-20
   5.52799988         1.26363527E-20
   5.53599977         1.20396639E-20
   5.54400015         1.13363988E-20
   5.55200005         1.08272869E-20
   5.55999994         1.07604654E-20
   5.56799984         1.13009553E-20
   5.57600021         1.25112788E-20
   5.58400011         1.43431777E-20
   5.59200001         1.66392130E-20
   5.59999990         1.91430564E-20
   5.60799980         2.15202911E-20
   5.61600018         2.33897677E-20
   5.62400007         2.43644385E-20
   5.63199997         2.40966000E-20
   5.63999987         2.23215787E-20
   5.64799976         1.88939022E-20
   5.65600014         1.38116738E-20
   5.66400003         7.22726038E-21
   5.67199993        -5.58188031E-22
   5.67999983        -9.11557478E-21
   5.68800020        -1.79233479E-20
   5.69600010        -2.64123826E-20
   5.70400000        -3.40139673E-20
   5.71199989        -4.02041605E-20
   5.71999979        -4.45412074E-20
   5.72800016        -4.66946687E-20
   5.73600006        -4.64684542E-20
   5.74399996        -4.38164421E-20
   5.75199986        -3.88481627E-20
   5.76000023        -3.18207334E-20
   5.76800013        -2.31165090E-20
   5.77600002        -1.32092173E-20
   5.78399992        -2.62607267E-21
   5.79199982         8.08885219E-21
   5.80000019         1.84064262E-20
   5.80800009         2.78408799E-20
   5.81599998         3.59753902E-20
   5.82399988         4.24843937E-20
   5.83199978         4.71481802E-20
   5.84000015         4.98560884E-20
   5.84800005         5.05989192E-20
   5.85599995         4.94553291E-20
   5.86399984         4.65776420E-20
   5.87200022         4.21806569E-20
   5.88000011         3.65306094E-20
   5.88800001         2.99306031E-20
   5.89599991         2.27009509E-20
   5.90399981         1.51566307E-20
   5.91200018         7.58887886E-21
   5.92000008         2.53570945E-22
   5.92799997        -6.63288830E-21
   5.93599987        -1.28940526E-20
   5.94399977        -1.83927794E-20
   5.95200014        -2.30301687E-20
   5.96000004        -2.67418639E-20
   5.96799994        -2.94912119E-20
   5.97599983        -3.12611037E-20
   5.98400021        -3.20496007E-20
   5.99200010        -3.18707649E-20
   6.00000000        -3.07607241E-20
   6.00799990        -2.87836558E-20
   6.01599979        -2.60329959E-20
   6.02400017        -2.26281525E-20
   6.03200006        -1.87072873E-20
   6.03999996        -1.44195821E-20
   6.04799986        -9.91882370E-21
   6.05600023        -5.35814562E-21
   6.06400013        -8.86326854E-22
   6.07200003         3.35369878E-21
   6.07999992         7.22370205E-21
   6.08799982         1.05877034E-20
   6.09600019         1.33117061E-20
   6.10400009         1.52694100E-20
   6.11199999         1.63542331E-20
   6.11999989         1.64948344E-20
   6.12799978         1.56683421E-20
   6.13600016         1.39086349E-20
   6.14400005         1.13097667E-20
   6.15199995         8.02705679E-21
   6.15999985         4.27634565E-21
   6.16800022         3.27877451E-22
   6.17600012        -3.51023463E-21
   6.18400002        -6.92016554E-21
   6.19199991        -9.60971664E-21
   6.19999981        -1.13457345E-20
   6.20800018        -1.19784929E-20
   6.21600008        -1.14551727E-20
   6.22399998        -9.82544115E-21
   6.23199987        -7.24241944E-21