 -0.239999995       0.00000000    
 -0.231999993       0.00000000    
 -0.224000007       0.00000000    
 -0.216000006       0.00000000    
 -0.208000004       4.97867796E-31
 -0.200000003       1.37881093E-24
 -0.192000002       1.37049890E-24
 -0.184000000      -1.45505173E-23
 -0.175999999      -4.22145061E-23
 -0.167999998      -1.22467634E-23
 -0.159999996       1.31710703E-22
 -0.151999995       2.37653372E-22
 -0.143999994      -9.11659332E-25
 -0.136000007      -5.45759925E-22
 -0.128000006      -7.15454987E-22
 -0.119999997       1.06513552E-22
 -0.112000003       1.35613444E-21
 -0.104000002       1.51042887E-21
  -9.60000008E-02  -6.18329877E-23
  -8.79999995E-02  -1.92764566E-21
  -7.99999982E-02  -2.06868299E-21
  -7.19999969E-02  -3.94142878E-22
  -6.40000030E-02   1.15906048E-21
  -5.60000017E-02   1.25544621E-21
  -4.80000004E-02   8.56048428E-22
  -3.99999991E-02   1.44299123E-21
  -3.20000015E-02   2.28116945E-21
  -2.40000002E-02   9.76999965E-22
  -1.60000008E-02  -2.90307174E-21
  -8.00000038E-03  -6.12525305E-21
   1.38777878E-17  -4.97817164E-21
   8.00000038E-03   2.36188792E-22
   1.60000008E-02   5.20990662E-21
   2.40000002E-02   6.28434274E-21
   3.20000015E-02   3.90930647E-21
   3.99999991E-02   1.00186930E-21
   4.80000004E-02  -8.18501981E-22
   5.60000017E-02  -2.15998184E-21
   6.40000030E-02  -3.82609404E-21
   7.19999969E-02  -5.30247733E-21
   7.99999982E-02  -5.19024573E-21
   8.79999995E-02  -2.37485149E-21
   9.60000008E-02   2.69583634E-21
  0.104000002       7.11920184E-21
  0.112000003       7.17801082E-21
  0.119999997       2.57408832E-21
  0.128000006      -2.14685176E-21
  0.136000007      -2.82976488E-21
  0.143999994      -1.38598100E-21
  0.151999995      -2.90860109E-21
  0.159999996      -7.56931410E-21
  0.167999998      -9.90535536E-21
  0.175999999      -7.36839727E-21
  0.184000000      -4.82710698E-21
  0.192000002      -7.30846383E-21
  0.200000003      -1.18019787E-20
  0.208000004      -1.07281650E-20
  0.216000006      -2.16736265E-21
  0.224000007       6.96278634E-21
  0.231999993       7.32054438E-21
  0.239999995      -5.30190865E-21
  0.247999996      -2.64946306E-20
  0.256000012      -4.38758343E-20
  0.263999999      -4.38134177E-20
  0.272000015      -2.36853039E-20
  0.280000001       1.88464641E-21
  0.287999988       1.23026758E-20
  0.296000004       1.36760733E-21
  0.303999990      -1.62775913E-20
  0.312000006      -2.09273577E-20
  0.319999993      -7.63850243E-21
  0.328000009       1.15436883E-20
  0.335999995       2.23510906E-20
  0.344000012       2.17342078E-20
  0.351999998       1.78392485E-20
  0.360000014       2.13468594E-20
  0.368000001       3.91749184E-20
  0.375999987       7.36984386E-20
  0.384000003       1.22513216E-19
  0.391999990       1.76011717E-19
  0.400000006       2.17814750E-19
  0.407999992       2.33005095E-19
  0.416000009       2.18559807E-19
  0.423999995       1.84184184E-19
  0.432000011       1.41676846E-19
  0.439999998       9.51606025E-20
  0.448000014       4.25867444E-20
  0.456000000      -1.70339591E-20
  0.463999987      -8.18624980E-20
  0.472000003      -1.50261029E-19
  0.479999989      -2.19707623E-19
  0.488000005      -2.81752658E-19
  0.495999992      -3.24230967E-19
  0.504000008      -3.43177616E-19
  0.512000024      -3.50504395E-19
  0.519999981      -3.64919206E-19
  0.527999997      -3.94206052E-19
  0.536000013      -4.27911129E-19
  0.544000030      -4.46240883E-19
  0.551999986      -4.32099843E-19
  0.560000002      -3.74704003E-19
  0.568000019      -2.68703522E-19
  0.575999975      -1.17062910E-19
  0.583999991       6.58643403E-20
  0.592000008       2.60612403E-19
  0.600000024       4.53881137E-19
  0.607999980       6.38491771E-19
  0.615999997       8.00364503E-19
  0.624000013       9.12446080E-19
  0.632000029       9.48766236E-19
  0.639999986       9.01454607E-19
  0.648000002       7.77983322E-19
  0.656000018       5.86568920E-19
  0.663999975       3.36703739E-19
  0.671999991       5.59032310E-20
  0.680000007      -2.07546530E-19
  0.688000023      -4.08327240E-19
  0.695999980      -5.27136200E-19
  0.703999996      -5.67655590E-19
  0.712000012      -5.41349282E-19
  0.720000029      -4.65012506E-19
  0.727999985      -3.65108191E-19
  0.736000001      -2.68686358E-19
  0.744000018      -1.88486518E-19
  0.751999974      -1.26598855E-19
  0.759999990      -9.20330455E-20
  0.768000007      -1.02557846E-19
  0.776000023      -1.65005575E-19
  0.783999979      -2.62547385E-19
  0.791999996      -3.64313606E-19
  0.800000012      -4.39022233E-19
  0.808000028      -4.57750636E-19
  0.815999985      -3.98701727E-19
  0.824000001      -2.62469139E-19
  0.832000017      -7.71677375E-20
  0.839999974       1.21999072E-19
  0.847999990       3.16314461E-19
  0.856000006       5.00378561E-19
  0.864000022       6.61305981E-19
  0.871999979       7.72894041E-19
  0.879999995       8.11377844E-19
  0.888000011       7.68642075E-19
  0.896000028       6.49512298E-19
  0.903999984       4.65758261E-19
  0.912000000       2.37021134E-19
  0.920000017      -1.01197995E-20
  0.927999973      -2.52118163E-19
  0.935999990      -4.76262886E-19
  0.944000006      -6.74882910E-19
  0.952000022      -8.34585844E-19
  0.959999979      -9.36531305E-19
  0.967999995      -9.66181800E-19
  0.976000011      -9.16840167E-19
  0.984000027      -7.82747675E-19
  0.991999984      -5.55519765E-19
   1.00000000      -2.33158252E-19
   1.00800002       1.68714743E-19
   1.01600003       6.17275415E-19
   1.02400005       1.07136309E-18
   1.03199995       1.48620937E-18
   1.03999996       1.81339662E-18
   1.04799998       2.00548533E-18
   1.05599999       2.02508393E-18
   1.06400001       1.84776370E-18
   1.07200003       1.45882193E-18
   1.08000004       8.58059006E-19
   1.08800006       7.65623964E-20
   1.09599996      -8.12372839E-19
   1.10399997      -1.70466839E-18
   1.11199999      -2.49125335E-18
   1.12000000      -3.07786503E-18
   1.12800002      -3.39212418E-18
   1.13600004      -3.38658041E-18
   1.14400005      -3.04427281E-18
   1.15199995      -2.38385946E-18
   1.15999997      -1.46013053E-18
   1.16799998      -3.59982359E-19
   1.17600000       8.04528530E-19
   1.18400002       1.90589734E-18
   1.19200003       2.81478230E-18
   1.20000005       3.41819463E-18
   1.20799994       3.63935026E-18
   1.21599996       3.45192437E-18
   1.22399998       2.88337046E-18
   1.23199999       2.00913547E-18
   1.24000001       9.41770046E-19
   1.24800003      -1.85451140E-19
   1.25600004      -1.23929430E-18
   1.26400006      -2.10268691E-18
   1.27199996      -2.67971343E-18
   1.27999997      -2.89830934E-18
   1.28799999      -2.72305190E-18
   1.29600000      -2.17202595E-18
   1.30400002      -1.31904568E-18
   1.31200004      -2.77243799E-19
   1.32000005       8.20792452E-19
   1.32799995       1.83673449E-18
   1.33599997       2.64081939E-18
   1.34399998       3.13066789E-18
   1.35200000       3.24450739E-18
   1.36000001       2.96201321E-18
   1.36800003       2.30181245E-18
   1.37600005       1.32405136E-18
   1.38399994       1.30311268E-19
   1.39199996      -1.14885575E-18
   1.39999998      -2.37270059E-18
   1.40799999      -3.40385360E-18
   1.41600001      -4.11913818E-18
   1.42400002      -4.42691596E-18
   1.43200004      -4.28628119E-18
   1.44000006      -3.71261489E-18
   1.44799995      -2.76652479E-18
   1.45599997      -1.54065605E-18
   1.46399999      -1.54571325E-19
   1.47200000       1.25043766E-18
   1.48000002       2.52802753E-18
   1.48800004       3.55005157E-18
   1.49600005       4.22074160E-18
   1.50399995       4.47770112E-18
   1.51199996       4.29250076E-18
   1.51999998       3.68089872E-18
   1.52800000       2.71340263E-18
   1.53600001       1.50916539E-18
   1.54400003       2.12251805E-19
   1.55200005      -1.03337306E-18
   1.55999994      -2.09872286E-18
   1.56799996      -2.87956833E-18
   1.57599998      -3.30729515E-18
   1.58399999      -3.35490767E-18
   1.59200001      -3.03249293E-18
   1.60000002      -2.38107083E-18
   1.60800004      -1.47511212E-18
   1.61600006      -4.24996507E-19
   1.62399995       6.37476045E-19
   1.63199997       1.58714081E-18
   1.63999999       2.32498447E-18
   1.64800000       2.77983682E-18
   1.65600002       2.90663388E-18
   1.66400003       2.69321694E-18
   1.67200005       2.16673840E-18
   1.67999995       1.38798467E-18
   1.68799996       4.39609014E-19
   1.69599998      -5.80027214E-19
   1.70400000      -1.56102889E-18
   1.71200001      -2.39550327E-18
   1.72000003      -2.99738945E-18
   1.72800004      -3.31290674E-18
   1.73599994      -3.31655027E-18
   1.74399996      -3.00490625E-18
   1.75199997      -2.39902209E-18
   1.75999999      -1.55048337E-18
   1.76800001      -5.40217182E-19
   1.77600002       5.32176935E-19
   1.78400004       1.56209378E-18
   1.79200006       2.45114936E-18
   1.79999995       3.11523519E-18
   1.80799997       3.49038124E-18
   1.81599998       3.53734731E-18
   1.82400000       3.24606104E-18
   1.83200002       2.63988427E-18
   1.84000003       1.77705155E-18
   1.84800005       7.46078449E-19
   1.85599995      -3.45137233E-19
   1.86399996      -1.38349028E-18
   1.87199998      -2.26410956E-18
   1.88000000      -2.90010764E-18
   1.88800001      -3.22795426E-18
   1.89600003      -3.21074642E-18
   1.90400004      -2.84264133E-18
   1.91199994      -2.15446077E-18
   1.91999996      -1.21602581E-18
   1.92799997      -1.30819040E-19
   1.93599999       9.77038753E-19
   1.94400001       1.98005470E-18
   1.95200002       2.76501126E-18
   1.96000004       3.24704311E-18
   1.96800005       3.37660172E-18
   1.97599995       3.13964404E-18
   1.98399997       2.55619385E-18
   1.99199998       1.68107461E-18
   2.00000000       6.03583560E-19
   2.00799990      -5.60252996E-19
   2.01600003      -1.68379076E-18
   2.02399993      -2.64837217E-18
   2.03200006      -3.35786546E-18
   2.03999996      -3.74637255E-18
   2.04800010      -3.78008140E-18
   2.05599999      -3.45678199E-18
   2.06399989      -2.80669723E-18
   2.07200003      -1.89379796E-18
   2.07999992      -8.11396197E-19
   2.08800006       3.31521246E-19
   2.09599996       1.42688769E-18
   2.10400009       2.37718204E-18
   2.11199999       3.09784165E-18
   2.11999989       3.52199939E-18
   2.12800002       3.61192302E-18
   2.13599992       3.36831047E-18
   2.14400005       2.82750227E-18
   2.15199995       2.04995973E-18
   2.16000009       1.11120104E-18
   2.16799998       9.79827683E-20
   2.17600012      -8.97064450E-19
   2.18400002      -1.78443538E-18
   2.19199991      -2.48400890E-18
   2.20000005      -2.92711736E-18
   2.20799994      -3.06276981E-18
   2.21600008      -2.87074603E-18
   2.22399998      -2.36978477E-18
   2.23200011      -1.61159268E-18
   2.24000001      -6.69583215E-19
   2.24799991       3.65014823E-19
   2.25600004       1.38443420E-18
   2.26399994       2.27562598E-18
   2.27200007       2.93803407E-18
   2.27999997       3.29339893E-18
   2.28800011       3.28754849E-18
   2.29600000       2.89786804E-18
   2.30399990       2.14711292E-18
   2.31200004       1.10682039E-18
   2.31999993      -1.16476775E-19
   2.32800007      -1.39778707E-18
   2.33599997      -2.60150205E-18
   2.34400010      -3.58908622E-18
   2.35200000      -4.23701597E-18
   2.35999990      -4.45802870E-18
   2.36800003      -4.21307777E-18
   2.37599993      -3.51409982E-18
   2.38400006      -2.42421739E-18
   2.39199996      -1.05390286E-18
   2.40000010       4.52136251E-19
   2.40799999       1.93412963E-18
   2.41599989       3.23463912E-18
   2.42400002       4.21329243E-18
   2.43199992       4.76289480E-18
   2.44000006       4.82538912E-18
   2.44799995       4.40055578E-18
   2.45600009       3.54359997E-18
   2.46399999       2.35429582E-18
   2.47199988       9.62676519E-19
   2.48000002      -4.85063416E-19
   2.48799992      -1.83948735E-18
   2.49600005      -2.96148837E-18
   2.50399995      -3.73795598E-18
   2.51200008      -4.09641387E-18
   2.51999998      -4.01313416E-18
   2.52800012      -3.51327098E-18
   2.53600001      -2.66580376E-18
   2.54399991      -1.57422138E-18
   2.55200005      -3.61803423E-19
   2.55999994       8.45417567E-19
   2.56800008       1.93080643E-18
   2.57599998       2.79233882E-18
   2.58400011       3.34735116E-18
   2.59200001       3.54197084E-18
   2.59999990       3.36060818E-18
   2.60800004       2.82731305E-18
   2.61599994       1.99862035E-18
   2.62400007       9.55020859E-19
   2.63199997      -2.04754641E-19
   2.64000010      -1.36980510E-18
   2.64800000      -2.42686148E-18
   2.65599990      -3.27120898E-18
   2.66400003      -3.81478369E-18
   2.67199993      -3.99313293E-18
   2.68000007      -3.77486809E-18
   2.68799996      -3.17028054E-18
   2.69600010      -2.23114062E-18
   2.70400000      -1.04150197E-18
   2.71199989       2.91203222E-19
   2.72000003       1.64035054E-18
   2.72799993       2.86757359E-18
   2.73600006       3.84031752E-18
   2.74399996       4.45198780E-18
   2.75200009       4.63283264E-18
   2.75999999       4.35263927E-18
   2.76799989       3.62488122E-18
   2.77600002       2.51253278E-18
   2.78399992       1.12594936E-18
   2.79200006      -3.90173805E-19
   2.79999995      -1.87340258E-18
   2.80800009      -3.15975198E-18
   2.81599998      -4.10317814E-18
   2.82399988      -4.59744296E-18
   2.83200002      -4.59050581E-18
   2.83999991      -4.08619571E-18
   2.84800005      -3.13969864E-18
   2.85599995      -1.85321999E-18
   2.86400008      -3.68385687E-19
   2.87199998       1.14924111E-18
   2.88000011       2.52995031E-18
   2.88800001       3.61822366E-18
   2.89599991       4.28975452E-18
   2.90400004       4.46795652E-18
   2.91199994       4.13485875E-18
   2.92000008       3.33144572E-18
   2.92799997       2.15029323E-18
   2.93600011       7.25542191E-19
   2.94400001      -7.80838387E-19
   2.95199990      -2.19920731E-18
   2.96000004      -3.37463737E-18
   2.96799994      -4.18393455E-18
   2.97600007      -4.54570488E-18
   2.98399997      -4.42692960E-18
   2.99200010      -3.84623103E-18
   3.00000000      -2.87063085E-18
   3.00799990      -1.60620773E-18
   3.01600003      -1.86825953E-19
   3.02399993       1.23812642E-18
   3.03200006       2.51988910E-18
   3.03999996       3.52952632E-18
   3.04800010       4.17339296E-18
   3.05599999       4.39992795E-18
   3.06399989       4.20000584E-18
   3.07200003       3.60527456E-18
   3.07999992       2.68464322E-18
   3.08800006       1.53658539E-18
   3.09599996       2.77727700E-19
   3.10400009      -9.69130389E-19
   3.11199999      -2.08566540E-18
   3.11999989      -2.96760020E-18
   3.12800002      -3.53335079E-18
   3.13599992      -3.73111685E-18
   3.14400005      -3.54395525E-18
   3.15199995      -2.99226031E-18
   3.16000009      -2.13234940E-18
   3.16799998      -1.05052517E-18
   3.17600012       1.45932780E-19
   3.18400002       1.33877735E-18
   3.19199991       2.40927169E-18
   3.20000005       3.24934494E-18
   3.20799994       3.77234147E-18
   3.21600008       3.92139776E-18
   3.22399998       3.67466674E-18
   3.23200011       3.04804165E-18
   3.24000001       2.09588521E-18
   3.24799991       9.08976781E-19
   3.25600004      -3.92120885E-19
   3.26399994      -1.66970977E-18
   3.27200007      -2.78634445E-18
   3.27999997      -3.62220860E-18
   3.28800011      -4.08761433E-18
   3.29600000      -4.13004083E-18
   3.30399990      -3.73865785E-18
   3.31200004      -2.94761965E-18
   3.31999993      -1.83567859E-18
   3.32800007      -5.19380813E-19
   3.33599997       8.60088080E-19
   3.34400010       2.15432056E-18
   3.35200000       3.22640805E-18
   3.35999990       3.96696921E-18
   3.36800003       4.30412265E-18
   3.37599993       4.20766925E-18
   3.38400006       3.69049898E-18
   3.39199996       2.80842500E-18
   3.40000010       1.65626653E-18
   3.40799999       3.58069737E-19
   3.41599989      -9.47841965E-19
   3.42400002      -2.12627293E-18
   3.43199992      -3.06145376E-18
   3.44000006      -3.66849515E-18
   3.44799995      -3.89847865E-18
   3.45600009      -3.73962813E-18
   3.46399999      -3.21760520E-18
   3.47199988      -2.39388799E-18
   3.48000002      -1.35910210E-18
   3.48799992      -2.22120380E-19
   3.49600005       9.00731755E-19
   3.50399995       1.89513220E-18
   3.51200008       2.65979843E-18
   3.51999998       3.11911776E-18
   3.52800012       3.23171566E-18
   3.53600001       2.99116058E-18
   3.54399991       2.42271896E-18
   3.55200005       1.58171843E-18
   3.55999994       5.52002283E-19
   3.56800008      -5.61267481E-19
   3.57599998      -1.64449534E-18
   3.58400011      -2.58782648E-18
   3.59200001      -3.29332366E-18
   3.59999990      -3.68309736E-18
   3.60800004      -3.71044354E-18
   3.61599994      -3.36913248E-18
   3.62400007      -2.69390929E-18
   3.63199997      -1.75294027E-18
   3.64000010      -6.39021063E-19
   3.64800000       5.37444111E-19
   3.65599990       1.65721179E-18
   3.66400003       2.60520637E-18
   3.67199993       3.28437997E-18
   3.68000007       3.62598592E-18
   3.68799996       3.59606762E-18
   3.69600010       3.19976064E-18
   3.70400000       2.48223150E-18
   3.71199989       1.52389995E-18
   3.72000003       4.30587188E-19
   3.72799993      -6.78550474E-19
   3.73600006      -1.68403364E-18
   3.74399996      -2.48002830E-18
   3.75200009      -2.98702715E-18
   3.75999999      -3.15945150E-18
   3.76799989      -2.98741655E-18
   3.77600002      -2.49560143E-18
   3.78399992      -1.74098627E-18
   3.79200006      -8.07648293E-19
   3.79999995       2.02846503E-19
   3.80800009       1.18335642E-18
   3.81599998       2.03260569E-18
   3.82399988       2.66598719E-18
   3.83200002       3.02567345E-18
   3.83999991       3.08691025E-18
   3.84800005       2.85753368E-18
   3.85599995       2.37274773E-18
   3.86400008       1.68977210E-18
   3.87199998       8.83189839E-19
   3.88000011       3.83020942E-20
   3.88800001      -7.57882936E-19
   3.89599991      -1.42522289E-18
   3.90400004      -1.89755791E-18
   3.91199994      -2.12994665E-18
   3.92000008      -2.10507188E-18
   3.92799997      -1.83448022E-18
   3.93600011      -1.35319645E-18
   3.94400001      -7.12068142E-19
   3.95199990       2.75268001E-20
   3.96000004       7.96798682E-19
   3.96799994       1.52319881E-18
   3.97600007       2.13588829E-18
   3.98399997       2.57308385E-18
   3.99200010       2.79063690E-18
   4.00000000       2.76879664E-18
   4.00799990       2.51317509E-18
   4.01599979       2.05041220E-18
   4.02400017       1.42379466E-18
   4.03200006       6.91364070E-19
   4.03999996      -7.73146978E-20
   4.04799986      -8.08983621E-19
   4.05600023      -1.43566088E-18
   4.06400013      -1.89993212E-18
   4.07200003      -2.15811029E-18
   4.07999992      -2.18578672E-18
   4.08799982      -1.98451568E-18
   4.09600019      -1.58352613E-18
   4.10400009      -1.03444612E-18
   4.11199999      -4.03185563E-19
   4.11999989       2.37652169E-19
   4.12799978       8.16360677E-19
   4.13600016       1.26954522E-18
   4.14400005       1.54684667E-18
   4.15199995       1.61325748E-18
   4.15999985       1.45311408E-18
   4.16800022       1.07629836E-18
   4.17600012       5.20542071E-19
   4.18400002      -1.54536984E-19
   4.19199991      -8.77452928E-19
   4.19999981      -1.57261882E-18
   4.20800018      -2.16657049E-18
   4.21600008      -2.59676210E-18
   4.22399998      -2.82096713E-18
   4.23199987      -2.82087283E-18
   4.23999977      -2.59922503E-18
   4.24800014      -2.17678182E-18
   4.25600004      -1.59228783E-18
   4.26399994      -9.01267354E-19
   4.27199984      -1.69779376E-19
   4.28000021       5.34148003E-19
   4.28800011       1.14690887E-18
   4.29600000       1.61369320E-18
   4.30399990       1.89334901E-18
   4.31199980       1.96315416E-18
   4.32000017       1.82074344E-18
   4.32800007       1.48266552E-18
   4.33599997       9.81250756E-19
   4.34399986       3.60442142E-19
   4.35200024      -3.29664639E-19
   4.36000013      -1.03820400E-18
   4.36800003      -1.71656138E-18
   4.37599993      -2.31921116E-18
   4.38399982      -2.80513345E-18
   4.39200020      -3.14147666E-18
   4.40000010      -3.30817630E-18
   4.40799999      -3.30117008E-18
   4.41599989      -3.13263410E-18
   4.42399979      -2.82742803E-18
   4.43200016      -2.41656804E-18
   4.44000006      -1.93155441E-18
   4.44799995      -1.40389910E-18
   4.45599985      -8.68993559E-19
   4.46400023      -3.67620855E-19
   4.47200012       5.96813009E-20
   4.48000002       3.81932166E-19
   4.48799992       5.83200072E-19
   4.49599981       6.61882474E-19
   4.50400019       6.27696599E-19
   4.51200008       4.99747474E-19
   4.51999998       3.04830764E-19
   4.52799988       7.47874607E-20
   4.53599977      -1.55660205E-19
   4.54400015      -3.49703658E-19
   4.55200005      -4.70413117E-19
   4.55999994      -4.86310701E-19
   4.56799984      -3.78358358E-19
   4.57600021      -1.43657995E-19
   4.58400011       2.05495807E-19
   4.59200001       6.44239952E-19
   4.59999990       1.13684281E-18
   4.60799980       1.63832467E-18
   4.61600018       2.09803692E-18
   4.62400007       2.46533282E-18
   4.63199997       2.69581719E-18
   4.63999987       2.75691874E-18
   4.64799976       2.63212221E-18
   4.65600014       2.32307016E-18
   4.66400003       1.84904790E-18
   4.67199993       1.24446325E-18
   4.67999983       5.55520541E-19
   4.68800020      -1.63361722E-19
   4.69600010      -8.53695008E-19
   4.70400000      -1.45805338E-18
   4.71199989      -1.92613824E-18
   4.71999979      -2.22077046E-18
   4.72800016      -2.32189908E-18
   4.73600006      -2.22738956E-18
   4.74399996      -1.95174300E-18
   4.75199986      -1.52481409E-18
   4.76000023      -9.90003568E-19
   4.76800013      -3.99210237E-19
   4.77600002       1.95351432E-19
   4.78399992       7.47925801E-19
   4.79199982       1.22128823E-18
   4.80000019       1.58672773E-18
   4.80800009       1.82624853E-18
   4.81599998       1.93621123E-18
   4.82399988       1.92796486E-18
   4.83199978       1.82435697E-18
   4.84000015       1.65573217E-18
   4.84800005       1.45785982E-18
   4.85599995       1.26964459E-18
   4.86399984       1.12775396E-18
   4.87200022       1.05950153E-18
   4.88000011       1.07860929E-18
   4.88800001       1.18645266E-18
   4.89599991       1.37608319E-18
   4.90399981       1.63381323E-18
   4.91200018       1.93677268E-18
   4.92000008       2.25069765E-18
   4.92799997       2.53277699E-18
   4.93599987       2.73885332E-18
   4.94399977       2.83023073E-18
   4.95200014       2.77764747E-18
   4.96000004       2.56366392E-18
   4.96799994       2.18429986E-18
   4.97599983       1.64917790E-18
   4.98400021       9.80762100E-19
   4.99200010       2.14350802E-19
   5.00000000      -6.02207648E-19
   5.00799990      -1.41195347E-18
   5.01599979      -2.15508674E-18
   5.02400017      -2.77484933E-18
   5.03200006      -3.22252113E-18
   5.03999996      -3.46369329E-18
   5.04799986      -3.48444208E-18
   5.05600023      -3.29248324E-18
   5.06400013      -2.91286504E-18
   5.07200003      -2.38393949E-18
   5.07999992      -1.75661812E-18
   5.08799982      -1.09254925E-18
   5.09600019      -4.57303751E-19
   5.10400009       8.81594557E-20
   5.11199999       4.92837983E-19
   5.11999989       7.18796895E-19
   5.12799978       7.45568905E-19
   5.13600016       5.74668169E-19
   5.14400005       2.29803027E-19
   5.15199995      -2.48036802E-19
   5.15999985      -8.07177886E-19
   5.16800022      -1.39088197E-18
   5.17600012      -1.94200873E-18
   5.18400002      -2.40721987E-18
   5.19199991      -2.74101557E-18
   5.19999981      -2.91061945E-18
   5.20800018      -2.90189827E-18
   5.21600008      -2.72335320E-18
   5.22399998      -2.40415082E-18
   5.23199987      -1.98597545E-18
   5.23999977      -1.51315084E-18
   5.24800014      -1.02575152E-18
   5.25600004      -5.56895470E-19
   5.26399994      -1.32338959E-19
   5.27199984       2.30135191E-19
   5.28000021       5.23160615E-19
   5.28800011       7.53919552E-19
   5.29600000       9.47485244E-19
   5.30399990       1.14578360E-18
   5.31199980       1.40058666E-18
   5.32000017       1.76280109E-18
   5.32800007       2.27242810E-18
   5.33599997       2.95225848E-18
   5.34399986       3.80549859E-18
   5.35200024       4.81557173E-18
   5.36000013       5.94607534E-18
   5.36800003       7.14015687E-18
   5.37599993       8.32072311E-18
   5.38399982       9.39403710E-18
   5.39200020       1.02576145E-17
   5.40000010       1.08104449E-17
   5.40799999       1.09628430E-17
   5.41599989       1.06451577E-17
   5.42399979       9.81560970E-18
   5.43200016       8.46637059E-18
   5.44000006       6.62641071E-18
   5.44799995       4.36123161E-18
   5.45599985       1.77034684E-18
   5.46400023      -1.01826812E-18
   5.47200012      -3.85796996E-18
   5.48000002      -6.59568509E-18
   5.48799992      -9.08275745E-18
   5.49599981      -1.11836084E-17
   5.50400019      -1.27850582E-17
   5.51200008      -1.38068761E-17
   5.51999998      -1.42089545E-17
   5.52799988      -1.39911794E-17
   5.53599977      -1.31885586E-17
   5.54400015      -1.18666049E-17
   5.55200005      -1.01169756E-17
   5.55999994      -8.04959067E-18
   5.56799984      -5.78159130E-18
   5.57600021      -3.42852281E-18
   5.58400011      -1.09994311E-18
   5.59200001       1.10480703E-18
   5.59999990       3.10362074E-18
   5.60799980       4.83696097E-18
   5.61600018       6.26630342E-18
   5.62400007       7.36850008E-18
   5.63199997       8.13268841E-18
   5.63999987       8.56006037E-18
   5.64799976       8.66166545E-18
   5.65600014       8.45436406E-18
   5.66400003       7.96016004E-18
   5.67199993       7.20899153E-18
   5.67999983       6.23812303E-18
   5.68800020       5.08614995E-18
   5.69600010       3.78914523E-18
   5.70400000       2.38420791E-18
   5.71199989       9.14294105E-19
   5.71999979      -5.73498691E-19
   5.72800016      -2.03375051E-18
   5.73600006      -3.42523353E-18
   5.74399996      -4.70997303E-18
   5.75199986      -5.85412222E-18
   5.76000023      -6.83060025E-18
   5.76800013      -7.61855761E-18
   5.77600002      -8.19978765E-18
   5.78399992      -8.55791715E-18
   5.79199982      -8.68211170E-18
   5.80000019      -8.57025041E-18
   5.80800009      -8.22833117E-18
   5.81599998      -7.66922242E-18
   5.82399988      -6.91366986E-18
   5.83199978      -5.99127290E-18
   5.84000015      -4.93872941E-18
   5.84800005      -3.79739470E-18
   5.85599995      -2.61322051E-18
   5.86399984      -1.43756029E-18
   5.87200022      -3.24683073E-19
   5.88000011       6.74579076E-19
   5.88800001       1.51926526E-18
   5.89599991       2.18166198E-18
   5.90399981       2.64823734E-18
   5.91200018       2.92025155E-18
   5.92000008       3.01432184E-18
   5.92799997       2.96133368E-18
   5.93599987       2.80265852E-18
   5.94399977       2.58463915E-18
   5.95200014       2.35338406E-18
   5.96000004       2.15109828E-18
   5.96799994       2.01346370E-18
   5.97599983       1.96668829E-18
   5.98400021       2.02378608E-18
   5.99200010       2.18177407E-18
   6.00000000       2.42235189E-18
   6.00799990       2.71652441E-18
   6.01599979       3.03031083E-18
   6.02400017       3.32817174E-18
   6.03200006       3.57415520E-18
   6.03999996       3.73382794E-18
   6.04799986       3.77878851E-18
   6.05600023       3.69159044E-18
   6.06400013       3.46735998E-18
   6.07200003       3.11130587E-18
   6.07999992       2.63540777E-18
   6.08799982       2.05830433E-18
   6.09600019       1.40848789E-18
   6.10400009       7.26057731E-19
   6.11199999       5.82735106E-20
   6.11999989      -5.49563341E-19
   6.12799978      -1.06051038E-18
   6.13600016      -1.44501825E-18
   6.14400005      -1.67699599E-18
   6.15199995      -1.73499645E-18
   6.15999985      -1.60966514E-18
   6.16800022      -1.31043286E-18
   6.17600012      -8.65848618E-19
   6.18400002      -3.19551141E-19
   6.19199991       2.73616793E-19
   6.19999981       8.51204936E-19
   6.20800018       1.34895311E-18
   6.21600008       1.70841427E-18
   6.22399998       1.88351300E-18
   6.23199987       1.84493971E-18
   6.23999977       1.58331086E-18
   6.24800014       1.11101699E-18
   6.25600004       4.61897757E-19
   6.26399994      -3.10579023E-19
   6.27199984      -1.13588628E-18
   6.28000021      -1.93199551E-18
   6.28800011      -2.61647423E-18
   6.29600000      -3.12018896E-18
   6.30399990      -3.39659529E-18
   6.31199980      -3.42385462E-18
   6.32000017      -3.20409051E-18
   6.32800007      -2.76394481E-18
   6.33599997      -2.15441693E-18
   6.34399986      -1.44589579E-18
   6.35200024      -7.18806666E-19
   6.36000013      -5.37592758E-20
   6.36800003       4.77089033E-19
   6.37599993       8.18442380E-19
   6.38399982       9.39503261E-19
   6.39200020       8.37755445E-19
   6.40000010       5.37189805E-19
   6.40799999       8.29573943E-20
   6.41599989      -4.64609566E-19
   6.42399979      -1.03604072E-18
   6.43200016      -1.55998219E-18
   6.44000006      -1.97162883E-18
   6.44799995      -2.22044372E-18
   6.45599985      -2.27549714E-18
   6.46400023      -2.12826933E-18
   6.47200012      -1.79295927E-18
   6.48000002      -1.30344464E-18
   6.48799992      -7.06823662E-19
   6.49599981      -5.60423718E-20
   6.50400019       5.95433763E-19
   6.51200008       1.19719577E-18
   6.51999998       1.70623961E-18
   6.52799988       2.09199684E-18
   6.53599977       2.33864349E-18
   6.54400015       2.44328163E-18
   6.55200005       2.41324278E-18
   6.55999994       2.26547316E-18
   6.56799984       2.02605504E-18
   6.57600021       1.72653284E-18
   6.58400011       1.39818029E-18
   6.59200001       1.06834812E-18
   6.59999990       7.59966501E-19
   6.60799980       4.91490454E-19