 -0.239999995       0.00000000    
 -0.231999993       0.00000000    
 -0.224000007       0.00000000    
 -0.216000006       0.00000000    
 -0.208000004       0.00000000    
 -0.200000003       0.00000000    
 -0.192000002       0.00000000    
 -0.184000000       2.07492832E-31
 -0.175999999       8.76612969E-31
 -0.167999998      -1.30824048E-30
 -0.159999996      -1.48327195E-29
 -0.151999995      -2.77759151E-29
 -0.143999994       2.92604099E-29
 -0.136000007       2.05123985E-28
 -0.128000006       3.01791152E-28
 -0.119999997      -1.11731586E-28
 -0.112000003      -1.06643363E-27
 -0.104000002      -1.63066717E-27
  -9.60000008E-02  -6.72468533E-28
  -8.79999995E-02   1.68653030E-27
  -7.99999982E-02   4.34394308E-27
  -7.19999969E-02   6.71273638E-27
  -6.40000030E-02   7.09453042E-27
  -5.60000017E-02  -1.01531502E-27
  -4.80000004E-02  -2.35051738E-26
  -3.99999991E-02  -4.77779955E-26
  -3.20000015E-02  -3.70226012E-26
  -2.40000002E-02   3.45045418E-26
  -1.60000008E-02   1.28224866E-25
  -8.00000038E-03   1.45686548E-25
   1.38777878E-17   2.34628049E-26
   8.00000038E-03  -1.71034264E-25
   1.60000008E-02  -2.74437708E-25
   2.40000002E-02  -1.87038723E-25
   3.20000015E-02   2.05499375E-26
   3.99999991E-02   1.93359644E-25
   4.80000004E-02   2.67834991E-25
   5.60000017E-02   2.99462077E-25
   6.40000030E-02   2.97950200E-25
   7.19999969E-02   1.23824144E-25
   7.99999982E-02  -3.31163044E-25
   8.79999995E-02  -8.56186535E-25
   9.60000008E-02  -9.57741924E-25
  0.104000002      -3.33823872E-25
  0.112000003       6.89484843E-25
  0.119999997       1.33112083E-24
  0.128000006       1.07162662E-24
  0.136000007       1.74912280E-25
  0.143999994      -5.81751736E-25
  0.151999995      -7.00644414E-25
  0.159999996      -4.09433774E-25
  0.167999998      -2.76183482E-25
  0.175999999      -4.62707202E-25
  0.184000000      -5.12558182E-25
  0.192000002       4.13944129E-26
  0.200000003       9.47470265E-25
  0.208000004       1.30469883E-24
  0.216000006       4.91325942E-25
  0.224000007      -1.01466938E-24
  0.231999993      -1.88869374E-24
  0.239999995      -1.14110594E-24
  0.247999996       9.27658812E-25
  0.256000012       2.92838677E-24
  0.263999999       3.48341885E-24
  0.272000015       2.14911092E-24
  0.280000001      -5.48334010E-25
  0.287999988      -3.66501779E-24
  0.296000004      -6.20146040E-24
  0.303999990      -7.01831404E-24
  0.312000006      -4.89531224E-24
  0.319999993       6.16051901E-25
  0.328000009       7.94569655E-24
  0.335999995       1.33528545E-23
  0.344000012       1.29138684E-23
  0.351999998       5.60022060E-24
  0.360000014      -5.26570137E-24
  0.368000001      -1.39010497E-23
  0.375999987      -1.59384218E-23
  0.384000003      -1.09639683E-23
  0.391999990      -1.81090042E-24
  0.400000006       8.03296665E-24
  0.407999992       1.60581315E-23
  0.416000009       2.03224406E-23
  0.423999995       1.86079540E-23
  0.432000011       9.14371278E-24
  0.439999998      -7.39984740E-24
  0.448000014      -2.70511543E-23
  0.456000000      -4.44344396E-23
  0.463999987      -5.60221436E-23
  0.472000003      -6.15106024E-23
  0.479999989      -6.17754577E-23
  0.488000005      -5.54316781E-23
  0.495999992      -3.75131980E-23
  0.504000008      -1.34219348E-24
  0.512000024       5.91635581E-23
  0.519999981       1.50518081E-22
  0.527999997       2.84760283E-22
  0.536000013       4.85404820E-22
  0.544000030       7.90414999E-22
  0.551999986       1.25162110E-21
  0.560000002       1.93337312E-21
  0.568000019       2.91300336E-21
  0.575999975       4.28210077E-21
  0.583999991       6.14525281E-21
  0.592000008       8.61451982E-21
  0.600000024       1.18016588E-20
  0.607999980       1.58108611E-20
  0.615999997       2.07320106E-20
  0.624000013       2.66309053E-20
  0.632000029       3.35336791E-20
  0.639999986       4.14073561E-20
  0.648000002       5.01414140E-20
  0.656000018       5.95356460E-20
  0.663999975       6.92938053E-20
  0.671999991       7.90223928E-20
  0.680000007       8.82326418E-20
  0.688000023       9.63515099E-20
  0.695999980       1.02747070E-19
  0.703999996       1.06770464E-19
  0.712000012       1.07809907E-19
  0.720000029       1.05346369E-19
  0.727999985       9.90049179E-20
  0.736000001       8.85987403E-20
  0.744000018       7.41656535E-20
  0.751999974       5.59929478E-20
  0.759999990       3.46253895E-20
  0.768000007       1.08526460E-20
  0.776000023      -1.43248764E-20
  0.783999979      -3.97513986E-20
  0.791999996      -6.41897971E-20
  0.800000012      -8.64077068E-20
  0.808000028      -1.05265835E-19
  0.815999985      -1.19800503E-19
  0.824000001      -1.29296020E-19
  0.832000017      -1.33342368E-19
  0.839999974      -1.31873915E-19
  0.847999990      -1.25179659E-19
  0.856000006      -1.13884236E-19
  0.864000022      -9.88993490E-20
  0.871999979      -8.13506154E-20
  0.879999995      -6.24866323E-20
  0.888000011      -4.35809153E-20
  0.896000028      -2.58394841E-20
  0.903999984      -1.03189618E-20
  0.912000000       2.14366400E-21
  0.920000017       1.09889725E-20
  0.927999973       1.59746962E-20
  0.935999990       1.71879940E-20
  0.944000006       1.50272529E-20
  0.952000022       1.01569911E-20
  0.959999979       3.44396365E-21
  0.967999995      -4.11760412E-21
  0.976000011      -1.14859812E-20
  0.984000027      -1.76539859E-20
  0.991999984      -2.17351836E-20
   1.00000000      -2.30578858E-20
   1.00800002      -2.12680382E-20
   1.01600003      -1.64336522E-20
   1.02400005      -9.13085258E-21
   1.03199995      -4.95282015E-22
   1.03999996       7.76991833E-21
   1.04799998       1.34271495E-20
   1.05599999       1.37693163E-20
   1.06400001       5.71739565E-21
   1.07200003      -1.40404555E-20
   1.08000004      -4.88558719E-20
   1.08800006      -1.01865619E-19
   1.09599996      -1.75682977E-19
   1.10399997      -2.72060505E-19
   1.11199999      -3.91562021E-19
   1.12000000      -5.33273053E-19
   1.12800002      -6.94574978E-19
   1.13600004      -8.70998127E-19
   1.14400005      -1.05616354E-18
   1.15199995      -1.24182578E-18
   1.15999997      -1.41805971E-18
   1.16799998      -1.57357463E-18
   1.17600000      -1.69619506E-18
   1.18400002      -1.77345579E-18
   1.19200003      -1.79330730E-18
   1.20000005      -1.74486409E-18
   1.20799994      -1.61917307E-18
   1.21599996      -1.40994114E-18
   1.22399998      -1.11419802E-18
   1.23199999      -7.32840870E-19
   1.24000001      -2.71022807E-19
   1.24800003       2.61653099E-19
   1.25600004       8.51182240E-19
   1.26400006       1.47945326E-18
   1.27199996       2.12480531E-18
   1.27999997       2.76280682E-18
   1.28799999       3.36724693E-18
   1.29600000       3.91128051E-18
   1.30400002       4.36871181E-18
   1.31200004       4.71529883E-18
   1.32000005       4.93007007E-18
   1.32799995       4.99653031E-18
   1.33599997       4.90369666E-18
   1.34399998       4.64691084E-18
   1.35200000       4.22835290E-18
   1.36000001       3.65726245E-18
   1.36800003       2.94978128E-18
   1.37600005       2.12847840E-18
   1.38399994       1.22148706E-18
   1.39199996       2.61356969E-19
   1.39999998      -7.16362295E-19
   1.40799999      -1.67472589E-18
   1.41600001      -2.57707086E-18
   1.42400002      -3.38873584E-18
   1.43200004      -4.07868533E-18
   1.44000006      -4.62102588E-18
   1.44799995      -4.99626024E-18
   1.45599997      -5.19228219E-18
   1.46399999      -5.20494343E-18
   1.47200000      -5.03822642E-18
   1.48000002      -4.70398093E-18
   1.48800004      -4.22126314E-18
   1.49600005      -3.61532191E-18
   1.50399995      -2.91630404E-18
   1.51199996      -2.15771531E-18
   1.51999998      -1.37470811E-18
   1.52800000      -6.02290884E-19
   1.53600001       1.26464413E-19
   1.54400003       7.82069387E-19
   1.55200005       1.34003218E-18
   1.55999994       1.78194660E-18
   1.56799996       2.09622126E-18
   1.57599998       2.27841771E-18
   1.58399999       2.33121913E-18
   1.59200001       2.26399168E-18
   1.60000002       2.09201297E-18
   1.60800004       1.83534090E-18
   1.61600006       1.51744567E-18
   1.62399995       1.16365452E-18
   1.63199997       7.99546886E-19
   1.63999999       4.49391821E-19
   1.64800000       1.34736826E-19
   1.65600002      -1.26778612E-19
   1.66400003      -3.22321601E-19
   1.67200005      -4.44446625E-19
   1.67999995      -4.91322950E-19
   1.68799996      -4.66597849E-19
   1.69599998      -3.78908820E-19
   1.70400000      -2.41069330E-19
   1.71200001      -6.89850342E-20
   1.72000003       1.19612048E-19
   1.72800004       3.06507485E-19
   1.73599994       4.74318702E-19
   1.74399996       6.07692476E-19
   1.75199997       6.94323050E-19
   1.75999999       7.25743454E-19
   1.76800001       6.97853043E-19
   1.77600002       6.11142388E-19
   1.78400004       4.70590133E-19
   1.79200006       2.85229401E-19
   1.79999995       6.74287068E-20
   1.80799997      -1.68047777E-19
   1.81599998      -4.05104079E-19
   1.82400000      -6.27418821E-19
   1.83200002      -8.19529140E-19
   1.84000003      -9.67836782E-19
   1.84800005      -1.06149317E-18
   1.85599995      -1.09309860E-18
   1.86399996      -1.05916672E-18
   1.87199998      -9.60316987E-19
   1.88000000      -8.01193493E-19
   1.88800001      -5.90137015E-19
   1.89600003      -3.38659142E-19
   1.90400004      -6.07514141E-20
   1.91199994       2.27932229E-19
   1.91999996       5.10987980E-19
   1.92799997       7.72220613E-19
   1.93599999       9.96584514E-19
   1.94400001       1.17103753E-18
   1.95200002       1.28526455E-18
   1.96000004       1.33221925E-18
   1.96800005       1.30850316E-18
   1.97599995       1.21454981E-18
   1.98399997       1.05463150E-18
   1.99199998       8.36654416E-19
   2.00000000       5.71754943E-19
   2.00799990       2.73700726E-19
   2.01600003      -4.18501820E-20
   2.02399993      -3.58188334E-19
   2.03200006      -6.58433803E-19
   2.03999996      -9.26424398E-19
   2.04800010      -1.14757889E-18
   2.05599999      -1.30970950E-18
   2.06399989      -1.40372519E-18
   2.07200003      -1.42419202E-18
   2.07999992      -1.36969250E-18
   2.08800006      -1.24295085E-18
   2.09599996      -1.05071863E-18
   2.10400009      -8.03434584E-19
   2.11199999      -5.14667693E-19
   2.11999989      -2.00379062E-19
   2.12800002       1.21973727E-19
   2.13599992       4.34444822E-19
   2.14400005       7.19660833E-19
   2.15199995       9.61865986E-19
   2.16000009       1.14788102E-18
   2.16799998       1.26791154E-18
   2.17600012       1.31615292E-18
   2.18400002       1.29114518E-18
   2.19199991       1.19584312E-18
   2.20000005       1.03739430E-18
   2.20799994       8.26624230E-19
   2.21600008       5.77284231E-19
   2.22399998       3.05110144E-19
   2.23200011       2.67751563E-20
   2.24000001      -2.41203437E-19
   2.24799991      -4.83533080E-19
   2.25600004      -6.87121874E-19
   2.26399994      -8.41887419E-19
   2.27200007      -9.41327608E-19
   2.27999997      -9.82803995E-19
   2.28800011      -9.67522764E-19
   2.29600000      -9.00243822E-19
   2.30399990      -7.88766035E-19
   2.31200004      -6.43235652E-19
   2.31999993      -4.75322123E-19
   2.32800007      -2.97316604E-19
   2.33599997      -1.21211079E-19
   2.34400010       4.21644008E-20
   2.35200000       1.83864595E-19
   2.35999990       2.97358997E-19
   2.36800003       3.78834167E-19
   2.37599993       4.27267117E-19
   2.38400006       4.44277053E-19
   2.39199996       4.33774702E-19
   2.40000010       4.01436490E-19
   2.40799999       3.54052121E-19
   2.41599989       2.98811293E-19
   2.42400002       2.42606206E-19
   2.43199992       1.91414789E-19
   2.44000006       1.49801310E-19
   2.44799995       1.20562298E-19
   2.45600009       1.04536734E-19
   2.46399999       1.00604802E-19
   2.47199988       1.05889717E-19
   2.48000002       1.16150660E-19
   2.48799992       1.26325097E-19
   2.49600005       1.31147509E-19
   2.50399995       1.25771752E-19
   2.51200008       1.06338023E-19
   2.51999998       7.04384940E-20
   2.52800012       1.74566177E-20
   2.53600001      -5.12499653E-20
   2.54399991      -1.32345395E-19
   2.55200005      -2.20709624E-19
   2.55999994      -3.09827090E-19
   2.56800008      -3.92342027E-19
   2.57599998      -4.60720473E-19
   2.58400011      -5.07951038E-19
   2.59200001      -5.28217273E-19
   2.59999990      -5.17469664E-19
   2.60800004      -4.73851810E-19
   2.61599994      -3.97942996E-19
   2.62400007      -2.92802601E-19
   2.63199997      -1.63809252E-19
   2.64000010      -1.83163185E-20
   2.64800000       1.34861911E-19
   2.65599990       2.86094891E-19
   2.66400003       4.25664403E-19
   2.67199993       5.44509371E-19
   2.68000007       6.34914990E-19
   2.68799996       6.91076418E-19
   2.69600010       7.09490544E-19
   2.70400000       6.89156894E-19
   2.71199989       6.31583675E-19
   2.72000003       5.40620123E-19
   2.72799993       4.22129783E-19
   2.73600006       2.83537377E-19
   2.74399996       1.33277977E-19
   2.75200009      -1.98099821E-20
   2.75999999      -1.67091414E-19
   2.76799989      -3.00697834E-19
   2.77600002      -4.13999037E-19
   2.78399992      -5.01950566E-19
   2.79200006      -5.61299121E-19
   2.79999995      -5.90642785E-19
   2.80800009      -5.90354822E-19
   2.81599998      -5.62403149E-19
   2.82399988      -5.10092040E-19
   2.83200002      -4.37750753E-19
   2.83999991      -3.50393216E-19
   2.84800005      -2.53362604E-19
   2.85599995      -1.51986773E-19
   2.86400008      -5.12697788E-20
   2.87199998       4.43467553E-20
   2.88000011       1.31136988E-19
   2.88800001       2.06158495E-19
   2.89599991       2.67253164E-19
   2.90400004       3.13003360E-19
   2.91199994       3.42667944E-19
   2.92000008       3.56106760E-19
   2.92799997       3.53701835E-19
   2.93600011       3.36274407E-19
   2.94400001       3.05010081E-19
   2.95199990       2.61396932E-19
   2.96000004       2.07189873E-19
   2.96799994       1.44401824E-19
   2.97600007       7.53126234E-20
   2.98399997       2.48261923E-21
   2.99200010      -7.12501650E-20
   3.00000000      -1.42805896E-19
   3.00799990      -2.08941054E-19
   3.01600003      -2.66371312E-19
   3.02399993      -3.11932756E-19
   3.03200006      -3.42770075E-19
   3.03999996      -3.56537126E-19
   3.04800010      -3.51591465E-19
   3.05599999      -3.27165235E-19
   3.06399989      -2.83496535E-19
   3.07200003      -2.21904434E-19
   3.07999992      -1.44801934E-19
   3.08800006      -5.56395090E-20
   3.09599996       4.12297126E-20
   3.10400009       1.40770165E-19
   3.11199999       2.37565600E-19
   3.11999989       3.26178434E-19
   3.12800002       4.01522310E-19
   3.13599992       4.59200683E-19
   3.14400005       4.95779851E-19
   3.15199995       5.08990804E-19
   3.16000009       4.97865277E-19
   3.16799998       4.62817117E-19
   3.17600012       4.05646064E-19
   3.18400002       3.29448615E-19
   3.19199991       2.38410720E-19
   3.20000005       1.37500282E-19
   3.20799994       3.21043982E-20
   3.21600008      -7.23337392E-20
   3.22399998      -1.70639515E-19
   3.23200011      -2.58182068E-19
   3.24000001      -3.31110525E-19
   3.24799991      -3.86554916E-19
   3.25600004      -4.22776044E-19
   3.26399994      -4.39235439E-19
   3.27200007      -4.36566592E-19
   3.27999997      -4.16453359E-19
   3.28800011      -3.81436400E-19
   3.29600000      -3.34682937E-19
   3.30399990      -2.79728753E-19
   3.31200004      -2.20208869E-19
   3.31999993      -1.59585435E-19
   3.32800007      -1.00903278E-19
   3.33599997      -4.66047904E-20
   3.34400010       1.57891664E-21
   3.35200000       4.26596494E-20
   3.35999990       7.63643189E-20
   3.36800003       1.03060481E-19
   3.37599993       1.23635003E-19
   3.38400006       1.39322056E-19
   3.39199996       1.51479233E-19
   3.40000010       1.61346283E-19
   3.40799999       1.69832665E-19
   3.41599989       1.77378000E-19
   3.42400002       1.83907557E-19
   3.43199992       1.88864256E-19
   3.44000006       1.91296102E-19
   3.44799995       1.89977227E-19
   3.45600009       1.83561976E-19
   3.46399999       1.70776388E-19
   3.47199988       1.50634669E-19
   3.48000002       1.22651937E-19
   3.48799992       8.70128476E-20
   3.49600005       4.46591582E-20
   3.50399995      -2.71722510E-21
   3.51200008      -5.27685267E-20
   3.51999998      -1.02659111E-19
   3.52800012      -1.49282642E-19
   3.53600001      -1.89514290E-19
   3.54399991      -2.20475945E-19
   3.55200005      -2.39792189E-19
   3.55999994      -2.45813340E-19
   3.56800008      -2.37778495E-19
   3.57599998      -2.15906121E-19
   3.58400011      -1.81397076E-19
   3.59200001      -1.36353848E-19
   3.59999990      -8.36202051E-20
   3.60800004      -2.65600392E-20
   3.61599994       3.12038215E-20
   3.62400007       8.60642783E-20
   3.63199997       1.34693593E-19
   3.64000010       1.74275155E-19
   3.64800000       2.02681868E-19
   3.65599990       2.18591757E-19
   3.66400003       2.21532668E-19
   3.67199993       2.11861479E-19
   3.68000007       1.90689559E-19
   3.68799996       1.59767144E-19
   3.69600010       1.21339925E-19
   3.70400000       7.79839127E-20
   3.71199989       3.24270374E-20
   3.72000003      -1.26300834E-20
   3.72799993      -5.46768970E-20
   3.73600006      -9.15195021E-20
   3.74399996      -1.21364663E-19
   3.75200009      -1.42868529E-19
   3.75999999      -1.55167205E-19
   3.76799989      -1.57901089E-19
   3.77600002      -1.51231040E-19
   3.78399992      -1.35832517E-19
   3.79200006      -1.12854396E-19
   3.79999995      -8.38449785E-20
   3.80800009      -5.06584697E-20
   3.81599998      -1.53593077E-20
   3.82399988       1.98691142E-20
   3.83200002       5.28205680E-20
   3.83999991       8.13807041E-20
   3.84800005       1.03662972E-19
   3.85599995       1.18152514E-19
   3.86400008       1.23831484E-19
   3.87199998       1.20266193E-19
   3.88000011       1.07649194E-19
   3.88800001       8.68036162E-20
   3.89599991       5.91560800E-20
   3.90400004       2.66774811E-20
   3.91199994      -8.22186510E-21
   3.92000008      -4.28492224E-20
   3.92799997      -7.44340413E-20
   3.93600011      -1.00355697E-19
   3.94400001      -1.18363122E-19
   3.95199990      -1.26760194E-19
   3.96000004      -1.24545108E-19
   3.96799994      -1.11506467E-19
   3.97600007      -8.82760235E-20
   3.98399997      -5.63292290E-20
   3.99200010      -1.79188727E-20
   4.00000000       2.40724066E-20
   4.00799990       6.63532234E-20
   4.01599979       1.05491041E-19
   4.02400017       1.38190758E-19
   4.03200006       1.61552212E-19
   4.03999996       1.73292645E-19
   4.04799986       1.71930654E-19
   4.05600023       1.56927148E-19
   4.06400013       1.28769015E-19
   4.07200003       8.89771237E-20
   4.07999992       4.00218835E-20
   4.08799982      -1.48483508E-20
   4.09600019      -7.18460323E-20
   4.10400009      -1.26921146E-19
   4.11199999      -1.76049845E-19
   4.11999989      -2.15514141E-19
   4.12799978      -2.42165344E-19
   4.13600016      -2.53653048E-19
   4.14400005      -2.48608797E-19
   4.15199995      -2.26765387E-19
   4.15999985      -1.88999177E-19
   4.16800022      -1.37295296E-19
   4.17600012      -7.46362740E-20
   4.18400002      -4.82099885E-21
   4.19199991       6.77730983E-20
   4.19999981       1.38471805E-19
   4.20800018       2.02607732E-19
   4.21600008       2.55825353E-19
   4.22399998       2.94366542E-19
   4.23199987       3.15326678E-19
   4.23999977       3.16866888E-19
   4.24800014       2.98374697E-19
   4.25600004       2.60552665E-19
   4.26399994       2.05416450E-19
   4.27199984       1.36191682E-19
   4.28000021       5.71181202E-20
   4.28800011      -2.68211924E-20
   4.29600000      -1.10220408E-19
   4.30399990      -1.87602198E-19
   4.31199980      -2.53787258E-19
   4.32000017      -3.04262258E-19
   4.32800007      -3.35523766E-19
   4.33599997      -3.45355893E-19
   4.34399986      -3.33013841E-19
   4.35200024      -2.99288835E-19
   4.36000013      -2.46454560E-19
   4.36800003      -1.78109395E-19
   4.37599993      -9.89240481E-20
   4.38399982      -1.43110340E-20
   4.39200020       6.99679704E-20
   4.40000010       1.48228905E-19
   4.40799999       2.15286059E-19
   4.41599989       2.66826442E-19
   4.42399979       2.99706484E-19
   4.43200016       3.12153872E-19
   4.44000006       3.03866375E-19
   4.44799995       2.76003390E-19
   4.45599985       2.31072723E-19
   4.46400023       1.72714717E-19
   4.47200012       1.05403024E-19
   4.48000002       3.40914250E-20
   4.48799992      -3.61595930E-20
   4.49599981      -1.00547054E-19
   4.50400019      -1.54855759E-19
   4.51200008      -1.95738889E-19
   4.51999998      -2.20929602E-19
   4.52799988      -2.29367826E-19
   4.53599977      -2.21230334E-19
   4.54400015      -1.97868414E-19
   4.55200005      -1.61662615E-19
   4.55999994      -1.15814579E-19
   4.56799984      -6.40901994E-20
   4.57600021      -1.05287482E-20
   4.58400011       4.08632748E-20
   4.59200001       8.64090122E-20
   4.59999990       1.23021092E-19
   4.60799980       1.48402070E-19
   4.61600018       1.61174566E-19
   4.62400007       1.60940254E-19
   4.63199997       1.48271776E-19
   4.63999987       1.24637119E-19
   4.64799976       9.22605331E-20
   4.65600014       5.39236812E-20
   4.66400003       1.27289170E-20
   4.67199993      -2.81490144E-20
   4.67999983      -6.56965519E-20
   4.68800020      -9.72619127E-20
   4.69600010      -1.20717847E-19
   4.70400000      -1.34583320E-19
   4.71199989      -1.38101913E-19
   4.71999979      -1.31267527E-19
   4.72800016      -1.14794096E-19
   4.73600006      -9.00324575E-20
   4.74399996      -5.88498487E-20
   4.75199986      -2.34890133E-20
   4.76000023       1.35774201E-20
   4.76800013       4.97950063E-20
   4.77600002       8.26767992E-20
   4.78399992       1.09953306E-19
   4.79199982       1.29713552E-19
   4.80000019       1.40524040E-19
   4.80800009       1.41513232E-19
   4.81599998       1.32419648E-19
   4.82399988       1.13608553E-19
   4.83199978       8.60644980E-20
   4.84000015       5.13617574E-20
   4.84800005       1.16045637E-20
   4.85599995      -3.06728685E-20
   4.86399984      -7.26511569E-20
   4.87200022      -1.11408446E-19
   4.88000011      -1.44121862E-19
   4.88800001      -1.68264460E-19
   4.89599991      -1.81783783E-19
   4.90399981      -1.83255377E-19
   4.91200018      -1.72009947E-19
   4.92000008      -1.48227444E-19
   4.92799997      -1.12982312E-19
   4.93599987      -6.82160923E-20
   4.94399977      -1.66309040E-20
   4.95200014       3.84927367E-20
   4.96000004       9.35274959E-20
   4.96799994       1.44752665E-19
   4.97599983       1.88607558E-19
   4.98400021       2.21935712E-19
   4.99200010       2.42214975E-19
   5.00000000       2.47758249E-19
   5.00799990       2.37864160E-19
   5.01599979       2.12885193E-19
   5.02400017       1.74204599E-19
   5.03200006       1.24128248E-19
   5.03999996       6.57138580E-20
   5.04799986       2.56375260E-21
   5.05600023      -6.14096819E-20
   5.06400013      -1.22240583E-19
   5.07200003      -1.76178821E-19
   5.07999992      -2.19949729E-19
   5.08799982      -2.50972517E-19
   5.09600019      -2.67512071E-19
   5.10400009      -2.68758943E-19
   5.11199999      -2.54843542E-19
   5.11999989      -2.26800309E-19
   5.12799978      -1.86488709E-19
   5.13600016      -1.36467430E-19
   5.14400005      -7.98218951E-20
   5.15199995      -1.99543687E-20
   5.15999985       3.96393835E-20
   5.16800022       9.55820704E-20
   5.17600012       1.44800267E-19
   5.18400002       1.84681384E-19
   5.19199991       2.13203644E-19
   5.19999981       2.29037755E-19
   5.20800018       2.31609899E-19
   5.21600008       2.21118070E-19
   5.22399998       1.98499837E-19
   5.23199987       1.65360125E-19
   5.23999977       1.23868810E-19
   5.24800014       7.66358151E-20
   5.25600004       2.65632833E-20
   5.26399994      -2.33215867E-20
   5.27199984      -7.00478385E-20
   5.28000021      -1.10880924E-19
   5.28800011      -1.43487337E-19
   5.29600000      -1.66073336E-19
   5.30399990      -1.77493249E-19
   5.31199980      -1.77323703E-19
   5.32000017      -1.65897314E-19
   5.32800007      -1.44286846E-19
   5.33599997      -1.14233643E-19
   5.34399986      -7.80254786E-20
   5.35200024      -3.83334786E-20
   5.36000013       1.97566919E-21
   5.36800003       4.00417455E-20
   5.37599993       7.32168450E-20
   5.38399982       9.92627463E-20
   5.39200020       1.16523240E-19
   5.40000010       1.24049782E-19
   5.40799999       1.21665020E-19
   5.41599989       1.09959070E-19
   5.42399979       9.02245831E-20
   5.43200016       6.43413715E-20
   5.44000006       3.46205330E-20
   5.44799995       3.61607700E-21
   5.45599985      -2.60842892E-20
   5.46400023      -5.20717918E-20
   5.47200012      -7.23099643E-20
   5.48000002      -8.52891583E-20
   5.48799992      -9.01276415E-20
   5.49599981      -8.66152646E-20
   5.50400019      -7.52016520E-20
   5.51200008      -5.69340596E-20
   5.51999998      -3.33549855E-20
   5.52799988      -6.36734272E-21
   5.53599977       2.19202927E-20
   5.54400015       4.93556635E-20
   5.55200005       7.38984871E-20
   5.55999994       9.37559077E-20
   5.56799984       1.07486854E-19
   5.57600021       1.14071166E-19
   5.58400011       1.12943693E-19
   5.59200001       1.04001470E-19
   5.59999990       8.75900517E-20
   5.60799980       6.44745864E-20
   5.61600018       3.57966546E-20
   5.62400007       3.01666408E-21
   5.63199997      -3.21568531E-20
   5.63999987      -6.78456317E-20
   5.64799976      -1.02081765E-19
   5.65600014      -1.32885208E-19
   5.66400003      -1.58342894E-19
   5.67199993      -1.76694865E-19
   5.67999983      -1.86433017E-19
   5.68800020      -1.86408292E-19
   5.69600010      -1.75936547E-19
   5.70400000      -1.54885654E-19
   5.71199989      -1.23736681E-19
   5.71999979      -8.36082433E-20
   5.72800016      -3.62474777E-20
   5.73600006       1.60200570E-20
   5.74399996       7.03847143E-20
   5.75199986       1.23695594E-19
   5.76000023       1.72648698E-19
   5.76800013       2.14007548E-19
   5.77600002       2.44837345E-19
   5.78399992       2.62731924E-19
   5.79199982       2.66015159E-19
   5.80000019       2.53901512E-19
   5.80800009       2.26601450E-19
   5.81599998       1.85356893E-19
   5.82399988       1.32397585E-19
   5.83199978       7.08176206E-20
   5.84000015       4.37963942E-21
   5.84800005      -6.27382180E-20
   5.85599995      -1.26233112E-19
   5.86399984      -1.81986986E-19
   5.87200022      -2.26371597E-19
   5.88000011      -2.56526337E-19
   5.88800001      -2.70579981E-19
   5.89599991      -2.67794889E-19
   5.90399981      -2.48619240E-19
   5.91200018      -2.14646493E-19
   5.92000008      -1.68487010E-19
   5.92799997      -1.13567232E-19
   5.93599987      -5.38641177E-20
   5.94399977       6.40323218E-21
   5.95200014       6.31027526E-20
   5.96000004       1.12508893E-19
   5.96799994       1.51580563E-19
   5.97599983       1.78172804E-19
   5.98400021       1.91168160E-19
   5.99200010       1.90523360E-19
   6.00000000       1.77233308E-19
   6.00799990       1.53213870E-19
   6.01599979       1.21113730E-19
   6.02400017       8.40642783E-20
   6.03200006       4.53935168E-20
   6.03999996       8.33488026E-21
   6.04799986      -2.42376117E-20
   6.05600023      -5.00242613E-20
   6.06400013      -6.74537937E-20
   6.07200003      -7.57736926E-20
   6.07999992      -7.50756491E-20
   6.08799982      -6.62540393E-20
   6.09600019      -5.08973343E-20
   6.10400009      -3.11191001E-20
   6.11199999      -9.34612633E-21
   6.11999989       1.19102950E-20
   6.12799978       3.02738152E-20
   6.13600016       4.36937576E-20
   6.14400005       5.05998174E-20
   6.15199995       5.00184516E-20
   6.15999985       4.16489930E-20
   6.16800022       2.58910569E-20
   6.17600012       3.81485480E-21
   6.18400002      -2.29271799E-20
   6.19199991      -5.22363814E-20
   6.19999981      -8.17319973E-20
   6.20800018      -1.08925146E-19
   6.21600008      -1.31391462E-19
   6.22399998      -1.46939925E-19
   6.23199987      -1.53774957E-19
   6.23999977      -1.50642075E-19
   6.24800014      -1.36942141E-19
   6.25600004      -1.12798484E-19
   6.26399994      -7.90710801E-20
   6.27199984      -3.73219789E-20
   6.28000021       1.02587974E-20
   6.28800011       6.09613500E-20
   6.29600000       1.11700583E-19
   6.30399990       1.59199724E-19
   6.31199980       2.00207280E-19
   6.32000017       2.31728316E-19
   6.32800007       2.51243833E-19
   6.33599997       2.56895105E-19
   6.34399986       2.47625357E-19
   6.35200024       2.23274426E-19
   6.36000013       1.84631107E-19
   6.36800003       1.33432259E-19
   6.37599993       7.22987715E-20
   6.38399982       4.59802439E-21
   6.39200020      -6.57606778E-20
   6.40000010      -1.34577142E-19
   6.40799999      -1.97633133E-19
   6.41599989      -2.50961738E-19
   6.42399979      -2.91101970E-19
   6.43200016      -3.15327867E-19
   6.44000006      -3.21838037E-19
   6.44799995      -3.09889852E-19
   6.45599985      -2.79863842E-19
   6.46400023      -2.33247665E-19
   6.47200012      -1.72547704E-19
   6.48000002      -1.01139063E-19
   6.48799992      -2.30670494E-20
   6.49599981       5.71906472E-20
   6.50400019       1.34993653E-19
   6.51200008       2.05824185E-19
   6.51999998       2.65564345E-19
   6.52799988       3.10740892E-19
   6.53599977       3.38717174E-19
   6.54400015       3.47834178E-19
   6.55200005       3.37498143E-19
   6.55999994       3.08223419E-19
   6.56799984       2.61617298E-19
   6.57600021       2.00298838E-19
   6.58400011       1.27747422E-19
   6.59200001       4.80894503E-20
   6.59999990      -3.41507558E-20
   6.60799980      -1.14311204E-19