 -0.239999995         0.00000000    
 -0.231999993         0.00000000    
 -0.224000007         0.00000000    
 -0.216000006         0.00000000    
 -0.208000004         0.00000000    
 -0.200000003         0.00000000    
 -0.192000002         3.67929732E-35
 -0.184000000         7.23122115E-29
 -0.175999999        -1.07217555E-28
 -0.167999998        -2.16694294E-27
 -0.159999996        -4.88914958E-27
 -0.151999995         5.26278345E-27
 -0.143999994         4.00873320E-26
 -0.136000007         5.33441549E-26
 -0.128000006        -6.15366233E-26
 -0.119999997        -2.84238269E-25
 -0.112000003        -2.70202708E-25
 -0.104000002         3.45195523E-25
  -9.60000008E-02     1.15884732E-24
  -8.79999995E-02     8.98788475E-25
  -7.99999982E-02    -1.05828205E-24
  -7.19999969E-02    -3.04988772E-24
  -6.40000030E-02    -2.25976069E-24
  -5.60000017E-02     1.62613746E-24
  -4.80000004E-02     4.99097543E-24
  -3.99999991E-02     4.20529403E-24
  -3.20000015E-02     3.32419601E-25
  -2.40000002E-02    -2.59443257E-24
  -1.60000008E-02    -4.00333617E-24
  -8.00000038E-03    -7.33657445E-24
   0.00000000        -1.14338359E-23
   8.00000038E-03    -6.15302986E-24
   1.60000008E-02     1.50423847E-23
   2.40000002E-02     3.78873390E-23
   3.20000015E-02     3.37557463E-23
   3.99999991E-02    -7.37711559E-24
   4.80000004E-02    -5.57039487E-23
   5.60000017E-02    -6.62331592E-23
   6.40000030E-02    -2.68225961E-23
   7.19999969E-02     2.86885424E-23
   7.99999982E-02     5.91760158E-23
   8.79999995E-02     5.66924608E-23
   9.60000008E-02     4.00037360E-23
  0.104000002         1.95132066E-23
  0.112000003        -1.33358040E-23
  0.119999997        -6.18326532E-23
  0.128000006        -1.04371643E-22
  0.136000007        -1.06522980E-22
  0.143999994        -4.93943205E-23
  0.151999995         5.17823003E-23
  0.159999996         1.49483828E-22
  0.167999998         1.88499134E-22
  0.175999999         1.43711840E-22
  0.184000000         3.75141825E-23
  0.192000002        -8.68667376E-23
  0.200000003        -2.01526837E-22
  0.208000004        -2.84023878E-22
  0.216000006        -2.80400217E-22
  0.224000007        -1.25534541E-22
  0.231999993         1.65147172E-22
  0.239999995         4.45811223E-22
  0.247999996         5.29286388E-22
  0.256000012         3.43911775E-22
  0.263999999        -8.69335052E-24
  0.272000015        -3.48932641E-22
  0.280000001        -5.49892142E-22
  0.287999988        -5.72490622E-22
  0.296000004        -4.13615701E-22
  0.303999990        -7.71677306E-23
  0.312000006         3.75093086E-22
  0.319999993         7.65691467E-22
  0.328000009         8.55090385E-22
  0.335999995         5.17652394E-22
  0.344000012        -1.09427339E-22
  0.351999998        -6.78213886E-22
  0.360000014        -8.78327476E-22
  0.368000001        -6.65394303E-22
  0.375999987        -2.55274707E-22
  0.384000003         9.60654616E-23
  0.391999990         2.96428255E-22
  0.400000006         4.16610747E-22
  0.407999992         5.28424321E-22
  0.416000009         5.80968062E-22
  0.423999995         4.42671531E-22
  0.432000011         5.15472765E-23
  0.439999998        -4.79165877E-22
  0.448000014        -8.93180174E-22
  0.456000000        -9.37722517E-22
  0.463999987        -5.31511001E-22
  0.472000003         1.53682108E-22
  0.479999989         7.71406960E-22
  0.488000005         1.00922356E-21
  0.495999992         7.81022430E-22
  0.504000008         2.54654902E-22
  0.512000024        -2.81184484E-22
  0.519999981        -5.73698828E-22
  0.527999997        -4.96183563E-22
  0.536000013        -9.58108173E-23
  0.544000030         3.84291684E-22
  0.551999986         5.90601909E-22
  0.560000002         2.94308984E-22
  0.568000019        -3.72164002E-22
  0.575999975        -9.28528211E-22
  0.583999991        -8.88429338E-22
  0.592000008        -1.91137766E-22
  0.600000024         6.69712667E-22
  0.607999980         1.00621877E-21
  0.615999997         5.20604122E-22
  0.624000013        -4.12991504E-22
  0.632000029        -1.05379064E-21
  0.639999986        -9.16509151E-22
  0.648000002        -1.61475309E-22
  0.656000018         5.52507424E-22
  0.663999975         6.06103013E-22
  0.671999991        -5.79312943E-23
  0.680000007        -8.35026812E-22
  0.688000023        -9.36793454E-22
  0.695999980        -1.00116584E-22
  0.703999996         1.15439810E-21
  0.712000012         2.00584856E-21
  0.720000029         2.02395667E-21
  0.727999985         1.34579317E-21
  0.736000001         3.52389215E-22
  0.744000018        -5.85376494E-22
  0.751999974        -1.12191450E-21
  0.759999990        -1.06694636E-21
  0.768000007        -6.59052871E-22
  0.776000023        -4.78508939E-22
  0.783999979        -8.74109986E-22
  0.791999996        -1.57453506E-21
  0.800000012        -1.99153022E-21
  0.808000028        -1.78515593E-21
  0.815999985        -1.01770701E-21
  0.824000001         5.47163516E-23
  0.832000017         1.10029643E-21
  0.839999974         1.73010419E-21
  0.847999990         1.71445117E-21
  0.856000006         1.24945722E-21
  0.864000022         8.37775330E-22
  0.871999979         8.43239498E-22
  0.879999995         1.26864697E-21
  0.888000011         1.92215731E-21
  0.896000028         2.57361597E-21
  0.903999984         2.89178020E-21
  0.912000000         2.49642422E-21
  0.920000017         1.31524888E-21
  0.927999973        -2.15597023E-22
  0.935999990        -1.55300797E-21
  0.944000006        -2.64708479E-21
  0.952000022        -3.93146949E-21
  0.959999979        -5.64257054E-21
  0.967999995        -7.31962673E-21
  0.976000011        -8.11032415E-21
  0.984000027        -7.44559810E-21
  0.991999984        -5.28418000E-21
   1.00000000        -1.86932378E-21
   1.00800002         2.39562633E-21
   1.01600003         6.76675383E-21
   1.02400005         1.01946860E-20
   1.03199995         1.18646247E-20
   1.03999996         1.16840449E-20
   1.04799998         1.00981232E-20
   1.05599999         7.50332222E-21
   1.06400001         4.03352856E-21
   1.07200003        -1.18981984E-22
   1.08000004        -4.42135348E-21
   1.08800006        -8.14415859E-21
   1.09599996        -1.06815884E-20
   1.10399997        -1.16904701E-20
   1.11199999        -1.10723990E-20
   1.12000000        -8.94650762E-21
   1.12800002        -5.60739800E-21
   1.13600004        -1.47206837E-21
   1.14400005         2.86885502E-21
   1.15199995         6.57241485E-21
   1.15999997         8.75578999E-21
   1.16799998         9.01375725E-21
   1.17600000         7.70915286E-21
   1.18400002         5.62475506E-21
   1.19200003         3.32471010E-21
   1.20000005         9.28130474E-22
   1.20799994        -1.56328311E-21
   1.21599996        -3.88793306E-21
   1.22399998        -5.51188812E-21
   1.23199999        -5.89690960E-21
   1.24000001        -4.79444990E-21
   1.24800003        -2.44942174E-21
   1.25600004         3.82824958E-22
   1.26400006         2.73254975E-21
   1.27199996         3.91544933E-21
   1.27999997         3.84425404E-21
   1.28799999         2.89246925E-21
   1.29600000         1.49613133E-21
   1.30400002        -1.27892768E-22
   1.31200004        -1.97060433E-21
   1.32000005        -4.00514592E-21
   1.32799995        -5.93650481E-21
   1.33599997        -7.16240829E-21
   1.34399998        -7.08571152E-21
   1.35200000        -5.56632735E-21
   1.36000001        -3.04654719E-21
   1.36800003        -1.77820292E-22
   1.37600005         2.64825468E-21
   1.38399994         5.38485330E-21
   1.39199996         8.05698393E-21
   1.39999998         1.05082844E-20
   1.40799999         1.23590146E-20
   1.41600001         1.31074717E-20
   1.42400002         1.23349763E-20
   1.43200004         9.96896991E-21
   1.44000006         6.35655666E-21
   1.44799995         1.96983450E-21
   1.45599997        -2.94183311E-21
   1.46399999        -8.25744598E-21
   1.47200000        -1.35455430E-20
   1.48000002        -1.79269458E-20
   1.48800004        -2.04950847E-20
   1.49600005        -2.07809532E-20
   1.50399995        -1.87744101E-20
   1.51199996        -1.47042921E-20
   1.51999998        -8.98663800E-21
   1.52800000        -2.25640815E-21
   1.53600001         4.79817060E-21
   1.54400003         1.16256051E-20
   1.55200005         1.76590120E-20
   1.55999994         2.20222782E-20
   1.56799996         2.36905836E-20
   1.57599998         2.21348443E-20
   1.58399999         1.77378187E-20
   1.59200001         1.15099234E-20
   1.60000002         4.50287439E-21
   1.60800004        -2.46198738E-21
   1.61600006        -8.73407084E-21
   1.62399995        -1.37884110E-20
   1.63199997        -1.72304597E-20
   1.63999999        -1.86862879E-20
   1.64800000        -1.77503088E-20
   1.65600002        -1.42980108E-20
   1.66400003        -8.91490916E-21
   1.67200005        -2.79170327E-21
   1.67999995         2.96974521E-21
   1.68799996         7.86050188E-21
   1.69599998         1.17302281E-20
   1.70400000         1.42763167E-20
   1.71200001         1.50122053E-20
   1.72000003         1.36853914E-20
   1.72800004         1.05175037E-20
   1.73599994         6.03412384E-21
   1.74399996         8.42824747E-22
   1.75199997        -4.39929183E-21
   1.75999999        -9.01455777E-21
   1.76800001        -1.24678244E-20
   1.77600002        -1.44702017E-20
   1.78400004        -1.48754458E-20
   1.79200006        -1.35580929E-20
   1.79999995        -1.04981967E-20
   1.80799997        -5.98021977E-21
   1.81599998        -6.40880040E-22
   1.82400000         4.71539761E-21
   1.83200002         9.36549803E-21
   1.84000003         1.27840481E-20
   1.84800005         1.46043972E-20
   1.85599995         1.45727640E-20
   1.86399996         1.26242366E-20
   1.87199998         9.00728601E-21
   1.88000000         4.27419490E-21
   1.88800001        -8.81973856E-22
   1.89600003        -5.76653131E-21
   1.90400004        -9.71260693E-21
   1.91199994        -1.21315230E-20
   1.91999996        -1.26729167E-20
   1.92799997        -1.13543165E-20
   1.93599999        -8.50742012E-21
   1.94400001        -4.61234294E-21
   1.95200002        -1.89024730E-22
   1.96000004         4.21894666E-21
   1.96800005         8.04071335E-21
   1.97599995         1.07089411E-20
   1.98399997         1.17659511E-20
   1.99199998         1.10525143E-20
   2.00000000         8.84180869E-21
   2.00799990         5.72061269E-21
   2.01600003         2.26091039E-21
   2.02399993        -1.19470427E-21
   2.03200006        -4.43186166E-21
   2.03999996        -7.15228987E-21
   2.04800010        -8.98220887E-21
   2.05599999        -9.70785468E-21
   2.06399989        -9.42887024E-21
   2.07200003        -8.42568030E-21
   2.07999992        -6.90361627E-21
   2.08800006        -4.92574019E-21
   2.09599996        -2.59060427E-21
   2.10400009        -1.76449100E-22
   2.11199999         1.98766089E-21
   2.11999989         3.77200458E-21
   2.12800002         5.26513102E-21
   2.13599992         6.51787182E-21
   2.14400005         7.36271686E-21
   2.15199995         7.55719559E-21
   2.16000009         7.05296923E-21
   2.16799998         6.04422368E-21
   2.17600012         4.76132350E-21
   2.18400002         3.26687773E-21
   2.19199991         1.45092427E-21
   2.20000005        -7.95116509E-22
   2.20799994        -3.36598411E-21
   2.21600008        -5.85443500E-21
   2.22399998        -7.68978763E-21
   2.23200011        -8.42396455E-21
   2.24000001        -7.92921037E-21
   2.24799991        -6.36622474E-21
   2.25600004        -4.03300834E-21
   2.26399994        -1.27000719E-21
   2.27200007         1.57308851E-21
   2.27999997         4.20171683E-21
   2.28800011         6.44049651E-21
   2.29600000         8.16553280E-21
   2.30399990         9.12377146E-21
   2.31200004         8.88003268E-21
   2.31999993         7.07644048E-21
   2.32800007         3.83359278E-21
   2.33599997        -1.32756846E-22
   2.34400010        -3.88663978E-21
   2.35200000        -6.82130534E-21
   2.35999990        -8.84280874E-21
   2.36800003        -1.00438249E-20
   2.37599993        -1.02976757E-20
   2.38400006        -9.25680537E-21
   2.39199996        -6.73397760E-21
   2.40000010        -3.02329445E-21
   2.40799999         1.15544348E-21
   2.41599989         4.98678676E-21
   2.42400002         7.85846785E-21
   2.43199992         9.45494097E-21
   2.44000006         9.68794660E-21
   2.44799995         8.60174618E-21
   2.45600009         6.35065855E-21
   2.46399999         3.23566964E-21
   2.47199988        -2.93360129E-22
   2.48000002        -3.72357534E-21
   2.48799992        -6.58432981E-21
   2.49600005        -8.47308405E-21
   2.50399995        -9.02891307E-21
   2.51200008        -7.98584397E-21
   2.51999998        -5.34369702E-21
   2.52800012        -1.50606153E-21
   2.53600001         2.78771236E-21
   2.54399991         6.71594159E-21
   2.55200005         9.62069779E-21
   2.55999994         1.11008769E-20
   2.56800008         1.09851015E-20
   2.57599998         9.29564731E-21
   2.58400011         6.23342549E-21
   2.59200001         2.13658026E-21
   2.59999990        -2.58421462E-21
   2.60800004        -7.45101597E-21
   2.61599994        -1.18385160E-20
   2.62400007        -1.49392147E-20
   2.63199997        -1.59356846E-20
   2.64000010        -1.43512783E-20
   2.64800000        -1.03302524E-20
   2.65599990        -4.61297100E-21
   2.66400003         1.78011671E-21
   2.67199993         7.91023692E-21
   2.68000007         1.30839245E-20
   2.68799996         1.67770614E-20
   2.69600010         1.84878243E-20
   2.70400000         1.77312917E-20
   2.71199989         1.42442343E-20
   2.72000003         8.26056083E-21
   2.72799993         6.25376967E-22
   2.73600006        -7.38019105E-21
   2.74399996        -1.44163606E-20
   2.75200009        -1.94318814E-20
   2.75999999        -2.17994242E-20
   2.76799989        -2.12571006E-20
   2.77600002        -1.78337232E-20
   2.78399992        -1.18857437E-20
   2.79200006        -4.17730329E-21
   2.79999995         4.17293353E-21
   2.80800009         1.19359925E-20
   2.81599998         1.80683323E-20
   2.82399988         2.18735037E-20
   2.83200002         2.29801017E-20
   2.83999991         2.12541974E-20
   2.84800005         1.68053277E-20
   2.85599995         1.01169149E-20
   2.86400008         2.13729092E-21
   2.87199998        -5.86926206E-21
   2.88000011        -1.26845489E-20
   2.88800001        -1.74439531E-20
   2.89599991        -1.97030367E-20
   2.90400004        -1.93730514E-20
   2.91199994        -1.67015520E-20
   2.92000008        -1.22496474E-20
   2.92799997        -6.73439160E-21
   2.93600011        -8.33014498E-22
   2.94400001         4.83584205E-21
   2.95199990         9.60082445E-21
   2.96000004         1.27789606E-20
   2.96799994         1.39533317E-20
   2.97600007         1.32183195E-20
   2.98399997         1.11211218E-20
   2.99200010         8.33972622E-21
   3.00000000         5.35169822E-21
   3.00799990         2.31262312E-21
   3.01600003        -7.96206828E-22
   3.02399993        -3.89060201E-21
   3.03200006        -6.65721581E-21
   3.03999996        -8.73393271E-21
   3.04800010        -9.99961679E-21
   3.05599999        -1.06180458E-20
   3.06399989        -1.07728384E-20
   3.07200003        -1.04074370E-20
   3.07999992        -9.25726743E-21
   3.08800006        -7.09616114E-21
   3.09599996        -3.90584103E-21
   3.10400009         1.63649018E-22
   3.11199999         4.89656753E-21
   3.11999989         9.98150929E-21
   3.12800002         1.48671385E-20
   3.13599992         1.87295485E-20
   3.14400005         2.07062921E-20
   3.15199995         2.02582542E-20
   3.16000009         1.73514640E-20
   3.16799998         1.23296812E-20
   3.17600012         5.67425423E-21
   3.18400002        -2.06917271E-21
   3.19199991        -1.01657775E-20
   3.20000005        -1.76074004E-20
   3.20799994        -2.32764149E-20
   3.21600008        -2.62697360E-20
   3.22399998        -2.61011996E-20
   3.23200011        -2.26719963E-20
   3.24000001        -1.62112811E-20
   3.24799991        -7.38284627E-21
   3.25600004         2.60038200E-21
   3.26399994         1.21802709E-20
   3.27200007         1.99617083E-20
   3.27999997         2.50987891E-20
   3.28800011         2.72446830E-20
   3.29600000         2.62565043E-20
   3.30399990         2.20811793E-20
   3.31200004         1.49584547E-20
   3.31999993         5.67338706E-21
   3.32800007        -4.47192984E-21
   3.33599997        -1.40131537E-20
   3.34400010        -2.17381272E-20
   3.35200000        -2.68582427E-20
   3.35999990        -2.89145862E-20
   3.36800003        -2.76821065E-20
   3.37599993        -2.32639636E-20
   3.38400006        -1.62335617E-20
   3.39199996        -7.56229519E-21
   3.40000010         1.66176183E-21
   3.40799999         1.04693043E-20
   3.41599989         1.80540424E-20
   3.42400002         2.37367635E-20
   3.43199992         2.69952396E-20
   3.44000006         2.75489563E-20
   3.44799995         2.53981930E-20
   3.45600009         2.07724358E-20
   3.46399999         1.40420323E-20
   3.47199988         5.70122443E-21
   3.48000002        -3.53125786E-21
   3.48799992        -1.26263393E-20
   3.49600005        -2.03936905E-20
   3.50399995        -2.58668473E-20
   3.51200008        -2.85984578E-20
   3.51999998        -2.85696357E-20
   3.52800012        -2.58474328E-20
   3.53600001        -2.04211296E-20
   3.54399991        -1.24241365E-20
   3.55200005        -2.48992896E-21
   3.55999994         8.16162874E-21
   3.56800008         1.80352370E-20
   3.57599998         2.58306453E-20
   3.58400011         3.07256174E-20
   3.59200001         3.23322186E-20
   3.59999990         3.04988407E-20
   3.60800004         2.52441613E-20
   3.61599994         1.69086315E-20
   3.62400007         6.32364796E-21
   3.63199997        -5.23273890E-21
   3.64000010        -1.62895563E-20
   3.64800000        -2.54622607E-20
   3.65599990        -3.16428347E-20
   3.66400003        -3.41224055E-20
   3.67199993        -3.26610811E-20
   3.68000007        -2.74646614E-20
   3.68799996        -1.90982352E-20
   3.69600010        -8.45171629E-21
   3.70400000         3.23557291E-21
   3.71199989         1.44617812E-20
   3.72000003         2.37609844E-20
   3.72799993         3.00405471E-20
   3.73600006         3.27125278E-20
   3.74399996         3.16252183E-20
   3.75200009         2.69946257E-20
   3.75999999         1.94080579E-20
   3.76799989         9.78718324E-21
   3.77600002        -7.41082642E-22
   3.78399992        -1.09756576E-20
   3.79200006        -1.97443295E-20
   3.79999995        -2.60659087E-20
   3.80800009        -2.93582749E-20
   3.81599998        -2.95112258E-20
   3.82399988        -2.67450724E-20
   3.83200002        -2.14348168E-20
   3.83999991        -1.40912722E-20
   3.84800005        -5.44231004E-21
   3.85599995         3.56693326E-21
   3.86400008         1.19118023E-20
   3.87199998         1.86995487E-20
   3.88000011         2.33794102E-20
   3.88800001         2.58371318E-20
   3.89599991         2.62406683E-20
   3.90400004         2.47165218E-20
   3.91199994         2.12044987E-20
   3.92000008         1.56992563E-20
   3.92799997         8.59821208E-21
   3.93600011         7.12448077E-22
   3.94400001        -7.06884802E-21
   3.95199990        -1.40551056E-20
   3.96000004        -1.97383809E-20
   3.96799994        -2.36725843E-20
   3.97600007        -2.54738655E-20
   3.98399997        -2.48923187E-20
   3.99200010        -2.18340413E-20
   4.00000000        -1.63876548E-20
   4.00799990        -8.93022251E-21
   4.01599979        -1.99485467E-22
   4.02400017         8.80712284E-21
   4.03200006         1.70367218E-20
   4.03999996         2.35221845E-20
   4.04799986         2.74567224E-20
   4.05600023         2.83097686E-20
   4.06400013         2.59602089E-20
   4.07200003         2.07042419E-20
   4.07999992         1.31276706E-20
   4.08799982         4.00724780E-21
   4.09600019        -5.67542957E-21
   4.10400009        -1.47490601E-20
   4.11199999        -2.20466365E-20
   4.11999989        -2.66847399E-20
   4.12799978        -2.81917338E-20
   4.13600016        -2.64312268E-20
   4.14400005        -2.15289199E-20
   4.15199995        -1.39721678E-20
   4.15999985        -4.74706150E-21
   4.16800022         4.77037967E-21
   4.17600012         1.32131545E-20
   4.18400002         1.96207112E-20
   4.19199991         2.35299038E-20
   4.19999981         2.47735440E-20
   4.20800018         2.32769594E-20
   4.21600008         1.90883397E-20
   4.22399998         1.25876089E-20
   4.23199987         4.60669444E-21
   4.23999977        -3.72061558E-21
   4.24800014        -1.12755663E-20
   4.25600004        -1.71818047E-20
   4.26399994        -2.08495559E-20
   4.27199984        -2.19779546E-20
   4.28000021        -2.06192168E-20
   4.28800011        -1.71848873E-20
   4.29600000        -1.22681960E-20
   4.30399990        -6.41894619E-21
   4.31199980        -1.16823043E-22
   4.32000017         6.06994140E-21
   4.32800007         1.14171806E-20
   4.33599997         1.52307975E-20
   4.34399986         1.71280331E-20
   4.35200024         1.71464492E-20
   4.36000013         1.55943595E-20
   4.36800003         1.27834019E-20
   4.37599993         8.87130931E-21
   4.38399982         3.95595856E-21
   4.39200020        -1.66697916E-21
   4.40000010        -7.37466009E-21
   4.40799999        -1.24235775E-20
   4.41599989        -1.63280687E-20
   4.42399979        -1.90065781E-20
   4.43200016        -2.05331027E-20
   4.44000006        -2.08034470E-20
   4.44799995        -1.95308587E-20
   4.45599985        -1.65758981E-20
   4.46400023        -1.22078255E-20
   4.47200012        -6.99972513E-21
   4.48000002        -1.50869807E-21
   4.48799992         3.90074426E-21
   4.49599981         8.97438135E-21
   4.50400019         1.34150528E-20
   4.51200008         1.68452569E-20
   4.51999998         1.88839954E-20
   4.52799988         1.92579553E-20
   4.53599977         1.79019850E-20
   4.54400015         1.50037574E-20
   4.55200005         1.09443718E-20
   4.55999994         6.17655885E-21
   4.56799984         1.15515086E-21
   4.57600021        -3.65047123E-21
   4.58400011        -7.74876464E-21
   4.59200001        -1.06711307E-20
   4.59999990        -1.20247254E-20
   4.60799980        -1.15451949E-20
   4.61600018        -9.20206524E-21
   4.62400007        -5.30385058E-21
   4.63199997        -4.32044199E-22
   4.63999987         4.81397145E-21
   4.64799976         1.00040483E-20
   4.65600014         1.47779807E-20
   4.66400003         1.86147093E-20
   4.67199993         2.08272866E-20
   4.67999983         2.08691497E-20
   4.68800020         1.86410854E-20
   4.69600010         1.44862670E-20
   4.70400000         8.92910937E-21
   4.71199989         2.46794910E-21
   4.71999979        -4.41272180E-21
   4.72800016        -1.11373359E-20
   4.73600006        -1.70322773E-20
   4.74399996        -2.14383614E-20
   4.75199986        -2.38444505E-20
   4.76000023        -2.39874849E-20
   4.76800013        -2.19099869E-20
   4.77600002        -1.79363695E-20
   4.78399992        -1.25523422E-20
   4.79199982        -6.28527978E-21
   4.80000019         3.01622646E-22
   4.80800009         6.54930953E-21
   4.81599998         1.17364045E-20
   4.82399988         1.52510682E-20
   4.83199978         1.67674825E-20
   4.84000015         1.62910604E-20
   4.84800005         1.40683631E-20
   4.85599995         1.04484479E-20
   4.86399984         5.78969197E-21
   4.87200022         4.70015040E-22
   4.88000011        -5.03252726E-21
   4.88800001        -1.01185676E-20
   4.89599991        -1.41920606E-20
   4.90399981        -1.68439515E-20
   4.91200018        -1.79350787E-20
   4.92000008        -1.75432794E-20
   4.92799997        -1.58663937E-20
   4.93599987        -1.31460454E-20
   4.94399977        -9.61662813E-21
   4.95200014        -5.50253549E-21
   4.96000004        -1.07836786E-21
   4.96799994         3.28662122E-21
   4.97599983         7.19139192E-21
   4.98400021         1.03255688E-20
   4.99200010         1.25284913E-20
   5.00000000         1.37763280E-20
   5.00799990         1.41782424E-20
   5.01599979         1.39647119E-20
   5.02400017         1.33828097E-20
   5.03200006         1.25643331E-20
   5.03999996         1.15497145E-20
   5.04799986         1.04579104E-20
   5.05600023         9.54536458E-21
   5.06400013         9.02527638E-21
   5.07200003         8.87544845E-21
   5.07999992         8.90171628E-21
   5.08799982         8.96764031E-21
   5.09600019         9.07988646E-21
   5.10400009         9.24000568E-21
   5.11199999         9.27985172E-21
   5.11999989         8.87380136E-21
   5.12799978         7.68397555E-21
   5.13600016         5.50148455E-21
   5.14400005         2.32447284E-21
   5.15199995        -1.64230228E-21
   5.15999985        -6.08639495E-21
   5.16800022        -1.07321498E-20
   5.17600012        -1.53922899E-20
   5.18400002        -1.98738285E-20
   5.19199991        -2.38693806E-20
   5.19999981        -2.69783002E-20
   5.20800018        -2.88218386E-20
   5.21600008        -2.91258275E-20
   5.22399998        -2.77606563E-20
   5.23199987        -2.48084213E-20
   5.23999977        -2.06066943E-20
   5.24800014        -1.56338784E-20
   5.25600004        -1.02809656E-20
   5.26399994        -4.76453731E-21
   5.27199984         6.97350869E-22
   5.28000021         5.67612629E-21
   5.28800011         9.59181836E-21
   5.29600000         1.20127361E-20
   5.30399990         1.28805867E-20
   5.31199980         1.24560177E-20
   5.32000017         1.10911923E-20
   5.32800007         9.06669519E-21
   5.33599997         6.60942755E-21
   5.34399986         4.02629355E-21
   5.35200024         1.78842709E-21
   5.36000013         4.38421527E-22
   5.36800003         3.68993816E-22
   5.37599993         1.68250041E-21
   5.38399982         4.26462699E-21
   5.39200020         7.94597936E-21
   5.40000010         1.25308557E-20
   5.40799999         1.76835818E-20
   5.41599989         2.28675130E-20
   5.42399979         2.74401723E-20
   5.43200016         3.07947096E-20
   5.44000006         3.24266109E-20
   5.44799995         3.19557610E-20
   5.45599985         2.91745407E-20
   5.46400023         2.40985775E-20
   5.47200012         1.69638911E-20
   5.48000002         8.18955739E-21
   5.48799992        -1.64720811E-21
   5.49599981        -1.18339827E-20
   5.50400019        -2.15801696E-20
   5.51200008        -3.01057909E-20
   5.51999998        -3.67464906E-20
   5.52799988        -4.10705611E-20
   5.53599977        -4.29582906E-20
   5.54400015        -4.25527492E-20
   5.55200005        -4.00948143E-20
   5.55999994        -3.58194344E-20
   5.56799984        -3.00405858E-20
   5.57600021        -2.32893606E-20
   5.58400011        -1.62570976E-20
   5.59200001        -9.54006626E-21
   5.59999990        -3.45364869E-21
   5.60799980         1.90819803E-21
   5.61600018         6.49918837E-21
   5.62400007         1.02455083E-20
   5.63199997         1.30824583E-20
   5.63999987         1.49905984E-20
   5.64799976         1.60082164E-20
   5.65600014         1.62547598E-20
   5.66400003         1.59183784E-20
   5.67199993         1.51576356E-20
   5.67999983         1.40213221E-20
   5.68800020         1.25264330E-20
   5.69600010         1.08182485E-20
   5.70400000         9.19364641E-21
   5.71199989         7.94896900E-21
   5.71999979         7.24963949E-21
   5.72800016         7.14884140E-21
   5.73600006         7.64902798E-21
   5.74399996         8.68183649E-21
   5.75199986         1.00609719E-20
   5.76000023         1.15071583E-20
   5.76800013         1.27015538E-20
   5.77600002         1.32758409E-20
   5.78399992         1.27879247E-20
   5.79199982         1.08102134E-20
   5.80000019         7.12021885E-21
   5.80800009         1.83251606E-21
   5.81599998        -4.62918624E-21
   5.82399988        -1.16522671E-20
   5.83199978        -1.85393066E-20
   5.84000015        -2.45834669E-20
   5.84800005        -2.91491856E-20
   5.85599995        -3.17383643E-20
   5.86399984        -3.20103226E-20
   5.87200022        -2.98051399E-20
   5.88000011        -2.52341818E-20
   5.88800001        -1.87657845E-20
   5.89599991        -1.11554070E-20
   5.90399981        -3.22600823E-21
   5.91200018         4.29883785E-21
   5.92000008         1.07875887E-20
   5.92799997         1.56576130E-20
   5.93599987         1.84750790E-20
   5.94399977         1.91341287E-20
   5.95200014         1.79095686E-20
   5.96000004         1.53354956E-20
   5.96799994         1.20444848E-20
   5.97599983         8.65556058E-21
   5.98400021         5.68580325E-21
   5.99200010         3.48794074E-21
   6.00000000         2.26195265E-21
   6.00799990         2.10027236E-21
   6.01599979         2.96139282E-21
   6.02400017         4.59042063E-21
   6.03200006         6.53302765E-21
   6.03999996         8.29030702E-21
   6.04799986         9.48461527E-21
   6.05600023         9.92011132E-21
   6.06400013         9.55920127E-21
   6.07200003         8.46713788E-21
   6.07999992         6.73097180E-21
   6.08799982         4.40028097E-21
   6.09600019         1.54339513E-21
   6.10400009        -1.61158815E-21
   6.11199999        -4.63890723E-21
   6.11999989        -7.08149080E-21
   6.12799978        -8.67379894E-21
   6.13600016        -9.41138151E-21
   6.14400005        -9.44765791E-21
   6.15199995        -8.95383674E-21
   6.15999985        -8.04029330E-21
   6.16800022        -6.75396121E-21
   6.17600012        -5.14179750E-21
   6.18400002        -3.32937188E-21
   6.19199991        -1.51451812E-21
   6.19999981         1.43341239E-22
   6.20800018         1.60104463E-21
   6.21600008         2.85949027E-21
   6.22399998         3.84062180E-21
   6.23199987         4.39925992E-21