 -0.239999995       0.00000000    
 -0.231999993       0.00000000    
 -0.224000007       0.00000000    
 -0.216000006       0.00000000    
 -0.208000004      -4.04322927E-33
 -0.200000003      -3.37674436E-34
 -0.192000002       2.98380744E-27
 -0.184000000       3.19120121E-26
 -0.175999999       5.04826236E-26
 -0.167999998      -1.89169683E-25
 -0.159999996      -6.74357055E-25
 -0.151999995      -1.95953862E-25
 -0.143999994       2.25018866E-24
 -0.136000007       3.50513659E-24
 -0.128000006      -2.07196092E-24
 -0.119999997      -1.12004467E-23
 -0.112000003      -8.03227324E-24
 -0.104000002       1.39502857E-23
  -9.60000008E-02   2.95871149E-23
  -8.79999995E-02   6.15529784E-24
  -7.99999982E-02  -4.16057201E-23
  -7.19999969E-02  -5.02921357E-23
  -6.40000030E-02   1.06613400E-23
  -5.60000017E-02   7.78498996E-23
  -4.80000004E-02   5.89783399E-23
  -3.99999991E-02  -4.07942346E-23
  -3.20000015E-02  -1.06575651E-22
  -2.40000002E-02  -5.33182945E-23
  -1.60000008E-02   6.17992245E-23
  -8.00000038E-03   1.10523010E-22
   1.38777878E-17   5.09023669E-23
   8.00000038E-03  -4.32083762E-23
   1.60000008E-02  -9.35832823E-23
   2.40000002E-02  -8.43163881E-23
   3.20000015E-02  -2.01052719E-23
   3.99999991E-02   8.48970024E-23
   4.80000004E-02   1.51398639E-22
   5.60000017E-02   7.80773440E-23
   6.40000030E-02  -9.88744753E-23
   7.19999969E-02  -1.90525534E-22
   7.99999982E-02  -8.22930167E-23
   8.79999995E-02   1.05995037E-22
   9.60000008E-02   1.69811650E-22
  0.104000002       6.01541339E-23
  0.112000003      -9.42469226E-23
  0.119999997      -1.39221820E-22
  0.128000006      -2.77103770E-23
  0.136000007       1.27266968E-22
  0.143999994       1.30988801E-22
  0.151999995      -5.74217217E-23
  0.159999996      -2.06854274E-22
  0.167999998      -9.43373324E-23
  0.175999999       1.53275472E-22
  0.184000000       2.22587997E-22
  0.192000002       6.45279385E-23
  0.200000003      -9.31755801E-23
  0.208000004      -1.37348396E-22
  0.216000006      -1.50965334E-22
  0.224000007      -1.29040845E-22
  0.231999993       3.33801317E-23
  0.239999995       2.51878592E-22
  0.247999996       2.84010626E-22
  0.256000012       8.01968302E-23
  0.263999999      -1.66813234E-22
  0.272000015      -2.91636752E-22
  0.280000001      -2.37490223E-22
  0.287999988       6.42103983E-24
  0.296000004       2.89484412E-22
  0.303999990       3.03813130E-22
  0.312000006      -8.93970507E-25
  0.319999993      -2.46823192E-22
  0.328000009      -1.64646214E-22
  0.335999995       1.60917448E-23
  0.344000012       2.46123750E-23
  0.351999998       5.52907441E-24
  0.360000014       1.33548673E-22
  0.368000001       1.91927548E-22
  0.375999987      -1.10041024E-23
  0.384000003      -2.12742230E-22
  0.391999990      -1.33057674E-22
  0.400000006       4.05134727E-23
  0.407999992       3.00580491E-23
  0.416000009      -5.44185283E-23
  0.423999995      -1.65581699E-23
  0.432000011       4.63734092E-23
  0.439999998       2.70812572E-23
  0.448000014       6.88381862E-23
  0.456000000       2.21704624E-22
  0.463999987       2.12618840E-22
  0.472000003      -1.03071556E-22
  0.479999989      -4.19662213E-22
  0.488000005      -4.00541386E-22
  0.495999992      -1.00699527E-22
  0.504000008       1.99089547E-22
  0.512000024       3.34895612E-22
  0.519999981       2.75989816E-22
  0.527999997       7.21309925E-23
  0.536000013      -1.26329094E-22
  0.544000030      -1.83482433E-22
  0.551999986      -1.04754234E-22
  0.560000002       7.10234003E-23
  0.568000019       3.05167597E-22
  0.575999975       3.58314482E-22
  0.583999991      -5.26526915E-23
  0.592000008      -6.87335138E-22
  0.600000024      -7.99605418E-22
  0.607999980      -1.20194937E-22
  0.615999997       6.38877369E-22
  0.624000013       6.45418376E-22
  0.632000029       5.31015210E-24
  0.639999986      -4.79103930E-22
  0.648000002      -3.59004868E-22
  0.656000018       7.95725131E-23
  0.663999975       3.40745224E-22
  0.671999991       2.48983939E-22
  0.680000007      -9.01393744E-23
  0.688000023      -4.63760143E-22
  0.695999980      -6.75840134E-22
  0.703999996      -6.34986732E-22
  0.712000012      -3.22524380E-22
  0.720000029       1.50755838E-22
  0.727999985       5.19482501E-22
  0.736000001       5.79159058E-22
  0.744000018       4.33519735E-22
  0.751999974       3.64204887E-22
  0.759999990       4.19473467E-22
  0.768000007       3.27413727E-22
  0.776000023      -2.63036281E-23
  0.783999979      -3.52158842E-22
  0.791999996      -3.45970184E-22
  0.800000012      -1.20047590E-22
  0.808000028       1.08272806E-24
  0.815999985      -6.02556067E-23
  0.824000001      -1.01633961E-22
  0.832000017       4.81796640E-23
  0.839999974       3.61843202E-22
  0.847999990       6.99213237E-22
  0.856000006       9.02184548E-22
  0.864000022       7.87512142E-22
  0.871999979       2.49177709E-22
  0.879999995      -5.33094428E-22
  0.888000011      -1.09164930E-21
  0.896000028      -1.02880003E-21
  0.903999984      -3.86262498E-22
  0.912000000       3.92259457E-22
  0.920000017       8.26581381E-22
  0.927999973       7.10519772E-22
  0.935999990       1.94519594E-22
  0.944000006      -2.85187530E-22
  0.952000022      -2.94659617E-22
  0.959999979       1.34042475E-22
  0.967999995       4.40576619E-22
  0.976000011       1.32077214E-22
  0.984000027      -6.64601908E-22
  0.991999984      -1.39936806E-21
   1.00000000      -1.61968507E-21
   1.00800002      -1.12013462E-21
   1.01600003       4.33383016E-23
   1.02400005       1.35767369E-21
   1.03199995       2.03733656E-21
   1.03999996       1.81513436E-21
   1.04799998       1.25753546E-21
   1.05599999       9.59887262E-22
   1.06400001       7.97757439E-22
   1.07200003       3.23233774E-22
   1.08000004      -5.07170364E-22
   1.08800006      -1.41427377E-21
   1.09599996      -2.22392940E-21
   1.10399997      -2.79866604E-21
   1.11199999      -2.83340177E-21
   1.12000000      -2.08330789E-21
   1.12800002      -6.59406735E-22
   1.13600004       1.02836301E-21
   1.14400005       2.45816873E-21
   1.15199995       3.19346505E-21
   1.15999997       3.17290630E-21
   1.16799998       2.71158145E-21
   1.17600000       2.01113093E-21
   1.18400002       9.50332074E-22
   1.19200003      -4.17651186E-22
   1.20000005      -1.62742272E-21
   1.20799994      -2.39798044E-21
   1.21599996      -2.92087612E-21
   1.22399998      -3.20115121E-21
   1.23199999      -2.75902317E-21
   1.24000001      -1.43650970E-21
   1.24800003       1.34916811E-22
   1.25600004       1.30125719E-21
   1.26400006       1.99996419E-21
   1.27199996       2.29738793E-21
   1.27999997       2.04435083E-21
   1.28799999       1.32525704E-21
   1.29600000       5.59014605E-22
   1.30400002      -9.25345138E-23
   1.31200004      -7.54165717E-22
   1.32000005      -1.21648148E-21
   1.32799995      -1.05680563E-21
   1.33599997      -4.16172343E-22
   1.34399998       1.08644499E-22
   1.35200000       3.14825779E-22
   1.36000001       4.26920314E-22
   1.36800003       4.78828825E-22
   1.37600005       3.86247983E-22
   1.38399994       3.33905030E-22
   1.39199996       3.56905235E-22
   1.39999998      -6.88928637E-23
   1.40799999      -1.23679950E-21
   1.41600001      -2.42803460E-21
   1.42400002      -2.65534488E-21
   1.43200004      -1.76198821E-21
   1.44000006      -2.16932786E-22
   1.44799995       1.57043359E-21
   1.45599997       3.08195601E-21
   1.46399999       3.55158922E-21
   1.47200000       2.77654684E-21
   1.48000002       1.56872178E-21
   1.48800004       7.66343357E-22
   1.49600005       2.29097980E-22
   1.50399995      -6.86150054E-22
   1.51199996      -2.09006549E-21
   1.51999998      -3.44629050E-21
   1.52800000      -4.11908682E-21
   1.53600001      -3.72105098E-21
   1.54400003      -2.26002101E-21
   1.55200005      -2.20188800E-22
   1.55999994       1.68146230E-21
   1.56799996       2.96436591E-21
   1.57599998       3.53816531E-21
   1.58399999       3.49235130E-21
   1.59200001       2.91317159E-21
   1.60000002       1.86343355E-21
   1.60800004       4.62904387E-22
   1.61600006      -9.84034534E-22
   1.62399995      -2.05865423E-21
   1.63199997      -2.59023188E-21
   1.63999999      -2.75753481E-21
   1.64800000      -2.64263567E-21
   1.65600002      -2.00527907E-21
   1.66400003      -7.80171217E-22
   1.67200005       5.97946671E-22
   1.67999995       1.68847394E-21
   1.68799996       2.41712939E-21
   1.69599998       2.65343970E-21
   1.70400000       2.02901245E-21
   1.71200001       6.05622123E-22
   1.72000003      -8.63594634E-22
   1.72800004      -1.77272520E-21
   1.73599994      -2.19931230E-21
   1.74399996      -2.26677235E-21
   1.75199997      -1.69312825E-21
   1.75999999      -4.28477134E-22
   1.76800001       9.26494288E-22
   1.77600002       1.81982865E-21
   1.78400004       2.32920005E-21
   1.79200006       2.65489979E-21
   1.79999995       2.56049397E-21
   1.80799997       1.71735297E-21
   1.81599998       2.28892270E-22
   1.82400000      -1.47340739E-21
   1.83200002      -2.96292117E-21
   1.84000003      -3.88694714E-21
   1.84800005      -3.98105590E-21
   1.85599995      -3.18879742E-21
   1.86399996      -1.68024041E-21
   1.87199998       2.50404596E-22
   1.88000000       2.25186149E-21
   1.88800001       3.95266640E-21
   1.89600003       4.98680251E-21
   1.90400004       4.99386465E-21
   1.91199994       3.79088110E-21
   1.91999996       1.70223350E-21
   1.92799997      -5.18435550E-22
   1.93599999      -2.33519953E-21
   1.94400001      -3.76820391E-21
   1.95200002      -4.90261952E-21
   1.96000004      -5.41545009E-21
   1.96800005      -4.85801841E-21
   1.97599995      -3.11475203E-21
   1.98399997      -4.51150435E-22
   1.99199998       2.50195983E-21
   2.00000000       4.77548452E-21
   2.00799990       5.62942088E-21
   2.01600003       5.20194864E-21
   2.02399993       4.12072058E-21
   2.03200006       2.58214001E-21
   2.03999996       4.62447075E-22
   2.04800010      -1.85099514E-21
   2.05599999      -3.60606763E-21
   2.06399989      -4.59048001E-21
   2.07200003      -5.04743227E-21
   2.07999992      -4.78077073E-21
   2.08800006      -3.26939684E-21
   2.09599996      -6.93001052E-22
   2.10400009       1.98184336E-21
   2.11199999       3.99044166E-21
   2.11999989       5.14944529E-21
   2.12800002       5.30694524E-21
   2.13599992       4.19160447E-21
   2.14400005       1.96282507E-21
   2.15199995      -6.33386493E-22
   2.16000009      -2.83854681E-21
   2.16799998      -4.32781341E-21
   2.17600012      -5.04963674E-21
   2.18400002      -4.89238477E-21
   2.19199991      -3.67671039E-21
   2.20000005      -1.47953238E-21
   2.20799994       1.14248001E-21
   2.21600008       3.44748644E-21
   2.22399998       5.01636372E-21
   2.23200011       5.73719871E-21
   2.24000001       5.39584212E-21
   2.24799991       3.78037979E-21
   2.25600004       1.20899010E-21
   2.26399994      -1.58492753E-21
   2.27200007      -4.10453765E-21
   2.27999997      -6.07326871E-21
   2.28800011      -6.91117722E-21
   2.29600000      -6.06801037E-21
   2.30399990      -3.87713205E-21
   2.31200004      -1.26410192E-21
   2.31999993       1.34427220E-21
   2.32800007       3.98585743E-21
   2.33599997       6.20661038E-21
   2.34400010       7.16261751E-21
   2.35200000       6.65091704E-21
   2.35999990       5.11218217E-21
   2.36800003       2.71954650E-21
   2.37599993      -5.40435707E-22
   2.38400006      -3.96279088E-21
   2.39199996      -6.31776480E-21
   2.40000010      -7.05282382E-21
   2.40799999      -6.54893754E-21
   2.41599989      -5.22777461E-21
   2.42400002      -3.14580422E-21
   2.43199992      -4.88804218E-22
   2.44000006       2.18637387E-21
   2.44799995       4.32922947E-21
   2.45600009       5.65697996E-21
   2.46399999       6.03002105E-21
   2.47199988       5.34697141E-21
   2.48000002       3.63033940E-21
   2.48799992       1.17394721E-21
   2.49600005      -1.40966440E-21
   2.50399995      -3.43703117E-21
   2.51200008      -4.55776316E-21
   2.51999998      -4.76308530E-21
   2.52800012      -4.03316263E-21
   2.53600001      -2.39893869E-21
   2.54399991      -3.81806381E-22
   2.55200005       1.21301624E-21
   2.55999994       2.10213311E-21
   2.56800008       2.58077080E-21
   2.57599998       2.73860740E-21
   2.58400011       2.31016157E-21
   2.59200001       1.35238739E-21
   2.59999990       2.92137382E-22
   2.60800004      -7.67947281E-22
   2.61599994      -1.98530658E-21
   2.62400007      -2.97544581E-21
   2.63199997      -2.93287812E-21
   2.64000010      -1.68744148E-21
   2.64800000       6.77619274E-23
   2.65599990       1.62696309E-21
   2.66400003       2.70249620E-21
   2.67199993       3.11927729E-21
   2.68000007       2.79245916E-21
   2.68799996       1.96999929E-21
   2.69600010       9.54389015E-22
   2.70400000      -2.74152565E-22
   2.71199989      -1.72430181E-21
   2.72000003      -2.98897150E-21
   2.72799993      -3.62814180E-21
   2.73600006      -3.65029109E-21
   2.74399996      -3.23306349E-21
   2.75200009      -2.30739003E-21
   2.75999999      -7.71600326E-22
   2.76799989       1.15980678E-21
   2.77600002       3.06209055E-21
   2.78399992       4.52130743E-21
   2.79200006       5.18499224E-21
   2.79999995       4.88276516E-21
   2.80800009       3.71928474E-21
   2.81599998       1.88583164E-21
   2.82399988      -4.25107524E-22
   2.83200002      -2.74381019E-21
   2.83999991      -4.37322110E-21
   2.84800005      -5.02314232E-21
   2.85599995      -4.99212910E-21
   2.86400008      -4.46582252E-21
   2.87199998      -3.17524163E-21
   2.88000011      -1.06634900E-21
   2.88800001       1.26101594E-21
   2.89599991       3.15019781E-21
   2.90400004       4.40817312E-21
   2.91199994       4.95625338E-21
   2.92000008       4.56972739E-21
   2.92799997       3.31949761E-21
   2.93600011       1.75501776E-21
   2.94400001       2.85441278E-22
   2.95199990      -1.20207821E-21
   2.96000004      -2.82292772E-21
   2.96799994      -4.17536378E-21
   2.97600007      -4.63322844E-21
   2.98399997      -3.94764516E-21
   2.99200010      -2.39707006E-21
   3.00000000      -5.09305261E-22
   3.00799990       1.24618384E-21
   3.01600003       2.58867768E-21
   3.02399993       3.37609566E-21
   3.03200006       3.51604105E-21
   3.03999996       3.00116595E-21
   3.04800010       1.96027184E-21
   3.05599999       5.72765675E-22
   3.06399989      -9.81803005E-22
   3.07200003      -2.40667896E-21
   3.07999992      -3.28316548E-21
   3.08800006      -3.32485045E-21
   3.09599996      -2.54523495E-21
   3.10400009      -1.17670208E-21
   3.11199999       3.82935929E-22
   3.11999989       1.63128165E-21
   3.12800002       2.31644701E-21
   3.13599992       2.67546440E-21
   3.14400005       2.95508739E-21
   3.15199995       2.84123616E-21
   3.16000009       1.84956212E-21
   3.16799998       1.43538555E-22
   3.17600012      -1.58851494E-21
   3.18400002      -2.93711338E-21
   3.19199991      -3.85826280E-21
   3.20000005      -4.11757503E-21
   3.20799994      -3.35617507E-21
   3.21600008      -1.72457525E-21
   3.22399998       1.35809031E-22
   3.23200011       1.77312263E-21
   3.24000001       3.11895175E-21
   3.24799991       4.04709585E-21
   3.25600004       4.23693340E-21
   3.26399994       3.54411673E-21
   3.27200007       2.17282979E-21
   3.27999997       4.38328025E-22
   3.28800011      -1.40163039E-21
   3.29600000      -3.05300873E-21
   3.30399990      -4.11754272E-21
   3.31200004      -4.25547872E-21
   3.31999993      -3.45241035E-21
   3.32800007      -2.08442487E-21
   3.33599997      -6.14892918E-22
   3.34400010       7.65777952E-22
   3.35200000       2.07244650E-21
   3.35999990       3.18433496E-21
   3.36800003       3.82443119E-21
   3.37599993       3.81160020E-21
   3.38400006       3.06452625E-21
   3.39199996       1.50894203E-21
   3.40000010      -6.37644423E-22
   3.40799999      -2.66163477E-21
   3.41599989      -3.88939637E-21
   3.42400002      -4.27627375E-21
   3.43199992      -4.06092164E-21
   3.44000006      -3.15328055E-21
   3.44799995      -1.42882718E-21
   3.45600009       6.76328900E-22
   3.46399999       2.50118879E-21
   3.47199988       3.85736655E-21
   3.48000002       4.80159726E-21
   3.48799992       4.99487076E-21
   3.49600005       3.95399926E-21
   3.50399995       1.81902611E-21
   3.51200008      -6.55235592E-22
   3.51999998      -2.78577366E-21
   3.52800012      -4.28625364E-21
   3.53600001      -5.07756054E-21
   3.54399991      -5.11803343E-21
   3.55200005      -4.36408132E-21
   3.55999994      -2.78569772E-21
   3.56800008      -5.30096706E-22
   3.57599998       1.95274926E-21
   3.58400011       4.12740911E-21
   3.59200001       5.63055098E-21
   3.59999990       6.17434791E-21
   3.60800004       5.48045647E-21
   3.61599994       3.60988970E-21
   3.62400007       1.12837937E-21
   3.63199997      -1.32034424E-21
   3.64000010      -3.40011702E-21
   3.64800000      -4.93249334E-21
   3.65599990      -5.72141039E-21
   3.66400003      -5.66468995E-21
   3.67199993      -4.72043380E-21
   3.68000007      -2.78184132E-21
   3.68799996      -1.71085723E-23
   3.69600010       2.75157592E-21
   3.70400000       4.56015948E-21
   3.71199989       5.15736570E-21
   3.72000003       4.90735077E-21
   3.72799993       4.05780397E-21
   3.73600006       2.66306174E-21
   3.74399996       9.91165534E-22
   3.75200009      -6.19963690E-22
   3.75999999      -2.15139903E-21
   3.76799989      -3.61855167E-21
   3.77600002      -4.60134685E-21
   3.78399992      -4.55087550E-21
   3.79200006      -3.40314746E-21
   3.79999995      -1.56070736E-21
   3.80800009       4.89085734E-22
   3.81599998       2.29408264E-21
   3.82399988       3.48335207E-21
   3.83200002       3.92245694E-21
   3.83999991       3.63711073E-21
   3.84800005       2.61519573E-21
   3.85599995       9.87827125E-22
   3.86400008      -7.48929751E-22
   3.87199998      -2.10772688E-21
   3.88000011      -3.03809323E-21
   3.88800001      -3.59913959E-21
   3.89599991      -3.50614962E-21
   3.90400004      -2.48959211E-21
   3.91199994      -8.45536661E-22
   3.92000008       8.26023095E-22
   3.92799997       2.20527543E-21
   3.93600011       3.24521675E-21
   3.94400001       3.86365724E-21
   3.95199990       3.92729401E-21
   3.96000004       3.32063619E-21
   3.96799994       1.94562493E-21
   3.97600007      -5.45150217E-23
   3.98399997      -2.13021081E-21
   3.99200010      -3.75696185E-21
   4.00000000      -4.88294207E-21
   4.00799990      -5.57494045E-21
   4.01599979      -5.56923985E-21
   4.02400017      -4.72380068E-21
   4.03200006      -3.57857074E-21
   4.03999996      -2.88289387E-21
   4.04799986      -2.89229174E-21
   4.05600023      -3.64278952E-21
   4.06400013      -5.49983302E-21
   4.07200003      -8.88685530E-21
   4.07999992      -1.38325973E-20
   4.08799982      -2.01783101E-20
   4.09600019      -2.77493569E-20
   4.10400009      -3.59423838E-20
   4.11199999      -4.36568673E-20
   4.11999989      -5.00140960E-20
   4.12799978      -5.47416368E-20
   4.13600016      -5.77079646E-20
   4.14400005      -5.86328883E-20
   4.15199995      -5.74129132E-20
   4.15999985      -5.42042634E-20
   4.16800022      -4.90969563E-20
   4.17600012      -4.22014979E-20
   4.18400002      -3.40408054E-20
   4.19199991      -2.53172440E-20
   4.19999981      -1.62832281E-20
   4.20800018      -6.76981092E-21
   4.21600008       3.24351533E-21
   4.22399998       1.34895459E-20
   4.23199987       2.37248696E-20
   4.23999977       3.38032172E-20
   4.24800014       4.34896055E-20
   4.25600004       5.23904438E-20
   4.26399994       5.99631239E-20
   4.27199984       6.55558795E-20
   4.28000021       6.86739562E-20
   4.28800011       6.92488144E-20
   4.29600000       6.74626729E-20
   4.30399990       6.34272012E-20
   4.31199980       5.73284955E-20
   4.32000017       4.97642681E-20
   4.32800007       4.16232793E-20
   4.33599997       3.37141725E-20
   4.34399986       2.66784666E-20
   4.35200024       2.10213946E-20
   4.36000013       1.69701273E-20
   4.36800003       1.44464396E-20
   4.37599993       1.32586422E-20
   4.38399982       1.30868471E-20
   4.39200020       1.32928385E-20
   4.40000010       1.31181967E-20
   4.40799999       1.21583651E-20
   4.41599989       1.04298274E-20
   4.42399979       8.08941361E-21
   4.43200016       5.38851502E-21
   4.44000006       2.73066820E-21
   4.44799995       4.30459611E-22
   4.45599985      -1.44013185E-21
   4.46400023      -2.72895608E-21
   4.47200012      -3.01352035E-21
   4.48000002      -2.03406560E-21
   4.48799992      -1.02610855E-22
   4.49599981       2.10136389E-21
   4.50400019       3.91242213E-21
   4.51200008       4.81310468E-21
   4.51999998       4.54427179E-21
   4.52799988       3.17262438E-21
   4.53599977       8.26119071E-22
   4.54400015      -2.50880447E-21
   4.55200005      -6.64536750E-21
   4.55999994      -1.09256503E-20
   4.56799984      -1.46746736E-20
   4.57600021      -1.76549294E-20
   4.58400011      -1.97649040E-20
   4.59200001      -2.07435443E-20
   4.59999990      -2.06093197E-20
   4.60799980      -1.99736572E-20
   4.61600018      -1.95135849E-20
   4.62400007      -1.95033743E-20
   4.63199997      -2.00798029E-20
   4.63999987      -2.13941073E-20
   4.64799976      -2.31976696E-20
   4.65600014      -2.48074455E-20
   4.66400003      -2.57256967E-20
   4.67199993      -2.58132938E-20
   4.67999983      -2.47693548E-20
   4.68800020      -2.20381482E-20
   4.69600010      -1.73591816E-20
   4.70400000      -1.09072423E-20
   4.71199989      -2.88115913E-21
   4.71999979       6.53582221E-21
   4.72800016       1.68311254E-20
   4.73600006       2.72453454E-20
   4.74399996       3.71574216E-20
   4.75199986       4.60791979E-20
   4.76000023       5.34777016E-20
   4.76800013       5.89699321E-20
   4.77600002       6.25648719E-20
   4.78399992       6.45092957E-20
   4.79199982       6.50547696E-20
   4.80000019       6.44145124E-20
   4.80800009       6.26865903E-20
   4.81599998       5.98297411E-20
   4.82399988       5.59366155E-20
   4.83199978       5.13366835E-20
   4.84000015       4.61585587E-20
   4.84800005       4.01210967E-20
   4.85599995       3.30998325E-20
   4.86399984       2.55248534E-20
   4.87200022       1.79239166E-20
   4.88000011       1.05676322E-20
   4.88800001       3.84479971E-21
   4.89599991      -1.62546695E-21
   4.90399981      -5.54607799E-21
   4.91200018      -7.98165960E-21
   4.92000008      -8.70788460E-21
   4.92799997      -7.37273512E-21
   4.93599987      -4.51782746E-21
   4.94399977      -1.53304012E-21
   4.95200014       6.79707446E-22
   4.96000004       2.18759707E-21
   4.96799994       3.07459176E-21
   4.97599983       2.99321181E-21
   4.98400021       1.89878340E-21
   4.99200010       3.43481701E-22
   5.00000000      -1.22854012E-21
   5.00799990      -2.78542691E-21
   5.01599979      -4.18149736E-21
   5.02400017      -4.97591467E-21
   5.03200006      -4.88149531E-21
   5.03999996      -3.93232858E-21
   5.04799986      -2.25886667E-21
   5.05600023      -1.04491083E-22
   5.06400013       2.05127039E-21
   5.07200003       3.69387842E-21
   5.07999992       4.44643749E-21
   5.08799982       3.94611156E-21
   5.09600019       1.94009942E-21
   5.10400009      -1.32287930E-21
   5.11199999      -5.13597492E-21
   5.11999989      -8.85038423E-21
   5.12799978      -1.20600526E-20
   5.13600016      -1.44112990E-20
   5.14400005      -1.56722243E-20
   5.15199995      -1.58855319E-20
   5.15999985      -1.50817498E-20
   5.16800022      -1.30442643E-20
   5.17600012      -9.70074286E-21
   5.18400002      -5.47345007E-21
   5.19199991      -9.69582703E-22
   5.19999981       3.28927280E-21
   5.20800018       6.64303863E-21
   5.21600008       8.40931844E-21
   5.22399998       8.58123630E-21
   5.23199987       7.89815798E-21
   5.23999977       6.93176465E-21
   5.24800014       5.56557570E-21
   5.25600004       3.52524142E-21
   5.26399994       8.65791832E-22
   5.27199984      -2.18961817E-21
   5.28000021      -5.31064211E-21
   5.28800011      -7.83616790E-21
   5.29600000      -9.06014318E-21
   5.30399990      -8.92133678E-21
   5.31199980      -8.02917321E-21
   5.32000017      -6.95700577E-21
   5.32800007      -5.81242085E-21
   5.33599997      -4.42385400E-21
   5.34399986      -2.62826966E-21
   5.35200024      -4.34930092E-22
   5.36000013       1.86417894E-21
   5.36800003       3.79816094E-21
   5.37599993       4.99348297E-21
   5.38399982       5.23129174E-21
   5.39200020       4.33239764E-21
   5.40000010       2.27227625E-21
   5.40799999      -6.72793289E-22
   5.41599989      -4.18043793E-21
   5.42399979      -8.13868659E-21
   5.43200016      -1.23656353E-20
   5.44000006      -1.63172119E-20
   5.44799995      -1.94356150E-20
   5.45599985      -2.16046732E-20
   5.46400023      -2.29807980E-20
   5.47200012      -2.35894091E-20
   5.48000002      -2.32825315E-20
   5.48799992      -2.18168337E-20
   5.49599981      -1.88521667E-20
   5.50400019      -1.42305374E-20
   5.51200008      -8.37682575E-21
   5.51999998      -2.09894819E-21
   5.52799988       4.03931801E-21
   5.53599977       9.85326398E-21
   5.54400015       1.52156578E-20
   5.55200005       2.00283497E-20
   5.55999994       2.43179161E-20
   5.56799984       2.78359556E-20
   5.57600021       2.97033934E-20
   5.58400011       2.89373498E-20
   5.59200001       2.52491502E-20
   5.59999990       1.90128546E-20
   5.60799980       1.06813978E-20
   5.61600018       5.51473852E-22
   5.62400007      -1.11642305E-20
   5.63199997      -2.43705794E-20
   5.63999987      -3.90070589E-20
   5.64799976      -5.46931110E-20
   5.65600014      -7.05500406E-20
   5.66400003      -8.53648777E-20
   5.67199993      -9.77738405E-20
   5.67999983      -1.06522174E-19
   5.68800020      -1.10951610E-19
   5.69600010      -1.11120548E-19
   5.70400000      -1.07165410E-19
   5.71199989      -9.88316882E-20
   5.71999979      -8.59948274E-20
   5.72800016      -6.93191312E-20
   5.73600006      -5.00356512E-20
   5.74399996      -2.94349054E-20
   5.75199986      -8.93653541E-21
   5.76000023       9.78222500E-21
   5.76800013       2.52273075E-20
   5.77600002       3.64945656E-20
   5.78399992       4.31117843E-20
   5.79199982       4.48912954E-20
   5.80000019       4.21509139E-20
   5.80800009       3.57474050E-20
   5.81599998       2.67865720E-20
   5.82399988       1.65967392E-20
   5.83199978       6.88765346E-21
   5.84000015      -5.71816114E-22
   5.84800005      -4.51721353E-21
   5.85599995      -4.19631916E-21
   5.86399984       9.40716200E-22
   5.87200022       1.11010700E-20
   5.88000011       2.58209388E-20
   5.88800001       4.41665172E-20
   5.89599991       6.51992031E-20
   5.90399981       8.80868059E-20
   5.91200018       1.12062345E-19
   5.92000008       1.36563564E-19
   5.92799997       1.61187413E-19
   5.93599987       1.85244785E-19
   5.94399977       2.07478637E-19
   5.95200014       2.26318425E-19
   5.96000004       2.40315122E-19
   5.96799994       2.48413867E-19
   5.97599983       2.50003941E-19
   5.98400021       2.44597074E-19
   5.99200010       2.31302447E-19
   6.00000000       2.08885077E-19
   6.00799990       1.76660912E-19
   6.01599979       1.35261142E-19
   6.02400017       8.65058053E-20
   6.03200006       3.29000361E-20
   6.03999996      -2.26404972E-20
   6.04799986      -7.70872231E-20
   6.05600023      -1.27776101E-19
   6.06400013      -1.72624477E-19
   6.07200003      -2.10039562E-19
   6.07999992      -2.38963070E-19
   6.08799982      -2.58935759E-19
   6.09600019      -2.69820500E-19
   6.10400009      -2.71670903E-19
   6.11199999      -2.65246708E-19
   6.11999989      -2.52356313E-19
   6.12799978      -2.35112906E-19
   6.13600016      -2.14851543E-19
   6.14400005      -1.91941484E-19
   6.15199995      -1.66292216E-19
   6.15999985      -1.37716215E-19
   6.16800022      -1.06180917E-19
   6.17600012      -7.21465638E-20
   6.18400002      -3.65618096E-20
   6.19199991      -5.26536609E-22
   6.19999981       3.46298259E-20
   6.20800018       6.69246372E-20
   6.21600008       9.39366725E-20
   6.22399998       1.13621684E-19
   6.23199987       1.24621855E-19
   6.23999977       1.25979646E-19
   6.24800014       1.17217050E-19
   6.25600004       9.87881514E-20
   6.26399994       7.20748446E-20
   6.27199984       3.90864488E-20
   6.28000021       2.57777711E-21
   6.28800011      -3.38295092E-20
   6.29600000      -6.63042130E-20
   6.30399990      -9.17141739E-20
   6.31199980      -1.07881367E-19
   6.32000017      -1.13475816E-19
   6.32800007      -1.08096034E-19
   6.33599997      -9.21669195E-20
   6.34399986      -6.64923255E-20
   6.35200024      -3.22113533E-20
   6.36000013       8.71143727E-21
   6.36800003       5.34241933E-20
   6.37599993       9.87592776E-20
   6.38399982       1.41544135E-19
   6.39200020       1.78616005E-19
   6.40000010       2.07405729E-19
   6.40799999       2.26749334E-19
   6.41599989       2.36671418E-19
   6.42399979       2.37439429E-19
   6.43200016       2.29395020E-19
   6.44000006       2.13545154E-19
   6.44799995       1.91557090E-19
   6.45599985       1.65094057E-19
   6.46400023       1.35636786E-19
   6.47200012       1.04760466E-19
   6.48000002       7.38514412E-20
   6.48799992       4.34482821E-20
   6.49599981       1.32713399E-20
   6.50400019      -1.71653338E-20
   6.51200008      -4.83026464E-20
   6.51999998      -8.05730785E-20
   6.52799988      -1.14030376E-19
   6.53599977      -1.47879020E-19
   6.54400015      -1.80664272E-19
   6.55200005      -2.10764521E-19
   6.55999994      -2.36287270E-19
   6.56799984      -2.54588873E-19
   6.57600021      -2.62394925E-19
   6.58400011      -2.56625651E-19
   6.59200001      -2.35157031E-19
   6.59999990      -1.97196898E-19
   6.60799980      -1.43625838E-19