 -0.239999995       0.00000000    
 -0.231999993       0.00000000    
 -0.224000007       5.37783842E-21
 -0.216000006       4.00698309E-20
 -0.208000004       1.16352530E-19
 -0.200000003       1.95609836E-19
 -0.192000002       2.22543586E-19
 -0.184000000       1.83549840E-19
 -0.175999999       9.35185391E-20
 -0.167999998      -2.59287857E-20
 -0.159999996      -9.07088586E-20
 -0.151999995       5.39089890E-20
 -0.143999994       4.71243451E-19
 -0.136000007       1.00017727E-18
 -0.128000006       1.40085374E-18
 -0.119999997       1.60333328E-18
 -0.112000003       1.68867774E-18
 -0.104000002       1.66419051E-18
  -9.60000008E-02   1.43895926E-18
  -8.79999995E-02   1.05023907E-18
  -7.99999982E-02   7.39953745E-19
  -7.19999969E-02   7.19389466E-19
  -6.40000030E-02   9.80568022E-19
  -5.60000017E-02   1.42872724E-18
  -4.80000004E-02   2.08362474E-18
  -3.99999991E-02   3.02458053E-18
  -3.20000015E-02   4.22499372E-18
  -2.40000002E-02   5.60834535E-18
  -1.60000008E-02   7.25092380E-18
  -8.00000038E-03   9.38069964E-18
   1.38777878E-17   1.21786505E-17
   8.00000038E-03   1.57683869E-17
   1.60000008E-02   2.04760719E-17
   2.40000002E-02   2.69251028E-17
   3.20000015E-02   3.57405320E-17
   3.99999991E-02   4.73191482E-17
   4.80000004E-02   6.20827902E-17
   5.60000017E-02   8.08012191E-17
   6.40000030E-02   1.04334739E-16
   7.19999969E-02   1.33041228E-16
   7.99999982E-02   1.66662057E-16
   8.79999995E-02   2.04669762E-16
   9.60000008E-02   2.46161036E-16
  0.104000002       2.89038241E-16
  0.112000003       3.29448674E-16
  0.119999997       3.62147348E-16
  0.128000006       3.81060562E-16
  0.136000007       3.79204951E-16
  0.143999994       3.48485713E-16
  0.151999995       2.80398266E-16
  0.159999996       1.67411549E-16
  0.167999998       3.93639289E-18
  0.175999999      -2.13279283E-16
  0.184000000      -4.84425925E-16
  0.192000002      -8.05331609E-16
  0.200000003      -1.16656564E-15
  0.208000004      -1.55365642E-15
  0.216000006      -1.94787169E-15
  0.224000007      -2.32683783E-15
  0.231999993      -2.66531284E-15
  0.239999995      -2.93681824E-15
  0.247999996      -3.11595914E-15
  0.256000012      -3.18058521E-15
  0.263999999      -3.11344282E-15
  0.272000015      -2.90369035E-15
  0.280000001      -2.54841742E-15
  0.287999988      -2.05365340E-15
  0.296000004      -1.43436379E-15
  0.303999990      -7.13589418E-16
  0.312000006       7.88317550E-17
  0.319999993       9.07850231E-16
  0.328000009       1.73528019E-15
  0.335999995       2.52231906E-15
  0.344000012       3.23213013E-15
  0.351999998       3.83210326E-15
  0.360000014       4.29568482E-15
  0.368000001       4.60378331E-15
  0.375999987       4.74572189E-15
  0.384000003       4.71965445E-15
  0.391999990       4.53237377E-15
  0.400000006       4.19850007E-15
  0.407999992       3.73915283E-15
  0.416000009       3.18031861E-15
  0.423999995       2.55114381E-15
  0.432000011       1.88219001E-15
  0.439999998       1.20366865E-15
  0.448000014       5.43796687E-16
  0.456000000      -7.24835739E-17
  0.463999987      -6.24365508E-16
  0.472000003      -1.09576798E-15
  0.479999989      -1.47573055E-15
  0.488000005      -1.75850022E-15
  0.495999992      -1.94322932E-15
  0.504000008      -2.03342223E-15
  0.512000024      -2.03634344E-15
  0.519999981      -1.96243219E-15
  0.527999997      -1.82462819E-15
  0.536000013      -1.63755906E-15
  0.544000030      -1.41668357E-15
  0.551999986      -1.17752075E-15
  0.560000002      -9.34982284E-16
  0.568000019      -7.02721085E-16
  0.575999975      -4.92464426E-16
  0.583999991      -3.13433213E-16
  0.592000008      -1.71962101E-16
  0.600000024      -7.13111744E-17
  0.607999980      -1.16040412E-17
  0.615999997       1.00718041E-17
  0.624000013      -6.92571133E-19
  0.632000029      -3.62366981E-17
  0.639999986      -8.75861912E-17
  0.648000002      -1.45276844E-16
  0.656000018      -2.00195946E-16
  0.663999975      -2.44344018E-16
  0.671999991      -2.71447987E-16
  0.680000007      -2.77455224E-16
  0.688000023      -2.60885698E-16
  0.695999980      -2.22867842E-16
  0.703999996      -1.66780258E-16
  0.712000012      -9.77168972E-17
  0.720000029      -2.19950104E-17
  0.727999985       5.34112010E-17
  0.736000001       1.21685362E-16
  0.744000018       1.77013369E-16
  0.751999974       2.15070877E-16
  0.759999990       2.33173003E-16
  0.768000007       2.30420623E-16
  0.776000023       2.07870581E-16
  0.783999979       1.68390798E-16
  0.791999996       1.16106962E-16
  0.800000012       5.58054422E-17
  0.808000028      -7.42256543E-18
  0.815999985      -6.84574741E-17
  0.824000001      -1.22584461E-16
  0.832000017      -1.65971514E-16
  0.839999974      -1.95919740E-16
  0.847999990      -2.10863188E-16
  0.856000006      -2.10329080E-16
  0.864000022      -1.94962804E-16
  0.871999979      -1.66493180E-16
  0.879999995      -1.27506847E-16
  0.888000011      -8.11100420E-17
  0.896000028      -3.06703715E-17
  0.903999984       2.03133605E-17
  0.912000000       6.83566970E-17
  0.920000017       1.10241537E-16
  0.927999973       1.43258153E-16
  0.935999990       1.65307850E-16
  0.944000006       1.74941910E-16
  0.952000022       1.71473866E-16
  0.959999979       1.55116032E-16
  0.967999995       1.26994115E-16
  0.976000011       8.90516376E-17
  0.984000027       4.39622011E-17
  0.991999984      -4.96212042E-18
   1.00000000      -5.39775848E-17
   1.00800002      -9.92270775E-17
   1.01600003      -1.37063986E-16
   1.02400005      -1.64346626E-16
   1.03199995      -1.78720061E-16
   1.03999996      -1.78832451E-16
   1.04799998      -1.64433924E-16
   1.05599999      -1.36409389E-16
   1.06400001      -9.67811838E-17
   1.07200003      -4.85924571E-17
   1.08000004       4.37748116E-18
   1.08800006       5.79455041E-17
   1.09599996       1.07810837E-16
   1.10399997       1.49886675E-16
   1.11199999       1.80736132E-16
   1.12000000       1.97943765E-16
   1.12800002       2.00257038E-16
   1.13600004       1.87599031E-16
   1.14400005       1.61119510E-16
   1.15199995       1.23207533E-16
   1.15999997       7.72730754E-17
   1.16799998       2.73295098E-17
   1.17600000      -2.24091731E-17
   1.18400002      -6.78331182E-17
   1.19200003      -1.05246206E-16
   1.20000005      -1.31724714E-16
   1.20799994      -1.45404521E-16
   1.21599996      -1.45581763E-16
   1.22399998      -1.32665225E-16
   1.23199999      -1.08091416E-16
   1.24000001      -7.42247362E-17
   1.24800003      -3.41628538E-17
   1.25600004       8.59105152E-18
   1.26400006       5.04898340E-17
   1.27199996       8.82085421E-17
   1.27999997       1.18823383E-16
   1.28799999       1.40006446E-16
   1.29600000       1.50234660E-16
   1.30400002       1.48888328E-16
   1.31200004       1.36195526E-16
   1.32000005       1.13129720E-16
   1.32799995       8.13289735E-17
   1.33599997       4.29692965E-17
   1.34399998       5.52867100E-19
   1.35200000      -4.33029183E-17
   1.36000001      -8.60160171E-17
   1.36800003      -1.25183065E-16
   1.37600005      -1.58732466E-16
   1.38399994      -1.85006753E-16
   1.39199996      -2.02769206E-16
   1.39999998      -2.11246960E-16
   1.40799999      -2.10217418E-16
   1.41600001      -1.99989985E-16
   1.42400002      -1.81264018E-16
   1.43200004      -1.55062351E-16
   1.44000006      -1.22816680E-16
   1.44799995      -8.63849264E-17
   1.45599997      -4.78500327E-17
   1.46399999      -9.30033325E-18
   1.47200000       2.71927586E-17
   1.48000002       5.95511543E-17
   1.48800004       8.58780897E-17
   1.49600005       1.04760095E-16
   1.50399995       1.15380869E-16
   1.51199996       1.17440761E-16
   1.51999998       1.11153553E-16
   1.52800000       9.73860580E-17
   1.53600001       7.76967242E-17
   1.54400003       5.41441724E-17
   1.55200005       2.90524889E-17
   1.55999994       4.89741215E-18
   1.56799996      -1.58051716E-17
   1.57599998      -3.07599485E-17
   1.58399999      -3.81941714E-17
   1.59200001      -3.70019990E-17
   1.60000002      -2.67616933E-17
   1.60800004      -7.80331336E-18
   1.61600006       1.86792636E-17
   1.62399995       5.06662419E-17
   1.63199997       8.55509696E-17
   1.63999999       1.20394682E-16
   1.64800000       1.52084064E-16
   1.65600002       1.77525943E-16
   1.66400003       1.93987459E-16
   1.67200005       1.99425371E-16
   1.67999995       1.92618958E-16
   1.68799996       1.73193422E-16
   1.69599998       1.41707884E-16
   1.70400000       9.97270453E-17
   1.71200001       4.96797397E-17
   1.72000003      -5.42985136E-18
   1.72800004      -6.22236160E-17
   1.73599994      -1.17070329E-16
   1.74399996      -1.66336611E-16
   1.75199997      -2.06755356E-16
   1.75999999      -2.35667462E-16
   1.76800001      -2.51095929E-16
   1.77600002      -2.51868820E-16
   1.78400004      -2.37827105E-16
   1.79200006      -2.09875349E-16
   1.79999995      -1.69797535E-16
   1.80799997      -1.20069276E-16
   1.81599998      -6.37839698E-17
   1.82400000      -4.49993119E-18
   1.83200002       5.41034850E-17
   1.84000003       1.08553903E-16
   1.84800005       1.55723540E-16
   1.85599995       1.92912574E-16
   1.86399996       2.18040151E-16
   1.87199998       2.29837308E-16
   1.88000000       2.27874971E-16
   1.88800001       2.12490881E-16
   1.89600003       1.84768472E-16
   1.90400004       1.46541332E-16
   1.91199994       1.00281779E-16
   1.91999996       4.88641032E-17
   1.92799997      -4.66598687E-18
   1.93599999      -5.72400844E-17
   1.94400001      -1.05896582E-16
   1.95200002      -1.47970594E-16
   1.96000004      -1.81309083E-16
   1.96800005      -2.04399493E-16
   1.97599995      -2.16381435E-16
   1.98399997      -2.17037674E-16
   1.99199998      -2.06828611E-16
   2.00000000      -1.86887708E-16
   2.00799990      -1.58892806E-16
   2.01600003      -1.24891620E-16
   2.02399993      -8.71943988E-17
   2.03200006      -4.82787141E-17
   2.03999996      -1.05924919E-17
   2.04800010       2.36846526E-17
   2.05599999       5.27793112E-17
   2.06399989       7.53822795E-17
   2.07200003       9.07403302E-17
   2.07999992       9.87398483E-17
   2.08800006       9.98558936E-17
   2.09599996       9.50104946E-17
   2.10400009       8.54869259E-17
   2.11199999       7.28775236E-17
   2.11999989       5.89266065E-17
   2.12800002       4.52940115E-17
   2.13599992       3.34023538E-17
   2.14400005       2.43893856E-17
   2.15199995       1.90373765E-17
   2.16000009       1.76598362E-17
   2.16799998       2.00719462E-17
   2.17600012       2.56894753E-17
   2.18400002       3.36511334E-17
   2.19199991       4.28912702E-17
   2.20000005       5.22143303E-17
   2.20799994       6.04268672E-17
   2.21600008       6.64895585E-17
   2.22399998       6.96163674E-17
   2.23200011       6.93042291E-17
   2.24000001       6.53367136E-17
   2.24799991       5.77948579E-17
   2.25600004       4.70466418E-17
   2.26399994       3.36721934E-17
   2.27200007       1.83585094E-17
   2.27999997       1.84305208E-18
   2.28800011      -1.51009067E-17
   2.29600000      -3.17222640E-17
   2.30399990      -4.73858123E-17
   2.31200004      -6.15874016E-17
   2.31999993      -7.38764667E-17
   2.32800007      -8.38181254E-17
   2.33599997      -9.10391872E-17
   2.34400010      -9.52341774E-17
   2.35200000      -9.60881918E-17
   2.35999990      -9.32594194E-17
   2.36800003      -8.64891843E-17
   2.37599993      -7.56930612E-17
   2.38400006      -6.09401493E-17
   2.39199996      -4.24541086E-17
   2.40000010      -2.07328254E-17
   2.40799999       3.35587960E-18
   2.41599989       2.86376678E-17
   2.42400002       5.37463283E-17
   2.43199992       7.71513740E-17
   2.44000006       9.71838554E-17
   2.44799995       1.12195073E-16
   2.45600009       1.20773333E-16
   2.46399999       1.21866084E-16
   2.47199988       1.14835830E-16
   2.48000002       9.95729647E-17
   2.48799992       7.66345250E-17
   2.49600005       4.72640480E-17
   2.50399995       1.32712667E-17
   2.51200008      -2.31111252E-17
   2.51999998      -5.93392571E-17
   2.52800012      -9.27138971E-17
   2.53600001      -1.20631971E-16
   2.54399991      -1.40858800E-16
   2.55200005      -1.51720753E-16
   2.55999994      -1.52220953E-16
   2.56800008      -1.42142505E-16
   2.57599998      -1.22129088E-16
   2.58400011      -9.36556521E-17
   2.59200001      -5.88655407E-17
   2.59999990      -2.03662802E-17
   2.60800004       1.89478342E-17
   2.61599994       5.60970995E-17
   2.62400007       8.82902741E-17
   2.63199997       1.13193963E-16
   2.64000010       1.29102644E-16
   2.64800000       1.35040385E-16
   2.65599990       1.30858980E-16
   2.66400003       1.17278792E-16
   2.67199993       9.57886928E-17
   2.68000007       6.84522596E-17
   2.68799996       3.77185327E-17
   2.69600010       6.22073487E-18
   2.70400000      -2.34896546E-17
   2.71199989      -4.92012025E-17
   2.72000003      -6.91904885E-17
   2.72799993      -8.23027967E-17
   2.73600006      -8.80509873E-17
   2.74399996      -8.66669024E-17
   2.75200009      -7.89975815E-17
   2.75999999      -6.63157579E-17
   2.76799989      -5.01877808E-17
   2.77600002      -3.23713592E-17
   2.78399992      -1.46245780E-17
   2.79200006       1.52701387E-18
   2.79999995       1.49117867E-17
   2.80800009       2.47233399E-17
   2.81599998       3.05517538E-17
   2.82399988       3.24410045E-17
   2.83200002       3.08543828E-17
   2.83999991       2.65346239E-17
   2.84800005       2.03710663E-17
   2.85599995       1.33153976E-17
   2.86400008       6.28677118E-18
   2.87199998       6.07343600E-20
   2.88000011      -4.79486657E-18
   2.88800001      -7.93195897E-18
   2.89599991      -9.22965977E-18
   2.90400004      -8.78744984E-18
   2.91199994      -6.86509078E-18
   2.92000008      -3.80302242E-18
   2.92799997       1.72835431E-20
   2.93600011       4.19449351E-18
   2.94400001       8.35958074E-18
   2.95199990       1.22294385E-17
   2.96000004       1.56066234E-17
   2.96799994       1.83499828E-17
   2.97600007       2.03711010E-17
   2.98399997       2.16395775E-17
   2.99200010       2.21502060E-17
   3.00000000       2.18715554E-17
   3.00799990       2.07312588E-17
   3.01600003       1.86414200E-17
   3.02399993       1.55245687E-17
   3.03200006       1.13236816E-17
   3.03999996       6.01288134E-18
   3.04800010      -3.73826157E-19
   3.05599999      -7.69817705E-18
   3.06399989      -1.56848151E-17
   3.07200003      -2.39297445E-17
   3.07999992      -3.19372813E-17
   3.08800006      -3.91421601E-17
   3.09599996      -4.49206090E-17
   3.10400009      -4.86443412E-17
   3.11199999      -4.97776779E-17
   3.11999989      -4.79434611E-17
   3.12800002      -4.29336285E-17
   3.13599992      -3.47339922E-17
   3.14400005      -2.35921787E-17
   3.15199995      -1.00513223E-17
   3.16000009       5.10119885E-18
   3.16799998       2.09110382E-17
   3.17600012       3.63069754E-17
   3.18400002       5.01607650E-17
   3.19199991       6.13888320E-17
   3.20000005       6.90545265E-17
   3.20799994       7.24407855E-17
   3.21600008       7.11175017E-17
   3.22399998       6.50010437E-17
   3.23200011       5.43626076E-17
   3.24000001       3.97931976E-17
   3.24799991       2.21759744E-17
   3.25600004       2.65080636E-18
   3.26399994      -1.74840074E-17
   3.27200007      -3.69014966E-17
   3.27999997      -5.43272076E-17
   3.28800011      -6.85913318E-17
   3.29600000      -7.87302434E-17
   3.30399990      -8.41065600E-17
   3.31200004      -8.44422564E-17
   3.31999993      -7.97718954E-17
   3.32800007      -7.04210222E-17
   3.33599997      -5.70216227E-17
   3.34400010      -4.04714361E-17
   3.35200000      -2.18190277E-17
   3.35999990      -2.16539320E-18
   3.36800003       1.73768396E-17
   3.37599993       3.57261093E-17
   3.38400006       5.19120685E-17
   3.39199996       6.51469120E-17
   3.40000010       7.48468752E-17
   3.40799999       8.06223032E-17
   3.41599989       8.22678302E-17
   3.42400002       7.97614994E-17
   3.43199992       7.32718638E-17
   3.44000006       6.31621219E-17
   3.44799995       4.99708014E-17
   3.45600009       3.43729146E-17
   3.46399999       1.71543710E-17
   3.47199988      -7.92516885E-19
   3.48000002      -1.84899550E-17
   3.48799992      -3.49357217E-17
   3.49600005      -4.91758874E-17
   3.50399995      -6.03569275E-17
   3.51200008      -6.77685319E-17
   3.51999998      -7.09031031E-17
   3.52800012      -6.95264892E-17
   3.53600001      -6.37267355E-17
   3.54399991      -5.39177334E-17
   3.55200005      -4.08049751E-17
   3.55999994      -2.53389393E-17
   3.56800008      -8.66742841E-18
   3.57599998       7.93395330E-18
   3.58400011       2.31737461E-17
   3.59200001       3.58773477E-17
   3.59999990       4.50951308E-17
   3.60800004       5.01730371E-17
   3.61599994       5.08070082E-17
   3.62400007       4.70855292E-17
   3.63199997       3.94940461E-17
   3.64000010       2.88640440E-17
   3.64800000       1.62804878E-17
   3.65599990       2.97367274E-18
   3.66400003      -9.78523397E-18
   3.67199993      -2.07838327E-17
   3.68000007      -2.89808121E-17
   3.68799996      -3.36308013E-17
   3.69600010      -3.43693975E-17
   3.70400000      -3.12097991E-17
   3.71199989      -2.44932646E-17
   3.72000003      -1.48738886E-17
   3.72799993      -3.31369091E-18
   3.73600006       9.01465567E-18
   3.74399996       2.09081116E-17
   3.75200009       3.12557044E-17
   3.75999999       3.90577480E-17
   3.76799989       4.34737278E-17
   3.77600002       4.39687524E-17
   3.78399992       4.04171565E-17
   3.79200006       3.30419513E-17
   3.79999995       2.23067880E-17
   3.80800009       8.91784907E-18
   3.81599998      -6.14154887E-18
   3.82399988      -2.17128045E-17
   3.83200002      -3.66498352E-17
   3.83999991      -4.99024001E-17
   3.84800005      -6.04946960E-17
   3.85599995      -6.75756533E-17
   3.86400008      -7.05671420E-17
   3.87199998      -6.92361621E-17
   3.88000011      -6.36257666E-17
   3.88800001      -5.39937182E-17
   3.89599991      -4.08493252E-17
   3.90400004      -2.49719193E-17
   3.91199994      -7.31525364E-18
   3.92000008       1.11070570E-17
   3.92799997       2.92513068E-17
   3.93600011       4.60548258E-17
   3.94400001       6.05204114E-17
   3.95199990       7.18157414E-17
   3.96000004       7.92950754E-17
   3.96799994       8.24888661E-17
   3.97600007       8.11507260E-17
   3.98399997       7.53215181E-17
   3.99200010       6.53172053E-17
   4.00000000       5.16697973E-17
   4.00799990       3.51166857E-17
   4.01599979       1.66160319E-17
   4.02400017      -2.71674010E-18
   4.03200006      -2.17422323E-17
   4.03999996      -3.93783334E-17
   4.04799986      -5.46033040E-17
   4.05600023      -6.64954546E-17
   4.06400013      -7.43577468E-17
   4.07200003      -7.78108553E-17
   4.07999992      -7.67683364E-17
   4.08799982      -7.13874670E-17
   4.09600019      -6.21030726E-17
   4.10400009      -4.96657338E-17
   4.11199999      -3.50507130E-17
   4.11999989      -1.92939597E-17
   4.12799978      -3.41912769E-18
   4.13600016       1.15515648E-17
   4.14400005       2.46618622E-17
   4.15199995       3.51769011E-17
   4.15999985       4.26604868E-17
   4.16800022       4.69158348E-17
   4.17600012       4.79417472E-17
   4.18400002       4.59857198E-17
   4.19199991       4.15562503E-17
   4.19999981       3.52955519E-17
   4.20800018       2.78451063E-17
   4.21600008       1.98392934E-17
   4.22399998       1.19334584E-17
   4.23199987       4.72485483E-18
   4.23999977      -1.36666119E-18
   4.24800014      -6.10754389E-18
   4.25600004      -9.37625272E-18
   4.26399994      -1.11442380E-17
   4.27199984      -1.15167695E-17
   4.28000021      -1.07209134E-17
   4.28800011      -9.02506243E-18
   4.29600000      -6.69065369E-18
   4.30399990      -3.99255473E-18
   4.31199980      -1.23195845E-18
   4.32000017       1.30416894E-18
   4.32800007       3.38333828E-18
   4.33599997       4.81643737E-18
   4.34399986       5.42990967E-18
   4.35200024       5.07877067E-18
   4.36000013       3.69031906E-18
   4.36800003       1.28381119E-18
   4.37599993      -2.04354991E-18
   4.38399982      -6.11882291E-18
   4.39200020      -1.06685247E-17
   4.40000010      -1.53174444E-17
   4.40799999      -1.96414698E-17
   4.41599989      -2.32213404E-17
   4.42399979      -2.56468308E-17
   4.43200016      -2.65175476E-17
   4.44000006      -2.55041074E-17
   4.44799995      -2.24277615E-17
   4.45599985      -1.72748614E-17
   4.46400023      -1.01684246E-17
   4.47200012      -1.38186105E-18
   4.48000002       8.61940314E-18
   4.48799992       1.92026571E-17
   4.49599981       2.96624685E-17
   4.50400019       3.92880781E-17
   4.51200008       4.73729877E-17
   4.51999998       5.32437003E-17
   4.52799988       5.63456640E-17
   4.53599977       5.63209809E-17
   4.54400015       5.30232037E-17
   4.55200005       4.65009640E-17
   4.55999994       3.69961393E-17
   4.56799984       2.49442104E-17
   4.57600021       1.09454003E-17
   4.58400011      -4.28727877E-18
   4.59200001      -1.99714189E-17
   4.59999990      -3.52776451E-17
   4.60799980      -4.93528974E-17
   4.61600018      -6.13713090E-17
   4.62400007      -7.06022277E-17
   4.63199997      -7.64548085E-17
   4.63999987      -7.84897191E-17
   4.64799976      -7.64370075E-17
   4.65600014      -7.02370043E-17
   4.66400003      -6.00648930E-17
   4.67199993      -4.63198578E-17
   4.67999983      -2.96186742E-17
   4.68800020      -1.08038945E-17
   4.69600010       9.09216581E-18
   4.70400000       2.89422489E-17
   4.71199989       4.75981297E-17
   4.71999979       6.39122291E-17
   4.72800016       7.67949716E-17
   4.73600006       8.53490647E-17
   4.74399996       8.89731878E-17
   4.75199986       8.73609599E-17
   4.76000023       8.04940241E-17
   4.76800013       6.87160044E-17
   4.77600002       5.27826265E-17
   4.78399992       3.37682291E-17
   4.79199982       1.29161755E-17
   4.80000019      -8.41964150E-18
   4.80800009      -2.87907194E-17
   4.81599998      -4.67715976E-17
   4.82399988      -6.11496841E-17
   4.83199978      -7.10315940E-17
   4.84000015      -7.58474329E-17
   4.84800005      -7.53753245E-17
   4.85599995      -6.98116085E-17
   4.86399984      -5.97749099E-17
   4.87200022      -4.62032319E-17
   4.88000011      -3.02412070E-17
   4.88800001      -1.31774620E-17
   4.89599991       3.63428668E-18
   4.90399981       1.89191873E-17
   4.91200018       3.16200013E-17
   4.92000008       4.09558231E-17
   4.92799997       4.64371255E-17
   4.93599987       4.79026910E-17
   4.94399977       4.55504541E-17
   4.95200014       3.98939548E-17
   4.96000004       3.16616581E-17
   4.96799994       2.17174665E-17
   4.97599983       1.10124673E-17
   4.98400021       5.05529312E-19
   4.99200010      -8.95646186E-18
   5.00000000      -1.67249071E-17
   5.00799990      -2.23645749E-17
   5.01599979      -2.56510710E-17
   5.02400017      -2.65911882E-17
   5.03200006      -2.54213067E-17
   5.03999996      -2.25422946E-17
   5.04799986      -1.84347341E-17
   5.05600023      -1.36100179E-17
   5.06400013      -8.57651878E-18
   5.07200003      -3.78096441E-18
   5.07999992       4.48035038E-19
   5.08799982       3.90817404E-18
   5.09600019       6.50138484E-18
   5.10400009       8.22376844E-18
   5.11199999       9.15560063E-18
   5.11999989       9.42120254E-18
   5.12799978       9.14332031E-18
   5.13600016       8.43317500E-18
   5.14400005       7.39738854E-18
   5.15199995       6.11996690E-18
   5.15999985       4.63724069E-18
   5.16800022       2.95346120E-18
   5.17600012       1.08443047E-18
   5.18400002      -9.26947383E-19
   5.19199991      -3.02745829E-18
   5.19999981      -5.15154892E-18
   5.20800018      -7.18673789E-18
   5.21600008      -8.95703262E-18
   5.22399998      -1.02566773E-17
   5.23199987      -1.08964808E-17
   5.23999977      -1.07163540E-17
   5.24800014      -9.57971929E-18
   5.25600004      -7.39690960E-18
   5.26399994      -4.17681583E-18
   5.27199984      -5.51622840E-20
   5.28000021       4.72662541E-18
   5.28800011       9.85560057E-18
   5.29600000       1.49565438E-17
   5.30399990       1.95970320E-17
   5.31199980       2.33301875E-17
   5.32000017       2.57634253E-17
   5.32800007       2.66025471E-17
   5.33599997       2.56603668E-17
   5.34399986       2.28682319E-17
   5.35200024       1.83044813E-17
   5.36000013       1.22050930E-17
   5.36800003       4.93593354E-18
   5.37599993      -3.04602912E-18
   5.38399982      -1.12184096E-17
   5.39200020      -1.90217908E-17
   5.40000010      -2.59065043E-17
   5.40799999      -3.13811016E-17
   5.41599989      -3.50457996E-17
   5.42399979      -3.66196530E-17
   5.43200016      -3.59675303E-17
   5.44000006      -3.31132344E-17
   5.44799995      -2.82338779E-17
   5.45599985      -2.16485624E-17
   5.46400023      -1.37999402E-17
   5.47200012      -5.21233015E-18
   5.48000002       3.56499252E-18
   5.48799992       1.19989463E-17
   5.49599981       1.95971214E-17
   5.50400019       2.59435058E-17
   5.51200008       3.07440270E-17
   5.51999998       3.38452528E-17
   5.52799988       3.52158415E-17
   5.53599977       3.49234430E-17
   5.54400015       3.31260193E-17
   5.55200005       3.00579634E-17
   5.55999994       2.59966257E-17
   5.56799984       2.12260981E-17
   5.57600021       1.60146071E-17
   5.58400011       1.06015769E-17
   5.59200001       5.18870132E-18
   5.59999990      -6.31202268E-20
   5.60799980      -5.03253293E-18
   5.61600018      -9.63279451E-18
   5.62400007      -1.37962295E-17
   5.63199997      -1.74514446E-17
   5.63999987      -2.05131627E-17
   5.64799976      -2.28894110E-17
   5.65600014      -2.44848654E-17
   5.66400003      -2.51942869E-17
   5.67199993      -2.49107625E-17
   5.67999983      -2.35574454E-17
   5.68800020      -2.11136131E-17
   5.69600010      -1.76187618E-17
   5.70400000      -1.31782304E-17
   5.71199989      -7.98373800E-18
   5.71999979      -2.32146977E-18
   5.72800016       3.45224594E-18
   5.73600006       8.94698651E-18
   5.74399996       1.37663360E-17
   5.75199986       1.75402127E-17
   5.76000023       1.99699780E-17
   5.76800013       2.08669362E-17
   5.77600002       2.01693484E-17
   5.78399992       1.79466181E-17
   5.79199982       1.43957352E-17
   5.80000019       9.82250177E-18
   5.80800009       4.61139460E-18
   5.81599998      -8.04510901E-19
   5.82399988      -5.98024327E-18
   5.83199978      -1.05105109E-17
   5.84000015      -1.40746270E-17
   5.84800005      -1.64520400E-17
   5.85599995      -1.75277835E-17
   5.86399984      -1.73147332E-17
   5.87200022      -1.59693487E-17
   5.88000011      -1.37607566E-17
   5.88800001      -1.10106384E-17
   5.89599991      -8.05664073E-18
   5.90399981      -5.24135964E-18
   5.91200018      -2.87954579E-18
   5.92000008      -1.19444157E-18
   5.92799997      -2.74355853E-19
   5.93599987      -8.22448235E-20
   5.94399977      -4.86778265E-19
   5.95200014      -1.27512425E-18
   5.96000004      -2.16054303E-18
   5.96799994      -2.82188075E-18
   5.97599983      -2.97015101E-18
   5.98400021      -2.39641999E-18
   5.99200010      -9.79036497E-19
   6.00000000       1.31901900E-18
   6.00799990       4.43139059E-18
   6.01599979       8.16901901E-18
   6.02400017       1.22401778E-17
   6.03200006       1.63014551E-17
   6.03999996       1.99943021E-17
   6.04799986       2.29589273E-17
   6.05600023       2.48632559E-17
   6.06400013       2.54570293E-17
   6.07200003       2.46084809E-17
   6.07999992       2.22992640E-17
   6.08799982       1.86116018E-17
   6.09600019       1.37366576E-17
   6.10400009       7.97579706E-18
   6.11199999       1.70155643E-18
   6.11999989      -4.69851864E-18
   6.12799978      -1.08534046E-17
   6.13600016      -1.64191116E-17
   6.14400005      -2.10969504E-17
   6.15199995      -2.46574550E-17
   6.15999985      -2.69479727E-17
   6.16800022      -2.78876499E-17
   6.17600012      -2.74691197E-17
   6.18400002      -2.57612829E-17
   6.19199991      -2.28941557E-17
   6.19999981      -1.90344301E-17
   6.20800018      -1.43772312E-17
   6.21600008      -9.15156316E-18
   6.22399998      -3.61287676E-18
   6.23199987       1.98122950E-18
   6.23999977       7.38719105E-18
   6.24800014       1.23731107E-17
   6.25600004       1.67179654E-17
   6.26399994       2.02264073E-17
   6.27199984       2.27439596E-17
   6.28000021       2.41568337E-17
   6.28800011       2.43873855E-17
   6.29600000       2.34032838E-17
   6.30399990       2.12357298E-17
   6.31199980       1.79880400E-17
   6.32000017       1.38303606E-17
   6.32800007       8.99061119E-18
   6.33599997       3.74483027E-18
   6.34399986      -1.60006106E-18
   6.35200024      -6.73165083E-18
   6.36000013      -1.13562981E-17
   6.36800003      -1.52174366E-17
   6.37599993      -1.81119566E-17
   6.38399982      -1.99054943E-17
   6.39200020      -2.05404878E-17
   6.40000010      -2.00351995E-17
   6.40799999      -1.84796963E-17
   6.41599989      -1.60297329E-17
   6.42399979      -1.28914337E-17
   6.43200016      -9.29752332E-18
   6.44000006      -5.48843353E-18
   6.44799995      -1.70312528E-18
   6.45599985       1.83395827E-18
   6.46400023       4.93659901E-18
   6.47200012       7.47273063E-18
   6.48000002       9.35715725E-18
   6.48799992       1.05388162E-17
   6.49599981       1.10064363E-17
   6.50400019       1.07990629E-17
   6.51200008       9.99142694E-18
   6.51999998       8.66397824E-18
   6.52799988       6.89785458E-18
   6.53599977       4.79860171E-18
   6.54400015       2.50691788E-18
   6.55200005       1.77822079E-19
   6.55999994      -2.03789551E-18
   6.56799984      -3.98434744E-18
   6.57600021      -5.49052423E-18
   6.58400011      -6.39180285E-18
   6.59200001      -6.56528620E-18
   6.59999990      -5.94234227E-18
   6.60799980      -4.50306289E-18