 -0.239999995       0.00000000    
 -0.231999993       0.00000000    
 -0.224000007       9.57787895E-24
 -0.216000006       8.07245088E-23
 -0.208000004       2.16017480E-22
 -0.200000003       2.90828075E-22
 -0.192000002       2.24036901E-22
 -0.184000000       1.43687442E-22
 -0.175999999       2.09655714E-22
 -0.167999998       4.09635223E-22
 -0.159999996       7.28475155E-22
 -0.151999995       1.28496026E-21
 -0.143999994       1.99023654E-21
 -0.136000007       2.35054559E-21
 -0.128000006       2.09661932E-21
 -0.119999997       1.81975453E-21
 -0.112000003       2.38777437E-21
 -0.104000002       3.77371347E-21
  -9.60000008E-02   5.07544332E-21
  -8.79999995E-02   5.75987186E-21
  -7.99999982E-02   6.24267836E-21
  -7.19999969E-02   7.00610266E-21
  -6.40000030E-02   7.76859678E-21
  -5.60000017E-02   7.98280021E-21
  -4.80000004E-02   7.69968229E-21
  -3.99999991E-02   7.35521650E-21
  -3.20000015E-02   6.95461067E-21
  -2.40000002E-02   6.10717140E-21
  -1.60000008E-02   4.80570651E-21
  -8.00000038E-03   3.49962588E-21
   1.38777878E-17   2.25686516E-21
   8.00000038E-03   5.38153437E-22
   1.60000008E-02  -1.83233976E-21
   2.40000002E-02  -4.12736549E-21
   3.20000015E-02  -5.75158592E-21
   3.99999991E-02  -7.22511892E-21
   4.80000004E-02  -9.24244037E-21
   5.60000017E-02  -1.11977814E-20
   6.40000030E-02  -1.18840417E-20
   7.19999969E-02  -1.15647128E-20
   7.99999982E-02  -1.19061405E-20
   8.79999995E-02  -1.35055321E-20
   9.60000008E-02  -1.49690190E-20
  0.104000002      -1.52447464E-20
  0.112000003      -1.54402244E-20
  0.119999997      -1.70351175E-20
  0.128000006      -1.94368525E-20
  0.136000007      -2.09789935E-20
  0.143999994      -2.15608278E-20
  0.151999995      -2.22764650E-20
  0.159999996      -2.26511197E-20
  0.167999998      -2.03915353E-20
  0.175999999      -1.44023179E-20
  0.184000000      -6.23612635E-21
  0.192000002       2.32573078E-21
  0.200000003       1.15280923E-20
  0.208000004       2.21827012E-20
  0.216000006       3.31779203E-20
  0.224000007       4.20826263E-20
  0.231999993       4.76829621E-20
  0.239999995       5.02906490E-20
  0.247999996       4.97313521E-20
  0.256000012       4.47011408E-20
  0.263999999       3.46122644E-20
  0.272000015       2.09205334E-20
  0.280000001       5.84266788E-21
  0.287999988      -9.37459056E-21
  0.296000004      -2.41396005E-20
  0.303999990      -3.71445454E-20
  0.312000006      -4.63967350E-20
  0.319999993      -5.05501705E-20
  0.328000009      -4.95047951E-20
  0.335999995      -4.37241856E-20
  0.344000012      -3.36574751E-20
  0.351999998      -2.00751678E-20
  0.360000014      -4.44648394E-21
  0.368000001       1.12925292E-20
  0.375999987       2.52492762E-20
  0.384000003       3.58767683E-20
  0.391999990       4.22004316E-20
  0.400000006       4.39578641E-20
  0.407999992       4.13665366E-20
  0.416000009       3.47852971E-20
  0.423999995       2.48421677E-20
  0.432000011       1.27569644E-20
  0.439999998       1.12783229E-22
  0.448000014      -1.17989236E-20
  0.456000000      -2.20979572E-20
  0.463999987      -2.97781143E-20
  0.472000003      -3.36863844E-20
  0.479999989      -3.33374014E-20
  0.488000005      -2.93738879E-20
  0.495999992      -2.28483700E-20
  0.504000008      -1.43663259E-20
  0.512000024      -4.34818071E-21
  0.519999981       6.15282829E-21
  0.527999997       1.54915258E-20
  0.536000013       2.23673483E-20
  0.544000030       2.63224494E-20
  0.551999986       2.73189128E-20
  0.560000002       2.53119368E-20
  0.568000019       2.05189340E-20
  0.575999975       1.37751793E-20
  0.583999991       6.15501095E-21
  0.592000008      -1.69594563E-21
  0.600000024      -9.49366660E-21
  0.607999980      -1.66477482E-20
  0.615999997      -2.21143845E-20
  0.624000013      -2.50806477E-20
  0.632000029      -2.54558985E-20
  0.639999986      -2.35268325E-20
  0.648000002      -1.95045957E-20
  0.656000018      -1.36904385E-20
  0.663999975      -6.73880336E-21
  0.671999991       6.42568481E-22
  0.680000007       8.03120804E-21
  0.688000023       1.49684649E-20
  0.695999980       2.05671432E-20
  0.703999996       2.39201505E-20
  0.712000012       2.47679864E-20
  0.720000029       2.33417202E-20
  0.727999985       1.97522685E-20
  0.736000001       1.40934290E-20
  0.744000018       7.04149209E-21
  0.751999974      -2.98494490E-22
  0.759999990      -7.21413454E-21
  0.768000007      -1.34865724E-20
  0.776000023      -1.85808547E-20
  0.783999979      -2.14148256E-20
  0.791999996      -2.12985275E-20
  0.800000012      -1.86301753E-20
  0.808000028      -1.42517565E-20
  0.815999985      -8.52232876E-21
  0.824000001      -1.55311379E-21
  0.832000017       5.91412206E-21
  0.839999974       1.25377809E-20
  0.847999990       1.73433457E-20
  0.856000006       2.01440467E-20
  0.864000022       2.08703162E-20
  0.871999979       1.90598052E-20
  0.879999995       1.44498921E-20
  0.888000011       7.73302074E-21
  0.896000028       1.89336361E-22
  0.903999984      -7.27619248E-21
  0.912000000      -1.42252027E-20
  0.920000017      -1.99496254E-20
  0.927999973      -2.33576822E-20
  0.935999990      -2.38175704E-20
  0.944000006      -2.16001738E-20
  0.952000022      -1.72471584E-20
  0.959999979      -1.10132806E-20
  0.967999995      -3.28975425E-21
  0.976000011       4.88104053E-21
  0.984000027       1.22115737E-20
  0.991999984       1.78747656E-20
   1.00000000       2.14882152E-20
   1.00800002       2.27171358E-20
   1.01600003       2.13350269E-20
   1.02400005       1.75210263E-20
   1.03199995       1.17806869E-20
   1.03999996       4.75342489E-21
   1.04799998      -2.65791205E-21
   1.05599999      -9.28172661E-21
   1.06400001      -1.41889845E-20
   1.07200003      -1.70436284E-20
   1.08000004      -1.77322546E-20
   1.08800006      -1.60440856E-20
   1.09599996      -1.21260348E-20
   1.10399997      -6.86637457E-21
   1.11199999      -1.25303747E-21
   1.12000000       4.38832563E-21
   1.12800002       9.91940531E-21
   1.13600004       1.44252867E-20
   1.14400005       1.65614176E-20
   1.15199995       1.59087802E-20
   1.15999997       1.32441269E-20
   1.16799998       9.32445242E-21
   1.17600000       4.20482522E-21
   1.18400002      -1.88221535E-21
   1.19200003      -7.77306468E-21
   1.20000005      -1.22114638E-20
   1.20799994      -1.49724618E-20
   1.21599996      -1.64283934E-20
   1.22399998      -1.63521846E-20
   1.23199999      -1.40394635E-20
   1.24000001      -9.56037257E-21
   1.24800003      -4.02515295E-21
   1.25600004       1.56802011E-21
   1.26400006       6.98866482E-21
   1.27199996       1.19942449E-20
   1.27999997       1.56580072E-20
   1.28799999       1.70491957E-20
   1.29600000       1.61220894E-20
   1.30400002       1.34006280E-20
   1.31200004       9.17442496E-21
   1.32000005       3.60563828E-21
   1.32799995      -2.64360320E-21
   1.33599997      -8.53520095E-21
   1.34399998      -1.33353179E-20
   1.35200000      -1.67017443E-20
   1.36000001      -1.82518533E-20
   1.36800003      -1.76178081E-20
   1.37600005      -1.49018284E-20
   1.38399994      -1.05694941E-20
   1.39199996      -4.93747298E-21
   1.39999998       1.69145480E-21
   1.40799999       8.43512098E-21
   1.41600001       1.40578473E-20
   1.42400002       1.79298248E-20
   1.43200004       2.01559891E-20
   1.44000006       2.06405797E-20
   1.44799995       1.88021627E-20
   1.45599997       1.45938183E-20
   1.46399999       9.05579725E-21
   1.47200000       3.26308999E-21
   1.48000002      -2.66620991E-21
   1.48800004      -8.82300245E-21
   1.49600005      -1.43368882E-20
   1.50399995      -1.78894642E-20
   1.51199996      -1.91289766E-20
   1.51999998      -1.86478515E-20
   1.52800000      -1.66963224E-20
   1.53600001      -1.29370886E-20
   1.54400003      -7.59767008E-21
   1.55200005      -1.85574133E-21
   1.55999994       3.33105007E-21
   1.56799996       7.98843537E-21
   1.57599998       1.22425897E-20
   1.58399999       1.54011030E-20
   1.59200001       1.65795268E-20
   1.60000002       1.57559457E-20
   1.60800004       1.35117796E-20
   1.61600006       1.00630690E-20
   1.62399995       5.28774964E-21
   1.63199997      -4.27216875E-22
   1.63999999      -6.09068393E-21
   1.64800000      -1.09306183E-20
   1.65600002      -1.47490278E-20
   1.66400003      -1.73668121E-20
   1.67200005      -1.82880942E-20
   1.67999995      -1.71813330E-20
   1.68799996      -1.42633031E-20
   1.69599998      -9.92741782E-21
   1.70400000      -4.36552040E-21
   1.71200001       2.11433403E-21
   1.72000003       8.72682816E-21
   1.72800004       1.45659737E-20
   1.73599994       1.91045150E-20
   1.74399996       2.20062242E-20
   1.75199997       2.27530697E-20
   1.75999999       2.09703630E-20
   1.76800001       1.69660673E-20
   1.77600002       1.14436552E-20
   1.78400004       4.81351383E-21
   1.79200006      -2.65945938E-21
   1.79999995      -1.01373722E-20
   1.80799997      -1.63375651E-20
   1.81599998      -2.04900796E-20
   1.82400000      -2.25917388E-20
   1.83200002      -2.26249633E-20
   1.84000003      -2.02201037E-20
   1.84800005      -1.53838291E-20
   1.85599995      -8.96240662E-21
   1.86399996      -1.98137181E-21
   1.87199998       5.00704299E-21
   1.88000000       1.15430833E-20
   1.88800001       1.67241783E-20
   1.89600003       1.96284757E-20
   1.90400004       2.00591606E-20
   1.91199994       1.84111502E-20
   1.91999996       1.49694665E-20
   1.92799997       9.82062266E-21
   1.93599999       3.41483866E-21
   1.94400001      -3.25198788E-21
   1.95200002      -9.17544117E-21
   1.96000004      -1.38048754E-20
   1.96800005      -1.68730612E-20
   1.97599995      -1.80667926E-20
   1.98399997      -1.71709302E-20
   1.99199998      -1.44394296E-20
   2.00000000      -1.05080865E-20
   2.00799990      -5.89022955E-21
   2.01600003      -8.14850098E-22
   2.02399993       4.36407688E-21
   2.03200006       8.93711541E-21
   2.03999996       1.22671240E-20
   2.04800010       1.42059110E-20
   2.05599999       1.48324809E-20
   2.06399989       1.40598926E-20
   2.07200003       1.18830158E-20
   2.07999992       8.78358051E-21
   2.08800006       5.41328561E-21
   2.09599996       1.99070567E-21
   2.10400009      -1.53645285E-21
   2.11199999      -4.85656034E-21
   2.11999989      -7.36442211E-21
   2.12800002      -8.84862970E-21
   2.13599992      -9.58328160E-21
   2.14400005      -9.69263019E-21
   2.15199995      -8.95808735E-21
   2.16000009      -7.37625629E-21
   2.16799998      -5.38918065E-21
   2.17600012      -3.32839424E-21
   2.18400002      -1.06314681E-21
   2.19199991       1.52411804E-21
   2.20000005       4.07516506E-21
   2.20799994       6.08762401E-21
   2.21600008       7.43194315E-21
   2.22399998       8.20704532E-21
   2.23200011       8.30217028E-21
   2.24000001       7.49351399E-21
   2.24799991       5.87195362E-21
   2.25600004       3.78275672E-21
   2.26399994       1.35574499E-21
   2.27200007      -1.50611172E-21
   2.27999997      -4.59596694E-21
   2.28800011      -7.27699946E-21
   2.29600000      -9.08625187E-21
   2.30399990      -1.00942603E-20
   2.31200004      -1.04047382E-20
   2.31999993      -9.70713170E-21
   2.32800007      -7.75212021E-21
   2.33599997      -4.93229058E-21
   2.34400010      -1.85608808E-21
   2.35200000       1.38404290E-21
   2.35999990       4.89264771E-21
   2.36800003       8.13885461E-21
   2.37599993       1.02156014E-20
   2.38400006       1.08995982E-20
   2.39199996       1.06950648E-20
   2.40000010       9.78736337E-21
   2.40799999       7.78797413E-21
   2.41599989       4.70934279E-21
   2.42400002       1.35577598E-21
   2.43199992      -1.61018491E-21
   2.44000006      -4.24625736E-21
   2.44799995      -6.56945833E-21
   2.45600009      -7.95737975E-21
   2.46399999      -7.89680008E-21
   2.47199988      -6.75741695E-21
   2.48000002      -5.21162964E-21
   2.48799992      -3.34034070E-21
   2.49600005      -9.42625521E-22
   2.50399995       1.64302273E-21
   2.51200008       3.71466255E-21
   2.51999998       5.00579980E-21
   2.52800012       5.69352535E-21
   2.53600001       5.74445593E-21
   2.54399991       4.87708436E-21
   2.55200005       3.18016231E-21
   2.55999994       1.20383183E-21
   2.56800008      -6.77573760E-22
   2.57599998      -2.52857946E-21
   2.58400011      -4.34961576E-21
   2.59200001      -5.77303042E-21
   2.59999990      -6.49185522E-21
   2.60800004      -6.59581623E-21
   2.61599994      -6.19123403E-21
   2.62400007      -5.05801477E-21
   2.63199997      -3.08514054E-21
   2.64000010      -7.62374010E-22
   2.64800000       1.23898055E-21
   2.65599990       2.80088222E-21
   2.66400003       4.18480123E-21
   2.67199993       5.28262662E-21
   2.68000007       5.65236019E-21
   2.68799996       5.27702497E-21
   2.69600010       4.62996576E-21
   2.70400000       3.86750396E-21
   2.71199989       2.62352085E-21
   2.72000003       8.47391810E-22
   2.72799993      -8.12569343E-22
   2.73600006      -1.83812255E-21
   2.74399996      -2.46742746E-21
   2.75200009      -3.04513254E-21
   2.75999999      -3.29608149E-21
   2.76799989      -2.80598384E-21
   2.77600002      -1.78530699E-21
   2.78399992      -7.43970555E-22
   2.79200006       2.65511572E-22
   2.79999995       1.46197408E-21
   2.80800009       2.63843191E-21
   2.81599998       3.28864333E-21
   2.82399988       3.30809580E-21
   2.83200002       3.00189095E-21
   2.83999991       2.47208197E-21
   2.84800005       1.54017617E-21
   2.85599995       2.58464255E-22
   2.86400008      -1.01739388E-21
   2.87199998      -2.10932652E-21
   2.88000011      -3.11735858E-21
   2.88800001      -3.98088829E-21
   2.89599991      -4.38623183E-21
   2.90400004      -4.24172766E-21
   2.91199994      -3.84952368E-21
   2.92000008      -3.42602700E-21
   2.92799997      -2.79423247E-21
   2.93600011      -1.76981916E-21
   2.94400001      -5.48439073E-22
   2.95199990       5.70819145E-22
   2.96000004       1.60814857E-21
   2.96799994       2.71209016E-21
   2.97600007       3.70176168E-21
   2.98399997       4.18971544E-21
   2.99200010       4.13013421E-21
   3.00000000       3.85832338E-21
   3.00799990       3.52279946E-21
   3.01600003       2.86447234E-21
   3.02399993       1.73054121E-21
   3.03200006       4.47660010E-22
   3.03999996      -5.89644269E-22
   3.04800010      -1.40483319E-21
   3.05599999      -2.17242893E-21
   3.06399989      -2.71056000E-21
   3.07200003      -2.66272024E-21
   3.07999992      -2.05182272E-21
   3.08800006      -1.21219451E-21
   3.09599996      -2.29173610E-22
   3.10400009       1.10100456E-21
   3.11199999       2.72174309E-21
   3.11999989       4.16933683E-21
   3.12800002       5.09989967E-21
   3.13599992       5.58574550E-21
   3.14400005       5.73213829E-21
   3.15199995       5.35365510E-21
   3.16000009       4.26952545E-21
   3.16799998       2.65881092E-21
   3.17600012       8.67738817E-22
   3.18400002      -9.59342809E-22
   3.19199991      -2.82369532E-21
   3.20000005      -4.58213308E-21
   3.20799994      -5.95853455E-21
   3.21600008      -6.79852395E-21
   3.22399998      -7.11818159E-21
   3.23200011      -6.92006860E-21
   3.24000001      -6.14543335E-21
   3.24799991      -4.84515712E-21
   3.25600004      -3.25576835E-21
   3.26399994      -1.62522936E-21
   3.27200007      -4.47923963E-23
   3.27999997       1.47552330E-21
   3.28800011       2.83984897E-21
   3.29600000       3.88340618E-21
   3.30399990       4.51644451E-21
   3.31200004       4.72879971E-21
   3.31999993       4.46225126E-21
   3.32800007       3.63519747E-21
   3.33599997       2.33843919E-21
   3.34400010       8.56291372E-22
   3.35200000      -5.91597767E-22
   3.35999990      -1.99169077E-21
   3.36800003      -3.32852995E-21
   3.37599993      -4.40077857E-21
   3.38400006      -4.99894204E-21
   3.39199996      -5.12417387E-21
   3.40000010      -4.84541723E-21
   3.40799999      -4.07482539E-21
   3.41599989      -2.72988323E-21
   3.42400002      -1.03077912E-21
   3.43199992       6.42801882E-22
   3.44000006       2.16630060E-21
   3.44799995       3.65692025E-21
   3.45600009       5.04023079E-21
   3.46399999       5.95003657E-21
   3.47199988       6.15507881E-21
   3.48000002       5.78939995E-21
   3.48799992       5.00896958E-21
   3.49600005       3.71656571E-21
   3.50399995       1.86915495E-21
   3.51200008      -1.88714512E-22
   3.51999998      -2.01475227E-21
   3.52800012      -3.53520313E-21
   3.53600001      -4.89794482E-21
   3.54399991      -5.98514731E-21
   3.55200005      -6.45349431E-21
   3.55999994      -6.22062924E-21
   3.56800008      -5.52357851E-21
   3.57599998      -4.46849227E-21
   3.58400011      -2.92070103E-21
   3.59200001      -9.39812986E-22
   3.59999990       1.06477259E-21
   3.60800004       2.77199553E-21
   3.61599994       4.18713010E-21
   3.62400007       5.26699379E-21
   3.63199997       5.69034830E-21
   3.64000010       5.26889736E-21
   3.64800000       4.25397663E-21
   3.65599990       2.94253852E-21
   3.66400003       1.30766855E-21
   3.67199993      -6.34092252E-22
   3.68000007      -2.41998272E-21
   3.68799996      -3.56235913E-21
   3.69600010      -4.13641803E-21
   3.70400000      -4.47174728E-21
   3.71199989      -4.45966915E-21
   3.72000003      -3.72223602E-21
   3.72799993      -2.35578454E-21
   3.73600006      -8.90888868E-22
   3.74399996       4.97979894E-22
   3.75200009       2.10717980E-21
   3.75999999       3.89887220E-21
   3.76799989       5.23154013E-21
   3.77600002       5.69705541E-21
   3.78399992       5.65688465E-21
   3.79200006       5.53975458E-21
   3.79999995       5.12476113E-21
   3.80800009       4.05459945E-21
   3.81599998       2.63019625E-21
   3.82399988       1.43073842E-21
   3.83200002       4.12352666E-22
   3.83999991      -8.98441435E-22
   3.84800005      -2.44234810E-21
   3.85599995      -3.60756366E-21
   3.86400008      -4.19486028E-21
   3.87199998      -4.66402961E-21
   3.88000011      -5.25073735E-21
   3.88800001      -5.53425108E-21
   3.89599991      -5.17663319E-21
   3.90400004      -4.46515124E-21
   3.91199994      -3.73183139E-21
   3.92000008      -2.77950760E-21
   3.92799997      -1.35291367E-21
   3.93600011       2.60660747E-22
   3.94400001       1.60251370E-21
   3.95199990       2.67334858E-21
   3.96000004       3.69878779E-21
   3.96799994       4.54831520E-21
   3.97600007       4.90380496E-21
   3.98399997       4.80218695E-21
   3.99200010       4.49995381E-21
   4.00000000       3.94224506E-21
   4.00799990       2.88499817E-21
   4.01599979       1.47378634E-21
   4.02400017       1.82284866E-22
   4.03200006      -8.37909979E-22
   4.03999996      -1.85539398E-21
   4.04799986      -2.93533239E-21
   4.05600023      -3.71144389E-21
   4.06400013      -3.95778822E-21
   4.07200003      -3.93379150E-21
   4.07999992      -3.88462070E-21
   4.08799982      -3.59410420E-21
   4.09600019      -2.80939920E-21
   4.10400009      -1.79821149E-21
   4.11199999      -1.02228770E-21
   4.11999989      -4.51897341E-22
   4.12799978       2.91881186E-22
   4.13600016       1.20369330E-21
   4.14400005       1.84796713E-21
   4.15199995       2.07645497E-21
   4.15999985       2.24457438E-21
   4.16800022       2.56863673E-21
   4.17600012       2.80585238E-21
   4.18400002       2.83504381E-21
   4.19199991       3.04835322E-21
   4.19999981       3.78003768E-21
   4.20800018       4.74938350E-21
   4.21600008       5.50451741E-21
   4.22399998       6.08329140E-21
   4.23199987       6.74940323E-21
   4.23999977       7.33025648E-21
   4.24800014       7.34906353E-21
   4.25600004       6.68011272E-21
   4.26399994       5.57038611E-21
   4.27199984       4.07849075E-21
   4.28000021       1.99434053E-21
   4.28800011      -6.52453147E-22
   4.29600000      -3.45632491E-21
   4.30399990      -6.11560153E-21
   4.31199980      -8.67095874E-21
   4.32000017      -1.11268717E-20
   4.32800007      -1.31812693E-20
   4.33599997      -1.45501199E-20
   4.34399986      -1.53094507E-20
   4.35200024      -1.56729853E-20
   4.36000013      -1.56113942E-20
   4.36800003      -1.49591187E-20
   4.37599993      -1.37854803E-20
   4.38399982      -1.23555774E-20
   4.39200020      -1.07304955E-20
   4.40000010      -8.69066325E-21
   4.40799999      -6.11586326E-21
   4.41599989      -3.16362293E-21
   4.42399979       5.25115611E-23
   4.43200016       3.67526242E-21
   4.44000006       7.76336793E-21
   4.44799995       1.19588676E-20
   4.45599985       1.57661271E-20
   4.46400023       1.89863461E-20
   4.47200012       2.15692805E-20
   4.48000002       2.31919213E-20
   4.48799992       2.33796138E-20
   4.49599981       2.20137528E-20
   4.50400019       1.93709107E-20
   4.51200008       1.56704876E-20
   4.51999998       1.09451529E-20
   4.52799988       5.40661243E-21
   4.53599977      -4.08838259E-22
   4.54400015      -5.97141967E-21
   4.55200005      -1.09621489E-20
   4.55999994      -1.50587342E-20
   4.56799984      -1.78270444E-20
   4.57600021      -1.90224577E-20
   4.58400011      -1.88144266E-20
   4.59200001      -1.75442278E-20
   4.59999990      -1.54074151E-20
   4.60799980      -1.25348018E-20
   4.61600018      -9.25338678E-21
   4.62400007      -6.05244540E-21
   4.63199997      -3.30805239E-21
   4.63999987      -1.18775492E-21
   4.64799976       2.07139967E-22
   4.65600014       8.14564291E-22
   4.66400003       7.97898096E-22
   4.67199993       5.65413391E-22
   4.67999983       4.33298652E-22
   4.68800020       3.87534521E-22
   4.69600010       3.61919766E-22
   4.70400000       6.16772148E-22
   4.71199989       1.54807811E-21
   4.71999979       3.17280957E-21
   4.72800016       5.12763244E-21
   4.73600006       7.16513863E-21
   4.74399996       9.26466681E-21
   4.75199986       1.11919855E-20
   4.76000023       1.24082044E-20
   4.76800013       1.26320278E-20
   4.77600002       1.21156773E-20
   4.78399992       1.11255170E-20
   4.79199982       9.53066193E-21
   4.80000019       7.21421694E-21
   4.80800009       4.53746613E-21
   4.81599998       2.00738559E-21
   4.82399988      -2.48706841E-22
   4.83199978      -2.29003458E-21
   4.84000015      -3.89538616E-21
   4.84800005      -4.74147843E-21
   4.85599995      -4.90169702E-21
   4.86399984      -4.73040399E-21
   4.87200022      -4.33039067E-21
   4.88000011      -3.55487775E-21
   4.88800001      -2.50110296E-21
   4.89599991      -1.56714113E-21
   4.90399981      -9.59456001E-22
   4.91200018      -5.23847161E-22
   4.92000008      -1.64350259E-22
   4.92799997      -6.51109320E-23
   4.93599987      -3.25410753E-22
   4.94399977      -6.95221424E-22
   4.95200014      -9.16725943E-22
   4.96000004      -1.08376705E-21
   4.96799994      -1.39423736E-21
   4.97599983      -1.74591271E-21
   4.98400021      -1.89841040E-21
   4.99200010      -1.90757886E-21
   5.00000000      -2.04708360E-21
   5.00799990      -2.34632749E-21
   5.01599979      -2.56180542E-21
   5.02400017      -2.62192707E-21
   5.03200006      -2.73889740E-21
   5.03999996      -2.99492737E-21
   5.04799986      -3.16789414E-21
   5.05600023      -3.11226382E-21
   5.06400013      -2.98763380E-21
   5.07200003      -2.91967614E-21
   5.07999992      -2.73523466E-21
   5.08799982      -2.26284021E-21
   5.09600019      -1.62398788E-21
   5.10400009      -9.67170632E-22
   5.11199999      -1.61551317E-22
   5.11999989       9.50971645E-22
   5.12799978       2.20649297E-21
   5.13600016       3.33021562E-21
   5.14400005       4.31847128E-21
   5.15199995       5.28327527E-21
   5.15999985       6.06811660E-21
   5.16800022       6.38839503E-21
   5.17600012       6.27501030E-21
   5.18400002       6.00446448E-21
   5.19199991       5.60409130E-21
   5.19999981       4.79832044E-21
   5.20800018       3.50179440E-21
   5.21600008       2.01250680E-21
   5.22399998       5.83235033E-22
   5.23199987      -8.82108354E-22
   5.23999977      -2.49724999E-21
   5.24800014      -4.01406881E-21
   5.25600004      -5.05474442E-21
   5.26399994      -5.57393717E-21
   5.27199984      -5.79331694E-21
   5.28000021      -5.74497898E-21
   5.28800011      -5.19590553E-21
   5.29600000      -4.05505222E-21
   5.30399990      -2.55412249E-21
   5.31199980      -9.03760755E-22
   5.32000017       9.71885925E-22
   5.32800007       3.17865315E-21
   5.33599997       5.53924203E-21
   5.34399986       7.75480532E-21
   5.35200024       9.72518670E-21
   5.36000013       1.14708302E-20
   5.36800003       1.28545022E-20
   5.37599993       1.36400338E-20
   5.38399982       1.37629202E-20
   5.39200020       1.32945462E-20
   5.40000010       1.21816045E-20
   5.40799999       1.02685902E-20
   5.41599989       7.56532199E-21
   5.42399979       4.25802247E-21
   5.43200016       4.65509622E-22
   5.44000006      -3.77440656E-21
   5.44799995      -8.27207997E-21
   5.45599985      -1.26941277E-20
   5.46400023      -1.68423941E-20
   5.47200012      -2.06929635E-20
   5.48000002      -2.41262945E-20
   5.48799992      -2.68852084E-20
   5.49599981      -2.88888758E-20
   5.50400019      -3.03283122E-20
   5.51200008      -3.13076197E-20
   5.51999998      -3.16161452E-20
   5.52799988      -3.10384855E-20
   5.53599977      -2.96910891E-20
   5.54400015      -2.78159417E-20
   5.55200005      -2.53745036E-20
   5.55999994      -2.21113229E-20
   5.56799984      -1.79542121E-20
   5.57600021      -1.30659971E-20
   5.58400011      -7.48793537E-21
   5.59200001      -1.03381865E-21
   5.59999990       6.32381759E-21
   5.60799980       1.41908230E-20
   5.61600018       2.20586613E-20
   5.62400007       2.96932540E-20
   5.63199997       3.69873843E-20
   5.63999987       4.35688986E-20
   5.64799976       4.88659693E-20
   5.65600014       5.25408226E-20
   5.66400003       5.45752184E-20
   5.67199993       5.49108922E-20
   5.67999983       5.33188344E-20
   5.68800020       4.97443027E-20
   5.69600010       4.45253197E-20
   5.70400000       3.81124307E-20
   5.71199989       3.07817978E-20
   5.71999979       2.27814136E-20
   5.72800016       1.45424539E-20
   5.73600006       6.51321408E-21
   5.74399996      -1.08776856E-21
   5.75199986      -8.15340459E-21
   5.76000023      -1.44421341E-20
   5.76800013      -1.96669138E-20
   5.77600002      -2.37556223E-20
   5.78399992      -2.68255141E-20
   5.79199982      -2.89542650E-20
   5.80000019      -3.01586659E-20
   5.80800009      -3.05428945E-20
   5.81599998      -3.02589163E-20
   5.82399988      -2.93335823E-20
   5.83199978      -2.77258340E-20
   5.84000015      -2.55558937E-20
   5.84800005      -2.30881215E-20
   5.85599995      -2.04659735E-20
   5.86399984      -1.76605937E-20
   5.87200022      -1.47317361E-20
   5.88000011      -1.19332476E-20
   5.88800001      -9.45602099E-21
   5.89599991      -7.25814314E-21
   5.90399981      -5.30357351E-21
   5.91200018      -3.79901074E-21
   5.92000008      -2.97911884E-21
   5.92799997      -2.76661643E-21
   5.93599987      -2.88437476E-21
   5.94399977      -3.23687790E-21
   5.95200014      -3.90350812E-21
   5.96000004      -4.75588382E-21
   5.96799994      -5.38374137E-21
   5.97599983      -5.49740519E-21
   5.98400021      -5.14984636E-21
   5.99200010      -4.43563608E-21
   6.00000000      -3.22733543E-21
   6.00799990      -1.41106148E-21
   6.01599979       8.23476223E-22
   6.02400017       3.17058268E-21
   6.03200006       5.53699596E-21
   6.03999996       7.92970717E-21
   6.04799986       1.01328930E-20
   6.05600023       1.17931455E-20
   6.06400013       1.28009722E-20
   6.07200003       1.33208568E-20
   6.07999992       1.34356960E-20
   6.08799982       1.30319640E-20
   6.09600019       1.21086067E-20
   6.10400009       1.09562245E-20
   6.11199999       9.89552532E-21
   6.11999989       9.00975544E-21
   6.12799978       8.25919485E-21
   6.13600016       7.68954125E-21
   6.14400005       7.34912008E-21
   6.15199995       7.11585595E-21
   6.15999985       6.80260169E-21
   6.16800022       6.37545257E-21
   6.17600012       5.88369127E-21
   6.18400002       5.21546464E-21
   6.19199991       4.13751623E-21
   6.19999981       2.60348272E-21
   6.20800018       8.33383154E-22
   6.21600008      -9.62130202E-22
   6.22399998      -2.74868725E-21
   6.23199987      -4.48165204E-21
   6.23999977      -5.95315707E-21
   6.24800014      -6.97679106E-21
   6.25600004      -7.58113616E-21
   6.26399994      -7.85820613E-21
   6.27199984      -7.74448899E-21
   6.28000021      -7.14422647E-21
   6.28800011      -6.18262376E-21
   6.29600000      -5.12803229E-21
   6.30399990      -4.09895862E-21
   6.31199980      -3.04027346E-21
   6.32000017      -1.96681901E-21
   6.32800007      -1.02338196E-21
   6.33599997      -2.80526486E-22
   6.34399986       3.37417923E-22
   6.35200024       8.67202644E-22
   6.36000013       1.21891243E-21
   6.36800003       1.34657047E-21
   6.37599993       1.35130555E-21
   6.38399982       1.31162704E-21
   6.39200020       1.13397011E-21
   6.40000010       6.90218405E-22
   6.40799999       1.06573602E-23
   6.41599989      -7.76685891E-22
   6.42399979      -1.61028114E-21
   6.43200016      -2.45165893E-21
   6.44000006      -3.13558321E-21
   6.44799995      -3.43548142E-21
   6.45599985      -3.27910409E-21
   6.46400023      -2.75449831E-21
   6.47200012      -1.90040121E-21
   6.48000002      -6.60205290E-22
   6.48799992       9.15149736E-22
   6.49599981       2.59222288E-21
   6.50400019       4.16393915E-21
   6.51200008       5.57231997E-21
   6.51999998       6.72024633E-21
   6.52799988       7.33977391E-21
   6.53599977       7.22655437E-21
   6.54400015       6.48718455E-21
   6.55200005       5.37020679E-21
   6.55999994       3.95505747E-21
   6.56799984       2.21896309E-21
   6.57600021       3.27492336E-22
   6.58400011      -1.40856257E-21
   6.59200001      -2.86758921E-21
   6.59999990      -4.16332442E-21
   6.60799980      -5.31735649E-21