 -0.239999995         0.00000000    
 -0.231999993         0.00000000    
 -0.224000007         0.00000000    
 -0.216000006         0.00000000    
 -0.208000004         0.00000000    
 -0.200000003         0.00000000    
 -0.192000002         0.00000000    
 -0.184000000         0.00000000    
 -0.175999999         0.00000000    
 -0.167999998         0.00000000    
 -0.159999996         9.96996056E-38
 -0.151999995         6.39706964E-37
 -0.143999994        -4.11388046E-37
 -0.136000007        -1.43201227E-35
 -0.128000006        -5.02614637E-35
 -0.119999997        -3.05230912E-35
 -0.112000003         2.95550848E-34
 -0.104000002         1.04375863E-33
  -9.60000008E-02     1.22778062E-33
  -8.79999995E-02    -1.68572337E-33
  -7.99999982E-02    -9.10170876E-33
  -7.19999969E-02    -1.54336134E-32
  -6.40000030E-02    -5.83970202E-33
  -5.60000017E-02     3.31375149E-32
  -4.80000004E-02     9.11442643E-32
  -3.99999991E-02     1.16702538E-31
  -3.20000015E-02     2.66926937E-32
  -2.40000002E-02    -2.40406063E-31
  -1.60000008E-02    -6.17414067E-31
  -8.00000038E-03    -7.84720673E-31
   0.00000000        -1.98881560E-31
   8.00000038E-03     1.47265321E-30
   1.60000008E-02     3.54780859E-30
   2.40000002E-02     3.91845870E-30
   3.20000015E-02     1.87843327E-31
   3.99999991E-02    -7.53935219E-30
   4.80000004E-02    -1.44276498E-29
   5.60000017E-02    -1.26229737E-29
   6.40000030E-02     2.30839612E-30
   7.19999969E-02     2.47622666E-29
   7.99999982E-02     3.94713083E-29
   8.79999995E-02     3.13161084E-29
   9.60000008E-02    -2.21279947E-30
  0.104000002        -4.68511468E-29
  0.112000003        -7.96566069E-29
  0.119999997        -8.15478401E-29
  0.128000006        -4.36101468E-29
  0.136000007         3.30563305E-29
  0.143999994         1.33816634E-28
  0.151999995         2.19850561E-28
  0.159999996         2.26854373E-28
  0.167999998         9.57667882E-29
  0.175999999        -1.69246811E-28
  0.184000000        -4.61753019E-28
  0.192000002        -6.05732171E-28
  0.200000003        -4.60164849E-28
  0.208000004        -2.41481041E-29
  0.216000006         5.44329576E-28
  0.224000007         1.01336357E-27
  0.231999993         1.19067191E-27
  0.239999995         9.72787889E-28
  0.247999996         3.20977218E-28
  0.256000012        -7.46732391E-28
  0.263999999        -2.06474751E-27
  0.272000015        -3.17923714E-27
  0.280000001        -3.34273530E-27
  0.287999988        -1.81350475E-27
  0.296000004         1.57971110E-27
  0.303999990         5.92017961E-27
  0.312000006         9.17267508E-27
  0.319999993         8.91759721E-27
  0.328000009         3.70074180E-27
  0.335999995        -5.63962940E-27
  0.344000012        -1.55523327E-26
  0.351999998        -2.08803716E-26
  0.360000014        -1.73246427E-26
  0.368000001        -4.13727808E-27
  0.375999987         1.45615126E-26
  0.384000003         3.09510901E-26
  0.391999990         3.69098434E-26
  0.400000006         2.79837837E-26
  0.407999992         5.79731530E-27
  0.416000009        -2.23515233E-26
  0.423999995        -4.63569181E-26
  0.432000011        -5.70548457E-26
  0.439999998        -4.92038277E-26
  0.448000014        -2.29200377E-26
  0.456000000         1.62624323E-26
  0.463999987         5.82422724E-26
  0.472000003         9.00018802E-26
  0.479999989         9.83425066E-26
  0.488000005         7.38573118E-26
  0.495999992         1.55588854E-26
  0.504000008        -6.54043960E-26
  0.512000024        -1.45199895E-25
  0.519999981        -1.92021600E-25
  0.527999997        -1.76626203E-25
  0.536000013        -8.63232000E-26
  0.544000030         6.32762650E-26
  0.551999986         2.25987399E-25
  0.560000002         3.37096190E-25
  0.568000019         3.38058773E-25
  0.575999975         2.04511943E-25
  0.583999991        -3.58591392E-26
  0.592000008        -3.06173286E-25
  0.600000024        -5.05373780E-25
  0.607999980        -5.46285733E-25
  0.615999997        -3.91324978E-25
  0.624000013        -7.15092365E-26
  0.632000029         3.18634823E-25
  0.639999986         6.48841201E-25
  0.648000002         7.94996813E-25
  0.656000018         6.82591678E-25
  0.663999975         3.18127438E-25
  0.671999991        -2.03162547E-25
  0.680000007        -7.19368373E-25
  0.688000023        -1.05060643E-24
  0.695999980        -1.06068906E-24
  0.703999996        -7.10629027E-25
  0.712000012        -8.29255576E-26
  0.720000029         6.35556241E-25
  0.727999985         1.20957206E-24
  0.736000001         1.43311158E-24
  0.744000018         1.20253227E-24
  0.751999974         5.59346952E-25
  0.759999990        -3.13925915E-25
  0.768000007        -1.14614508E-24
  0.776000023        -1.66295547E-24
  0.783999979        -1.67790340E-24
  0.791999996        -1.15868481E-24
  0.800000012        -2.45336136E-25
  0.808000028         7.87333720E-25
  0.815999985         1.61277041E-24
  0.824000001         1.95643105E-24
  0.832000017         1.68872598E-24
  0.839999974         8.76974598E-25
  0.847999990        -2.24530127E-25
  0.856000006        -1.25075277E-24
  0.864000022        -1.85060122E-24
  0.871999979        -1.81940375E-24
  0.879999995        -1.18594657E-24
  0.888000011        -2.09877307E-25
  0.896000028         7.20743900E-25
  0.903999984         1.25433351E-24
  0.912000000         1.22988060E-24
  0.920000017         7.44938658E-25
  0.927999973         1.01266074E-25
  0.935999990        -3.47622109E-25
  0.944000006        -3.71838413E-25
  0.952000022         2.18567688E-26
  0.959999979         5.92692695E-25
  0.967999995         9.80371188E-25
  0.976000011         8.76513410E-25
  0.984000027         1.76683186E-25
  0.991999984        -9.48849194E-25
   1.00000000        -2.08845797E-24
   1.00800002        -2.72036238E-24
   1.01600003        -2.39300127E-24
   1.02400005        -9.04104905E-25
   1.03199995         1.57066969E-24
   1.03999996         4.44293680E-24
   1.04799998         6.81647766E-24
   1.05599999         7.70677740E-24
   1.06400001         6.37459683E-24
   1.07200003         2.65434852E-24
   1.08000004        -2.81605909E-24
   1.08800006        -8.64615691E-24
   1.09599996        -1.29635642E-23
   1.10399997        -1.40878378E-23
   1.11199999        -1.11076136E-23
   1.12000000        -4.37696515E-24
   1.12800002         4.40077534E-24
   1.13600004         1.26102682E-23
   1.14400005         1.75014645E-23
   1.15199995         1.70248789E-23
   1.15999997         1.06711976E-23
   1.16799998        -4.34340306E-25
   1.17600000        -1.35784655E-23
   1.18400002        -2.52114439E-23
   1.19200003        -3.18787653E-23
   1.20000005        -3.11362926E-23
   1.20799994        -2.22800036E-23
   1.21599996        -6.69247741E-24
   1.22399998         1.24162439E-23
   1.23199999         3.06602813E-23
   1.24000001         4.35792418E-23
   1.24800003         4.77246553E-23
   1.25600004         4.15617868E-23
   1.26400006         2.59828568E-23
   1.27199996         4.23393520E-24
   1.27999997        -1.86558078E-23
   1.28799999        -3.68972965E-23
   1.29600000        -4.53846131E-23
   1.30400002        -4.09666323E-23
   1.31200004        -2.36225424E-23
   1.32000005         3.11417338E-24
   1.32799995         3.26618076E-23
   1.33599997         5.68170693E-23
   1.34399998         6.78629774E-23
   1.35200000         6.07998324E-23
   1.36000001         3.50401065E-23
   1.36800003        -4.97120894E-24
   1.37600005        -5.07528084E-23
   1.38399994        -9.16480172E-23
   1.39199996        -1.17579655E-22
   1.39999998        -1.21404406E-22
   1.40799999        -1.00556320E-22
   1.41600001        -5.76207987E-23
   1.42400002         1.00065286E-25
   1.43200004         6.18606862E-23
   1.44000006         1.15364672E-22
   1.44799995         1.49086936E-22
   1.45599997         1.54735003E-22
   1.46399999         1.29365148E-22
   1.47200000         7.66003250E-23
   1.48000002         6.35928820E-24
   1.48800004        -6.69996354E-23
   1.49600005        -1.27812897E-22
   1.50399995        -1.62709251E-22
   1.51199996        -1.63743833E-22
   1.51999998        -1.30219428E-22
   1.52800000        -6.87809590E-23
   1.53600001         8.16073451E-24
   1.54400003         8.51490024E-23
   1.55200005         1.46956772E-22
   1.55999994         1.81661098E-22
   1.56799996         1.82856860E-22
   1.57599998         1.50725735E-22
   1.58399999         9.18393570E-23
   1.59200001         1.78538739E-23
   1.60000002        -5.66126975E-23
   1.60800004        -1.16686854E-22
   1.61600006        -1.50113856E-22
   1.62399995        -1.49949066E-22
   1.63199997        -1.16649985E-22
   1.63999999        -5.89277203E-23
   1.64800000         7.13541570E-24
   1.65600002         6.10973465E-23
   1.66400003         8.31231508E-23
   1.67200005         5.98188239E-23
   1.67999995        -1.05973981E-23
   1.68799996        -1.15724784E-22
   1.69599998        -2.30273042E-22
   1.70400000        -3.21310721E-22
   1.71200001        -3.56268215E-22
   1.72000003        -3.11453670E-22
   1.72800004        -1.78667428E-22
   1.73599994         3.14616441E-23
   1.74399996         2.90195522E-22
   1.75199997         5.54837101E-22
   1.75999999         7.75609708E-22
   1.76800001         9.04158089E-22
   1.77600002         9.02808569E-22
   1.78400004         7.52815440E-22
   1.79200006         4.60404417E-22
   1.79999995         5.85147232E-23
   1.80799997        -3.96828514E-22
   1.81599998        -8.34125820E-22
   1.82400000        -1.17913263E-21
   1.83200002        -1.36801789E-21
   1.84000003        -1.36023935E-21
   1.84800005        -1.14651807E-21
   1.85599995        -7.53640954E-22
   1.86399996        -2.39864329E-22
   1.87199998         3.14049338E-22
   1.88000000         8.18158316E-22
   1.88800001         1.19036319E-21
   1.89600003         1.37083316E-21
   1.90400004         1.33257494E-21
   1.91199994         1.08473610E-21
   1.91999996         6.74920562E-22
   1.92799997         1.76196337E-22
   1.93599999        -3.20826120E-22
   1.94400001        -7.25582800E-22
   1.95200002        -9.64715242E-22
   1.96000004        -9.93454417E-22
   1.96800005        -8.08830673E-22
   1.97599995        -4.47101824E-22
   1.98399997         1.83166655E-23
   1.99199998         4.89960271E-22
   2.00000000         8.64286610E-22
   2.00799990         1.05247969E-21
   2.01600003         9.97252965E-22
   2.02399993         6.87247139E-22
   2.03200006         1.61574087E-22
   2.03999996        -4.95485377E-22
   2.04800010        -1.17085548E-21
   2.05599999        -1.73755286E-21
   2.06399989        -2.08062440E-21
   2.07200003        -2.11169901E-21
   2.07999992        -1.78791697E-21
   2.08800006        -1.12204455E-21
   2.09599996        -1.83572476E-22
   2.10400009         9.07557284E-22
   2.11199999         1.99607931E-21
   2.11999989         2.91555256E-21
   2.12800002         3.51528011E-21
   2.13599992         3.68500118E-21
   2.14400005         3.37352850E-21
   2.15199995         2.59877147E-21
   2.16000009         1.44524558E-21
   2.16799998         5.30860097E-23
   2.17600012        -1.40512258E-21
   2.18400002        -2.74515315E-21
   2.19199991        -3.79888795E-21
   2.20000005        -4.43449265E-21
   2.20799994        -4.57706256E-21
   2.21600008        -4.21444927E-21
   2.22399998        -3.39411310E-21
   2.23200011        -2.21809168E-21
   2.24000001        -8.25396399E-22
   2.24799991         6.25778895E-22
   2.25600004         1.97747704E-21
   2.26399994         3.09053175E-21
   2.27200007         3.85586527E-21
   2.27999997         4.20656279E-21
   2.28800011         4.12091163E-21
   2.29600000         3.62577739E-21
   2.30399990         2.78829498E-21
   2.31200004         1.71207242E-21
   2.31999993         5.21576453E-22
   2.32800007        -6.49337740E-22
   2.33599997        -1.67180633E-21
   2.34400010        -2.43544227E-21
   2.35200000        -2.85832362E-21
   2.35999990        -2.89684325E-21
   2.36800003        -2.55402192E-21
   2.37599993        -1.88314351E-21
   2.38400006        -9.85052657E-22
   2.39199996         4.61315878E-24
   2.40000010         9.32581517E-22
   2.40799999         1.65230135E-21
   2.41599989         2.04520023E-21
   2.42400002         2.03698012E-21
   2.43199992         1.60781919E-21
   2.44000006         7.97014723E-22
   2.44799995        -2.98058332E-22
   2.45600009        -1.52985752E-21
   2.46399999        -2.71411207E-21
   2.47199988        -3.65311716E-21
   2.48000002        -4.16327798E-21
   2.48799992        -4.10518954E-21
   2.49600005        -3.40953307E-21
   2.50399995        -2.09491184E-21
   2.51200008        -2.73739303E-22
   2.51999998         1.85421804E-21
   2.52800012         4.02236243E-21
   2.53600001         5.93007881E-21
   2.54399991         7.28512748E-21
   2.55200005         7.84822422E-21
   2.55999994         7.47429012E-21
   2.56800008         6.14006556E-21
   2.57599998         3.95417092E-21
   2.58400011         1.14781064E-21
   2.59200001        -1.95289547E-21
   2.59999990        -4.96751927E-21
   2.60800004        -7.51173296E-21
   2.61599994        -9.24795841E-21
   2.62400007        -9.93207071E-21
   2.63199997        -9.44839138E-21
   2.64000010        -7.82821114E-21
   2.64800000        -5.24975951E-21
   2.65599990        -2.01742727E-21
   2.66400003         1.47626324E-21
   2.67199993         4.80137633E-21
   2.68000007         7.54789465E-21
   2.68799996         9.37913439E-21
   2.69600010         1.00754072E-20
   2.70400000         9.55956478E-21
   2.71199989         7.90382304E-21
   2.72000003         5.31805886E-21
   2.72799993         2.12190649E-21
   2.73600006        -1.29505202E-21
   2.74399996        -4.52134944E-21
   2.75200009        -7.17541619E-21
   2.75999999        -8.95303702E-21
   2.76799989        -9.66428956E-21
   2.77600002        -9.25380441E-21
   2.78399992        -7.80174297E-21
   2.79200006        -5.50513537E-21
   2.79999995        -2.64767428E-21
   2.80800009         4.39057261E-22
   2.81599998         3.41516904E-21
   2.82399988         5.96986467E-21
   2.83200002         7.85148124E-21
   2.83999991         8.88995884E-21
   2.84800005         9.00812450E-21
   2.85599995         8.22384015E-21
   2.86400008         6.64184350E-21
   2.87199998         4.43783004E-21
   2.88000011         1.83837660E-21
   2.88800001        -9.02042074E-22
   2.89599991        -3.52318720E-21
   2.90400004        -5.77939946E-21
   2.91199994        -7.45760029E-21
   2.92000008        -8.39417150E-21
   2.92799997        -8.48977468E-21
   2.93600011        -7.72208806E-21
   2.94400001        -6.15350523E-21
   2.95199990        -3.93071138E-21
   2.96000004        -1.27357117E-21
   2.96799994         1.54617939E-21
   2.97600007         4.23142384E-21
   2.98399997         6.48965761E-21
   2.99200010         8.06194216E-21
   3.00000000         8.75089557E-21
   3.00799990         8.44545670E-21
   3.01600003         7.14000494E-21
   3.02399993         4.94371521E-21
   3.03200006         2.07511929E-21
   3.03999996        -1.15830913E-21
   3.04800010        -4.39285897E-21
   3.05599999        -7.24826948E-21
   3.06399989        -9.36885361E-21
   3.07200003        -1.04646425E-20
   3.07999992        -1.03492670E-20
   3.08800006        -8.97117360E-21
   3.09599996        -6.43265364E-21
   3.10400009        -2.98855347E-21
   3.11199999         9.79658515E-22
   3.11999989         5.00975880E-21
   3.12800002         8.61814923E-21
   3.13599992         1.13607651E-20
   3.14400005         1.28869893E-20
   3.15199995         1.29817103E-20
   3.16000009         1.15930235E-20
   3.16799998         8.84428135E-21
   3.17600012         5.02636178E-21
   3.18400002         5.68507947E-22
   3.19199991        -4.01342257E-21
   3.20000005        -8.18238419E-21
   3.20799994        -1.14500214E-20
   3.21600008        -1.34377453E-20
   3.22399998        -1.39208019E-20
   3.23200011        -1.28512307E-20
   3.24000001        -1.03604242E-20
   3.24799991        -6.74272843E-21
   3.25600004        -2.42256099E-21
   3.26399994         2.09445564E-21
   3.27200007         6.28219078E-21
   3.27999997         9.65965283E-21
   3.28800011         1.18516241E-20
   3.29600000         1.26332524E-20
   3.30399990         1.19526387E-20
   3.31200004         9.92974668E-21
   3.31999993         6.83489081E-21
   3.32800007         3.05227707E-21
   3.33599997        -9.66740078E-22
   3.34400010        -4.75626267E-21
   3.35200000        -7.89010347E-21
   3.35999990        -1.00308493E-20
   3.36800003        -1.09673906E-20
   3.37599993        -1.06342881E-20
   3.38400006        -9.11201241E-21
   3.39199996        -6.60996352E-21
   3.40000010        -3.43729047E-21
   3.40799999         3.47120318E-23
   3.41599989         3.41505151E-21
   3.42400002         6.33763369E-21
   3.43199992         8.50277046E-21
   3.44000006         9.70947592E-21
   3.44799995         9.87205649E-21
   3.45600009         9.01966141E-21
   3.46399999         7.28172425E-21
   3.47199988         4.86551312E-21
   3.48000002         2.03080878E-21
   3.48799992        -9.35356288E-22
   3.49600005        -3.74546412E-21
   3.50399995        -6.13874441E-21
   3.51200008        -7.90670767E-21
   3.51999998        -8.91204554E-21
   3.52800012        -9.09753109E-21
   3.53600001        -8.48436892E-21
   3.54399991        -7.16277341E-21
   3.55200005        -5.27828473E-21
   3.55999994        -3.01563778E-21
   3.56800008        -5.80732085E-22
   3.57599998         1.81828011E-21
   3.58400011         3.98859989E-21
   3.59200001         5.76594284E-21
   3.59999990         7.02234416E-21
   3.60800004         7.67061626E-21
   3.61599994         7.66878580E-21
   3.62400007         7.02590733E-21
   3.63199997         5.80681355E-21
   3.64000010         4.13062050E-21
   3.64800000         2.15968093E-21
   3.65599990         8.09442602E-23
   3.66400003        -1.91506266E-21
   3.67199993        -3.65122854E-21
   3.68000007        -4.97545342E-21
   3.68799996        -5.76934607E-21
   3.69600010        -5.95823244E-21
   3.70400000        -5.52328771E-21
   3.71199989        -4.51125767E-21
   3.72000003        -3.03650470E-21
   3.72799993        -1.27005879E-21
   3.73600006         5.82251343E-22
   3.74399996         2.30740578E-21
   3.75200009         3.71283047E-21
   3.75999999         4.64896224E-21
   3.76799989         5.02506770E-21
   3.77600002         4.81876408E-21
   3.78399992         4.07795276E-21
   3.79200006         2.91513130E-21
   3.79999995         1.49330728E-21
   3.80800009         4.27307059E-24
   3.81599998        -1.35736986E-21
   3.82399988        -2.42108677E-21
   3.83200002        -3.06377076E-21
   3.83999991        -3.22601651E-21
   3.84800005        -2.91856159E-21
   3.85599995        -2.21792285E-21
   3.86400008        -1.25225663E-21
   3.87199998        -1.79923231E-22
   3.88000011         8.35044584E-22
   3.88800001         1.64679220E-21
   3.89599991         2.14741964E-21
   3.90400004         2.27983760E-21
   3.91199994         2.04230711E-21
   3.92000008         1.48371796E-21
   3.92799997         6.91338260E-22
   3.93600011        -2.25633202E-22
   3.94400001        -1.15303858E-21
   3.95199990        -1.98486835E-21
   3.96000004        -2.63391170E-21
   3.96799994        -3.03884407E-21
   3.97600007        -3.16992998E-21
   3.98399997        -3.03218078E-21
   3.99200010        -2.66271842E-21
   4.00000000        -2.12190629E-21
   4.00799990        -1.47897430E-21
   4.01599979        -7.97952470E-22
   4.02400017        -1.28897083E-22
   4.03200006         4.93212802E-22
   4.03999996         1.04337000E-21
   4.04799986         1.50036194E-21
   4.05600023         1.84445848E-21
   4.06400013         2.05865100E-21
   4.07200003         2.13367705E-21
   4.07999992         2.07132548E-21
   4.08799982         1.88591767E-21
   4.09600019         1.60268849E-21
   4.10400009         1.25507866E-21
   4.11199999         8.82410771E-22
   4.11999989         5.27617891E-22
   4.12799978         2.34571135E-22
   4.13600016         4.35460844E-23
   4.14400005        -1.48131985E-23
   4.15199995         7.23043274E-23
   4.15999985         2.93242747E-22
   4.16800022         6.07349590E-22
   4.17600012         9.46440629E-22
   4.18400002         1.22218349E-21
   4.19199991         1.33905819E-21
   4.19999981         1.21000035E-21
   4.20800018         7.72040220E-22
   4.21600008        -1.06023931E-24
   4.22399998        -1.08991698E-21
   4.23199987        -2.42547672E-21
   4.23999977        -3.89060079E-21
   4.24800014        -5.32840185E-21
   4.25600004        -6.55810560E-21
   4.26399994        -7.39798351E-21
   4.27199984        -7.69218112E-21
   4.28000021        -7.33671479E-21
   4.28800011        -6.29900218E-21
   4.29600000        -4.62742566E-21
   4.30399990        -2.44856710E-21
   4.31199980         4.68421598E-23
   4.32000017         2.62655290E-21
   4.32800007         5.04476938E-21
   4.33599997         7.07175608E-21
   4.34399986         8.52123582E-21
   4.35200024         9.27352104E-21
   4.36000013         9.29162692E-21
   4.36800003         8.62752045E-21
   4.37599993         7.41673563E-21
   4.38399982         5.85960125E-21
   4.39200020         4.19140979E-21
   4.40000010         2.64602799E-21
   4.40799999         1.41994983E-21
   4.41599989         6.44195528E-22
   4.42399979         3.67863107E-22
   4.43200016         5.54846391E-22
   4.44000006         1.09272417E-21
   4.44799995         1.81166388E-21
   4.45599985         2.51126177E-21
   4.46400023         2.99220651E-21
   4.47200012         3.08794358E-21
   4.48000002         2.68982313E-21
   4.48799992         1.76253912E-21
   4.49599981         3.47153299E-22
   4.50400019        -1.44648747E-21
   4.51200008        -3.45448718E-21
   4.51999998        -5.47894226E-21
   4.52799988        -7.31154637E-21
   4.53599977        -8.75961327E-21
   4.54400015        -9.67133998E-21
   4.55200005        -9.95573663E-21
   4.55999994        -9.59231112E-21
   4.56799984        -8.62845264E-21
   4.57600021        -7.16663063E-21
   4.58400011        -5.34524071E-21
   4.59200001        -3.31895982E-21
   4.59999990        -1.24196282E-21
   4.60799980         7.44469670E-22
   4.61600018         2.51882494E-21
   4.62400007         3.98203091E-21
   4.63199997         5.05675663E-21
   4.63999987         5.68645433E-21
   4.64799976         5.83512106E-21
   4.65600014         5.48982728E-21
   4.66400003         4.66397953E-21
   4.67199993         3.40079153E-21
   4.67999983         1.77593698E-21
   4.68800020        -9.96831650E-23
   4.69600010        -2.07813963E-21
   4.70400000        -3.97588643E-21
   4.71199989        -5.58356122E-21
   4.71999979        -6.68650842E-21
   4.72800016        -7.09436057E-21
   4.73600006        -6.67215514E-21
   4.74399996        -5.36293018E-21
   4.75199986        -3.19778553E-21
   4.76000023        -2.93950879E-22
   4.76800013         3.15238956E-21
   4.77600002         6.87558503E-21
   4.78399992         1.05541937E-20
   4.79199982         1.38357283E-20
   4.80000019         1.63748302E-20
   4.80800009         1.78814153E-20
   4.81599998         1.81642917E-20
   4.82399988         1.71581347E-20
   4.83199978         1.49267714E-20
   4.84000015         1.16462830E-20
   4.84800005         7.57839613E-21
   4.85599995         3.04114467E-21
   4.86399984        -1.62038805E-21
   4.87200022        -6.06556276E-21
   4.88000011        -9.99192902E-21
   4.88800001        -1.31671531E-20
   4.89599991        -1.54507047E-20
   4.90399981        -1.67995826E-20
   4.91200018        -1.72579296E-20
   4.92000008        -1.69369156E-20
   4.92799997        -1.59918117E-20
   4.93599987        -1.46008106E-20
   4.94399977        -1.29443911E-20
   4.95200014        -1.11843478E-20
   4.96000004        -9.44347273E-21
   4.96799994        -7.79122388E-21
   4.97599983        -6.24098402E-21
   4.98400021        -4.76036142E-21
   4.99200010        -3.29039018E-21
   5.00000000        -1.76548757E-21
   5.00799990        -1.28186729E-22
   5.01599979         1.66259759E-21
   5.02400017         3.62583878E-21
   5.03200006         5.75077934E-21
   5.03999996         7.98700881E-21
   5.04799986         1.02368399E-20
   5.05600023         1.23567382E-20
   5.06400013         1.41711613E-20
   5.07200003         1.54967780E-20
   5.07999992         1.61697105E-20
   5.08799982         1.60685957E-20
   5.09600019         1.51296375E-20
   5.10400009         1.33544287E-20
   5.11199999         1.08135900E-20
   5.11999989         7.64679039E-21
   5.12799978         4.05734635E-21
   5.13600016         2.98162639E-22
   5.14400005        -3.35149613E-21
   5.15199995        -6.61496094E-21
   5.15999985        -9.24731056E-21
   5.16800022        -1.10602029E-20
   5.17600012        -1.19406429E-20
   5.18400002        -1.18641837E-20
   5.19199991        -1.09013333E-20
   5.19999981        -9.21431381E-21
   5.20800018        -7.04068349E-21
   5.21600008        -4.66408010E-21
   5.22399998        -2.37715189E-21
   5.23199987        -4.44862570E-22
   5.23999977         9.25086203E-22
   5.24800014         1.60305422E-21
   5.25600004         1.55016656E-21
   5.26399994         8.23858006E-22
   5.27199984        -4.26578668E-22
   5.28000021        -1.97815215E-21
   5.28800011        -3.56664851E-21
   5.29600000        -4.92734123E-21
   5.30399990        -5.83334150E-21
   5.31199980        -6.12241204E-21
   5.32000017        -5.70994497E-21
   5.32800007        -4.59205682E-21
   5.33599997        -2.84439988E-21
   5.34399986        -6.17569643E-22
   5.35200024         1.87426404E-21
   5.36000013         4.37587632E-21
   5.36800003         6.62316973E-21
   5.37599993         8.37762224E-21
   5.38399982         9.45360973E-21
   5.39200020         9.73388986E-21
   5.40000010         9.17534019E-21
   5.40799999         7.81066667E-21
   5.41599989         5.74926028E-21
   5.42399979         3.17458691E-21
   5.43200016         3.32860503E-22
   5.44000006        -2.49051784E-21
   5.44799995        -5.00297818E-21
   5.45599985        -6.93777948E-21
   5.46400023        -8.08098428E-21
   5.47200012        -8.28985870E-21
   5.48000002        -7.50543298E-21
   5.48799992        -5.76178472E-21
   5.49599981        -3.19161076E-21
   5.50400019        -2.35336519E-23
   5.51200008         3.43352817E-21
   5.51999998         6.81988766E-21
   5.52799988         9.76459248E-21
   5.53599977         1.19275236E-20
   5.54400015         1.30375014E-20
   5.55200005         1.29221259E-20
   5.55999994         1.15278863E-20
   5.56799984         8.92959404E-21
   5.57600021         5.32774673E-21
   5.58400011         1.03214753E-21
   5.59200001        -3.56813687E-21
   5.59999990        -8.04659247E-21
   5.60799980        -1.19866282E-20
   5.61600018        -1.50276858E-20
   5.62400007        -1.69021821E-20
   5.63199997        -1.74588181E-20
   5.63999987        -1.66708995E-20
   5.64799976        -1.46320996E-20
   5.65600014        -1.15427295E-20
   5.66400003        -7.68926337E-21
   5.67199993        -3.41758596E-21
   5.67999983         9.00049853E-22
   5.68800020         4.90260619E-21
   5.69600010         8.27765617E-21
   5.70400000         1.07919500E-20
   5.71199989         1.23093409E-20
   5.71999979         1.27945534E-20
   5.72800016         1.23055265E-20
   5.73600006         1.09794389E-20
   5.74399996         9.01614185E-21
   5.75199986         6.65917632E-21
   5.76000023         4.17359956E-21
   5.76800013         1.81985208E-21
   5.77600002        -1.73913108E-22
   5.78399992        -1.63656573E-21
   5.79199982        -2.47115725E-21
   5.80000019        -2.66203988E-21
   5.80800009        -2.27202260E-21
   5.81599998        -1.43145110E-21
   5.82399988        -3.21007697E-22
   5.83199978         8.49859922E-22
   5.84000015         1.86758621E-21
   5.84800005         2.54074604E-21
   5.85599995         2.72560697E-21
   5.86399984         2.34819047E-21
   5.87200022         1.41947697E-21
   5.88000011         4.01494260E-23
   5.88800001        -1.60769045E-21
   5.89599991        -3.28220723E-21
   5.90399981        -4.71418834E-21
   5.91200018        -5.64444664E-21
   5.92000008        -5.86030363E-21
   5.92799997        -5.22628625E-21
   5.93599987        -3.70635641E-21
   5.94399977        -1.37632029E-21
   5.95200014         1.57532711E-21
   5.96000004         4.86019460E-21
   5.96799994         8.11797961E-21
   5.97599983         1.09577545E-20
   5.98400021         1.30066994E-20
   5.99200010         1.39581623E-20
   6.00000000         1.36112651E-20
   6.00799990         1.18969195E-20
   6.01599979         8.88830852E-21
   6.02400017         4.79550165E-21
   6.03200006        -5.52774968E-23
   6.03999996        -5.25653004E-21
   6.04799986        -1.03649325E-20
   6.05600023        -1.49510585E-20
   6.06400013        -1.86455105E-20
   6.07200003        -2.11744084E-20
   6.07999992        -2.23801599E-20
   6.08799982        -2.22274756E-20
   6.09600019        -2.07968409E-20
   6.10400009        -1.82681610E-20
   6.11199999        -1.48977151E-20
   6.11999989        -1.09899079E-20
   6.12799978        -6.86682531E-21
   6.13600016        -2.83815806E-21
   6.14400005         8.24858862E-22
   6.15199995         3.90847403E-21
   6.15999985         6.26617708E-21
   6.16800022         7.81886335E-21
   6.17600012         8.54727585E-21
   6.18400002         8.48054079E-21
   6.19199991         7.68477285E-21
   6.19999981         6.25421002E-21
   6.20800018         4.30465477E-21
   6.21600008         1.96733155E-21
   6.22399998        -6.18110309E-22
   6.23199987        -3.31011953E-21