 -0.239999995       0.00000000    
 -0.231999993       0.00000000    
 -0.224000007       0.00000000    
 -0.216000006       0.00000000    
 -0.208000004       0.00000000    
 -0.200000003       0.00000000    
 -0.192000002       0.00000000    
 -0.184000000       0.00000000    
 -0.175999999       0.00000000    
 -0.167999998      -8.68805048E-43
 -0.159999996       6.14991641E-39
 -0.151999995       1.64422813E-37
 -0.143999994       5.12271088E-37
 -0.136000007      -3.72319469E-36
 -0.128000006      -2.62330993E-35
 -0.119999997      -3.74108481E-35
 -0.112000003       1.59966621E-34
 -0.104000002       7.24849995E-34
  -9.60000008E-02   6.77488271E-34
  -8.79999995E-02  -2.56504769E-33
  -7.99999982E-02  -8.57545023E-33
  -7.19999969E-02  -5.65903735E-33
  -6.40000030E-02   2.24014370E-32
  -5.60000017E-02   5.87221847E-32
  -4.80000004E-02   2.72145662E-32
  -3.99999991E-02  -1.27924736E-31
  -3.20000015E-02  -2.72480813E-31
  -2.40000002E-02  -8.45020277E-32
  -1.60000008E-02   5.27305419E-31
  -8.00000038E-03   9.39288729E-31
   1.38777878E-17   1.73515074E-31
   8.00000038E-03  -1.67569804E-30
   1.60000008E-02  -2.55358882E-30
   2.40000002E-02  -1.90995874E-31
   3.20000015E-02   4.32386018E-30
   3.99999991E-02   5.73037096E-30
   4.80000004E-02  -1.61795160E-31
   5.60000017E-02  -9.45931100E-30
   6.40000030E-02  -1.10963846E-29
   7.19999969E-02   1.26733093E-30
   7.99999982E-02   1.80582549E-29
   8.79999995E-02   1.95072780E-29
   9.60000008E-02  -2.49872051E-30
  0.104000002      -2.98061221E-29
  0.112000003      -3.22364501E-29
  0.119999997      -6.09060158E-31
  0.128000006       3.84577335E-29
  0.136000007       4.74937905E-29
  0.143999994       1.77307641E-29
  0.151999995      -2.33953378E-29
  0.159999996      -4.64818768E-29
  0.167999998      -5.11615165E-29
  0.175999999      -4.98956178E-29
  0.184000000      -2.68485407E-29
  0.192000002       5.70006652E-29
  0.200000003       1.89993158E-28
  0.208000004       2.52680396E-28
  0.216000006       9.13922009E-29
  0.224000007      -2.92892898E-28
  0.231999993      -6.30757801E-28
  0.239999995      -5.38972650E-28
  0.247999996       1.08304249E-28
  0.256000012       9.26933904E-28
  0.263999999       1.21778120E-27
  0.272000015       5.54971543E-28
  0.280000001      -7.25805140E-28
  0.287999988      -1.65977259E-27
  0.296000004      -1.41594225E-27
  0.303999990      -7.14897913E-29
  0.312000006       1.34348106E-27
  0.319999993       1.67942824E-27
  0.328000009       7.01225893E-28
  0.335999995      -6.36727991E-28
  0.344000012      -1.02630351E-27
  0.351999998      -8.20429184E-29
  0.360000014       1.12882153E-27
  0.368000001       9.51035762E-28
  0.375999987      -1.18620096E-27
  0.384000003      -3.76904105E-27
  0.391999990      -4.03051878E-27
  0.400000006      -3.12000820E-28
  0.407999992       5.85815119E-27
  0.416000009       9.99731745E-27
  0.423999995       7.67917264E-27
  0.432000011      -1.57652571E-27
  0.439999998      -1.26948497E-26
  0.448000014      -1.76726305E-26
  0.456000000      -1.12377411E-26
  0.463999987       4.44781426E-27
  0.472000003       1.99952312E-26
  0.479999989       2.45661532E-26
  0.488000005       1.35714737E-26
  0.495999992      -7.29964350E-27
  0.504000008      -2.50932617E-26
  0.512000024      -2.80278613E-26
  0.519999981      -1.36304903E-26
  0.527999997       9.22693392E-27
  0.536000013       2.60356023E-26
  0.544000030       2.63005640E-26
  0.551999986       1.04992502E-26
  0.560000002      -1.04600545E-26
  0.568000019      -2.28587932E-26
  0.575999975      -1.94891908E-26
  0.583999991      -4.14562506E-27
  0.592000008       1.17192444E-26
  0.600000024       1.74779930E-26
  0.607999980       1.05878654E-26
  0.615999997      -2.57059898E-27
  0.624000013      -1.23479180E-26
  0.632000029      -1.30438829E-26
  0.639999986      -5.98118421E-27
  0.648000002       3.27281595E-27
  0.656000018       1.00703279E-26
  0.663999975       1.31687786E-26
  0.671999991       1.28613386E-26
  0.680000007       8.01673347E-27
  0.688000023      -3.40933665E-27
  0.695999980      -1.99131758E-26
  0.703999996      -3.29806967E-26
  0.712000012      -3.04060674E-26
  0.720000029      -6.18852174E-27
  0.727999985       3.07152515E-26
  0.736000001       5.80840072E-26
  0.744000018       5.43414600E-26
  0.751999974       1.55395768E-26
  0.759999990      -3.82770072E-26
  0.768000007      -7.41924544E-26
  0.776000023      -6.81706477E-26
  0.783999979      -2.20650081E-26
  0.791999996       3.69611502E-26
  0.800000012       7.37978576E-26
  0.808000028       6.77203622E-26
  0.815999985       2.40450782E-26
  0.824000001      -3.01960640E-26
  0.832000017      -6.38031686E-26
  0.839999974      -5.91310968E-26
  0.847999990      -2.08351708E-26
  0.856000006       2.76628929E-26
  0.864000022       5.75975573E-26
  0.871999979       5.13719842E-26
  0.879999995       1.18297165E-26
  0.888000011      -3.67902570E-26
  0.896000028      -6.40047842E-26
  0.903999984      -5.16758990E-26
  0.912000000      -7.86595164E-27
  0.920000017       4.15498401E-26
  0.927999973       6.12814638E-26
  0.935999990       4.22834745E-26
  0.944000006      -1.67717202E-27
  0.952000022      -3.95017569E-26
  0.959999979      -4.64692691E-26
  0.967999995      -1.79336279E-26
  0.976000011       2.44259177E-26
  0.984000027       4.95147406E-26
  0.991999984       4.13070558E-26
   1.00000000       7.73763617E-27
   1.00800002      -3.03545141E-26
   1.01600003      -4.87984919E-26
   1.02400005      -3.97433856E-26
   1.03199995      -1.57962648E-26
   1.03999996       4.88005149E-27
   1.04799998       1.04238324E-26
   1.05599999       1.31033080E-27
   1.06400001      -1.30228224E-26
   1.07200003      -1.87261158E-26
   1.08000004      -8.68085651E-27
   1.08800006       5.46089693E-27
   1.09599996       2.00230724E-26
   1.10399997       2.13371483E-26
   1.11199999       1.74812840E-26
   1.12000000       1.19700352E-26
   1.12800002       9.09615865E-27
   1.13600004       9.51802976E-27
   1.14400005       1.06282852E-26
   1.15199995       1.73101320E-26
   1.15999997       3.06103823E-26
   1.16799998       4.98473163E-26
   1.17600000       5.83218672E-26
   1.18400002       3.47456251E-26
   1.19200003      -3.46645850E-26
   1.20000005      -1.30782451E-25
   1.20799994      -2.07208097E-25
   1.21599996      -2.08790207E-25
   1.22399998      -1.11512934E-25
   1.23199999       5.15408867E-26
   1.24000001       2.03223487E-25
   1.24800003       2.64835446E-25
   1.25600004       2.03376723E-25
   1.26400006       5.22018165E-26
   1.27199996      -1.06683293E-25
   1.27999997      -1.95855489E-25
   1.28799999      -1.84772745E-25
   1.29600000      -1.01422041E-25
   1.30400002      -8.94452249E-27
   1.31200004       3.79291472E-26
   1.32000005       2.78029804E-26
   1.32799995      -7.50352013E-27
   1.33599997      -1.70764535E-26
   1.34399998       3.07601981E-26
   1.35200000       1.18822408E-25
   1.36000001       1.86646992E-25
   1.36800003       1.72239754E-25
   1.37600005       5.47321249E-26
   1.38399994      -1.17195999E-25
   1.39199996      -2.47797333E-25
   1.39999998      -2.50279977E-25
   1.40799999      -1.11784696E-25
   1.41600001       8.78552295E-26
   1.42400002       2.22558098E-25
   1.43200004       2.06061808E-25
   1.44000006       5.67089856E-26
   1.44799995      -1.14526986E-25
   1.45599997      -1.79153886E-25
   1.46399999      -7.91365785E-26
   1.47200000       1.22745993E-25
   1.48000002       2.93912366E-25
   1.48800004       3.20227016E-25
   1.49600005       1.79414235E-25
   1.50399995      -5.00848960E-26
   1.51199996      -2.47644910E-25
   1.51999998      -3.41710977E-25
   1.52800000      -3.25196544E-25
   1.53600001      -2.36525077E-25
   1.54400003      -1.17286496E-25
   1.55200005       1.46496416E-26
   1.55999994       1.61254681E-25
   1.56799996       3.01929141E-25
   1.57599998       3.66347374E-25
   1.58399999       2.93603133E-25
   1.59200001       8.83024088E-26
   1.60000002      -1.68581597E-25
   1.60800004      -3.63452230E-25
   1.61600006      -4.02557470E-25
   1.62399995      -2.51596166E-25
   1.63199997       1.54754680E-26
   1.63999999       2.65090692E-25
   1.64800000       3.73718417E-25
   1.65600002       2.64606036E-25
   1.66400003      -1.59625080E-26
   1.67200005      -3.25588114E-25
   1.67999995      -4.97007121E-25
   1.68799996      -4.30204259E-25
   1.69599998      -1.46781031E-25
   1.70400000       2.24316370E-25
   1.71200001       4.91744778E-25
   1.72000003       5.54643024E-25
   1.72800004       4.35975368E-25
   1.73599994       2.45592491E-25
   1.74399996       1.12339192E-25
   1.75199997       4.37693957E-26
   1.75999999      -2.41750954E-26
   1.76800001      -1.85575596E-25
   1.77600002      -4.76755237E-25
   1.78400004      -8.14528911E-25
   1.79200006      -1.02290746E-24
   1.79999995      -9.43509394E-25
   1.80799997      -5.49381568E-25
   1.81599998       5.31422435E-26
   1.82400000       6.09319072E-25
   1.83200002       9.18126316E-25
   1.84000003       9.17299885E-25
   1.84800005       7.60060136E-25
   1.85599995       6.41836560E-25
   1.86399996       6.21163424E-25
   1.87199998       5.18159045E-25
   1.88000000       1.11229499E-25
   1.88800001      -6.17798291E-25
   1.89600003      -1.39924124E-24
   1.90400004      -1.79554977E-24
   1.91199994      -1.49173193E-24
   1.91999996      -5.61586331E-25
   1.92799997       5.52240943E-25
   1.93599999       1.31789913E-24
   1.94400001       1.47931053E-24
   1.95200002       1.16867584E-24
   1.96000004       7.78951284E-25
   1.96800005       6.46330010E-25
   1.97599995       7.58105881E-25
   1.98399997       8.03209940E-25
   1.99199998       4.80344702E-25
   2.00000000      -2.41614980E-25
   2.00799990      -1.10171486E-24
   2.01600003      -1.74632545E-24
   2.02399993      -1.96642868E-24
   2.03200006      -1.80916315E-24
   2.03999996      -1.42103914E-24
   2.04800010      -9.17199897E-25
   2.05599999      -2.97200117E-25
   2.06399989       4.52340288E-25
   2.07200003       1.25615026E-24
   2.07999992       1.90856455E-24
   2.08800006       2.20255487E-24
   2.09599996       2.08618743E-24
   2.10400009       1.69205517E-24
   2.11199999       1.22291476E-24
   2.11999989       7.73706641E-25
   2.12800002       2.45444678E-25
   2.13599992      -5.37314955E-25
   2.14400005      -1.61140558E-24
   2.15199995      -2.74916684E-24
   2.16000009      -3.52075998E-24
   2.16799998      -3.54945440E-24
   2.17600012      -2.71950429E-24
   2.18400002      -1.24009861E-24
   2.19199991       4.77405702E-25
   2.20000005       2.00365523E-24
   2.20799994       3.04436865E-24
   2.21600008       3.48449013E-24
   2.22399998       3.35592828E-24
   2.23200011       2.76212152E-24
   2.24000001       1.83732923E-24
   2.24799991       6.88781573E-25
   2.25600004      -5.94772329E-25
   2.26399994      -1.91434966E-24
   2.27200007      -3.10979323E-24
   2.27999997      -3.92543616E-24
   2.28800011      -4.06482196E-24
   2.29600000      -3.32065870E-24
   2.30399990      -1.73725946E-24
   2.31200004       3.28527903E-25
   2.31999993       2.30096231E-24
   2.32800007       3.60865723E-24
   2.33599997       3.90970311E-24
   2.34400010       3.20762618E-24
   2.35200000       1.82551525E-24
   2.35999990       2.53639563E-25
   2.36800003      -1.02568425E-24
   2.37599993      -1.69204531E-24
   2.38400006      -1.68272275E-24
   2.39199996      -1.18765405E-24
   2.40000010      -5.42142981E-25
   2.40799999      -4.06977778E-26
   2.41599989       2.21449452E-25
   2.42400002       3.69825561E-25
   2.43199992       5.88402129E-25
   2.44000006       8.94080948E-25
   2.44799995       1.04218741E-24
   2.45600009       6.82741709E-25
   2.46399999      -3.45249043E-25
   2.47199988      -1.79769390E-24
   2.48000002      -3.09439269E-24
   2.48799992      -3.63938296E-24
   2.49600005      -3.14793978E-24
   2.50399995      -1.74451521E-24
   2.51200008       2.16072108E-25
   2.51999998       2.37407749E-24
   2.52800012       4.42966066E-24
   2.53600001       6.00934832E-24
   2.54399991       6.57909364E-24
   2.55200005       5.60736886E-24
   2.55999994       2.96252118E-24
   2.56800008      -7.70242506E-25
   2.57599998      -4.41159417E-24
   2.58400011      -6.76724249E-24
   2.59200001      -7.27710538E-24
   2.59999990      -6.25941170E-24
   2.60800004      -4.53091924E-24
   2.61599994      -2.74338666E-24
   2.62400007      -9.64977061E-25
   2.63199997       1.13535908E-24
   2.64000010       3.70854477E-24
   2.64800000       6.29258409E-24
   2.65599990       7.94155740E-24
   2.66400003       7.83305668E-24
   2.67199993       5.83497416E-24
   2.68000007       2.56294656E-24
   2.68799996      -1.06311698E-24
   2.69600010      -4.33772721E-24
   2.70400000      -6.91712290E-24
   2.71199989      -8.56493579E-24
   2.72000003      -8.85199597E-24
   2.72799993      -7.25829657E-24
   2.73600006      -3.66535266E-24
   2.74399996       1.20862286E-24
   2.75200009       5.90011159E-24
   2.75999999       8.89264518E-24
   2.76799989       9.43371304E-24
   2.77600002       7.85130303E-24
   2.78399992       5.14894798E-24
   2.79200006       2.24817036E-24
   2.79999995      -5.06781600E-25
   2.80800009      -3.21647739E-24
   2.81599998      -5.89459666E-24
   2.82399988      -8.08150921E-24
   2.83200002      -8.97310110E-24
   2.83999991      -7.96071331E-24
   2.84800005      -5.09203048E-24
   2.85599995      -1.08234290E-24
   2.86400008       3.08626269E-24
   2.87199998       6.61219937E-24
   2.88000011       9.02178408E-24
   2.88800001       1.00238646E-23
   2.89599991       9.35174566E-24
   2.90400004       6.85365747E-24
   2.91199994       2.76553157E-24
   2.92000008      -2.12140770E-24
   2.92799997      -6.65366150E-24
   2.93600011      -9.78022019E-24
   2.94400001      -1.09568638E-23
   2.95199990      -1.02150458E-23
   2.96000004      -7.91093303E-24
   2.96799994      -4.44704045E-24
   2.97600007      -2.19404281E-25
   2.98399997       4.22646706E-24
   2.99200010       8.08824529E-24
   3.00000000       1.04772182E-23
   3.00799990       1.08044575E-23
   3.01600003       9.09075971E-24
   3.02399993       5.92669975E-24
   3.03200006       2.11879756E-24
   3.03999996      -1.68955389E-24
   3.04800010      -5.12804948E-24
   3.05599999      -7.91733069E-24
   3.06399989      -9.64644358E-24
   3.07200003      -9.79367027E-24
   3.07999992      -8.03248939E-24
   3.08800006      -4.57608587E-24
   3.09599996      -2.34717427E-25
   3.10400009       3.89298557E-24
   3.11199999       6.89138316E-24
   3.11999989       8.33920403E-24
   3.12800002       8.28410210E-24
   3.13599992       6.98841779E-24
   3.14400005       4.71298676E-24
   3.15199995       1.70184119E-24
   3.16000009      -1.68077308E-24
   3.16799998      -4.86002531E-24
   3.17600012      -7.14029718E-24
   3.18400002      -7.96277539E-24
   3.19199991      -7.13772549E-24
   3.20000005      -4.91338544E-24
   3.20799994      -1.84577773E-24
   3.21600008       1.42127008E-24
   3.22399998       4.33127314E-24
   3.23200011       6.48494467E-24
   3.24000001       7.62581976E-24
   3.24799991       7.60227069E-24
   3.25600004       6.34282506E-24
   3.26399994       3.88194783E-24
   3.27200007       4.19734448E-25
   3.27999997      -3.59756032E-24
   3.28800011      -7.44487400E-24
   3.29600000      -1.02066500E-23
   3.30399990      -1.10306870E-23
   3.31200004      -9.47215660E-24
   3.31999993      -5.73917726E-24
   3.32800007      -6.91059015E-25
   3.33599997       4.46881104E-24
   3.34400010       8.63909976E-24
   3.35200000       1.11547725E-23
   3.35999990       1.18388569E-23
   3.36800003       1.08147466E-23
   3.37599993       8.28041970E-24
   3.38400006       4.44940467E-24
   3.39199996      -3.26097571E-25
   3.40000010      -5.40803988E-24
   3.40799999      -9.89269440E-24
   3.41599989      -1.28554840E-23
   3.42400002      -1.36865032E-23
   3.43199992      -1.22814315E-23
   3.44000006      -8.98844760E-24
   3.44799995      -4.38931556E-24
   3.45600009       8.88640766E-25
   3.46399999       6.20178975E-24
   3.47199988       1.08100458E-23
   3.48000002       1.38632065E-23
   3.48799992       1.45899004E-23
   3.49600005       1.26403316E-23
   3.50399995       8.35626867E-24
   3.51200008       2.74964410E-24
   3.51999998      -2.85866468E-24
   3.52800012      -7.34140859E-24
   3.53600001      -1.01080613E-23
   3.54399991      -1.11228260E-23
   3.55200005      -1.06381096E-23
   3.55999994      -8.90531350E-24
   3.56800008      -6.08366690E-24
   3.57599998      -2.38468155E-24
   3.58400011       1.72281621E-24
   3.59200001       5.47288780E-24
   3.59999990       8.03464219E-24
   3.60800004       8.86858334E-24
   3.61599994       7.96316272E-24
   3.62400007       5.79236384E-24
   3.63199997       3.01804377E-24
   3.64000010       1.80259006E-25
   3.64800000      -2.41365582E-24
   3.65599990      -4.57651146E-24
   3.66400003      -6.04837839E-24
   3.67199993      -6.45978553E-24
   3.68000007      -5.50935999E-24
   3.68799996      -3.24157205E-24
   3.69600010      -1.81694696E-25
   3.70400000       2.82454822E-24
   3.71199989       4.97178599E-24
   3.72000003       5.83308524E-24
   3.72799993       5.44935844E-24
   3.73600006       4.16318306E-24
   3.74399996       2.33609304E-24
   3.75200009       1.77456171E-25
   3.75999999      -2.21524389E-24
   3.76799989      -4.67136094E-24
   3.77600002      -6.79075449E-24
   3.78399992      -7.96567445E-24
   3.79200006      -7.58946511E-24
   3.79999995      -5.34654265E-24
   3.80800009      -1.42992527E-24
   3.81599998       3.41736753E-24
   3.82399988       8.07753335E-24
   3.83200002       1.13868837E-23
   3.83999991       1.24897523E-23
   3.84800005       1.10714695E-23
   3.85599995       7.38363868E-24
   3.86400008       2.08599515E-24
   3.87199998      -3.96086824E-24
   3.88000011      -9.81913628E-24
   3.88800001      -1.44879291E-23
   3.89599991      -1.69267588E-23
   3.90400004      -1.62400097E-23
   3.91199994      -1.20455818E-23
   3.92000008      -4.83835333E-24
   3.92799997       3.93974807E-24
   3.93600011       1.22889667E-23
   3.94400001       1.83386100E-23
   3.95199990       2.09519752E-23
   3.96000004       1.98984910E-23
   3.96799994       1.55832104E-23
   3.97600007       8.64297070E-24
   3.98399997      -1.98724379E-25
   3.99200010      -9.92710215E-24
   4.00000000      -1.89602040E-23
   4.00799990      -2.52394043E-23
   4.01599979      -2.68514905E-23
   4.02400017      -2.29001398E-23
   4.03200006      -1.40378776E-23
   4.03999996      -2.28255720E-24
   4.04799986       9.78748876E-24
   4.05600023       1.99237045E-23
   4.06400013       2.66667803E-23
   4.07200003       2.92445347E-23
   4.07999992       2.72571795E-23
   4.08799982       2.06096506E-23
   4.09600019       9.82896943E-24
   4.10400009      -3.55029059E-24
   4.11199999      -1.70132890E-23
   4.11999989      -2.76881248E-23
   4.12799978      -3.33021355E-23
   4.13600016      -3.28887471E-23
   4.14400005      -2.68672898E-23
   4.15199995      -1.65891358E-23
   4.15999985      -3.76945232E-24
   4.16800022       9.78058228E-24
   4.17600012       2.21232901E-23
   4.18400002       3.11891936E-23
   4.19199991       3.51023665E-23
   4.19999981       3.28155408E-23
   4.20800018       2.46564755E-23
   4.21600008       1.23548224E-23
   4.22399998      -1.52741536E-24
   4.23199987      -1.44450277E-23
   4.23999977      -2.44762634E-23
   4.24800014      -3.04410853E-23
   4.25600004      -3.17109999E-23
   4.26399994      -2.80489466E-23
   4.27199984      -1.97501220E-23
   4.28000021      -7.95424465E-24
   4.28800011       5.24576330E-24
   4.29600000       1.71695040E-23
   4.30399990       2.53128472E-23
   4.31199980       2.81395489E-23
   4.32000017       2.54810576E-23
   4.32800007       1.83967428E-23
   4.33599997       8.66569700E-24
   4.34399986      -1.77124103E-24
   4.35200024      -1.11965000E-23
   4.36000013      -1.83067274E-23
   4.36800003      -2.22873969E-23
   4.37599993      -2.28552757E-23
   4.38399982      -2.02854335E-23
   4.39200020      -1.54095963E-23
   4.40000010      -9.55074371E-24
   4.40799999      -4.39583786E-24
   4.41599989      -1.76978578E-24
   4.42399979      -3.26302591E-24
   4.43200016      -9.74853007E-24
   4.44000006      -2.09565317E-23
   4.44799995      -3.53744983E-23
   4.45599985      -5.06138679E-23
   4.46400023      -6.41167716E-23
   4.47200012      -7.38453135E-23
   4.48000002      -7.85566370E-23
   4.48799992      -7.76368756E-23
   4.49599981      -7.07662947E-23
   4.50400019      -5.78477003E-23
   4.51200008      -3.93439422E-23
   4.51999998      -1.67328836E-23
   4.52799988       7.43671639E-24
   4.53599977       3.01587362E-23
   4.54400015       4.90106343E-23
   4.55200005       6.29752204E-23
   4.55999994       7.25087623E-23
   4.56799984       7.88513049E-23
   4.57600021       8.31320555E-23
   4.58400011       8.59083284E-23
   4.59200001       8.73791816E-23
   4.59999990       8.79146036E-23
   4.60799980       8.83046985E-23
   4.61600018       8.93957436E-23
   4.62400007       9.13688740E-23
   4.63199997       9.32647781E-23
   4.63999987       9.32048752E-23
   4.64799976       8.92291740E-23
   4.65600014       8.02013299E-23
   4.66400003       6.62210612E-23
   4.67199993       4.83848751E-23
   4.67999983       2.82153584E-23
   4.68800020       7.22342260E-24
   4.69600010      -1.31480039E-23
   4.70400000      -3.13706600E-23
   4.71199989      -4.58045679E-23
   4.71999979      -5.49993508E-23
   4.72800016      -5.81941554E-23
   4.73600006      -5.56780236E-23
   4.74399996      -4.87405441E-23
   4.75199986      -3.92388881E-23
   4.76000023      -2.90350322E-23
   4.76800013      -1.96142770E-23
   4.77600002      -1.20126650E-23
   4.78399992      -6.96642040E-24
   4.79199982      -5.06588330E-24
   4.80000019      -6.73911960E-24
   4.80800009      -1.20459037E-23
   4.81599998      -2.04232712E-23
   4.82399988      -3.05845254E-23
   4.83199978      -4.07246855E-23
   4.84000015      -4.90359094E-23
   4.84800005      -5.43166074E-23
   4.85599995      -5.63745499E-23
   4.86399984      -5.59622912E-23
   4.87200022      -5.42599104E-23
   4.88000011      -5.21880493E-23
   4.88800001      -4.99818010E-23
   4.89599991      -4.72541156E-23
   4.90399981      -4.34637715E-23
   4.91200018      -3.83696706E-23
   4.92000008      -3.21382911E-23
   4.92799997      -2.50522013E-23
   4.93599987      -1.71166755E-23
   4.94399977      -7.97041077E-24
   4.95200014       2.78289992E-24
   4.96000004       1.50689819E-23
   4.96799994       2.80898632E-23
   4.97599983       4.05300609E-23
   4.98400021       5.10745658E-23
   4.99200010       5.88224042E-23
   5.00000000       6.33221930E-23
   5.00799990       6.43098279E-23
   5.01599979       6.15116058E-23
   5.02400017       5.47910852E-23
   5.03200006       4.45821585E-23
   5.03999996       3.22210552E-23
   5.04799986       1.97936371E-23
   5.05600023       9.48252933E-24
   5.06400013       2.77472436E-24
   5.07200003       1.69812417E-26
   5.07999992       5.52099342E-25
   5.08799982       3.26608550E-24
   5.09600019       7.13265706E-24
   5.10400009       1.14426996E-23
   5.11199999       1.56861252E-23
   5.11999989       1.93260667E-23
   5.12799978       2.17289638E-23
   5.13600016       2.23359765E-23
   5.14400005       2.09563550E-23
   5.15199995       1.79676782E-23
   5.15999985       1.42693957E-23
   5.16800022       1.09863562E-23
   5.17600012       9.04648252E-24
   5.18400002       8.82883264E-24
   5.19199991       1.00517879E-23
   5.19999981       1.19410790E-23
   5.20800018       1.35837383E-23
   5.21600008       1.42402930E-23
   5.22399998       1.34356912E-23
   5.23199987       1.08135593E-23
   5.23999977       5.96633410E-24
   5.24800014      -1.50356967E-24
   5.25600004      -1.16149387E-23
   5.26399994      -2.35915433E-23
   5.27199984      -3.57933298E-23
   5.28000021      -4.62294295E-23
   5.28800011      -5.34177541E-23
   5.29600000      -5.70362085E-23
   5.30399990      -5.78831170E-23
   5.31199980      -5.71677337E-23
   5.32000017      -5.56657552E-23
   5.32800007      -5.33914881E-23
   5.33599997      -4.99957701E-23
   5.34399986      -4.54937630E-23
   5.35200024      -4.06215656E-23
   5.36000013      -3.64597248E-23
   5.36800003      -3.35953267E-23
   5.37599993      -3.15356266E-23
   5.38399982      -2.89054571E-23
   5.39200020      -2.43077690E-23
   5.40000010      -1.71839938E-23
   5.40799999      -8.01450494E-24
   5.41599989       2.21812935E-24
   5.42399979       1.27718411E-23
   5.43200016       2.34095168E-23
   5.44000006       3.39949636E-23
   5.44799995       4.38576276E-23
   5.45599985       5.16079652E-23
   5.46400023       5.56959086E-23
   5.47200012       5.53275043E-23
   5.48000002       5.09853141E-23
   5.48799992       4.40932572E-23
   5.49599981       3.60545879E-23
   5.50400019       2.74025982E-23
   5.51200008       1.77088608E-23
   5.51999998       6.25836488E-24
   5.52799988      -7.11898925E-24
   5.53599977      -2.17566307E-23
   5.54400015      -3.66007920E-23
   5.55200005      -5.09599285E-23
   5.55999994      -6.48741033E-23
   5.56799984      -7.87665749E-23
   5.57600021      -9.26640448E-23
   5.58400011      -1.05624506E-22
   5.59200001      -1.15829684E-22
   5.59999990      -1.21254434E-22
   5.60799980      -1.20394386E-22
   5.61600018      -1.12553866E-22
   5.62400007      -9.76295014E-23
   5.63199997      -7.57216791E-23
   5.63999987      -4.69980009E-23
   5.64799976      -1.19324915E-23
   5.65600014       2.83228265E-23
   5.66400003       7.17989074E-23
   5.67199993       1.15938774E-22
   5.67999983       1.58055489E-22
   5.68800020       1.95726715E-22
   5.69600010       2.26968863E-22
   5.70400000       2.50254472E-22
   5.71199989       2.64517103E-22
   5.71999979       2.69191324E-22
   5.72800016       2.64203376E-22
   5.73600006       2.49820334E-22
   5.74399996       2.26436023E-22
   5.75199986       1.94502226E-22
   5.76000023       1.54735647E-22
   5.76800013       1.08477651E-22
   5.77600002       5.78737769E-23
   5.78399992       5.62008648E-24
   5.79199982      -4.56236095E-23
   5.80000019      -9.37476809E-23
   5.80800009      -1.37231467E-22
   5.81599998      -1.74700316E-22
   5.82399988      -2.04427952E-22
   5.83199978      -2.24307588E-22
   5.84000015      -2.32467489E-22
   5.84800005      -2.28143951E-22
   5.85599995      -2.12168571E-22
   5.86399984      -1.86681876E-22
   5.87200022      -1.54281200E-22
   5.88000011      -1.17211086E-22
   5.88800001      -7.71339673E-23
   5.89599991      -3.54916852E-23
   5.90399981       6.00477647E-24
   5.91200018       4.52704302E-23
   5.92000008       8.02447362E-23
   5.92799997       1.09427932E-22
   5.93599987       1.32052589E-22
   5.94399977       1.47714154E-22
   5.95200014       1.55756673E-22
   5.96000004       1.54934857E-22
   5.96799994       1.43660974E-22
   5.97599983       1.20677177E-22
   5.98400021       8.56809913E-23
   5.99200010       3.95374688E-23
   6.00000000      -1.59321173E-23
   6.00799990      -7.82560873E-23
   6.01599979      -1.44397215E-22
   6.02400017      -2.10590028E-22
   6.03200006      -2.72201618E-22
   6.03999996      -3.23937287E-22
   6.04799986      -3.60473058E-22
   6.05600023      -3.77296646E-22
   6.06400013      -3.71404373E-22
   6.07200003      -3.41665099E-22
   6.07999992      -2.88899064E-22
   6.08799982      -2.15842340E-22
   6.09600019      -1.27126248E-22
   6.10400009      -2.91673400E-23
   6.11199999       7.02027641E-23
   6.11999989       1.62481163E-22
   6.12799978       2.39515412E-22
   6.13600016       2.94526154E-22
   6.14400005       3.22857746E-22
   6.15199995       3.22349417E-22
   6.15999985       2.93371161E-22
   6.16800022       2.38716631E-22
   6.17600012       1.63416071E-22
   6.18400002       7.44707288E-23
   6.19199991      -1.95727861E-23
   6.19999981      -1.09328738E-22
   6.20800018      -1.85478743E-22
   6.21600008      -2.39768100E-22
   6.22399998      -2.65847690E-22
   6.23199987      -2.59847526E-22
   6.23999977      -2.20567024E-22
   6.24800014      -1.49441911E-22
   6.25600004      -5.03642470E-23
   6.26399994       7.05226314E-23
   6.27199984       2.05083073E-22
   6.28000021       3.43613901E-22
   6.28800011       4.75536612E-22
   6.29600000       5.90354067E-22
   6.30399990       6.78662818E-22
   6.31199980       7.32991782E-22
   6.32000017       7.48289675E-22
   6.32800007       7.22105047E-22
   6.33599997       6.54619801E-22
   6.34399986       5.48705190E-22
   6.35200024       4.09972376E-22
   6.36000013       2.46587771E-22
   6.36800003       6.86653814E-23
   6.37599993      -1.12772791E-22
   6.38399982      -2.86965610E-22
   6.39200020      -4.44338615E-22
   6.40000010      -5.76969786E-22
   6.40799999      -6.78695180E-22
   6.41599989      -7.45156042E-22
   6.42399979      -7.74027846E-22
   6.43200016      -7.65371783E-22
   6.44000006      -7.21823430E-22
   6.44799995      -6.48341933E-22
   6.45599985      -5.51507982E-22
   6.46400023      -4.38656847E-22
   6.47200012      -3.17200819E-22
   6.48000002      -1.94305579E-22
   6.48799992      -7.67813150E-23
   6.49599981       2.90692151E-23
   6.50400019       1.17800498E-22
   6.51200008       1.85290616E-22
   6.51999998       2.29078795E-22
   6.52799988       2.48447817E-22
   6.53599977       2.44293334E-22
   6.54400015       2.18974055E-22
   6.55200005       1.76232952E-22
   6.55999994       1.21108514E-22
   6.56799984       5.96221703E-23
   6.57600021      -1.83471514E-24
   6.58400011      -5.72911936E-23
   6.59200001      -1.01860516E-22
   6.59999990      -1.32071042E-22
   6.60799980      -1.45883012E-22