 -0.239999995       0.00000000    
 -0.231999993       0.00000000    
 -0.224000007       0.00000000    
 -0.216000006       0.00000000    
 -0.208000004       0.00000000    
 -0.200000003       0.00000000    
 -0.192000002       0.00000000    
 -0.184000000       0.00000000    
 -0.175999999       0.00000000    
 -0.167999998      -1.40949606E-40
 -0.159999996      -5.20601998E-40
 -0.151999995       4.19462790E-36
 -0.143999994      -6.88052717E-35
 -0.136000007      -5.93868011E-34
 -0.128000006      -8.47673313E-34
 -0.119999997       5.63425903E-33
 -0.112000003       2.50685778E-32
 -0.104000002       1.99678816E-32
  -9.60000008E-02  -1.16806922E-31
  -8.79999995E-02  -3.66787433E-31
  -7.99999982E-02  -1.92401377E-31
  -7.19999969E-02   1.18310760E-30
  -6.40000030E-02   2.91570804E-30
  -5.60000017E-02   1.06476071E-30
  -4.80000004E-02  -7.41917416E-30
  -3.99999991E-02  -1.53150686E-29
  -3.20000015E-02  -4.31454801E-30
  -2.40000002E-02   3.20395148E-29
  -1.60000008E-02   5.86275645E-29
  -8.00000038E-03   1.51438610E-29
   1.38777878E-17  -1.01032443E-28
   8.00000038E-03  -1.71921447E-28
   1.60000008E-02  -4.69914268E-29
   2.40000002E-02   2.41511519E-28
   3.20000015E-02   3.94174641E-28
   3.99999991E-02   1.15884312E-28
   4.80000004E-02  -4.53844910E-28
   5.60000017E-02  -7.08419771E-28
   6.40000030E-02  -1.91367910E-28
   7.19999969E-02   7.20468388E-28
   7.99999982E-02   1.00339621E-27
   8.79999995E-02   1.20681756E-28
   9.60000008E-02  -1.11423743E-27
  0.104000002      -1.20239716E-27
  0.112000003       2.78950658E-28
  0.119999997       1.84559498E-27
  0.128000006       1.52914360E-27
  0.136000007      -7.64027002E-28
  0.143999994      -2.77290713E-27
  0.151999995      -2.23122008E-27
  0.159999996       4.47813475E-28
  0.167999998       2.47870747E-27
  0.175999999       2.01240844E-27
  0.184000000       5.45896128E-28
  0.192000002       9.99230811E-28
  0.200000003       3.15985150E-27
  0.208000004       2.34671155E-27
  0.216000006      -5.38303159E-27
  0.224000007      -1.60037321E-26
  0.231999993      -1.74627288E-26
  0.239999995      -5.00885315E-28
  0.247999996       2.81771470E-26
  0.256000012       4.52650205E-26
  0.263999999       2.86495576E-26
  0.272000015      -1.91860232E-26
  0.280000001      -6.52555170E-26
  0.287999988      -6.90266173E-26
  0.296000004      -1.88000699E-26
  0.303999990       5.13142309E-26
  0.312000006       8.46756085E-26
  0.319999993       5.11382656E-26
  0.328000009      -2.08481069E-26
  0.335999995      -6.35467457E-26
  0.344000012      -3.15611107E-26
  0.351999998       4.68318000E-26
  0.360000014       8.25558838E-26
  0.368000001       5.61444208E-27
  0.375999987      -1.51107576E-25
  0.384000003      -2.47856448E-25
  0.391999990      -1.42235245E-25
  0.400000006       1.67359380E-25
  0.407999992       4.85649890E-25
  0.416000009       5.31571801E-25
  0.423999995       1.62948354E-25
  0.432000011      -4.56649095E-25
  0.439999998      -9.10997084E-25
  0.448000014      -8.10586578E-25
  0.456000000      -1.10942809E-25
  0.463999987       7.86141751E-25
  0.472000003       1.26790734E-24
  0.479999989       9.44982099E-25
  0.488000005      -3.13142866E-26
  0.495999992      -1.02884679E-24
  0.504000008      -1.36216803E-24
  0.512000024      -7.91101418E-25
  0.519999981       2.84075394E-25
  0.527999997       1.09709361E-24
  0.536000013       1.07503272E-24
  0.544000030       2.69055236E-25
  0.551999986      -6.77487057E-25
  0.560000002      -1.01496501E-24
  0.568000019      -4.67127880E-25
  0.575999975       5.41302499E-25
  0.583999991       1.19581551E-24
  0.592000008       9.15783004E-25
  0.600000024      -1.82851795E-25
  0.607999980      -1.34358346E-24
  0.615999997      -1.70924859E-24
  0.624000013      -9.46162235E-25
  0.632000029       5.05961481E-25
  0.639999986       1.73281679E-24
  0.648000002       1.96692093E-24
  0.656000018       1.08765558E-24
  0.663999975      -3.34128076E-25
  0.671999991      -1.44682326E-24
  0.680000007      -1.67613596E-24
  0.688000023      -1.04964718E-24
  0.695999980      -9.59226511E-26
  0.703999996       5.74153773E-25
  0.712000012       6.88656736E-25
  0.720000029       4.45036373E-25
  0.727999985       2.74048134E-25
  0.736000001       4.35076609E-25
  0.744000018       7.63994826E-25
  0.751999974       7.88656935E-25
  0.759999990       1.46054589E-25
  0.768000007      -1.02073030E-24
  0.776000023      -2.03242498E-24
  0.783999979      -2.09834220E-24
  0.791999996      -9.19952726E-25
  0.800000012       9.76467608E-25
  0.808000028       2.49121248E-24
  0.815999985       2.65267614E-24
  0.824000001       1.30140060E-24
  0.832000017      -7.40507923E-25
  0.839999974      -2.18703265E-24
  0.847999990      -2.14802308E-24
  0.856000006      -7.41180821E-25
  0.864000022       1.00491847E-24
  0.871999979       1.82778934E-24
  0.879999995       1.13364440E-24
  0.888000011      -5.93452811E-25
  0.896000028      -2.08153256E-24
  0.903999984      -2.20594224E-24
  0.912000000      -7.87238909E-25
  0.920000017       1.20831176E-24
  0.927999973       2.34882210E-24
  0.935999990       1.75040386E-24
  0.944000006      -1.84609192E-25
  0.952000022      -1.96580154E-24
  0.959999979      -2.11593281E-24
  0.967999995      -4.60222192E-25
  0.976000011       1.74994454E-24
  0.984000027       2.75242543E-24
  0.991999984       1.75277005E-24
   1.00000000      -3.75312704E-25
   1.00800002      -1.60370709E-24
   1.01600003      -5.13162105E-25
   1.02400005       2.24539317E-24
   1.03199995       4.17017039E-24
   1.03999996       2.84713469E-24
   1.04799998      -2.00183789E-24
   1.05599999      -7.85753661E-24
   1.06400001      -1.11867300E-23
   1.07200003      -9.98929989E-24
   1.08000004      -5.24682432E-24
   1.08800006      -4.41752862E-27
   1.09599996       3.09999459E-24
   1.10399997       3.69967284E-24
   1.11199999       3.53153385E-24
   1.12000000       4.02522075E-24
   1.12800002       4.50781351E-24
   1.13600004       2.66909135E-24
   1.14400005      -2.63248071E-24
   1.15199995      -9.04547199E-24
   1.15999997      -1.14739598E-23
   1.16799998      -6.04505926E-24
   1.17600000       5.66922660E-24
   1.18400002       1.60630934E-23
   1.19200003       1.61154280E-23
   1.20000005       2.47950362E-24
   1.20799994      -1.84107356E-23
   1.21599996      -3.33643387E-23
   1.22399998      -3.10643863E-23
   1.23199999      -1.07353170E-23
   1.24000001       1.60487251E-23
   1.24800003       3.24632671E-23
   1.25600004       2.79335583E-23
   1.26400006       5.74094194E-24
   1.27199996      -1.89844220E-23
   1.27999997      -2.97002218E-23
   1.28799999      -2.00882183E-23
   1.29600000       1.66301325E-24
   1.30400002       1.90362691E-23
   1.31200004       1.92759535E-23
   1.32000005       2.58728706E-24
   1.32799995      -1.83684242E-23
   1.33599997      -2.78989242E-23
   1.34399998      -1.88244000E-23
   1.35200000       2.52861573E-24
   1.36000001       2.11591633E-23
   1.36800003       2.44204641E-23
   1.37600005       1.08731901E-23
   1.38399994      -9.21076438E-24
   1.39199996      -2.16797373E-23
   1.39999998      -1.85634732E-23
   1.40799999      -3.19172373E-24
   1.41600001       1.30839563E-23
   1.42400002       1.94308179E-23
   1.43200004       1.29157758E-23
   1.44000006      -3.84336583E-25
   1.44799995      -1.06540911E-23
   1.45599997      -1.14246899E-23
   1.46399999      -3.36537647E-24
   1.47200000       7.52689818E-24
   1.48000002       1.53223294E-23
   1.48800004       1.83052964E-23
   1.49600005       1.86993545E-23
   1.50399995       1.88819553E-23
   1.51199996       1.78394046E-23
   1.51999998       1.12037607E-23
   1.52800000      -3.86256670E-24
   1.53600001      -2.43010669E-23
   1.54400003      -4.05034636E-23
   1.55200005      -4.15763429E-23
   1.55999994      -2.28045110E-23
   1.56799996       8.69388536E-24
   1.57599998       3.61395324E-23
   1.58399999       4.42778128E-23
   1.59200001       2.90009944E-23
   1.60000002       1.52640601E-24
   1.60800004      -2.04160847E-23
   1.61600006      -2.30320942E-23
   1.62399995      -5.52481141E-24
   1.63199997       1.93808325E-23
   1.63999999       3.26839904E-23
   1.64800000       2.50421796E-23
   1.65600002      -2.19267463E-25
   1.66400003      -2.87122398E-23
   1.67200005      -4.61452107E-23
   1.67999995      -4.82407313E-23
   1.68799996      -3.90872785E-23
   1.69599998      -2.82433661E-23
   1.70400000      -2.32908989E-23
   1.71200001      -2.23602939E-23
   1.72000003      -1.62547977E-23
   1.72800004       2.27395782E-24
   1.73599994       3.26229988E-23
   1.74399996       6.16717761E-23
   1.75199997       6.76245205E-23
   1.75999999       4.09913552E-23
   1.76800001      -1.01748778E-23
   1.77600002      -6.43991081E-23
   1.78400004      -9.98438907E-23
   1.79200006      -1.06144289E-22
   1.79999995      -9.02998981E-23
   1.80799997      -6.74533061E-23
   1.81599998      -5.09056107E-23
   1.82400000      -3.98722834E-23
   1.83200002      -2.74407191E-23
   1.84000003       9.05227947E-25
   1.84800005       4.94728216E-23
   1.85599995       1.10150163E-22
   1.86399996       1.65033059E-22
   1.87199998       1.97356805E-22
   1.88000000       1.95519592E-22
   1.88800001       1.58835717E-22
   1.89600003       9.73264336E-23
   1.90400004       2.39537819E-23
   1.91199994      -4.86268566E-23
   1.91999996      -1.14032898E-22
   1.92799997      -1.65049783E-22
   1.93599999      -1.92104910E-22
   1.94400001      -1.85334363E-22
   1.95200002      -1.37368666E-22
   1.96000004      -4.99119363E-23
   1.96800005       6.25102721E-23
   1.97599995       1.74295788E-22
   1.98399997       2.56666586E-22
   1.99199998       2.86348860E-22
   2.00000000       2.56010506E-22
   2.00799990       1.75906427E-22
   2.01600003       6.90827141E-23
   2.02399993      -4.03220225E-23
   2.03200006      -1.34798822E-22
   2.03999996      -2.08335300E-22
   2.04800010      -2.57054049E-22
   2.05599999      -2.78198677E-22
   2.06399989      -2.66562613E-22
   2.07200003      -2.19223764E-22
   2.07999992      -1.40188737E-22
   2.08800006      -4.02281575E-23
   2.09599996       6.86196906E-23
   2.10400009       1.77454551E-22
   2.11199999       2.82870551E-22
   2.11999989       3.77823328E-22
   2.12800002       4.42937194E-22
   2.13599992       4.47282164E-22
   2.14400005       3.63117875E-22
   2.15199995       1.85433166E-22
   2.16000009      -5.29911065E-23
   2.16799998      -2.89873086E-22
   2.17600012      -4.59875060E-22
   2.18400002      -5.25947323E-22
   2.19199991      -4.92751400E-22
   2.20000005      -3.95312513E-22
   2.20799994      -2.70227825E-22
   2.21600008      -1.33192790E-22
   2.22399998       2.10737801E-23
   2.23200011       1.97563284E-22
   2.24000001       3.78661262E-22
   2.24799991       5.19467355E-22
   2.25600004       5.68251624E-22
   2.26399994       4.96957430E-22
   2.27200007       3.19977760E-22
   2.27999997       8.71640498E-23
   2.28800011      -1.42529142E-22
   2.29600000      -3.28227756E-22
   2.30399990      -4.56953220E-22
   2.31200004      -5.33961140E-22
   2.31999993      -5.65604737E-22
   2.32800007      -5.47983528E-22
   2.33599997      -4.69753921E-22
   2.34400010      -3.22475458E-22
   2.35200000      -1.09600926E-22
   2.35999990       1.50531334E-22
   2.36800003       4.25747801E-22
   2.37599993       6.74170173E-22
   2.38400006       8.48513936E-22
   2.39199996       9.04438494E-22
   2.40000010       8.14117025E-22
   2.40799999       5.79641513E-22
   2.41599989       2.37431229E-22
   2.42400002      -1.51273659E-22
   2.43199992      -5.18591404E-22
   2.44000006      -8.06928117E-22
   2.44799995      -9.76267498E-22
   2.45600009      -1.00229400E-21
   2.46399999      -8.75286739E-22
   2.47199988      -6.05593901E-22
   2.48000002      -2.34322764E-22
   2.48799992       1.68265520E-22
   2.49600005       5.20377284E-22
   2.50399995       7.58739394E-22
   2.51200008       8.61731862E-22
   2.51999998       8.48334101E-22
   2.52800012       7.53160570E-22
   2.53600001       5.97156497E-22
   2.54399991       3.77262037E-22
   2.55200005       8.50066035E-23
   2.55999994      -2.60785122E-22
   2.56800008      -5.95998929E-22
   2.57599998      -8.28330103E-22
   2.58400011      -8.81633068E-22
   2.59200001      -7.40478160E-22
   2.59999990      -4.63057161E-22
   2.60800004      -1.51525375E-22
   2.61599994       9.90120779E-23
   2.62400007       2.41951566E-22
   2.63199997       2.86550278E-22
   2.64000010       2.73961623E-22
   2.64800000       2.44594162E-22
   2.65599990       2.20030851E-22
   2.66400003       2.07324271E-22
   2.67199993       2.12614473E-22
   2.68000007       2.44479051E-22
   2.68799996       3.02851325E-22
   2.69600010       3.63300840E-22
   2.70400000       3.75993827E-22
   2.71199989       2.88240308E-22
   2.72000003       7.81161875E-23
   2.72799993      -2.24520997E-22
   2.73600006      -5.46634765E-22
   2.74399996      -8.06296725E-22
   2.75200009      -9.48484246E-22
   2.75999999      -9.59778816E-22
   2.76799989      -8.54505644E-22
   2.77600002      -6.48886890E-22
   2.78399992      -3.47389983E-22
   2.79200006       4.65420519E-23
   2.79999995       5.05112560E-22
   2.80800009       9.59502248E-22
   2.81599998       1.31070989E-21
   2.82399988       1.46413372E-21
   2.83200002       1.36732763E-21
   2.83999991       1.02882194E-21
   2.84800005       5.08805843E-22
   2.85599995      -1.07163599E-22
   2.86400008      -7.30968158E-22
   2.87199998      -1.28015701E-21
   2.88000011      -1.67534811E-21
   2.88800001      -1.84062247E-21
   2.89599991      -1.71893119E-21
   2.90400004      -1.29829178E-21
   2.91199994      -6.34258456E-22
   2.92000008       1.50352622E-22
   2.92799997       8.94737196E-22
   2.93600011       1.44820908E-21
   2.94400001       1.71555038E-21
   2.95199990       1.67825576E-21
   2.96000004       1.38534931E-21
   2.96799994       9.23263719E-22
   2.97600007       3.83638002E-22
   2.98399997      -1.54873755E-22
   2.99200010      -6.27858459E-22
   3.00000000      -9.79364074E-22
   3.00799990      -1.16173094E-21
   3.01600003      -1.14734990E-21
   3.02399993      -9.45226112E-22
   3.03200006      -6.07782416E-22
   3.03999996      -2.18529162E-22
   3.04800010       1.34848817E-22
   3.05599999       3.87037046E-22
   3.06399989       5.07244832E-22
   3.07200003       4.94442667E-22
   3.07999992       3.65845869E-22
   3.08800006       1.51968790E-22
   3.09599996      -9.97963824E-23
   3.10400009      -3.22944736E-22
   3.11199999      -4.43410157E-22
   3.11999989      -4.06704093E-22
   3.12800002      -2.06658081E-22
   3.13599992       1.04243122E-22
   3.14400005       4.33215853E-22
   3.15199995       6.84884040E-22
   3.16000009       7.95251663E-22
   3.16799998       7.44874324E-22
   3.17600012       5.49825146E-22
   3.18400002       2.42397291E-22
   3.19199991      -1.40362879E-22
   3.20000005      -5.55301683E-22
   3.20799994      -9.46290784E-22
   3.21600008      -1.24377975E-21
   3.22399998      -1.37611229E-21
   3.23200011      -1.28970312E-21
   3.24000001      -9.68462900E-22
   3.24799991      -4.45648351E-22
   3.25600004       1.95782125E-22
   3.26399994       8.36886050E-22
   3.27200007       1.34881866E-21
   3.27999997       1.62743363E-21
   3.28800011       1.62473277E-21
   3.29600000       1.36108834E-21
   3.30399990       9.11421567E-22
   3.31200004       3.72111268E-22
   3.31999993      -1.72082030E-22
   3.32800007      -6.61148187E-22
   3.33599997      -1.05047263E-21
   3.34400010      -1.29455361E-21
   3.35200000      -1.34518197E-21
   3.35999990      -1.17274672E-21
   3.36800003      -7.96249793E-22
   3.37599993      -2.95676654E-22
   3.38400006       2.08306346E-22
   3.39199996       6.00599414E-22
   3.40000010       8.13099609E-22
   3.40799999       8.38995048E-22
   3.41599989       7.14260362E-22
   3.42400002       4.88103406E-22
   3.43199992       2.05170213E-22
   3.44000006      -9.08837119E-23
   3.44799995      -3.45641488E-22
   3.45600009      -4.95294334E-22
   3.46399999      -4.89806336E-22
   3.47199988      -3.24089606E-22
   3.48000002      -5.14203109E-23
   3.48799992       2.36122755E-22
   3.49600005       4.50985191E-22
   3.50399995       5.48685349E-22
   3.51200008       5.35332218E-22
   3.51999998       4.41974001E-22
   3.52800012       2.89230335E-22
   3.53600001       7.29851333E-23
   3.54399991      -2.15939452E-22
   3.55200005      -5.55449661E-22
   3.55999994      -8.72871537E-22
   3.56800008      -1.06555726E-21
   3.57599998      -1.05343299E-21
   3.58400011      -8.27394728E-22
   3.59200001      -4.56610867E-22
   3.59999990      -4.53546427E-23
   3.60800004       3.30084621E-22
   3.61599994       6.55776865E-22
   3.62400007       9.60239359E-22
   3.63199997       1.25489186E-21
   3.64000010       1.48523318E-21
   3.64800000       1.53682403E-21
   3.65599990       1.30071385E-21
   3.66400003       7.53463038E-22
   3.67199993      -4.29213736E-24
   3.68000007      -7.83716825E-22
   3.68799996      -1.39528638E-21
   3.69600010      -1.72973564E-21
   3.70400000      -1.78399533E-21
   3.71199989      -1.62303741E-21
   3.72000003      -1.31538176E-21
   3.72799993      -8.93242576E-22
   3.73600006      -3.62749269E-22
   3.74399996       2.52855088E-22
   3.75200009       8.79279259E-22
   3.75999999       1.39794190E-21
   3.76799989       1.69128113E-21
   3.77600002       1.69699940E-21
   3.78399992       1.43548774E-21
   3.79200006       9.96226159E-22
   3.79999995       4.95210778E-22
   3.80800009       3.01718123E-23
   3.81599998      -3.42268016E-22
   3.82399988      -6.04509186E-22
   3.83200002      -7.60150357E-22
   3.83999991      -8.16197801E-22
   3.84800005      -7.77113315E-22
   3.85599995      -6.51530597E-22
   3.86400008      -4.65198571E-22
   3.87199998      -2.67994528E-22
   3.88000011      -1.24781362E-22
   3.88800001      -8.96555502E-23
   3.89599991      -1.75534665E-22
   3.90400004      -3.37969948E-22
   3.91199994      -4.87618629E-22
   3.92000008      -5.28139675E-22
   3.92799997      -3.99554136E-22
   3.93600011      -1.01231832E-22
   3.94400001       3.16787784E-22
   3.95199990       7.83328680E-22
   3.96000004       1.23121169E-21
   3.96799994       1.59993724E-21
   3.97600007       1.82174494E-21
   3.98399997       1.81511679E-21
   3.99200010       1.50680016E-21
   4.00000000       8.78158445E-22
   4.00799990       4.61317062E-24
   4.01599979      -9.47261752E-22
   4.02400017      -1.77448437E-21
   4.03200006      -2.31590377E-21
   4.03999996      -2.50622660E-21
   4.04799986      -2.37312100E-21
   4.05600023      -1.98660733E-21
   4.06400013      -1.40343792E-21
   4.07200003      -6.51262308E-22
   4.07999992       2.38045758E-22
   4.08799982       1.17998284E-21
   4.09600019       2.02188751E-21
   4.10400009       2.58529888E-21
   4.11199999       2.74336550E-21
   4.11999989       2.48237427E-21
   4.12799978       1.90253136E-21
   4.13600016       1.15824461E-21
   4.14400005       3.81631241E-22
   4.15199995      -3.59167613E-22
   4.15999985      -1.04285008E-21
   4.16800022      -1.64405277E-21
   4.17600012      -2.09611000E-21
   4.18400002      -2.30242916E-21
   4.19199991      -2.19085025E-21
   4.19999981      -1.76848590E-21
   4.20800018      -1.13421901E-21
   4.21600008      -4.37121939E-22
   4.22399998       1.91043191E-22
   4.23199987       6.84141576E-22
   4.23999977       1.04309283E-21
   4.24800014       1.29720802E-21
   4.25600004       1.46030508E-21
   4.26399994       1.51519071E-21
   4.27199984       1.43240843E-21
   4.28000021       1.20419039E-21
   4.28800011       8.64445644E-22
   4.29600000       4.77691402E-22
   4.30399990       1.05941596E-22
   4.31199980      -2.21262660E-22
   4.32000017      -5.12219376E-22
   4.32800007      -7.91417117E-22
   4.33599997      -1.06752151E-21
   4.34399986      -1.31441241E-21
   4.35200024      -1.47964830E-21
   4.36000013      -1.51422691E-21
   4.36800003      -1.40425632E-21
   4.37599993      -1.18389831E-21
   4.38399982      -9.23066921E-22
   4.39200020      -7.00959233E-22
   4.40000010      -5.86835066E-22
   4.40799999      -6.41885794E-22
   4.41599989      -9.38935823E-22
   4.42399979      -1.57784833E-21
   4.43200016      -2.67388173E-21
   4.44000006      -4.31523647E-21
   4.44799995      -6.51244103E-21
   4.45599985      -9.17498234E-21
   4.46400023      -1.21378730E-20
   4.47200012      -1.52238440E-20
   4.48000002      -1.83002838E-20
   4.48799992      -2.12891797E-20
   4.49599981      -2.41218258E-20
   4.50400019      -2.66766523E-20
   4.51200008      -2.87551892E-20
   4.51999998      -3.01271878E-20
   4.52799988      -3.06227950E-20
   4.53599977      -3.02089979E-20
   4.54400015      -2.89935658E-20
   4.55200005      -2.71494410E-20
   4.55999994      -2.48105910E-20
   4.56799984      -2.20096040E-20
   4.57600021      -1.86984662E-20
   4.58400011      -1.48306230E-20
   4.59200001      -1.04407965E-20
   4.59999990      -5.66640247E-21
   4.60799980      -7.00457896E-22
   4.61600018       4.28067017E-21
   4.62400007       9.15892583E-21
   4.63199997       1.38586486E-20
   4.63999987       1.82940331E-20
   4.64799976       2.23275515E-20
   4.65600014       2.57755343E-20
   4.66400003       2.84587742E-20
   4.67199993       3.02639375E-20
   4.67999983       3.11771546E-20
   4.68800020       3.12754049E-20
   4.69600010       3.06902360E-20
   4.70400000       2.95722562E-20
   4.71199989       2.80753921E-20
   4.71999979       2.63592977E-20
   4.72800016       2.45931847E-20
   4.73600006       2.29449110E-20
   4.74399996       2.15519857E-20
   4.75199986       2.04860698E-20
   4.76000023       1.97300251E-20
   4.76800013       1.91821649E-20
   4.77600002       1.86893527E-20
   4.78399992       1.80962852E-20
   4.79199982       1.72891249E-20
   4.80000019       1.62146965E-20
   4.80800009       1.48703438E-20
   4.81599998       1.32767036E-20
   4.82399988       1.14559692E-20
   4.83199978       9.43226621E-21
   4.84000015       7.25134313E-21
   4.84800005       4.99888872E-21
   4.85599995       2.79319647E-21
   4.86399984       7.45739168E-22
   4.87200022      -1.09113746E-21
   4.88000011      -2.75396315E-21
   4.88800001      -4.35106090E-21
   4.89599991      -6.00358924E-21
   4.90399981      -7.77915060E-21
   4.91200018      -9.65747582E-21
   4.92000008      -1.15454380E-20
   4.92799997      -1.33236235E-20
   4.93599987      -1.48857371E-20
   4.94399977      -1.61421970E-20
   4.95200014      -1.69911541E-20
   4.96000004      -1.72907518E-20
   4.96799994      -1.68693098E-20
   4.97599983      -1.55823880E-20
   4.98400021      -1.33871007E-20
   4.99200010      -1.03867139E-20
   5.00000000      -6.81416364E-21
   5.00799990      -2.96442266E-21
   5.01599979       8.82257997E-22
   5.02400017       4.50268860E-21
   5.03200006       7.72791306E-21
   5.03999996       1.04217035E-20
   5.04799986       1.24780349E-20
   5.05600023       1.38522363E-20
   5.06400013       1.46015925E-20
   5.07200003       1.48924515E-20
   5.07999992       1.49509519E-20
   5.08799982       1.49786657E-20
   5.09600019       1.50839454E-20
   5.10400009       1.52727817E-20
   5.11199999       1.54963079E-20
   5.11999989       1.57112876E-20
   5.12799978       1.59040239E-20
   5.13600016       1.60635228E-20
   5.14400005       1.61375377E-20
   5.15199995       1.60205449E-20
   5.15999985       1.55951786E-20
   5.16800022       1.48009123E-20
   5.17600012       1.36784137E-20
   5.18400002       1.23561259E-20
   5.19199991       1.09911616E-20
   5.19999981       9.71075304E-21
   5.20800018       8.59337097E-21
   5.21600008       7.69043629E-21
   5.22399998       7.05492732E-21
   5.23199987       6.74232171E-21
   5.23999977       6.78026135E-21
   5.24800014       7.13640461E-21
   5.25600004       7.71707166E-21
   5.26399994       8.40165409E-21
   5.27199984       9.08533422E-21
   5.28000021       9.69604877E-21
   5.28800011       1.01763531E-20
   5.29600000       1.04539829E-20
   5.30399990       1.04348156E-20
   5.31199980       1.00312960E-20
   5.32000017       9.20528025E-21
   5.32800007       7.99090076E-21
   5.33599997       6.47849067E-21
   5.34399986       4.77365730E-21
   5.35200024       2.96500790E-21
   5.36000013       1.12255326E-21
   5.36800003      -6.79076408E-22
   5.37599993      -2.34080017E-21
   5.38399982      -3.74554490E-21
   5.39200020      -4.78929497E-21
   5.40000010      -5.41271894E-21
   5.40799999      -5.60860242E-21
   5.41599989      -5.40126362E-21
   5.42399979      -4.81683467E-21
   5.43200016      -3.86797490E-21
   5.44000006      -2.56218488E-21
   5.44799995      -9.21731436E-22
   5.45599985       1.00494397E-21
   5.46400023       3.15008957E-21
   5.47200012       5.44386948E-21
   5.48000002       7.82500258E-21
   5.48799992       1.02339593E-20
   5.49599981       1.25931851E-20
   5.50400019       1.47881266E-20
   5.51200008       1.66596356E-20
   5.51999998       1.80071581E-20
   5.52799988       1.85958360E-20
   5.53599977       1.81652805E-20
   5.54400015       1.64474654E-20
   5.55200005       1.32030021E-20
   5.55999994       8.27403725E-21
   5.56799984       1.63450061E-21
   5.57600021      -6.58910831E-21
   5.58400011      -1.61396864E-20
   5.59200001      -2.66819595E-20
   5.59999990      -3.78535652E-20
   5.60799980      -4.92870721E-20
   5.61600018      -6.06010741E-20
   5.62400007      -7.13839743E-20
   5.63199997      -8.11987567E-20
   5.63999987      -8.96161401E-20
   5.64799976      -9.62561321E-20
   5.65600014      -1.00808133E-19
   5.66400003      -1.03017571E-19
   5.67199993      -1.02657004E-19
   5.67999983      -9.95130459E-20
   5.68800020      -9.34075354E-20
   5.69600010      -8.42405130E-20
   5.70400000      -7.20248971E-20
   5.71199989      -5.68930689E-20
   5.71999979      -3.90853761E-20
   5.72800016      -1.89497983E-20
   5.73600006       3.02981557E-21
   5.74399996       2.61942735E-20
   5.75199986       4.97018127E-20
   5.76000023       7.25866433E-20
   5.76800013       9.38744400E-20
   5.77600002       1.12704134E-19
   5.78399992       1.28399666E-19
   5.79199982       1.40473259E-19
   5.80000019       1.48590318E-19
   5.80800009       1.52548610E-19
   5.81599998       1.52301102E-19
   5.82399988       1.48004054E-19
   5.83199978       1.40041419E-19
   5.84000015       1.28988399E-19
   5.84800005       1.15520891E-19
   5.85599995       1.00316167E-19
   5.86399984       8.39937806E-20
   5.87200022       6.71130470E-20
   5.88000011       5.02033879E-20
   5.88800001       3.37872358E-20
   5.89599991       1.83731047E-20
   5.90399981       4.42703550E-21
   5.91200018      -7.65277614E-21
   5.92000008      -1.75419498E-20
   5.92799997      -2.49839694E-20
   5.93599987      -2.97943025E-20
   5.94399977      -3.18901164E-20
   5.95200014      -3.13391301E-20
   5.96000004      -2.84033918E-20
   5.96799994      -2.35521294E-20
   5.97599983      -1.74347685E-20
   5.98400021      -1.08232375E-20
   5.99200010      -4.54141947E-21
   6.00000000       6.05524229E-22
   6.00799990       3.89904345E-21
   6.01599979       4.77491180E-21
   6.02400017       2.88953514E-21
   6.03200006      -1.82505629E-21
   6.03999996      -9.13255298E-21
   6.04799986      -1.85021934E-20
   6.05600023      -2.91588856E-20
   6.06400013      -4.01649986E-20
   6.07200003      -5.05191964E-20
   6.07999992      -5.92578878E-20
   6.08799982      -6.55501667E-20
   6.09600019      -6.87809468E-20
   6.10400009      -6.86188776E-20
   6.11199999      -6.50638298E-20
   6.11999989      -5.84651128E-20
   6.12799978      -4.95016964E-20
   6.13600016      -3.91196039E-20
   6.14400005      -2.84310668E-20
   6.15199995      -1.85904755E-20
   6.15999985      -1.06693100E-20
   6.16800022      -5.55100472E-21
   6.17600012      -3.85884885E-21
   6.18400002      -5.91748531E-21
   6.19199991      -1.17389022E-20
   6.19999981      -2.10219600E-20
   6.20800018      -3.31607790E-20
   6.21600008      -4.72684283E-20
   6.22399998      -6.22275050E-20
   6.23199987      -7.67740577E-20
   6.23999977      -8.96077584E-20
   6.24800014      -9.95073138E-20
   6.25600004      -1.05426121E-19
   6.26399994      -1.06555875E-19
   6.27199984      -1.02362967E-19
   6.28000021      -9.26144889E-20
   6.28800011      -7.74069284E-20
   6.29600000      -5.71920366E-20
   6.30399990      -3.27781498E-20
   6.31199980      -5.28577580E-21
   6.32000017       2.39441371E-20
   6.32800007       5.34662535E-20
   6.33599997       8.18367972E-20
   6.34399986       1.07689494E-19
   6.35200024       1.29787753E-19
   6.36000013       1.47077934E-19
   6.36800003       1.58763412E-19
   6.37599993       1.64389416E-19
   6.38399982       1.63905670E-19
   6.39200020       1.57669582E-19
   6.40000010       1.46380389E-19
   6.40799999       1.30969083E-19
   6.41599989       1.12486960E-19
   6.42399979       9.20242761E-20
   6.43200016       7.06610831E-20
   6.44000006       4.94304006E-20
   6.44799995       2.92745164E-20
   6.45599985       1.09965092E-20
   6.46400023      -4.77309507E-21
   6.47200012      -1.75763860E-20
   6.48000002      -2.70988569E-20
   6.48799992      -3.31369070E-20
   6.49599981      -3.55931100E-20
   6.50400019      -3.45079072E-20
   6.51200008      -3.01078653E-20
   6.51999998      -2.28347554E-20
   6.52799988      -1.33300067E-20
   6.53599977      -2.37666216E-21
   6.54400015       9.17494276E-21
   6.55200005       2.04661011E-20
   6.55999994       3.06608356E-20
   6.56799984       3.89618418E-20
   6.57600021       4.46378421E-20
   6.58400011       4.70829363E-20
   6.59200001       4.59043041E-20
   6.59999990       4.10093465E-20
   6.60799980       3.26521437E-20