 -0.239999995       0.00000000    
 -0.231999993       0.00000000    
 -0.224000007       0.00000000    
 -0.216000006       0.00000000    
 -0.208000004       0.00000000    
 -0.200000003      -1.05097385E-43
 -0.192000002      -4.60720952E-31
 -0.184000000      -3.24765203E-30
 -0.175999999      -7.10922357E-30
 -0.167999998       3.48184090E-29
 -0.159999996       1.80995309E-28
 -0.151999995       1.55071449E-28
 -0.143999994      -6.02378357E-28
 -0.136000007      -1.46936023E-27
 -0.128000006      -5.16637159E-28
 -0.119999997       1.15539754E-27
 -0.112000003      -6.03081369E-28
 -0.104000002      -4.69914340E-28
  -9.60000008E-02   1.52584928E-26
  -8.79999995E-02   2.94734735E-26
  -7.99999982E-02  -1.43952833E-26
  -7.19999969E-02  -1.08123519E-25
  -6.40000030E-02  -1.00945501E-25
  -5.60000017E-02   1.07619018E-25
  -4.80000004E-02   2.92200735E-25
  -3.99999991E-02   1.10058792E-25
  -3.20000015E-02  -2.93851476E-25
  -2.40000002E-02  -3.12413373E-25
  -1.60000008E-02   1.57109082E-25
  -8.00000038E-03   3.02418308E-25
   1.38777878E-17  -3.44385807E-25
   8.00000038E-03  -7.43957266E-25
   1.60000008E-02   3.15660719E-25
   2.40000002E-02   1.84096746E-24
   3.20000015E-02   1.29260667E-24
   3.99999991E-02  -1.62999785E-24
   4.80000004E-02  -3.49489796E-24
   5.60000017E-02  -1.19672349E-24
   6.40000030E-02   3.24487540E-24
   7.19999969E-02   4.26965285E-24
   7.99999982E-02  -1.46380783E-25
   8.79999995E-02  -4.94698105E-24
   9.60000008E-02  -3.66997539E-24
  0.104000002       2.88064590E-24
  0.112000003       6.55260172E-24
  0.119999997       1.97798372E-24
  0.128000006      -5.70657956E-24
  0.136000007      -6.81533855E-24
  0.143999994       1.25570164E-25
  0.151999995       6.27012167E-24
  0.159999996       4.35224304E-24
  0.167999998      -2.01490971E-24
  0.175999999      -4.26543008E-24
  0.184000000      -4.93896741E-25
  0.192000002       3.49772485E-24
  0.200000003       2.90382184E-24
  0.208000004      -1.03815801E-24
  0.216000006      -4.29385234E-24
  0.224000007      -4.41083253E-24
  0.231999993      -1.37364123E-24
  0.239999995       2.94820710E-24
  0.247999996       5.67473443E-24
  0.256000012       5.03730918E-24
  0.263999999       1.75920399E-24
  0.272000015      -2.32183004E-24
  0.280000001      -5.74505901E-24
  0.287999988      -6.89476185E-24
  0.296000004      -4.30126172E-24
  0.303999990       1.12377180E-24
  0.312000006       6.11187617E-24
  0.319999993       8.05257142E-24
  0.328000009       5.95097892E-24
  0.335999995      -4.82460871E-25
  0.344000012      -8.27913464E-24
  0.351999998      -9.48587174E-24
  0.360000014       3.10011027E-26
  0.368000001       1.00484968E-23
  0.375999987       5.15209238E-24
  0.384000003      -1.20212596E-23
  0.391999990      -1.89263966E-23
  0.400000006      -2.69426607E-24
  0.407999992       1.95064918E-23
  0.416000009       2.19577555E-23
  0.423999995       4.29042948E-24
  0.432000011      -1.10594481E-23
  0.439999998      -1.14198573E-23
  0.448000014      -6.80936924E-24
  0.456000000      -8.09140862E-24
  0.463999987      -8.33771940E-24
  0.472000003       3.90687741E-24
  0.479999989       2.13201682E-23
  0.488000005       2.20555869E-23
  0.495999992      -1.07477043E-24
  0.504000008      -2.51682664E-23
  0.512000024      -2.10197920E-23
  0.519999981       8.38270261E-24
  0.527999997       2.65976161E-23
  0.536000013       9.59821026E-24
  0.544000030      -1.91884073E-23
  0.551999986      -1.84130895E-23
  0.560000002       1.18808771E-23
  0.568000019       2.84348069E-23
  0.575999975       7.75989298E-24
  0.583999991      -1.86742546E-23
  0.592000008      -1.17401822E-23
  0.600000024       1.75282306E-23
  0.607999980       2.68232776E-23
  0.615999997       4.93337912E-24
  0.624000013      -1.81329272E-23
  0.632000029      -1.95088126E-23
  0.639999986      -1.00568043E-23
  0.648000002      -7.78892622E-24
  0.656000018      -1.09155149E-23
  0.663999975      -8.26184123E-24
  0.671999991       1.07632685E-24
  0.680000007       9.69798460E-24
  0.688000023       1.32342335E-23
  0.695999980       1.37679941E-23
  0.703999996       1.69047054E-23
  0.712000012       2.58086353E-23
  0.720000029       3.34857886E-23
  0.727999985       2.62390867E-23
  0.736000001       2.32982673E-24
  0.744000018      -2.01795731E-23
  0.751999974      -2.46534573E-23
  0.759999990      -1.61942968E-23
  0.768000007      -9.81288850E-24
  0.776000023      -5.93124951E-24
  0.783999979       5.76314443E-24
  0.791999996       2.45797336E-23
  0.800000012       3.35979457E-23
  0.808000028       1.97598865E-23
  0.815999985      -1.27336594E-23
  0.824000001      -4.94810131E-23
  0.832000017      -8.53966037E-23
  0.839999974      -1.29300197E-22
  0.847999990      -1.83151578E-22
  0.856000006      -2.18834786E-22
  0.864000022      -1.97218457E-22
  0.871999979      -1.14970179E-22
  0.879999995      -1.07107077E-23
  0.888000011       8.90811711E-23
  0.896000028       1.97993763E-22
  0.903999984       3.21965942E-22
  0.912000000       4.17922503E-22
  0.920000017       4.36846936E-22
  0.927999973       3.77837388E-22
  0.935999990       2.64070721E-22
  0.944000006       9.45173946E-23
  0.952000022      -1.31165745E-22
  0.959999979      -3.64757166E-22
  0.967999995      -5.39238961E-22
  0.976000011      -6.32945488E-22
  0.984000027      -6.47120044E-22
  0.991999984      -5.59015615E-22
   1.00000000      -3.38863722E-22
   1.00800002      -3.26469277E-24
   1.01600003       3.95245567E-22
   1.02400005       8.04183638E-22
   1.03199995       1.15941147E-21
   1.03999996       1.36396913E-21
   1.04799998       1.34352903E-21
   1.05599999       1.10229814E-21
   1.06400001       6.83623781E-22
   1.07200003       1.05009068E-22
   1.08000004      -6.15312061E-22
   1.08800006      -1.39166524E-21
   1.09599996      -2.08621009E-21
   1.10399997      -2.58014980E-21
   1.11199999      -2.79147102E-21
   1.12000000      -2.65006737E-21
   1.12800002      -2.11520523E-21
   1.13600004      -1.21899957E-21
   1.14400005      -6.22531792E-23
   1.15199995       1.22654840E-21
   1.15999997       2.50348393E-21
   1.16799998       3.60262077E-21
   1.17600000       4.35751436E-21
   1.18400002       4.63033250E-21
   1.19200003       4.33131115E-21
   1.20000005       3.44049014E-21
   1.20799994       2.03187466E-21
   1.21599996       2.58114001E-22
   1.22399998      -1.69637517E-21
   1.23199999      -3.62610979E-21
   1.24000001      -5.27589325E-21
   1.24800003      -6.35943967E-21
   1.25600004      -6.65322006E-21
   1.26400006      -6.07515975E-21
   1.27199996      -4.67465250E-21
   1.27999997      -2.58230419E-21
   1.28799999       1.98301369E-24
   1.29600000       2.79052772E-21
   1.30400002       5.42072095E-21
   1.31200004       7.51907823E-21
   1.32000005       8.77225605E-21
   1.32799995       8.96352541E-21
   1.33599997       7.98421304E-21
   1.34399998       5.86017640E-21
   1.35200000       2.79360400E-21
   1.36000001      -8.38470285E-22
   1.36800003      -4.56310792E-21
   1.37600005      -7.90957372E-21
   1.38399994      -1.04514367E-20
   1.39199996      -1.18152330E-20
   1.39999998      -1.17310625E-20
   1.40799999      -1.01225630E-20
   1.41600001      -7.14917502E-21
   1.42400002      -3.16265096E-21
   1.43200004       1.36535167E-21
   1.44000006       5.89161330E-21
   1.44799995       9.84362054E-21
   1.45599997       1.26922189E-20
   1.46399999       1.40442699E-20
   1.47200000       1.37105994E-20
   1.48000002       1.17220572E-20
   1.48800004       8.30743225E-21
   1.49600005       3.86535240E-21
   1.50399995      -1.06261427E-21
   1.51199996      -5.84871461E-21
   1.51999998      -9.88357078E-21
   1.52800000      -1.26865022E-20
   1.53600001      -1.39602351E-20
   1.54400003      -1.35884578E-20
   1.55200005      -1.16322556E-20
   1.55999994      -8.34815150E-21
   1.56799996      -4.18268643E-21
   1.57599998       3.03069657E-22
   1.58399999       4.55197814E-21
   1.59200001       8.09707715E-21
   1.60000002       1.05843786E-20
   1.60800004       1.17779614E-20
   1.61600006       1.15940001E-20
   1.62399995       1.01329924E-20
   1.63199997       7.64961848E-21
   1.63999999       4.47727743E-21
   1.64800000       9.84080780E-22
   1.65600002      -2.43083017E-21
   1.66400003      -5.37501518E-21
   1.67200005      -7.55316066E-21
   1.67999995      -8.82259613E-21
   1.68799996      -9.16027161E-21
   1.69599998      -8.60941698E-21
   1.70400000      -7.27613028E-21
   1.71200001      -5.34119852E-21
   1.72000003      -3.03080410E-21
   1.72800004      -5.71792789E-22
   1.73599994       1.82006089E-21
   1.74399996       3.93631585E-21
   1.75199997       5.59834061E-21
   1.75999999       6.69268481E-21
   1.76800001       7.17757381E-21
   1.77600002       7.05788626E-21
   1.78400004       6.36048738E-21
   1.79200006       5.13507383E-21
   1.79999995       3.47602215E-21
   1.80799997       1.53641609E-21
   1.81599998      -4.91648964E-22
   1.82400000      -2.41656191E-21
   1.83200002      -4.06570217E-21
   1.84000003      -5.28134222E-21
   1.84800005      -5.93372398E-21
   1.85599995      -5.95866057E-21
   1.86399996      -5.37805894E-21
   1.87199998      -4.28419054E-21
   1.88000000      -2.81623737E-21
   1.88800001      -1.14708908E-21
   1.89600003       5.30423055E-22
   1.90400004       2.02087978E-21
   1.91199994       3.14394710E-21
   1.91999996       3.76819462E-21
   1.92799997       3.85338655E-21
   1.93599999       3.45127297E-21
   1.94400001       2.65994426E-21
   1.95200002       1.60191795E-21
   1.96000004       4.50218948E-22
   1.96800005      -5.78816301E-22
   1.97599995      -1.30479896E-21
   1.98399997      -1.64337786E-21
   1.99199998      -1.58144130E-21
   2.00000000      -1.14500851E-21
   2.00799990      -4.28787731E-22
   2.01600003       3.85136813E-22
   2.02399993       1.09119552E-21
   2.03200006       1.53649364E-21
   2.03999996       1.62308871E-21
   2.04800010       1.28569050E-21
   2.05599999       5.21923199E-22
   2.06399989      -5.64287983E-22
   2.07200003      -1.78111999E-21
   2.07999992      -2.90878406E-21
   2.08800006      -3.73724603E-21
   2.09599996      -4.08277731E-21
   2.10400009      -3.81938894E-21
   2.11199999      -2.91822090E-21
   2.11999989      -1.46168408E-21
   2.12800002       3.75323080E-22
   2.13599992       2.35884829E-21
   2.14400005       4.22683517E-21
   2.15199995       5.71471903E-21
   2.16000009       6.58739417E-21
   2.16799998       6.68258174E-21
   2.17600012       5.94289809E-21
   2.18400002       4.41967085E-21
   2.19199991       2.27005239E-21
   2.20000005      -2.42038227E-22
   2.20799994      -2.78136270E-21
   2.21600008      -5.02370576E-21
   2.22399998      -6.71247131E-21
   2.23200011      -7.64877514E-21
   2.24000001      -7.69162698E-21
   2.24799991      -6.82237486E-21
   2.25600004      -5.18540099E-21
   2.26399994      -3.02680472E-21
   2.27200007      -6.12430106E-22
   2.27999997       1.77803624E-21
   2.28800011       3.84483121E-21
   2.29600000       5.33529678E-21
   2.30399990       6.11850878E-21
   2.31200004       6.17401510E-21
   2.31999993       5.54767540E-21
   2.32800007       4.35798854E-21
   2.33599997       2.80627344E-21
   2.34400010       1.12559036E-21
   2.35200000      -4.77080760E-22
   2.35999990      -1.82512111E-21
   2.36800003      -2.77467397E-21
   2.37599993      -3.25917259E-21
   2.38400006      -3.30920975E-21
   2.39199996      -3.00282294E-21
   2.40000010      -2.42179318E-21
   2.40799999      -1.67262584E-21
   2.41599989      -9.05825779E-22
   2.42400002      -2.66513438E-22
   2.43199992       1.72030634E-22
   2.44000006       4.11991708E-22
   2.44799995       4.84226351E-22
   2.45600009       4.19678192E-22
   2.46399999       2.64521142E-22
   2.47199988       1.01023711E-22
   2.48000002       2.76301340E-23
   2.48799992       1.05679152E-22
   2.49600005       3.35485428E-22
   2.50399995       6.89761346E-22
   2.51200008       1.14130821E-21
   2.51999998       1.63253101E-21
   2.52800012       2.05003003E-21
   2.53600001       2.27787951E-21
   2.54399991       2.26502085E-21
   2.55200005       2.00723958E-21
   2.55999994       1.49251474E-21
   2.56800008       7.19834642E-22
   2.57599998      -2.42584801E-22
   2.58400011      -1.27263545E-21
   2.59200001      -2.26154108E-21
   2.59999990      -3.12436094E-21
   2.60800004      -3.76226582E-21
   2.61599994      -4.07060507E-21
   2.62400007      -3.98895935E-21
   2.63199997      -3.51535403E-21
   2.64000010      -2.68440364E-21
   2.64800000      -1.56395388E-21
   2.65599990      -2.60760711E-22
   2.66400003       1.09957890E-21
   2.67199993       2.39125192E-21
   2.68000007       3.48162460E-21
   2.68799996       4.24111656E-21
   2.69600010       4.58974572E-21
   2.70400000       4.51715255E-21
   2.71199989       4.04709303E-21
   2.72000003       3.21225837E-21
   2.72799993       2.08233308E-21
   2.73600006       7.86709751E-22
   2.74399996      -5.19897101E-22
   2.75200009      -1.70719315E-21
   2.75999999      -2.68046100E-21
   2.76799989      -3.36780084E-21
   2.77600002      -3.72162734E-21
   2.78399992      -3.73524190E-21
   2.79200006      -3.44827889E-21
   2.79999995      -2.92656824E-21
   2.80800009      -2.23243244E-21
   2.81599998      -1.41833515E-21
   2.82399988      -5.52241054E-22
   2.83200002       2.73370848E-22
   2.83999991       9.81836124E-22
   2.84800005       1.55218332E-21
   2.85599995       1.99744165E-21
   2.86400008       2.31905881E-21
   2.87199998       2.51061514E-21
   2.88000011       2.58825985E-21
   2.88800001       2.57693034E-21
   2.89599991       2.47145250E-21
   2.90400004       2.24467132E-21
   2.91199994       1.88896164E-21
   2.92000008       1.41875066E-21
   2.92799997       8.38706110E-22
   2.93600011       1.42317020E-22
   2.94400001      -6.56459501E-22
   2.95199990      -1.51188169E-21
   2.96000004      -2.36296017E-21
   2.96799994      -3.14031930E-21
   2.97600007      -3.75970916E-21
   2.98399997      -4.12987288E-21
   2.99200010      -4.17737357E-21
   3.00000000      -3.86404054E-21
   3.00799990      -3.18944143E-21
   3.01600003      -2.18689732E-21
   3.02399993      -9.21569271E-22
   3.03200006       5.07177432E-22
   3.03999996       1.96764740E-21
   3.04800010       3.31488915E-21
   3.05599999       4.41822126E-21
   3.06399989       5.17264310E-21
   3.07200003       5.49677350E-21
   3.07999992       5.34323698E-21
   3.08800006       4.71757259E-21
   3.09599996       3.67643937E-21
   3.10400009       2.31005049E-21
   3.11199999       7.36749132E-22
   3.11999989      -8.99060810E-22
   3.12800002      -2.44947142E-21
   3.13599992      -3.78544707E-21
   3.14400005      -4.79367200E-21
   3.15199995      -5.37825887E-21
   3.16000009      -5.49094446E-21
   3.16799998      -5.14386061E-21
   3.17600012      -4.37627335E-21
   3.18400002      -3.23633970E-21
   3.19199991      -1.81648822E-21
   3.20000005      -2.69618748E-22
   3.20799994       1.24687562E-21
   3.21600008       2.62408731E-21
   3.22399998       3.77708116E-21
   3.23200011       4.60806325E-21
   3.24000001       5.03689016E-21
   3.24799991       5.04894648E-21
   3.25600004       4.67915878E-21
   3.26399994       3.96681693E-21
   3.27200007       2.95692169E-21
   3.27999997       1.73113776E-21
   3.28800011       4.04997705E-22
   3.29600000      -9.06722329E-22
   3.30399990      -2.11034292E-21
   3.31200004      -3.12806023E-21
   3.31999993      -3.88926632E-21
   3.32800007      -4.33483838E-21
   3.33599997      -4.43460654E-21
   3.34400010      -4.20155487E-21
   3.35200000      -3.68066292E-21
   3.35999990      -2.92334918E-21
   3.36800003      -1.98562727E-21
   3.37599993      -9.46882089E-22
   3.38400006       9.80426878E-23
   3.39199996       1.07624316E-21
   3.40000010       1.94742429E-21
   3.40799999       2.67494620E-21
   3.41599989       3.21362616E-21
   3.42400002       3.53503672E-21
   3.43199992       3.64131610E-21
   3.44000006       3.54534578E-21
   3.44799995       3.25460412E-21
   3.45600009       2.77804812E-21
   3.46399999       2.13250393E-21
   3.47199988       1.34367201E-21
   3.48000002       4.55363432E-22
   3.48799992      -4.71234405E-22
   3.49600005      -1.38322259E-21
   3.50399995      -2.24789280E-21
   3.51200008      -3.02278271E-21
   3.51999998      -3.63289284E-21
   3.52800012      -4.00106051E-21
   3.53600001      -4.08706184E-21
   3.54399991      -3.87952837E-21
   3.55200005      -3.37210900E-21
   3.55999994      -2.57630350E-21
   3.56800008      -1.54613799E-21
   3.57599998      -3.66738633E-22
   3.58400011       8.74841948E-22
   3.59200001       2.09318337E-21
   3.59999990       3.19274834E-21
   3.60800004       4.07428295E-21
   3.61599994       4.65433447E-21
   3.62400007       4.87347594E-21
   3.63199997       4.69621332E-21
   3.64000010       4.11862395E-21
   3.64800000       3.18128595E-21
   3.65599990       1.97002797E-21
   3.66400003       5.97061531E-22
   3.67199993      -8.24223634E-22
   3.68000007      -2.18814455E-21
   3.68799996      -3.38722100E-21
   3.69600010      -4.31260467E-21
   3.70400000      -4.88035309E-21
   3.71199989      -5.05448915E-21
   3.72000003      -4.83815759E-21
   3.72799993      -4.25381063E-21
   3.73600006      -3.34423265E-21
   3.74399996      -2.18139301E-21
   3.75200009      -8.58632459E-22
   3.75999999       5.21772091E-22
   3.76799989       1.85124980E-21
   3.77600002       3.02499687E-21
   3.78399992       3.96236477E-21
   3.79200006       4.60603124E-21
   3.79999995       4.90175074E-21
   3.80800009       4.80717669E-21
   3.81599998       4.33181966E-21
   3.82399988       3.54349796E-21
   3.83200002       2.52258240E-21
   3.83999991       1.33245337E-21
   3.84800005       4.52549780E-23
   3.85599995      -1.23109093E-21
   3.86400008      -2.37558638E-21
   3.87199998      -3.29689857E-21
   3.88000011      -3.94613701E-21
   3.88800001      -4.30058511E-21
   3.89599991      -4.34779862E-21
   3.90400004      -4.08766890E-21
   3.91199994      -3.54947240E-21
   3.92000008      -2.80005302E-21
   3.92799997      -1.92123017E-21
   3.93600011      -9.79009049E-22
   3.94400001      -2.82558427E-23
   3.95199990       8.60460193E-22
   3.96000004       1.60911267E-21
   3.96799994       2.17242145E-21
   3.97600007       2.54544154E-21
   3.98399997       2.72950639E-21
   3.99200010       2.71888068E-21
   4.00000000       2.52461501E-21
   4.00799990       2.18255543E-21
   4.01599979       1.72949310E-21
   4.02400017       1.19087149E-21
   4.03200006       5.90397335E-22
   4.03999996      -5.04736147E-23
   4.04799986      -7.19289937E-22
   4.05600023      -1.39803257E-21
   4.06400013      -2.04818987E-21
   4.07200003      -2.62711957E-21
   4.07999992      -3.10419800E-21
   4.08799982      -3.44145465E-21
   4.09600019      -3.57916366E-21
   4.10400009      -3.46782870E-21
   4.11199999      -3.09892271E-21
   4.11999989      -2.48286339E-21
   4.12799978      -1.61994387E-21
   4.13600016      -5.24230207E-22
   4.14400005       7.37223459E-22
   4.15199995       2.05456276E-21
   4.15999985       3.31394605E-21
   4.16800022       4.40881652E-21
   4.17600012       5.23168877E-21
   4.18400002       5.68497445E-21
   4.19199991       5.70432313E-21
   4.19999981       5.26684677E-21
   4.20800018       4.38736637E-21
   4.21600008       3.11728426E-21
   4.22399998       1.54447979E-21
   4.23199987      -2.08333078E-22
   4.23999977      -1.98598068E-21
   4.24800014      -3.61585445E-21
   4.25600004      -4.94062055E-21
   4.26399994      -5.84323737E-21
   4.27199984      -6.24638735E-21
   4.28000021      -6.10780107E-21
   4.28800011      -5.43282129E-21
   4.29600000      -4.28444418E-21
   4.30399990      -2.77111281E-21
   4.31199980      -1.03007614E-21
   4.32000017       7.78817406E-22
   4.32800007       2.48615171E-21
   4.33599997       3.93959347E-21
   4.34399986       5.01982108E-21
   4.35200024       5.63836315E-21
   4.36000013       5.74293364E-21
   4.36800003       5.33540260E-21
   4.37599993       4.47327280E-21
   4.38399982       3.24904408E-21
   4.39200020       1.77747563E-21
   4.40000010       1.97629700E-22
   4.40799999      -1.33896206E-21
   4.41599989      -2.69959481E-21
   4.42399979      -3.78787288E-21
   4.43200016      -4.53348128E-21
   4.44000006      -4.88309838E-21
   4.44799995      -4.81378929E-21
   4.45599985      -4.34936857E-21
   4.46400023      -3.55520531E-21
   4.47200012      -2.51855837E-21
   4.48000002      -1.33635138E-21
   4.48799992      -1.13461965E-22
   4.49599981       1.04247749E-21
   4.50400019       2.03592938E-21
   4.51200008       2.79630102E-21
   4.51999998       3.28082490E-21
   4.52799988       3.47409637E-21
   4.53599977       3.39104631E-21
   4.54400015       3.07579719E-21
   4.55200005       2.58947417E-21
   4.55999994       1.99723567E-21
   4.56799984       1.36387977E-21
   4.57600021       7.49213488E-22
   4.58400011       1.96195235E-22
   4.59200001      -2.74256468E-22
   4.59999990      -6.53863454E-22
   4.60799980      -9.42335725E-22
   4.61600018      -1.15836618E-21
   4.62400007      -1.34152338E-21
   4.63199997      -1.52746019E-21
   4.63999987      -1.72553975E-21
   4.64799976      -1.92946542E-21
   4.65600014      -2.13732424E-21
   4.66400003      -2.34091184E-21
   4.67199993      -2.49668514E-21
   4.67999983      -2.52611467E-21
   4.68800020      -2.35439351E-21
   4.69600010      -1.94566370E-21
   4.70400000      -1.30255551E-21
   4.71199989      -4.46473916E-22
   4.71999979       5.86844608E-22
   4.72800016       1.73043155E-21
   4.73600006       2.87596866E-21
   4.74399996       3.89074014E-21
   4.75199986       4.64632762E-21
   4.76000023       5.03265772E-21
   4.76800013       4.96218904E-21
   4.77600002       4.38819436E-21
   4.78399992       3.33166863E-21
   4.79199982       1.88435459E-21
   4.80000019       1.82838583E-22
   4.80800009      -1.61484255E-21
   4.81599998      -3.33486830E-21
   4.82399988      -4.79593422E-21
   4.83199978      -5.83390857E-21
   4.84000015      -6.32819947E-21
   4.84800005      -6.21673931E-21
   4.85599995      -5.50288850E-21
   4.86399984      -4.25533009E-21
   4.87200022      -2.59765126E-21
   4.88000011      -6.94187802E-22
   4.88800001       1.26233487E-21
   4.89599991       3.07166493E-21
   4.90399981       4.55842272E-21
   4.91200018       5.59446846E-21
   4.92000008       6.09937054E-21
   4.92799997       6.04075744E-21
   4.93599987       5.44942751E-21
   4.94399977       4.42489283E-21
   4.95200014       3.10961204E-21
   4.96000004       1.65531270E-21
   4.96799994       2.13219636E-22
   4.97599983      -1.06314459E-21
   4.98400021      -2.03477565E-21
   4.99200010      -2.61190902E-21
   5.00000000      -2.77235015E-21
   5.00799990      -2.54484397E-21
   5.01599979      -1.97955286E-21
   5.02400017      -1.13955741E-21
   5.03200006      -1.16010326E-22
   5.03999996       9.68606283E-22
   5.04799986       1.99248907E-21
   5.05600023       2.87199855E-21
   5.06400013       3.56126295E-21
   5.07200003       4.02604475E-21
   5.07999992       4.24156569E-21
   5.08799982       4.21774144E-21
   5.09600019       4.00348752E-21
   5.10400009       3.65478566E-21
   5.11199999       3.20980389E-21
   5.11999989       2.69684286E-21
   5.12799978       2.14659650E-21
   5.13600016       1.58473174E-21
   5.14400005       1.02265070E-21
   5.15199995       4.62265372E-22
   5.15999985      -9.96807795E-23
   5.16800022      -6.76890165E-22
   5.17600012      -1.29399240E-21
   5.18400002      -1.97516372E-21
   5.19199991      -2.73300999E-21
   5.19999981      -3.56288056E-21
   5.20800018      -4.43906355E-21
   5.21600008      -5.31883192E-21
   5.22399998      -6.15735234E-21
   5.23199987      -6.91527839E-21
   5.23999977      -7.54778883E-21
   5.24800014      -7.99792210E-21
   5.25600004      -8.21305449E-21
   5.26399994      -8.16184442E-21
   5.27199984      -7.82637017E-21
   5.28000021      -7.18930378E-21
   5.28800011      -6.24705822E-21
   5.29600000      -5.03277647E-21
   5.30399990      -3.61098669E-21
   5.31199980      -2.04920183E-21
   5.32000017      -4.05807367E-22
   5.32800007       1.25513147E-21
   5.33599997       2.85175969E-21
   5.34399986       4.29545804E-21
   5.35200024       5.51073257E-21
   5.36000013       6.44409361E-21
   5.36800003       7.06259085E-21
   5.37599993       7.35251847E-21
   5.38399982       7.32027619E-21
   5.39200020       6.99023436E-21
   5.40000010       6.39793467E-21
   5.40799999       5.58204257E-21
   5.41599989       4.57977795E-21
   5.42399979       3.42903078E-21
   5.43200016       2.17407137E-21
   5.44000006       8.66366073E-22
   5.44799995      -4.42987934E-22
   5.45599985      -1.70889375E-21
   5.46400023      -2.88537359E-21
   5.47200012      -3.91527323E-21
   5.48000002      -4.73481697E-21
   5.48799992      -5.28909462E-21
   5.49599981      -5.53498698E-21
   5.50400019      -5.42852019E-21
   5.51200008      -4.92436532E-21
   5.51999998      -4.00108959E-21
   5.52799988      -2.68639304E-21
   5.53599977      -1.05571117E-21
   5.54400015       7.83790839E-22
   5.55200005       2.70005808E-21
   5.55999994       4.53904335E-21
   5.56799984       6.14186977E-21
   5.57600021       7.36914690E-21
   5.58400011       8.11020621E-21
   5.59200001       8.27887917E-21
   5.59999990       7.81954593E-21
   5.60799980       6.73081873E-21
   5.61600018       5.08472083E-21
   5.62400007       3.01869467E-21
   5.63199997       7.05094277E-22
   5.63999987      -1.67729701E-21
   5.64799976      -3.95549933E-21
   5.65600014      -5.96780520E-21
   5.66400003      -7.57708993E-21
   5.67199993      -8.68790544E-21
   5.67999983      -9.25202727E-21
   5.68800020      -9.26190901E-21
   5.69600010      -8.74653267E-21
   5.70400000      -7.77368103E-21
   5.71199989      -6.44587197E-21
   5.71999979      -4.88186367E-21
   5.72800016      -3.19202778E-21
   5.73600006      -1.46175264E-21
   5.74399996       2.47892055E-22
   5.75199986       1.88392040E-21
   5.76000023       3.38762147E-21
   5.76800013       4.70240425E-21
   5.77600002       5.79293445E-21
   5.78399992       6.64326764E-21
   5.79199982       7.23140921E-21
   5.80000019       7.51889082E-21
   5.80800009       7.47411806E-21
   5.81599998       7.09500599E-21
   5.82399988       6.39916817E-21
   5.83199978       5.40482761E-21
   5.84000015       4.13881314E-21
   5.84800005       2.66068076E-21
   5.85599995       1.06588977E-21
   5.86399984      -5.35938064E-22
   5.87200022      -2.03999137E-21
   5.88000011      -3.34914565E-21
   5.88800001      -4.37540941E-21
   5.89599991      -5.05318618E-21
   5.90399981      -5.35629416E-21
   5.91200018      -5.30047522E-21
   5.92000008      -4.92728267E-21
   5.92799997      -4.28671408E-21
   5.93599987      -3.43538085E-21
   5.94399977      -2.44335885E-21
   5.95200014      -1.39141786E-21
   5.96000004      -3.57955190E-22
   5.96799994       5.91406067E-22
   5.97599983       1.41092062E-21
   5.98400021       2.08223292E-21
   5.99200010       2.61069208E-21
   6.00000000       3.00452698E-21
   6.00799990       3.26020172E-21
   6.01599979       3.37088863E-21
   6.02400017       3.33431719E-21
   6.03200006       3.14007474E-21
   6.03999996       2.76377098E-21
   6.04799986       2.19049159E-21
   6.05600023       1.43241399E-21
   6.06400013       5.09540481E-22
   6.07200003      -5.67459633E-22
   6.07999992      -1.77068431E-21
   6.08799982      -3.02305736E-21
   6.09600019      -4.21399812E-21
   6.10400009      -5.23515986E-21
   6.11199999      -5.98228894E-21
   6.11999989      -6.34257456E-21
   6.12799978      -6.21717955E-21
   6.13600016      -5.56124391E-21
   6.14400005      -4.39021748E-21
   6.15199995      -2.75888746E-21
   6.15999985      -7.54714360E-22
   6.16800022       1.49510048E-21
   6.17600012       3.82857800E-21
   6.18400002       6.06140222E-21
   6.19199991       7.99392595E-21
   6.19999981       9.43031700E-21
   6.20800018       1.02176782E-20
   6.21600008       1.02710104E-20
   6.22399998       9.56267640E-21
   6.23199987       8.10948001E-21
   6.23999977       5.98562391E-21
   6.24800014       3.33424045E-21
   6.25600004       3.47359009E-22
   6.26399994      -2.76312151E-21
   6.27199984      -5.77244275E-21
   6.28000021      -8.44519417E-21
   6.28800011      -1.05630770E-20
   6.29600000      -1.19633807E-20
   6.30399990      -1.25509851E-20
   6.31199980      -1.22850789E-20
   6.32000017      -1.11739023E-20
   6.32800007      -9.28677370E-21
   6.33599997      -6.75700901E-21
   6.34399986      -3.76147944E-21
   6.35200024      -4.98525458E-22
   6.36000013       2.81651162E-21
   6.36800003       5.95506427E-21
   6.37599993       8.70010070E-21
   6.38399982       1.08754565E-20
   6.39200020       1.23505772E-20
   6.40000010       1.30312257E-20
   6.40799999       1.28676644E-20
   6.41599989       1.18722568E-20
   6.42399979       1.01125649E-20
   6.43200016       7.68777622E-21
   6.44000006       4.72853395E-21
   6.44799995       1.41487830E-21
   6.45599985      -2.03477181E-21
   6.46400023      -5.40391520E-21
   6.47200012      -8.49435891E-21
   6.48000002      -1.11078191E-20
   6.48799992      -1.30469122E-20
   6.49599981      -1.41575597E-20
   6.50400019      -1.43606907E-20
   6.51200008      -1.36360191E-20
   6.51999998      -1.19963104E-20
   6.52799988      -9.49805695E-21
   6.53599977      -6.26964049E-21
   6.54400015      -2.51212854E-21
   6.55200005       1.52926288E-21
   6.55999994       5.59047715E-21
   6.56799984       9.39619338E-21
   6.57600021       1.26673712E-20
   6.58400011       1.51479841E-20
   6.59200001       1.66424894E-20
   6.59999990       1.70351013E-20
   6.60799980       1.62793264E-20