 -0.239999995       0.00000000    
 -0.231999993       0.00000000    
 -0.224000007       0.00000000    
 -0.216000006       0.00000000    
 -0.208000004       0.00000000    
 -0.200000003      -8.22468731E-36
 -0.192000002      -4.25128610E-35
 -0.184000000       1.41075130E-30
 -0.175999999      -3.65639530E-30
 -0.167999998      -3.83257802E-29
 -0.159999996      -2.47954091E-29
 -0.151999995       2.77090474E-28
 -0.143999994       5.79664180E-28
 -0.136000007      -6.01875352E-28
 -0.128000006      -3.33248627E-27
 -0.119999997      -1.98566594E-27
 -0.112000003       8.75544470E-27
 -0.104000002       1.64782119E-26
  -9.60000008E-02  -4.78489321E-27
  -8.79999995E-02  -4.66407077E-26
  -7.99999982E-02  -4.06215757E-26
  -7.19999969E-02   5.52893380E-26
  -6.40000030E-02   1.38926380E-25
  -5.60000017E-02   4.24365228E-26
  -4.80000004E-02  -1.96090705E-25
  -3.99999991E-02  -2.64159960E-25
  -3.20000015E-02   3.87240509E-26
  -2.40000002E-02   4.12834676E-25
  -1.60000008E-02   3.34388376E-25
  -8.00000038E-03  -2.12182235E-25
   1.38777878E-17  -5.78896701E-25
   8.00000038E-03  -2.63650922E-25
   1.60000008E-02   3.61425005E-25
   2.40000002E-02   5.11915063E-25
   3.20000015E-02   7.62625795E-26
   3.99999991E-02  -2.67748266E-25
   4.80000004E-02  -1.21834328E-25
   5.60000017E-02   4.21686583E-26
   6.40000030E-02  -2.26520669E-25
   7.19999969E-02  -4.31514607E-25
   7.99999982E-02   1.20024201E-25
   8.79999995E-02   9.41915797E-25
   9.60000008E-02   7.92504210E-25
  0.104000002      -4.34497487E-25
  0.112000003      -1.32290169E-24
  0.119999997      -8.44516324E-25
  0.128000006       3.37766056E-25
  0.136000007       1.02924546E-24
  0.143999994       9.65067385E-25
  0.151999995       4.23659524E-25
  0.159999996      -5.22150435E-25
  0.167999998      -1.40048754E-24
  0.175999999      -1.08999248E-24
  0.184000000       5.30224081E-25
  0.192000002       1.63660180E-24
  0.200000003       7.12074467E-25
  0.208000004      -1.01892016E-24
  0.216000006      -1.16033915E-24
  0.224000007       3.58906813E-25
  0.231999993       1.30526395E-24
  0.239999995       5.36634168E-25
  0.247999996      -6.50643156E-25
  0.256000012      -9.35173304E-25
  0.263999999      -7.63570616E-25
  0.272000015      -7.76231094E-25
  0.280000001      -1.36135846E-25
  0.287999988       1.86713693E-24
  0.296000004       3.44107911E-24
  0.303999990       1.71763103E-24
  0.312000006      -2.97328223E-24
  0.319999993      -6.02914281E-24
  0.328000009      -3.33682996E-24
  0.335999995       3.41849954E-24
  0.344000012       7.68644293E-24
  0.351999998       4.70522516E-24
  0.360000014      -3.31801089E-24
  0.368000001      -8.87508671E-24
  0.375999987      -6.09877438E-24
  0.384000003       3.16576370E-24
  0.391999990       1.01192702E-23
  0.400000006       7.36351247E-24
  0.407999992      -2.76480956E-24
  0.416000009      -9.98543447E-24
  0.423999995      -7.41590703E-24
  0.432000011       1.06343085E-24
  0.439999998       6.52985294E-24
  0.448000014       5.50464773E-24
  0.456000000       1.62569441E-24
  0.463999987      -9.12586638E-25
  0.472000003      -1.69616218E-24
  0.479999989      -2.34757156E-24
  0.488000005      -3.45583081E-24
  0.495999992      -3.53681606E-24
  0.504000008      -5.07629231E-25
  0.512000024       4.93130954E-24
  0.519999981       7.85131250E-24
  0.527999997       4.08950187E-24
  0.536000013      -3.38465347E-24
  0.544000030      -7.31793051E-24
  0.551999986      -5.39550370E-24
  0.560000002      -1.55812266E-24
  0.568000019       1.70428034E-24
  0.575999975       5.46654180E-24
  0.583999991       7.86335130E-24
  0.592000008       3.90021548E-24
  0.600000024      -5.23717379E-24
  0.607999980      -1.03460820E-23
  0.615999997      -5.87569911E-24
  0.624000013       2.83675190E-24
  0.632000029       7.47948449E-24
  0.639999986       5.85684257E-24
  0.648000002       8.16082671E-25
  0.656000018      -4.16713801E-24
  0.663999975      -5.62302735E-24
  0.671999991      -1.97954271E-24
  0.680000007       3.18277213E-24
  0.688000023       4.42148097E-24
  0.695999980       1.78056635E-24
  0.703999996      -3.69537306E-25
  0.712000012      -1.19872680E-24
  0.720000029      -3.42233499E-24
  0.727999985      -5.83233858E-24
  0.736000001      -3.35081173E-24
  0.744000018       4.22039440E-24
  0.751999974       9.64272647E-24
  0.759999990       6.75431385E-24
  0.768000007      -1.90013695E-24
  0.776000023      -7.70603114E-24
  0.783999979      -5.39050074E-24
  0.791999996       1.14897946E-24
  0.800000012       3.19732602E-24
  0.808000028      -1.62305459E-24
  0.815999985      -5.43776100E-24
  0.824000001      -7.27400801E-25
  0.832000017       7.40327342E-24
  0.839999974       8.19141647E-24
  0.847999990       9.51828228E-25
  0.856000006      -5.67035388E-24
  0.864000022      -6.67390289E-24
  0.871999979      -3.85483389E-24
  0.879999995       1.41189615E-24
  0.888000011       7.44668523E-24
  0.896000028       7.80252303E-24
  0.903999984      -1.14562167E-24
  0.912000000      -1.04186051E-23
  0.920000017      -8.60684403E-24
  0.927999973       8.46376064E-25
  0.935999990       5.63725683E-24
  0.944000006       4.16078058E-24
  0.952000022       4.41005668E-24
  0.959999979       5.81882539E-24
  0.967999995       3.78479882E-25
  0.976000011      -1.05565051E-23
  0.984000027      -1.31849943E-23
  0.991999984      -1.64374335E-24
   1.00000000       1.18712925E-23
   1.00800002       1.32581991E-23
   1.01600003       2.16020546E-24
   1.02400005      -9.78942383E-24
   1.03199995      -1.18194777E-23
   1.03999996      -2.71323857E-24
   1.04799998       7.96926850E-24
   1.05599999       9.02315275E-24
   1.06400001       1.05230722E-24
   1.07200003      -3.92314452E-24
   1.08000004       3.12390866E-25
   1.08800006       4.90404020E-24
   1.09599996       1.84938505E-25
   1.10399997      -8.85559475E-24
   1.11199999      -9.70260417E-24
   1.12000000      -2.23816405E-25
   1.12800002       9.86816951E-24
   1.13600004       1.16001349E-23
   1.14400005       4.11394196E-24
   1.15199995      -6.70569083E-24
   1.15999997      -1.20865750E-23
   1.16799998      -6.89368506E-24
   1.17600000       3.78361711E-24
   1.18400002       9.20770360E-24
   1.19200003       5.65002257E-24
   1.20000005      -1.15163496E-24
   1.20799994      -6.15498229E-24
   1.21599996      -8.30737034E-24
   1.22399998      -4.51214002E-24
   1.23199999       7.14585786E-24
   1.24000001       1.66895200E-23
   1.24800003       9.95318663E-24
   1.25600004      -9.06868580E-24
   1.26400006      -1.90064676E-23
   1.27199996      -9.95720982E-24
   1.27999997       4.31564068E-24
   1.28799999       9.37072013E-24
   1.29600000       7.83772910E-24
   1.30400002       5.36665387E-24
   1.31200004      -2.01599202E-24
   1.32000005      -1.33471100E-23
   1.32799995      -1.34225377E-23
   1.33599997       4.67326052E-24
   1.34399998       2.18224249E-23
   1.35200000       1.64722945E-23
   1.36000001      -4.22460101E-24
   1.36800003      -1.52516032E-23
   1.37600005      -8.16398777E-24
   1.38399994       2.77506495E-24
   1.39199996       4.19615744E-24
   1.39999998      -2.67227125E-24
   1.40799999      -9.53769832E-24
   1.41600001      -9.91156080E-24
   1.42400002      -1.70033762E-24
   1.43200004       9.92402717E-24
   1.44000006       1.41542409E-23
   1.44799995       6.08728422E-24
   1.45599997      -6.01714147E-24
   1.46399999      -9.71172182E-24
   1.47200000      -1.56701835E-24
   1.48000002       1.12258772E-23
   1.48800004       1.80223967E-23
   1.49600005       1.16552676E-23
   1.50399995      -5.98273452E-24
   1.51199996      -2.28683251E-23
   1.51999998      -2.58063996E-23
   1.52800000      -1.25266268E-23
   1.53600001       6.94134409E-24
   1.54400003       1.90809502E-23
   1.55200005       1.57325765E-23
   1.55999994      -2.29861545E-25
   1.56799996      -1.42734062E-23
   1.57599998      -1.17202398E-23
   1.58399999       5.45564211E-24
   1.59200001       1.96716666E-23
   1.60000002       1.86236886E-23
   1.60800004       6.91691938E-24
   1.61600006      -5.15818830E-24
   1.62399995      -1.30691209E-23
   1.63199997      -1.49428667E-23
   1.63999999      -9.77958279E-24
   1.64800000      -3.46250457E-24
   1.65600002      -4.29535197E-24
   1.66400003      -8.77693033E-24
   1.67200005      -4.81202194E-24
   1.67999995       8.02679066E-24
   1.68799996       1.61942557E-23
   1.69599998       1.35369620E-23
   1.70400000       8.95017759E-24
   1.71200001       8.40799665E-24
   1.72000003       5.68771750E-24
   1.72800004      -3.00228805E-24
   1.73599994      -1.01232169E-23
   1.74399996      -9.64587324E-24
   1.75199997      -6.50948889E-24
   1.75999999      -6.63754271E-24
   1.76800001      -7.55837768E-24
   1.77600002      -4.63365418E-24
   1.78400004       1.06787322E-24
   1.79200006       5.11053519E-24
   1.79999995       4.63768052E-24
   1.80799997       4.06120478E-26
   1.81599998      -3.64627406E-24
   1.82400000       8.30482587E-25
   1.83200002       1.34057555E-23
   1.84000003       2.21405157E-23
   1.84800005       1.49396671E-23
   1.85599995      -5.37887175E-24
   1.86399996      -2.29032353E-23
   1.87199998      -2.43751630E-23
   1.88000000      -1.03103024E-23
   1.88800001       7.22584993E-24
   1.89600003       1.53141189E-23
   1.90400004       1.07114736E-23
   1.91199994       1.18487381E-24
   1.91999996      -4.65890167E-24
   1.92799997      -6.73408824E-24
   1.93599999      -9.09022802E-24
   1.94400001      -9.98679210E-24
   1.95200002      -3.81798107E-24
   1.96000004       7.82058163E-24
   1.96800005       1.48421734E-23
   1.97599995       1.08780803E-23
   1.98399997       1.61820418E-24
   1.99199998      -2.44938175E-24
   2.00000000       1.22421815E-24
   2.00799990       5.21008549E-24
   2.01600003       2.60508909E-24
   2.02399993      -3.63216410E-24
   2.03200006      -5.13495635E-24
   2.03999996      -8.70669528E-25
   2.04800010       3.73530840E-25
   2.05599999      -7.42869289E-24
   2.06399989      -1.78343181E-23
   2.07200003      -1.97202731E-23
   2.07999992      -1.05666135E-23
   2.08800006       3.05545195E-24
   2.09599996       1.46282706E-23
   2.10400009       2.13794574E-23
   2.11199999       2.15149790E-23
   2.11999989       1.46577898E-23
   2.12800002       5.21273133E-24
   2.13599992       7.54544778E-26
   2.14400005       1.11081220E-24
   2.15199995       2.38059821E-24
   2.16000009      -3.54129639E-24
   2.16799998      -1.66529373E-23
   2.17600012      -2.80238955E-23
   2.18400002      -2.79810036E-23
   2.19199991      -1.54840821E-23
   2.20000005       1.54334582E-24
   2.20799994       1.42489105E-23
   2.21600008       1.89701752E-23
   2.22399998       1.68345552E-23
   2.23200011       1.14903034E-23
   2.24000001       7.66350996E-24
   2.24799991       7.96653668E-24
   2.25600004       9.75476444E-24
   2.26399994       7.43698303E-24
   2.27200007      -1.57262321E-24
   2.27999997      -1.44825664E-23
   2.28800011      -2.52051583E-23
   2.29600000      -2.72771882E-23
   2.30399990      -1.76404208E-23
   2.31200004      -3.87449255E-25
   2.31999993       1.52400101E-23
   2.32800007       2.23304529E-23
   2.33599997       1.98129059E-23
   2.34400010       9.89318902E-24
   2.35200000      -2.54501240E-24
   2.35999990      -9.11535560E-24
   2.36800003      -4.83517540E-24
   2.37599993       3.20246782E-24
   2.38400006       2.55851395E-24
   2.39199996      -7.64080260E-24
   2.40000010      -1.53260291E-23
   2.40799999      -1.26786648E-23
   2.41599989      -5.02947894E-24
   2.42400002       5.69939826E-25
   2.43199992       5.89380859E-24
   2.44000006       1.48606454E-23
   2.44799995       2.32748077E-23
   2.45600009       2.23371756E-23
   2.46399999       1.01752241E-23
   2.47199988      -4.89819434E-24
   2.48000002      -1.32412875E-23
   2.48799992      -1.41393583E-23
   2.49600005      -1.49914842E-23
   2.50399995      -1.96885561E-23
   2.51200008      -2.19077007E-23
   2.51999998      -1.42587445E-23
   2.52800012      -1.61206549E-25
   2.53600001       1.08483221E-23
   2.54399991       1.67941119E-23
   2.55200005       2.28587436E-23
   2.55999994       2.84930217E-23
   2.56800008       2.56113506E-23
   2.57599998       1.15581431E-23
   2.58400011      -5.14628715E-24
   2.59200001      -1.52400874E-23
   2.59999990      -1.82701921E-23
   2.60800004      -1.88474742E-23
   2.61599994      -1.85727424E-23
   2.62400007      -1.52350261E-23
   2.63199997      -8.04834550E-24
   2.64000010      -7.66790155E-25
   2.64800000       2.20319266E-24
   2.65599990       2.60025081E-24
   2.66400003       7.35514739E-24
   2.67199993       1.79788658E-23
   2.68000007       2.57346654E-23
   2.68799996       2.23436269E-23
   2.69600010       1.05216848E-23
   2.70400000      -2.23882886E-24
   2.71199989      -1.40340548E-23
   2.72000003      -2.45281641E-23
   2.72799993      -2.74035164E-23
   2.73600006      -1.75903155E-23
   2.74399996      -1.55626479E-24
   2.75200009       9.51888083E-24
   2.75999999       1.30725249E-23
   2.76799989       1.34888178E-23
   2.77600002       1.23172631E-23
   2.78399992       8.55625911E-24
   2.79200006       4.14069105E-24
   2.79999995       1.52355911E-24
   2.80800009      -6.44111782E-25
   2.81599998      -4.59331459E-24
   2.82399988      -1.04432499E-23
   2.83200002      -1.78609390E-23
   2.83999991      -2.43152664E-23
   2.84800005      -2.16244350E-23
   2.85599995      -3.91444811E-24
   2.86400008       1.98554807E-23
   2.87199998       3.19146206E-23
   2.88000011       2.64673625E-23
   2.88800001       1.47541144E-23
   2.89599991       7.93879638E-24
   2.90400004       5.06821911E-24
   2.91199994       3.13429599E-25
   2.92000008      -7.30431477E-24
   2.92799997      -1.53265135E-23
   2.93600011      -2.22169863E-23
   2.94400001      -2.66823366E-23
   2.95199990      -2.58899053E-23
   2.96000004      -1.69747910E-23
   2.96799994      -5.78456664E-25
   2.97600007       1.66439696E-23
   2.98399997       2.55510895E-23
   2.99200010       2.39170999E-23
   3.00000000       1.95481452E-23
   3.00799990       1.90788913E-23
   3.01600003       1.78185866E-23
   3.02399993       7.87851005E-24
   3.03200006      -8.09341706E-24
   3.03999996      -2.01396599E-23
   3.04800010      -2.41418984E-23
   3.05599999      -2.27138629E-23
   3.06399989      -1.72479483E-23
   3.07200003      -8.90840899E-24
   3.07999992      -3.28748415E-24
   3.08800006      -3.70151049E-24
   3.09599996      -2.63495201E-24
   3.10400009       9.61801856E-24
   3.11199999       2.88571882E-23
   3.11999989       3.84294347E-23
   3.12800002       2.75329685E-23
   3.13599992       2.89770225E-24
   3.14400005      -1.79562349E-23
   3.15199995      -2.26793030E-23
   3.16000009      -1.45163344E-23
   3.16799998      -7.58564308E-24
   3.17600012      -1.02977713E-23
   3.18400002      -1.54315140E-23
   3.19199991      -1.07453923E-23
   3.20000005       3.72915928E-24
   3.20799994       1.58957602E-23
   3.21600008       1.75595105E-23
   3.22399998       1.26297270E-23
   3.23200011       8.91808989E-24
   3.24000001       8.25692584E-24
   3.24799991       6.69202223E-24
   3.25600004       5.80061750E-25
   3.26399994      -9.30110395E-24
   3.27200007      -1.83430939E-23
   3.27999997      -2.20333158E-23
   3.28800011      -1.91540745E-23
   3.29600000      -1.10157160E-23
   3.30399990       4.52014340E-25
   3.31200004       1.19882758E-23
   3.31999993       1.88158519E-23
   3.32800007       1.84633005E-23
   3.33599997       1.36169604E-23
   3.34400010       9.07795097E-24
   3.35200000       7.22745921E-24
   3.35999990       7.00175190E-24
   3.36800003       4.57510887E-24
   3.37599993      -4.61879638E-24
   3.38400006      -2.00613450E-23
   3.39199996      -3.24482345E-23
   3.40000010      -3.12849108E-23
   3.40799999      -1.67915497E-23
   3.41599989       4.49702386E-25
   3.42400002       1.14869894E-23
   3.43199992       1.59663002E-23
   3.44000006       1.80901346E-23
   3.44799995       2.03619152E-23
   3.45600009       2.11642530E-23
   3.46399999       1.63508383E-23
   3.47199988       4.98195559E-24
   3.48000002      -6.43369080E-24
   3.48799992      -1.06199019E-23
   3.49600005      -1.01587377E-23
   3.50399995      -1.35807706E-23
   3.51200008      -2.05959923E-23
   3.51999998      -2.12438806E-23
   3.52800012      -1.12945507E-23
   3.53600001       1.88434987E-24
   3.54399991       1.07654743E-23
   3.55200005       1.47436447E-23
   3.55999994       1.44558445E-23
   3.56800008       9.66879123E-24
   3.57599998       4.34742468E-24
   3.58400011       3.95393967E-24
   3.59200001       6.54651921E-24
   3.59999990       5.15622838E-24
   3.60800004      -1.55945919E-24
   3.61599994      -8.95029040E-24
   3.62400007      -1.40843116E-23
   3.63199997      -1.59306121E-23
   3.64000010      -1.17861223E-23
   3.64800000      -1.71312209E-24
   3.65599990       7.61717779E-24
   3.66400003       1.06007570E-23
   3.67199993       9.39396471E-24
   3.68000007       7.63525375E-24
   3.68799996       4.49594234E-24
   3.69600010       7.57926218E-26
   3.70400000      -1.56085133E-24
   3.71199989      -1.97594397E-25
   3.72000003      -1.73688475E-24
   3.72799993      -7.73544224E-24
   3.73600006      -1.14092393E-23
   3.74399996      -8.44883598E-24
   3.75200009      -3.16686396E-24
   3.75999999       3.46513377E-26
   3.76799989       2.93145584E-24
   3.77600002       7.58037033E-24
   3.78399992       1.14091257E-23
   3.79200006       1.13891651E-23
   3.79999995       8.01010310E-24
   3.80800009       3.47901701E-24
   3.81599998      -3.45250990E-25
   3.82399988      -2.66494194E-24
   3.83200002      -4.79610707E-24
   3.83999991      -8.28268610E-24
   3.84800005      -1.07845490E-23
   3.85599995      -8.63085143E-24
   3.86400008      -4.23018930E-24
   3.87199998      -3.72882954E-24
   3.88000011      -6.09246112E-24
   3.88800001      -3.45214012E-24
   3.89599991       5.51754363E-24
   3.90400004       1.22447005E-23
   3.91199994       1.16321792E-23
   3.92000008       9.06116875E-24
   3.92799997       9.76774357E-24
   3.93600011       1.00503096E-23
   3.94400001       4.47704478E-24
   3.95199990      -4.88899346E-24
   3.96000004      -1.15815904E-23
   3.96799994      -1.25597763E-23
   3.97600007      -9.36690993E-24
   3.98399997      -4.95722559E-24
   3.99200010      -1.99922005E-24
   4.00000000      -1.83998158E-24
   4.00799990      -3.43045868E-24
   4.01599979      -4.34863794E-24
   4.02400017      -3.12829813E-24
   4.03200006       1.83417692E-25
   4.03999996       4.54036230E-24
   4.04799986       7.51701612E-24
   4.05600023       5.63438261E-24
   4.06400013      -2.82787505E-24
   4.07200003      -1.51372121E-23
   4.07999992      -2.53170219E-23
   4.08799982      -2.89179084E-23
   4.09600019      -2.70501572E-23
   4.10400009      -2.52207304E-23
   4.11199999      -2.75233664E-23
   4.11999989      -3.28556875E-23
   4.12799978      -3.74947355E-23
   4.13600016      -3.95947811E-23
   4.14400005      -3.92988194E-23
   4.15199995      -3.64175270E-23
   4.15999985      -3.06688988E-23
   4.16800022      -2.27149689E-23
   4.17600012      -1.28628204E-23
   4.18400002      -8.03505911E-25
   4.19199991       1.16868063E-23
   4.19999981       2.10375998E-23
   4.20800018       2.75224987E-23
   4.21600008       3.70660969E-23
   4.22399998       5.37997205E-23
   4.23199987       7.31668174E-23
   4.23999977       8.56643621E-23
   4.24800014       8.61035998E-23
   4.25600004       7.73349249E-23
   4.26399994       6.62742494E-23
   4.27199984       5.79115665E-23
   4.28000021       5.25850767E-23
   4.28800011       4.80409160E-23
   4.29600000       4.28034728E-23
   4.30399990       3.58937581E-23
   4.31199980       2.52162165E-23
   4.32000017       1.08930150E-23
   4.32800007      -7.50480653E-25
   4.33599997      -2.87847219E-24
   4.34399986       1.73741428E-24
   4.35200024       2.88370451E-24
   4.36000013      -4.10426304E-24
   4.36800003      -1.42635739E-23
   4.37599993      -2.19022955E-23
   4.38399982      -2.57333574E-23
   4.39200020      -2.51897771E-23
   4.40000010      -2.03802231E-23
   4.40799999      -1.63104897E-23
   4.41599989      -1.86772522E-23
   4.42399979      -2.49640161E-23
   4.43200016      -2.72755979E-23
   4.44000006      -2.33109896E-23
   4.44799995      -1.70574242E-23
   4.45599985      -1.08439116E-23
   4.46400023      -5.09299132E-24
   4.47200012      -3.31863528E-24
   4.48000002      -8.40089532E-24
   4.48799992      -1.60098232E-23
   4.49599981      -1.98638742E-23
   4.50400019      -2.07916030E-23
   4.51200008      -2.28334779E-23
   4.51999998      -2.38279428E-23
   4.52799988      -1.84383094E-23
   4.53599977      -8.16844089E-24
   4.54400015      -6.52787083E-25
   4.55200005      -8.61381443E-26
   4.55999994      -3.69737095E-24
   4.56799984      -6.21660811E-24
   4.57600021      -4.28604499E-24
   4.58400011       1.25257533E-24
   4.59200001       4.83512807E-24
   4.59999990       8.24334698E-25
   4.60799980      -9.24110713E-24
   4.61600018      -1.67466366E-23
   4.62400007      -1.46568763E-23
   4.63199997      -3.96185550E-24
   4.63999987       8.12051759E-24
   4.64799976       1.38631055E-23
   4.65600014       1.04301327E-23
   4.66400003       2.82477936E-24
   4.67199993       2.93618540E-25
   4.67999983       7.06215261E-24
   4.68800020       1.77692055E-23
   4.69600010       2.35200788E-23
   4.70400000       2.01415895E-23
   4.71199989       9.53039031E-24
   4.71999979      -3.44897206E-24
   4.72800016      -1.35652837E-23
   4.73600006      -1.79124958E-23
   4.74399996      -1.78633229E-23
   4.75199986      -1.64906040E-23
   4.76000023      -1.42075947E-23
   4.76800013      -9.64400364E-24
   4.77600002      -3.96481294E-24
   4.78399992      -7.20764312E-25
   4.79199982      -1.50794115E-24
   4.80000019      -4.31408663E-24
   4.80800009      -5.60302776E-24
   4.81599998      -2.76915835E-24
   4.82399988       3.30059994E-24
   4.83199978       6.55459832E-24
   4.84000015      -3.80668928E-26
   4.84800005      -1.61435099E-23
   4.85599995      -3.26807119E-23
   4.86399984      -4.09050380E-23
   4.87200022      -4.02071738E-23
   4.88000011      -3.55234195E-23
   4.88800001      -3.05061126E-23
   4.89599991      -2.54625399E-23
   4.90399981      -1.91950558E-23
   4.91200018      -1.03221400E-23
   4.92000008       2.31723611E-24
   4.92799997       1.94802322E-23
   4.93599987       4.17816139E-23
   4.94399977       6.87347065E-23
   4.95200014       9.62557285E-23
   4.96000004       1.17135734E-22
   4.96799994       1.26321584E-22
   4.97599983       1.24437885E-22
   4.98400021       1.14631524E-22
   4.99200010       9.84516206E-23
   5.00000000       7.71205693E-23
   5.00799990       5.41083860E-23
   5.01599979       3.27966965E-23
   5.02400017       1.28432212E-23
   5.03200006      -7.93764228E-24
   5.03999996      -2.86839859E-23
   5.04799986      -4.52487965E-23
   5.05600023      -5.47449273E-23
   5.06400013      -5.82069160E-23
   5.07200003      -5.87008691E-23
   5.07999992      -5.87786130E-23
   5.08799982      -6.00880400E-23
   5.09600019      -6.33959547E-23
   5.10400009      -6.76972030E-23
   5.11199999      -7.04465789E-23
   5.11999989      -6.98350224E-23
   5.12799978      -6.60502192E-23
   5.13600016      -5.97883865E-23
   5.14400005      -5.12277910E-23
   5.15199995      -4.14363800E-23
   5.15999985      -3.23059304E-23
   5.16800022      -2.30724081E-23
   5.17600012      -9.57436300E-24
   5.18400002       9.65944322E-24
   5.19199991       2.85067415E-23
   5.19999981       3.81608055E-23
   5.20800018       3.59934480E-23
   5.21600008       2.66867921E-23
   5.22399998       1.62679779E-23
   5.23199987       8.47007764E-24
   5.23999977       5.36832349E-24
   5.24800014       7.31232407E-24
   5.25600004       1.18071060E-23
   5.26399994       1.47442537E-23
   5.27199984       1.31244777E-23
   5.28000021       6.67665996E-24
   5.28800011      -1.37131596E-24
   5.29600000      -5.25029136E-24
   5.30399990      -1.63243286E-24
   5.31199980       5.50542515E-24
   5.32000017       8.05831354E-24
   5.32800007       2.55314970E-24
   5.33599997      -6.92060099E-24
   5.34399986      -1.42746195E-23
   5.35200024      -1.64738375E-23
   5.36000013      -1.33843789E-23
   5.36800003      -6.75453315E-24
   5.37599993      -1.89403617E-25
   5.38399982       2.84803123E-24
   5.39200020       1.93922915E-24
   5.40000010      -5.94019657E-25
   5.40799999      -2.35364283E-24
   5.41599989      -2.50375143E-24
   5.42399979      -2.32747908E-24
   5.43200016      -4.58898572E-24
   5.44000006      -1.02669040E-23
   5.44799995      -1.62753759E-23
   5.45599985      -1.94546384E-23
   5.46400023      -2.17713730E-23
   5.47200012      -2.70821376E-23
   5.48000002      -3.37058902E-23
   5.48799992      -3.58110224E-23
   5.49599981      -3.19379772E-23
   5.50400019      -2.65913178E-23
   5.51200008      -2.33168935E-23
   5.51999998      -2.13989391E-23
   5.52799988      -1.91839139E-23
   5.53599977      -1.51642905E-23
   5.54400015      -5.51694213E-24
   5.55200005       1.41280176E-23
   5.55999994       4.25854474E-23
   5.56799984       7.14231319E-23
   5.57600021       9.05926033E-23
   5.58400011       9.61053653E-23
   5.59200001       9.37120307E-23
   5.59999990       9.43626138E-23
   5.60799980       1.02205930E-22
   5.61600018       1.07107066E-22
   5.62400007       9.38268826E-23
   5.63199997       5.91229918E-23
   5.63999987       1.49069120E-23
   5.64799976      -2.56632656E-23
   5.65600014      -5.91320416E-23
   5.66400003      -8.79169071E-23
   5.67199993      -1.12405194E-22
   5.67999983      -1.30584967E-22
   5.68800020      -1.41834553E-22
   5.69600010      -1.47100143E-22
   5.70400000      -1.45249689E-22
   5.71199989      -1.30323343E-22
   5.71999979      -9.47652042E-23
   5.72800016      -3.88359032E-23
   5.73600006       2.39716606E-23
   5.74399996       7.66285852E-23
   5.75199986       1.14936794E-22
   5.76000023       1.48279269E-22
   5.76800013       1.82123307E-22
   5.77600002       2.06701386E-22
   5.78399992       2.07202256E-22
   5.79199982       1.79518388E-22
   5.80000019       1.31070792E-22
   5.80800009       7.08335688E-23
   5.81599998       4.81172059E-24
   5.82399988      -6.05856472E-23
   5.83199978      -1.16747135E-22
   5.84000015      -1.56655179E-22
   5.84800005      -1.78665534E-22
   5.85599995      -1.84315041E-22
   5.86399984      -1.71942357E-22
   5.87200022      -1.34868760E-22
   5.88000011      -6.93950652E-23
   5.88800001       1.55750267E-23
   5.89599991       1.00769332E-22
   5.90399981       1.70120379E-22
   5.91200018       2.20318223E-22
   5.92000008       2.56782631E-22
   5.92799997       2.83074317E-22
   5.93599987       2.95506386E-22
   5.94399977       2.86948167E-22
   5.95200014       2.55571622E-22
   5.96000004       2.09470515E-22
   5.96799994       1.60234285E-22
   5.97599983       1.11470729E-22
   5.98400021       5.77047650E-23
   5.99200010      -3.98604907E-24
   6.00000000      -6.65137475E-23
   6.00799990      -1.20269191E-22
   6.01599979      -1.63565954E-22
   6.02400017      -2.01712693E-22
   6.03200006      -2.39346407E-22
   6.03999996      -2.77253331E-22
   6.04799986      -3.13332977E-22
   6.05600023      -3.43052459E-22
   6.06400013      -3.61277847E-22
   6.07200003      -3.66396684E-22
   6.07999992      -3.61024907E-22
   6.08799982      -3.47573857E-22
   6.09600019      -3.25596293E-22
   6.10400009      -2.94528527E-22
   6.11199999      -2.56484479E-22
   6.11999989      -2.14980147E-22
   6.12799978      -1.72579125E-22
   6.13600016      -1.30525582E-22
   6.14400005      -8.91790530E-23
   6.15199995      -4.79250418E-23
   6.15999985      -5.21273251E-24
   6.16800022       4.04199422E-23
   6.17600012       8.85564082E-23
   6.18400002       1.36219428E-22
   6.19199991       1.80654928E-22
   6.19999981       2.23223402E-22
   6.20800018       2.67898880E-22
   6.21600008       3.14230233E-22
   6.22399998       3.54209098E-22
   6.23199987       3.77602674E-22
   6.23999977       3.78237524E-22
   6.24800014       3.55157271E-22
   6.25600004       3.11870265E-22
   6.26399994       2.54841478E-22
   6.27199984       1.87651001E-22
   6.28000021       1.06919456E-22
   6.28800011       1.10080625E-23
   6.29600000      -8.72153888E-23
   6.30399990      -1.65570443E-22
   6.31199980      -2.13067014E-22
   6.32000017      -2.37036445E-22
   6.32800007      -2.47629244E-22
   6.33599997      -2.44342206E-22
   6.34399986      -2.21281189E-22
   6.35200024      -1.76727221E-22
   6.36000013      -1.12979359E-22
   6.36800003      -3.49698253E-23
   6.37599993       4.57789930E-23
   6.38399982       1.13144288E-22
   6.39200020       1.58999876E-22
   6.40000010       1.89907850E-22
   6.40799999       2.16207135E-22
   6.41599989       2.36770429E-22
   6.42399979       2.38485172E-22
   6.43200016       2.10444108E-22
   6.44000006       1.56970029E-22
   6.44799995       9.59120250E-23
   6.45599985       4.29413247E-23
   6.46400023      -2.46061336E-24
   6.47200012      -5.27755045E-23
   6.48000002      -1.13827353E-22
   6.48799992      -1.74576496E-22
   6.49599981      -2.17716876E-22
   6.50400019      -2.36340203E-22
   6.51200008      -2.36344040E-22
   6.51999998      -2.25415779E-22
   6.52799988      -2.04881086E-22
   6.53599977      -1.72697392E-22
   6.54400015      -1.30839700E-22
   6.55200005      -8.68694575E-23
   6.55999994      -4.75366414E-23
   6.56799984      -1.20736250E-23
   6.57600021       2.61481358E-23
   6.58400011       7.12815030E-23
   6.59200001       1.20840175E-22
   6.59999990       1.70671571E-22
   6.60799980       2.20736307E-22