 -0.239999995       0.00000000    
 -0.231999993       0.00000000    
 -0.224000007       0.00000000    
 -0.216000006       0.00000000    
 -0.208000004       0.00000000    
 -0.200000003       0.00000000    
 -0.192000002       0.00000000    
 -0.184000000       1.54149095E-34
 -0.175999999      -5.35187746E-34
 -0.167999998       6.39481343E-33
 -0.159999996       3.84529622E-32
 -0.151999995      -1.60013669E-32
 -0.143999994      -4.30161390E-31
 -0.136000007      -8.02811014E-31
 -0.128000006       5.47787985E-31
 -0.119999997       3.67729164E-30
 -0.112000003       3.91508117E-30
 -0.104000002      -7.10147923E-31
  -9.60000008E-02  -8.33952022E-31
  -8.79999995E-02   2.53964388E-30
  -7.99999982E-02  -2.76417651E-29
  -7.19999969E-02  -9.54627080E-29
  -6.40000030E-02  -5.84071297E-29
  -5.60000017E-02   2.31425303E-28
  -4.80000004E-02   5.11319426E-28
  -3.99999991E-02   1.45448011E-28
  -3.20000015E-02  -8.89618145E-28
  -2.40000002E-02  -1.31409041E-27
  -1.60000008E-02   5.86741358E-29
  -8.00000038E-03   2.01428757E-27
   1.38777878E-17   1.65719762E-27
   8.00000038E-03  -1.31464768E-27
   1.60000008E-02  -2.80219995E-27
   2.40000002E-02   4.31474415E-28
   3.20000015E-02   4.56132703E-27
   3.99999991E-02   2.17229914E-27
   4.80000004E-02  -6.44019225E-27
   5.60000017E-02  -1.00927696E-26
   6.40000030E-02  -9.67042286E-29
   7.19999969E-02   1.50575073E-26
   7.99999982E-02   1.59580121E-26
   8.79999995E-02  -3.27677528E-27
   9.60000008E-02  -2.27190369E-26
  0.104000002      -1.73099101E-26
  0.112000003       1.03839178E-26
  0.119999997       2.79703607E-26
  0.128000006       1.09319705E-26
  0.136000007      -2.35889255E-26
  0.143999994      -3.31430388E-26
  0.151999995      -1.85810197E-27
  0.159999996       3.63654030E-26
  0.167999998       3.63569012E-26
  0.175999999      -3.07157226E-27
  0.184000000      -3.62406644E-26
  0.192000002      -2.54791688E-26
  0.200000003       1.28477423E-26
  0.208000004       2.79078835E-26
  0.216000006      -2.84370008E-27
  0.224000007      -4.29865930E-26
  0.231999993      -3.76772140E-26
  0.239999995       1.95010884E-26
  0.247999996       7.28110357E-26
  0.256000012       6.43074048E-26
  0.263999999       3.79857880E-28
  0.272000015      -5.40879460E-26
  0.280000001      -4.97153116E-26
  0.287999988      -8.43697523E-27
  0.296000004       6.41557232E-27
  0.303999990      -2.81374760E-26
  0.312000006      -6.07939354E-26
  0.319999993      -2.71865165E-26
  0.328000009       6.32952285E-26
  0.335999995       1.26380891E-25
  0.344000012       1.00072645E-25
  0.351999998       2.19293625E-26
  0.360000014      -2.09984666E-26
  0.368000001      -1.45580659E-26
  0.375999987      -4.50430733E-26
  0.384000003      -1.71269419E-25
  0.391999990      -2.94733891E-25
  0.400000006      -2.22709658E-25
  0.407999992       1.02389320E-25
  0.416000009       4.68886547E-25
  0.423999995       5.56768314E-25
  0.432000011       2.59672845E-25
  0.439999998      -1.88370740E-25
  0.448000014      -4.44628630E-25
  0.456000000      -3.93866565E-25
  0.463999987      -2.05907352E-25
  0.472000003      -7.59242445E-26
  0.479999989       2.13537020E-27
  0.488000005       1.49227043E-25
  0.495999992       3.51269259E-25
  0.504000008       4.09414200E-25
  0.512000024       1.82482312E-25
  0.519999981      -1.83756618E-25
  0.527999997      -3.56363181E-25
  0.536000013      -1.74671418E-25
  0.544000030       1.41394307E-25
  0.551999986       2.06251850E-25
  0.560000002      -1.00698323E-25
  0.568000019      -4.80346921E-25
  0.575999975      -5.25041216E-25
  0.583999991      -1.45589580E-25
  0.592000008       3.62460952E-25
  0.600000024       6.29251664E-25
  0.607999980       5.23423854E-25
  0.615999997       1.74247615E-25
  0.624000013      -2.04174348E-25
  0.632000029      -4.66997570E-25
  0.639999986      -5.75293381E-25
  0.648000002      -5.45925815E-25
  0.656000018      -3.94993231E-25
  0.663999975      -1.41879309E-25
  0.671999991       1.30250402E-25
  0.680000007       2.86696754E-25
  0.688000023       2.62858561E-25
  0.695999980       1.66294208E-25
  0.703999996       1.83449172E-25
  0.712000012       3.65743131E-25
  0.720000029       5.60542570E-25
  0.727999985       5.90391834E-25
  0.736000001       3.53567581E-25
  0.744000018      -4.11989079E-26
  0.751999974      -4.21609176E-25
  0.759999990      -6.59563053E-25
  0.768000007      -6.77218648E-25
  0.776000023      -4.59808878E-25
  0.783999979      -8.65734938E-27
  0.791999996       5.59364554E-25
  0.800000012       9.98183371E-25
  0.808000028       1.06188409E-24
  0.815999985       7.55536216E-25
  0.824000001       3.45191357E-25
  0.832000017       1.33732791E-25
  0.839999974       1.12837481E-25
  0.847999990      -5.25008441E-26
  0.856000006      -7.08483917E-25
  0.864000022      -1.78944872E-24
  0.871999979      -2.73488038E-24
  0.879999995      -2.88988149E-24
  0.888000011      -2.04257072E-24
  0.896000028      -5.44278920E-25
  0.903999984       1.06587168E-24
  0.912000000       2.47351064E-24
  0.920000017       3.57684602E-24
  0.927999973       4.25777458E-24
  0.935999990       4.29888567E-24
  0.944000006       3.60105616E-24
  0.952000022       2.34353102E-24
  0.959999979       8.81233855E-25
  0.967999995      -5.46065197E-25
  0.976000011      -2.00058991E-24
  0.984000027      -3.77474321E-24
  0.991999984      -5.99166008E-24
   1.00000000      -8.21849885E-24
   1.00800002      -9.54365343E-24
   1.01600003      -9.20839228E-24
   1.02400005      -7.18178889E-24
   1.03199995      -4.02812218E-24
   1.03999996      -2.96048207E-25
   1.04799998       3.92933707E-24
   1.05599999       8.79517668E-24
   1.06400001       1.41083765E-23
   1.07200003       1.89699038E-23
   1.08000004       2.19607201E-23
   1.08800006       2.17962426E-23
   1.09599996       1.79893529E-23
   1.10399997       1.10637458E-23
   1.11199999       2.12178616E-24
   1.12000000      -7.69941102E-24
   1.12800002      -1.71678616E-23
   1.13600004      -2.50684739E-23
   1.14400005      -2.97760850E-23
   1.15199995      -2.98568864E-23
   1.15999997      -2.47574545E-23
   1.16799998      -1.45426871E-23
   1.17600000      -7.96191494E-25
   1.18400002       1.43190561E-23
   1.19200003       2.84602177E-23
   1.20000005       3.87482892E-23
   1.20799994       4.29383459E-23
   1.21599996       3.89568293E-23
   1.22399998       2.58386293E-23
   1.23199999       3.63505685E-24
   1.24000001      -2.58743663E-23
   1.24800003      -5.89603539E-23
   1.25600004      -9.12134243E-23
   1.26400006      -1.16721374E-22
   1.27199996      -1.29921251E-22
   1.27999997      -1.26111129E-22
   1.28799999      -1.02188493E-22
   1.29600000      -5.82349490E-23
   1.30400002       2.64647648E-24
   1.31200004       7.41785094E-23
   1.32000005       1.48541322E-22
   1.32799995       2.16075086E-22
   1.33599997       2.67832313E-22
   1.34399998       2.94948150E-22
   1.35200000       2.89542876E-22
   1.36000001       2.48380492E-22
   1.36800003       1.72415333E-22
   1.37600005       6.78397028E-23
   1.38399994      -5.42526150E-23
   1.39199996      -1.80477668E-22
   1.39999998      -2.96223657E-22
   1.40799999      -3.87390658E-22
   1.41600001      -4.41342054E-22
   1.42400002      -4.48766081E-22
   1.43200004      -4.04038879E-22
   1.44000006      -3.08401018E-22
   1.44799995      -1.71375172E-22
   1.45599997      -8.15871660E-24
   1.46399999       1.61536322E-22
   1.47200000       3.17361645E-22
   1.48000002       4.39146269E-22
   1.48800004       5.10294303E-22
   1.49600005       5.18506383E-22
   1.50399995       4.59066964E-22
   1.51199996       3.36328790E-22
   1.51999998       1.63966759E-22
   1.52800000      -3.68906290E-23
   1.53600001      -2.40635266E-22
   1.54400003      -4.20471445E-22
   1.55200005      -5.51486525E-22
   1.55999994      -6.13377648E-22
   1.56799996      -5.92846262E-22
   1.57599998      -4.86070190E-22
   1.58399999      -3.00840474E-22
   1.59200001      -5.64642907E-23
   1.60000002       2.18714905E-22
   1.60800004       4.91449287E-22
   1.61600006       7.27861838E-22
   1.62399995       8.96976299E-22
   1.63199997       9.73290173E-22
   1.63999999       9.39978483E-22
   1.64800000       7.91572163E-22
   1.65600002       5.35964670E-22
   1.66400003       1.94783200E-22
   1.67200005      -1.98633043E-22
   1.67999995      -6.03624803E-22
   1.68799996      -9.77321366E-22
   1.69599998      -1.27959893E-21
   1.70400000      -1.47678003E-21
   1.71200001      -1.54442880E-21
   1.72000003      -1.46924281E-21
   1.72800004      -1.25048342E-21
   1.73599994      -9.00965891E-22
   1.74399996      -4.47213451E-22
   1.75199997       7.23811309E-23
   1.75999999       6.11049789E-22
   1.76800001       1.11906965E-21
   1.77600002       1.54885803E-21
   1.78400004       1.85956159E-21
   1.79200006       2.01978502E-21
   1.79999995       2.00964641E-21
   1.80799997       1.82248508E-21
   1.81599998       1.46686648E-21
   1.82400000       9.67715590E-22
   1.83200002       3.65433213E-22
   1.84000003      -2.87515793E-22
   1.84800005      -9.32043022E-22
   1.85599995      -1.50829741E-21
   1.86399996      -1.96069795E-21
   1.87199998      -2.24248341E-21
   1.88000000      -2.31986095E-21
   1.88800001      -2.17656887E-21
   1.89600003      -1.81760722E-21
   1.90400004      -1.27082710E-21
   1.91199994      -5.84861677E-22
   1.91999996       1.75799382E-22
   1.92799997       9.37270759E-22
   1.93599999       1.62300975E-21
   1.94400001       2.16029627E-21
   1.95200002       2.48765057E-21
   1.96000004       2.56191871E-21
   1.96800005       2.36550068E-21
   1.97599995       1.91033707E-21
   1.98399997       1.23703073E-21
   1.99199998       4.09870821E-22
   2.00000000      -4.90749435E-22
   2.00799990      -1.37589661E-21
   2.01600003      -2.15523262E-21
   2.02399993      -2.74463717E-21
   2.03200006      -3.07508088E-21
   2.03999996      -3.10200444E-21
   2.04800010      -2.81242620E-21
   2.05599999      -2.22755135E-21
   2.06399989      -1.39987495E-21
   2.07200003      -4.06201822E-22
   2.07999992       6.60352359E-22
   2.08800006       1.69920205E-21
   2.09599996       2.61037078E-21
   2.10400009       3.30382338E-21
   2.11199999       3.70832541E-21
   2.11999989       3.77976263E-21
   2.12800002       3.50614639E-21
   2.13599992       2.90913807E-21
   2.14400005       2.04141046E-21
   2.15199995       9.80966837E-22
   2.16000009      -1.76734542E-22
   2.16799998      -1.32781401E-21
   2.17600012      -2.36957357E-21
   2.18400002      -3.20952924E-21
   2.19199991      -3.77323283E-21
   2.20000005      -4.01060580E-21
   2.20799994      -3.90066550E-21
   2.21600008      -3.45353641E-21
   2.22399998      -2.71018437E-21
   2.23200011      -1.73821161E-21
   2.24000001      -6.24756986E-22
   2.24799991       5.32468792E-22
   2.25600004       1.63411438E-21
   2.26399994       2.58694133E-21
   2.27200007       3.31065328E-21
   2.27999997       3.74396203E-21
   2.28800011       3.85028786E-21
   2.29600000       3.62180385E-21
   2.30399990       3.08022047E-21
   2.31200004       2.27445628E-21
   2.31999993       1.27504550E-21
   2.32800007       1.67285074E-22
   2.33599997      -9.55709455E-22
   2.34400010      -1.99960957E-21
   2.35200000      -2.87581780E-21
   2.35999990      -3.50872931E-21
   2.36800003      -3.84275922E-21
   2.37599993      -3.84776673E-21
   2.38400006      -3.52165603E-21
   2.39199996      -2.89000912E-21
   2.40000010      -2.00345164E-21
   2.40799999      -9.33710712E-22
   2.41599989       2.31615494E-22
   2.42400002       1.39574975E-21
   2.43199992       2.46060524E-21
   2.44000006       3.33545678E-21
   2.44799995       3.94495884E-21
   2.45600009       4.23548301E-21
   2.46399999       4.17944112E-21
   2.47199988       3.77770114E-21
   2.48000002       3.06022394E-21
   2.48799992       2.08429057E-21
   2.49600005       9.29729501E-22
   2.50399995      -3.08568156E-22
   2.51200008      -1.52942070E-21
   2.51999998      -2.63383455E-21
   2.52800012      -3.53231002E-21
   2.53600001      -4.15113926E-21
   2.54399991      -4.43829816E-21
   2.55200005      -4.36881661E-21
   2.55999994      -3.94838146E-21
   2.56800008      -3.21351267E-21
   2.57599998      -2.22757194E-21
   2.58400011      -1.07372173E-21
   2.59200001       1.53322715E-22
   2.59999990       1.35495234E-21
   2.60800004       2.43556506E-21
   2.61599994       3.30936404E-21
   2.62400007       3.90736009E-21
   2.63199997       4.18398051E-21
   2.64000010       4.12162329E-21
   2.64800000       3.73173648E-21
   2.65599990       3.05248427E-21
   2.66400003       2.14384697E-21
   2.67199993       1.08170576E-21
   2.68000007      -4.83016913E-23
   2.68799996      -1.15699949E-21
   2.69600010      -2.15804111E-21
   2.70400000      -2.97461459E-21
   2.71199989      -3.54571858E-21
   2.72000003      -3.83111811E-21
   2.72799993      -3.81407730E-21
   2.73600006      -3.50182308E-21
   2.74399996      -2.92367533E-21
   2.75200009      -2.12747804E-21
   2.75999999      -1.17518535E-21
   2.76799989      -1.38287165E-22
   2.77600002       9.06845820E-22
   2.78399992       1.88392909E-21
   2.79200006       2.72208701E-21
   2.79999995       3.36123590E-21
   2.80800009       3.75670457E-21
   2.81599998       3.88202364E-21
   2.82399988       3.72964106E-21
   2.83200002       3.30996080E-21
   2.83999991       2.64966488E-21
   2.84800005       1.79049504E-21
   2.85599995       7.87956176E-22
   2.86400008      -2.90912717E-22
   2.87199998      -1.37156653E-21
   2.88000011      -2.37733929E-21
   2.88800001      -3.23548263E-21
   2.89599991      -3.88226881E-21
   2.90400004      -4.26679591E-21
   2.91199994      -4.35416969E-21
   2.92000008      -4.12831788E-21
   2.92799997      -3.59481870E-21
   2.93600011      -2.78245928E-21
   2.94400001      -1.74267265E-21
   2.95199990      -5.46354309E-22
   2.96000004       7.21453965E-22
   2.96799994       1.96749856E-21
   2.97600007       3.09651124E-21
   2.98399997       4.01785817E-21
   2.99200010       4.65289539E-21
   3.00000000       4.94279957E-21
   3.00799990       4.85504209E-21
   3.01600003       4.38712727E-21
   3.02399993       3.56679311E-21
   3.03200006       2.44977394E-21
   3.03999996       1.11621783E-21
   3.04800010      -3.33757987E-22
   3.05599999      -1.78611256E-21
   3.06399989      -3.12177317E-21
   3.07200003      -4.22776494E-21
   3.07999992      -5.00875067E-21
   3.08800006      -5.39610465E-21
   3.09599996      -5.35307510E-21
   3.10400009      -4.87659483E-21
   3.11199999      -3.99718956E-21
   3.11999989      -2.77784032E-21
   3.12800002      -1.31097585E-21
   3.13599992       2.87514253E-22
   3.14400005       1.88814032E-21
   3.15199995       3.35970735E-21
   3.16000009       4.58121865E-21
   3.16799998       5.45149505E-21
   3.17600012       5.89650489E-21
   3.18400002       5.87488793E-21
   3.19199991       5.38206762E-21
   3.20000005       4.45226370E-21
   3.20799994       3.15662865E-21
   3.21600008       1.59725921E-21
   3.22399998      -1.02365223E-22
   3.23200011      -1.80848602E-21
   3.24000001      -3.38775394E-21
   3.24799991      -4.71692878E-21
   3.25600004      -5.69153051E-21
   3.26399994      -6.23356363E-21
   3.27200007      -6.29801626E-21
   3.27999997      -5.87700314E-21
   3.28800011      -5.00061942E-21
   3.29600000      -3.73429193E-21
   3.30399990      -2.17331104E-21
   3.31200004      -4.34950135E-22
   3.31999993       1.35044101E-21
   3.32800007       3.04898976E-21
   3.33599997       4.53259877E-21
   3.34400010       5.68773388E-21
   3.35200000       6.42351588E-21
   3.35999990       6.67893617E-21
   3.36800003       6.42867001E-21
   3.37599993       5.68630206E-21
   3.38400006       4.50399884E-21
   3.39199996       2.96842386E-21
   3.40000010       1.19341392E-21
   3.40799999      -6.88671430E-22
   3.41599989      -2.53565936E-21
   3.42400002      -4.20476989E-21
   3.43199992      -5.56271207E-21
   3.44000006      -6.49695643E-21
   3.44799995      -6.92657619E-21
   3.45600009      -6.81065539E-21
   3.46399999      -6.15212511E-21
   3.47199988      -4.99704211E-21
   3.48000002      -3.43047835E-21
   3.48799992      -1.57064665E-21
   3.49600005       4.38656090E-22
   3.50399995       2.43791796E-21
   3.51200008       4.26464880E-21
   3.51999998       5.76780803E-21
   3.52800012       6.82143863E-21
   3.53600001       7.33556692E-21
   3.54399991       7.26340914E-21
   3.55200005       6.60505739E-21
   3.55999994       5.40840411E-21
   3.56800008       3.76651886E-21
   3.57599998       1.81070220E-21
   3.58400011      -3.00754773E-22
   3.59200001      -2.39689194E-21
   3.59999990      -4.30881087E-21
   3.60800004      -5.88296022E-21
   3.61599994      -6.99271590E-21
   3.62400007      -7.54813376E-21
   3.63199997      -7.50393776E-21
   3.64000010      -6.86404247E-21
   3.64800000      -5.68166331E-21
   3.65599990      -4.05414789E-21
   3.66400003      -2.11385460E-21
   3.67199993      -1.68097219E-23
   3.68000007       2.06966183E-21
   3.68799996       3.97987733E-21
   3.69600010       5.56329086E-21
   3.70400000       6.69727268E-21
   3.71199989       7.29715391E-21
   3.72000003       7.32238292E-21
   3.72799993       6.77832103E-21
   3.73600006       5.71458170E-21
   3.74399996       4.22057275E-21
   3.75200009       2.41858019E-21
   3.75999999       4.53842256E-22
   3.76799989      -1.51806626E-21
   3.77600002      -3.34470360E-21
   3.78399992      -4.88887128E-21
   3.79200006      -6.03802346E-21
   3.79999995      -6.71105687E-21
   3.80800009      -6.86334130E-21
   3.81599998      -6.49004333E-21
   3.82399988      -5.62687956E-21
   3.83200002      -4.34699406E-21
   3.83999991      -2.75415843E-21
   3.84800005      -9.73241806E-22
   3.85599995       8.59882520E-22
   3.86400008       2.60791629E-21
   3.87199998       4.14134113E-21
   3.88000011       5.34762371E-21
   3.88800001       6.13997428E-21
   3.89599991       6.46429734E-21
   3.90400004       6.30276770E-21
   3.91199994       5.67356195E-21
   3.92000008       4.62774676E-21
   3.92799997       3.24469774E-21
   3.93600011       1.62681375E-21
   3.94400001      -1.06854832E-22
   3.95199990      -1.82864249E-21
   3.96000004      -3.41190233E-21
   3.96799994      -4.74068599E-21
   3.97600007      -5.71797201E-21
   3.98399997      -6.27197906E-21
   3.99200010      -6.36083473E-21
   4.00000000      -5.97607983E-21
   4.00799990      -5.14463932E-21
   4.01599979      -3.92806101E-21
   4.02400017      -2.41815589E-21
   4.03200006      -7.29298650E-22
   4.03999996       1.01095829E-21
   4.04799986       2.67147894E-21
   4.05600023       4.12663040E-21
   4.06400013       5.26499208E-21
   4.07200003       5.99797225E-21
   4.07999992       6.26757981E-21
   4.08799982       6.05202939E-21
   4.09600019       5.36787832E-21
   4.10400009       4.26843977E-21
   4.11199999       2.83913913E-21
   4.11999989       1.19064692E-21
   4.12799978      -5.49502887E-22
   4.13600016      -2.24663527E-21
   4.14400005      -3.76951940E-21
   4.15199995      -5.00082137E-21
   4.15999985      -5.84640513E-21
   4.16800022      -6.24248207E-21
   4.17600012      -6.16032058E-21
   4.18400002      -5.60856082E-21
   4.19199991      -4.63289442E-21
   4.19999981      -3.31272123E-21
   4.20800018      -1.75456761E-21
   4.21600008      -8.28979657E-23
   4.22399998       1.57032272E-21
   4.23199987       3.07619988E-21
   4.23999977       4.31867524E-21
   4.24800014       5.20325524E-21
   4.25600004       5.66428161E-21
   4.26399994       5.66995838E-21
   4.27199984       5.22470539E-21
   4.28000021       4.36824953E-21
   4.28800011       3.17208881E-21
   4.29600000       1.73384791E-21
   4.30399990       1.69876450E-22
   4.31199980      -1.39395221E-21
   4.32000017      -2.83291346E-21
   4.32800007      -4.03445388E-21
   4.33599997      -4.90776880E-21
   4.34399986      -5.39055511E-21
   4.35200024      -5.45246441E-21
   4.36000013      -5.09578275E-21
   4.36800003      -4.35451987E-21
   4.37599993      -3.29195003E-21
   4.38399982      -1.99603125E-21
   4.39200020      -5.72040781E-22
   4.40000010       8.67170635E-22
   4.40799999       2.21164993E-21
   4.41599989       3.36361849E-21
   4.42399979       4.24418981E-21
   4.43200016       4.79749488E-21
   4.44000006       4.99292882E-21
   4.44799995       4.82615257E-21
   4.45599985       4.31905975E-21
   4.46400023       3.51791998E-21
   4.47200012       2.48952082E-21
   4.48000002       1.31529240E-21
   4.48799992       8.45402984E-23
   4.49599981      -1.11267829E-21
   4.50400019      -2.19216474E-21
   4.51200008      -3.08123385E-21
   4.51999998      -3.72307814E-21
   4.52799988      -4.07979372E-21
   4.53599977      -4.13401121E-21
   4.54400015      -3.88929338E-21
   4.55200005      -3.36933766E-21
   4.55999994      -2.61636218E-21
   4.56799984      -1.68802087E-21
   4.57600021      -6.53185261E-22
   4.58400011       4.13338679E-22
   4.59200001       1.43624596E-21
   4.59999990       2.34480682E-21
   4.60799980       3.07710158E-21
   4.61600018       3.58353382E-21
   4.62400007       3.82986562E-21
   4.63199997       3.79974825E-21
   4.63999987       3.49635472E-21
   4.64799976       2.94249066E-21
   4.65600014       2.17892136E-21
   4.66400003       1.26136289E-21
   4.67199993       2.56469055E-22
   4.67999983      -7.62714041E-22
   4.68800020      -1.72183602E-21
   4.69600010      -2.55075581E-21
   4.70400000      -3.18909004E-21
   4.71199989      -3.59091988E-21
   4.71999979      -3.72799316E-21
   4.72800016      -3.59119049E-21
   4.73600006      -3.19085325E-21
   4.74399996      -2.55624336E-21
   4.75199986      -1.73435985E-21
   4.76000023      -7.87206544E-22
   4.76800013       2.12695479E-22
   4.77600002       1.18843519E-21
   4.78399992       2.06533711E-21
   4.79199982       2.77696689E-21
   4.80000019       3.26989969E-21
   4.80800009       3.50737949E-21
   4.81599998       3.47228005E-21
   4.82399988       3.16904989E-21
   4.83199978       2.62403440E-21
   4.84000015       1.88345087E-21
   4.84800005       1.00905382E-21
   4.85599995       7.23289398E-23
   4.86399984      -8.51760155E-22
   4.87200022      -1.69072133E-21
   4.88000011      -2.37998341E-21
   4.88800001      -2.86793212E-21
   4.89599991      -3.12015698E-21
   4.90399981      -3.12229056E-21
   4.91200018      -2.88083157E-21
   4.92000008      -2.42204744E-21
   4.92799997      -1.78925467E-21
   4.93599987      -1.03905739E-21
   4.94399977      -2.36656000E-22
   4.95200014       5.49588159E-22
   4.96000004       1.25427208E-21
   4.96799994       1.82095350E-21
   4.97599983       2.20708731E-21
   4.98400021       2.38704837E-21
   4.99200010       2.35331875E-21
   5.00000000       2.11599505E-21
   5.00799990       1.70127061E-21
   5.01599979       1.14891631E-21
   5.02400017       5.08711482E-22
   5.03200006      -1.64011642E-22
   5.03999996      -8.13431714E-22
   5.04799986      -1.38808954E-21
   5.05600023      -1.84492054E-21
   5.06400013      -2.15229043E-21
   5.07200003      -2.29199368E-21
   5.07999992      -2.26012522E-21
   5.08799982      -2.06664210E-21
   5.09600019      -1.73362031E-21
   5.10400009      -1.29262056E-21
   5.11199999      -7.81948616E-22
   5.11999989      -2.44014191E-22
   5.12799978       2.77531919E-22
   5.13600016       7.41385918E-22
   5.14400005       1.11276300E-21
   5.15199995       1.36728876E-21
   5.15999985       1.49320611E-21
   5.16800022       1.49138736E-21
   5.17600012       1.37380553E-21
   5.18400002       1.16160129E-21
   5.19199991       8.83587424E-22
   5.19999981       5.74802123E-22
   5.20800018       2.74213024E-22
   5.21600008       2.09289437E-23
   5.22399998      -1.50336984E-22
   5.23199987      -2.13527305E-22
   5.23999977      -1.53864391E-22
   5.24800014       3.10895605E-23
   5.25600004       3.31506817E-22
   5.26399994       7.25962564E-22
   5.27199984       1.18280688E-21
   5.28000021       1.66256003E-21
   5.28800011       2.12163184E-21
   5.29600000       2.51691956E-21
   5.30399990       2.81023385E-21
   5.31199980       2.97200582E-21
   5.32000017       2.98417422E-21
   5.32800007       2.84251065E-21
   5.33599997       2.55826728E-21
   5.34399986       2.15843229E-21
   5.35200024       1.68374330E-21
   5.36000013       1.18421658E-21
   5.36800003       7.12891404E-22
   5.37599993       3.19446257E-22
   5.38399982       4.48897764E-23
   5.39200020      -8.22050366E-23
   5.40000010      -4.84290198E-23
   5.40799999       1.42196003E-22
   5.41599989       4.66679964E-22
   5.42399979       8.82957749E-22
   5.43200016       1.33235189E-21
   5.44000006       1.74475615E-21
   5.44799995       2.04582809E-21
   5.45599985       2.16484920E-21
   5.46400023       2.04186929E-21
   5.47200012       1.63363112E-21
   5.48000002       9.18143318E-22
   5.48799992      -1.01956662E-22
   5.49599981      -1.39754416E-21
   5.50400019      -2.91298580E-21
   5.51200008      -4.56844986E-21
   5.51999998      -6.26465600E-21
   5.52799988      -7.88989506E-21
   5.53599977      -9.32846958E-21
   5.54400015      -1.04696977E-20
   5.55200005      -1.12165037E-20
   5.55999994      -1.14928911E-20
   5.56799984      -1.12499867E-20
   5.57600021      -1.04704732E-20
   5.58400011      -9.17102738E-21
   5.59200001      -7.40245707E-21
   5.59999990      -5.24709016E-21
   5.60799980      -2.81359387E-21
   5.61600018      -2.30033582E-22
   5.62400007       2.36400949E-21
   5.63199997       4.82570586E-21
   5.63999987       7.01756606E-21
   5.64799976       8.81641651E-21
   5.65600014       1.01223974E-20
   5.66400003       1.08664310E-20
   5.67199993       1.10150642E-20
   5.67999983       1.05718157E-20
   5.68800020       9.57577558E-21
   5.69600010       8.09856591E-21
   5.70400000       6.24009019E-21
   5.71199989       4.12291334E-21
   5.71999979       1.88463369E-21
   5.72800016      -3.31526002E-22
   5.73600006      -2.38676564E-21
   5.74399996      -4.15577802E-21
   5.75199986      -5.53384355E-21
   5.76000023      -6.44222842E-21
   5.76800013      -6.83259991E-21
   5.77600002      -6.69049690E-21
   5.78399992      -6.03690507E-21
   5.79199982      -4.92679516E-21
   5.80000019      -3.44454163E-21
   5.80800009      -1.69706442E-21
   5.81599998       1.93891623E-22
   5.82399988       2.09946558E-21
   5.83199978       3.89144494E-21
   5.84000015       5.45046108E-21
   5.84800005       6.67432851E-21
   5.85599995       7.48546029E-21
   5.86399984       7.83578339E-21
   5.87200022       7.70878693E-21
   5.88000011       7.11909359E-21
   5.88800001       6.11064208E-21
   5.89599991       4.75403235E-21
   5.90399981       3.14234121E-21
   5.91200018       1.38461522E-21
   5.92000008      -4.03015708E-22
   5.92799997      -2.10721252E-21
   5.93599987      -3.62641272E-21
   5.94399977      -4.87756782E-21
   5.95200014      -5.80053377E-21
   5.96000004      -6.36109605E-21
   5.96799994      -6.55303023E-21
   5.97599983      -6.39875943E-21
   5.98400021      -5.94717980E-21
   5.99200010      -5.26800636E-21
   6.00000000      -4.44321803E-21
   6.00799990      -3.55791748E-21
   6.01599979      -2.69216169E-21
   6.02400017      -1.91460929E-21
   6.03200006      -1.27742253E-21
   6.03999996      -8.11920584E-22
   6.04799986      -5.25383887E-22
   6.05600023      -4.00250378E-22
   6.06400013      -3.96822607E-22
   6.07200003      -4.59375238E-22
   6.07999992      -5.24124890E-22
   6.08799982      -5.27369949E-22
   6.09600019      -4.12851428E-22
   6.10400009      -1.38462116E-22
   6.11199999       3.17596663E-22
   6.11999989       9.51891015E-22
   6.12799978       1.73350743E-21
   6.13600016       2.60576050E-21
   6.14400005       3.49193488E-21
   6.15199995       4.30383284E-21
   6.15999985       4.95139894E-21
   6.16800022       5.35219137E-21
   6.17600012       5.44038304E-21
   6.18400002       5.17520219E-21
   6.19199991       4.54826431E-21
   6.19999981       3.58838220E-21
   6.20800018       2.36223456E-21
   6.21600008       9.70147654E-22
   6.22399998      -4.62486556E-22
   6.23199987      -1.79688327E-21
   6.23999977      -2.89402769E-21
   6.24800014      -3.62828478E-21
   6.25600004      -3.90057866E-21
   6.26399994      -3.65029675E-21
   6.27199984      -2.86466904E-21
   6.28000021      -1.58416891E-21
   6.28800011       9.72233958E-23
   6.29600000       2.03753184E-21
   6.30399990       4.05755840E-21
   6.31199980       5.95598233E-21
   6.32000017       7.52739689E-21
   6.32800007       8.58161435E-21
   6.33599997       8.96243570E-21
   6.34399986       8.56415389E-21
   6.35200024       7.34436137E-21
   6.36000013       5.33199855E-21
   6.36800003       2.62929213E-21
   6.37599993      -5.92958192E-22
   6.38399982      -4.10682047E-21
   6.39200020      -7.64465943E-21
   6.40000010      -1.09207810E-20
   6.40799999      -1.36552914E-20
   6.41599989      -1.55979639E-20
   6.42399979      -1.65502216E-20
   6.43200016      -1.63837887E-20
   6.44000006      -1.50546484E-20
   6.44799995      -1.26106439E-20
   6.45599985      -9.19140640E-21
   6.46400023      -5.02020074E-21
   6.47200012      -3.88216273E-22
   6.48000002       4.36701119E-21
   6.48799992       8.88718730E-21
   6.49599981       1.28211169E-20
   6.50400019       1.58530457E-20
   6.51200008       1.77293724E-20
   6.51999998       1.82814412E-20
   6.52799988       1.74416913E-20
   6.53599977       1.52513639E-20
   6.54400015       1.18591939E-20
   6.55200005       7.51148739E-21
   6.55999994       2.53478735E-21
   6.56799984      -2.68760897E-21
   6.57600021      -7.74471921E-21
   6.58400011      -1.22301416E-20
   6.59200001      -1.57753893E-20
   6.59999990      -1.80806592E-20
   6.60799980      -1.89402356E-20