 -0.239999995       0.00000000    
 -0.231999993       0.00000000    
 -0.224000007       0.00000000    
 -0.216000006       0.00000000    
 -0.208000004       0.00000000    
 -0.200000003       0.00000000    
 -0.192000002       0.00000000    
 -0.184000000       0.00000000    
 -0.175999999       0.00000000    
 -0.167999998       2.65712018E-36
 -0.159999996      -7.70011937E-35
 -0.151999995      -6.07859654E-34
 -0.143999994      -1.22656030E-33
 -0.136000007       2.84174345E-33
 -0.128000006       1.95400751E-32
 -0.119999997       3.65015887E-32
 -0.112000003      -1.08598207E-32
 -0.104000002      -1.94836308E-31
  -9.60000008E-02  -4.17339662E-31
  -8.79999995E-02  -2.75592088E-31
  -7.99999982E-02   6.78640865E-31
  -7.19999969E-02   2.26640333E-30
  -6.40000030E-02   3.18346214E-30
  -5.60000017E-02   1.30439972E-30
  -4.80000004E-02  -5.07478591E-30
  -3.99999991E-02  -1.48845541E-29
  -3.20000015E-02  -2.09073433E-29
  -2.40000002E-02  -9.00009181E-30
  -1.60000008E-02   3.19444912E-29
  -8.00000038E-03   8.74547274E-29
   1.38777878E-17   1.03063962E-28
   8.00000038E-03   1.36564096E-29
   1.60000008E-02  -1.79128072E-28
   2.40000002E-02  -3.48027313E-28
   3.20000015E-02  -2.95621556E-28
   3.99999991E-02   6.88951604E-29
   4.80000004E-02   5.77368519E-28
   5.60000017E-02   8.59663579E-28
   6.40000030E-02   6.18419042E-28
   7.19999969E-02  -1.11722715E-28
   7.99999982E-02  -9.74049373E-28
   8.79999995E-02  -1.54800616E-27
   9.60000008E-02  -1.56593271E-27
  0.104000002      -8.91650386E-28
  0.112000003       5.56191138E-28
  0.119999997       2.60285079E-27
  0.128000006       4.41135101E-27
  0.136000007       4.49168386E-27
  0.143999994       1.62329047E-27
  0.151999995      -3.77214950E-27
  0.159999996      -9.12160173E-27
  0.167999998      -1.09564005E-26
  0.175999999      -7.25124334E-27
  0.184000000       1.04096677E-27
  0.192000002       1.05575797E-26
  0.200000003       1.75507068E-26
  0.208000004       1.94482116E-26
  0.216000006       1.48656785E-26
  0.224000007       3.03138735E-27
  0.231999993      -1.55317776E-26
  0.239999995      -3.67511221E-26
  0.247999996      -5.14015510E-26
  0.256000012      -4.72249147E-26
  0.263999999      -1.56617594E-26
  0.272000015       3.97631163E-26
  0.280000001       9.90548665E-26
  0.287999988       1.30389106E-25
  0.296000004       1.04560345E-25
  0.303999990       1.37945734E-26
  0.312000006      -1.15513395E-25
  0.319999993      -2.26527597E-25
  0.328000009      -2.55347964E-25
  0.335999995      -1.65258570E-25
  0.344000012       2.64736697E-26
  0.351999998       2.46984190E-25
  0.360000014       3.96547139E-25
  0.368000001       3.95164044E-25
  0.375999987       2.23161848E-25
  0.384000003      -6.54749436E-26
  0.391999990      -3.63640595E-25
  0.400000006      -5.54768995E-25
  0.407999992      -5.58798694E-25
  0.416000009      -3.61089542E-25
  0.423999995      -1.52513329E-26
  0.432000011       3.76603330E-25
  0.439999998       6.94582413E-25
  0.448000014       8.31106675E-25
  0.456000000       7.15485748E-25
  0.463999987       3.35107225E-25
  0.472000003      -2.45024856E-25
  0.479999989      -8.72474935E-25
  0.488000005      -1.32621589E-24
  0.495999992      -1.38044002E-24
  0.504000008      -9.05863670E-25
  0.512000024       3.35246040E-26
  0.519999981       1.14977315E-24
  0.527999997       2.00923385E-24
  0.536000013       2.20708155E-24
  0.544000030       1.56308824E-24
  0.551999986       2.36447103E-25
  0.560000002      -1.31097017E-24
  0.568000019      -2.49648484E-24
  0.575999975      -2.85910901E-24
  0.583999991      -2.24607869E-24
  0.592000008      -8.59731281E-25
  0.600000024       8.42682617E-25
  0.607999980       2.33122893E-24
  0.615999997       3.17582542E-24
  0.624000013       3.14583451E-24
  0.632000029       2.23010820E-24
  0.639999986       6.13340389E-25
  0.648000002      -1.35427223E-24
  0.656000018      -3.19026019E-24
  0.663999975      -4.34626308E-24
  0.671999991      -4.33888328E-24
  0.680000007      -2.93576085E-24
  0.688000023      -3.29177530E-25
  0.695999980       2.80557612E-24
  0.703999996       5.44848715E-24
  0.712000012       6.56927429E-24
  0.720000029       5.54926846E-24
  0.727999985       2.50571096E-24
  0.736000001      -1.65760364E-24
  0.744000018      -5.53916552E-24
  0.751999974      -7.76847342E-24
  0.759999990      -7.54168380E-24
  0.768000007      -4.91666907E-24
  0.776000023      -7.42183956E-25
  0.783999979       3.71210569E-24
  0.791999996       7.21789584E-24
  0.800000012       8.92621279E-24
  0.808000028       8.49141159E-24
  0.815999985       6.03089684E-24
  0.824000001       2.04228279E-24
  0.832000017      -2.65076572E-24
  0.839999974      -6.95246387E-24
  0.847999990      -9.64624952E-24
  0.856000006      -9.69223380E-24
  0.864000022      -6.61344301E-24
  0.871999979      -8.34115686E-25
  0.879999995       6.24511320E-24
  0.888000011       1.24835826E-23
  0.896000028       1.55950528E-23
  0.903999984       1.39083167E-23
  0.912000000       7.07931980E-24
  0.920000017      -3.54754772E-24
  0.927999973      -1.50996497E-23
  0.935999990      -2.39234959E-23
  0.944000006      -2.68308034E-23
  0.952000022      -2.23009732E-23
  0.959999979      -1.12070447E-23
  0.967999995       3.23037988E-24
  0.976000011       1.63677972E-23
  0.984000027       2.38140762E-23
  0.991999984       2.28416253E-23
   1.00000000       1.34630820E-23
   1.00800002      -1.50305524E-24
   1.01600003      -1.72825919E-23
   1.02400005      -2.87468455E-23
   1.03199995      -3.19372010E-23
   1.03999996      -2.53079090E-23
   1.04799998      -1.01598895E-23
   1.05599999       9.77462559E-24
   1.06400001       2.94155093E-23
   1.07200003       4.36407919E-23
   1.08000004       4.86076905E-23
   1.08800006       4.28367659E-23
   1.09599996       2.78257463E-23
   1.10399997       7.97738825E-24
   1.11199999      -1.03587873E-23
   1.12000000      -2.07435377E-23
   1.12800002      -1.89730908E-23
   1.13600004      -5.15428108E-24
   1.14400005       1.57671964E-23
   1.15199995       3.52654399E-23
   1.15999997       4.42144389E-23
   1.16799998       3.64347905E-23
   1.17600000       1.11626974E-23
   1.18400002      -2.63542273E-23
   1.19200003      -6.68017828E-23
   1.20000005      -9.99141877E-23
   1.20799994      -1.17666619E-22
   1.21599996      -1.16360997E-22
   1.22399998      -9.68986186E-23
   1.23199999      -6.37480643E-23
   1.24000001      -2.31255063E-23
   1.24800003       1.86047291E-23
   1.25600004       5.59527112E-23
   1.26400006       8.46455703E-23
   1.27199996       1.01568227E-22
   1.27999997       1.04761732E-22
   1.28799999       9.37342009E-23
   1.29600000       7.02033320E-23
   1.30400002       3.88198704E-23
   1.31200004       7.34274176E-24
   1.32000005      -1.44756591E-23
   1.32799995      -1.74044883E-23
   1.33599997       3.75886620E-24
   1.34399998       4.69968018E-23
   1.35200000       1.01639452E-22
   1.36000001       1.49652291E-22
   1.36800003       1.70050138E-22
   1.37600005       1.44968868E-22
   1.38399994       6.56772268E-23
   1.39199996      -6.33997412E-23
   1.39999998      -2.23902227E-22
   1.40799999      -3.86111693E-22
   1.41600001      -5.14061095E-22
   1.42400002      -5.72181943E-22
   1.43200004      -5.32456524E-22
   1.44000006      -3.81576160E-22
   1.44799995      -1.26829989E-22
   1.45599997       2.00582918E-22
   1.46399999       5.46956620E-22
   1.47200000       8.43780669E-22
   1.48000002       1.02111105E-21
   1.48800004       1.02438726E-21
   1.49600005       8.30040101E-22
   1.50399995       4.55007700E-22
   1.51199996      -4.30491525E-23
   1.51999998      -5.75689434E-22
   1.52800000      -1.04105749E-21
   1.53600001      -1.34473163E-21
   1.54400003      -1.41986653E-21
   1.55200005      -1.24083585E-21
   1.55999994      -8.29922112E-22
   1.56799996      -2.54318229E-22
   1.57599998       3.85159557E-22
   1.58399999       9.72825490E-22
   1.59200001       1.39745339E-21
   1.60000002       1.57627445E-21
   1.60800004       1.46855285E-21
   1.61600006       1.08765971E-21
   1.62399995       4.99735987E-22
   1.63199997      -1.85826397E-22
   1.63999999      -8.34014950E-22
   1.64800000      -1.31128170E-21
   1.65600002      -1.51075885E-21
   1.66400003      -1.37605443E-21
   1.67200005      -9.17287965E-22
   1.67999995      -2.11652845E-22
   1.68799996       6.08128808E-22
   1.69599998       1.37911718E-21
   1.70400000       1.93586456E-21
   1.71200001       2.14521052E-21
   1.72000003       1.92928589E-21
   1.72800004       1.28309678E-21
   1.73599994       2.79850363E-22
   1.74399996      -9.37958999E-22
   1.75199997      -2.17896761E-21
   1.75999999      -3.23267899E-21
   1.76800001      -3.90249273E-21
   1.77600002      -4.04208875E-21
   1.78400004      -3.58416350E-21
   1.79200006      -2.55472147E-21
   1.79999995      -1.07333066E-21
   1.80799997       6.61525931E-22
   1.81599998       2.40805706E-21
   1.82400000       3.91907269E-21
   1.83200002       4.98369493E-21
   1.84000003       5.45937548E-21
   1.84800005       5.29184919E-21
   1.85599995       4.51737348E-21
   1.86399996       3.24969778E-21
   1.87199998       1.66180676E-21
   1.88000000      -4.27064997E-23
   1.88800001      -1.65809414E-21
   1.89600003      -2.99775666E-21
   1.90400004      -3.92619783E-21
   1.91199994      -4.36838322E-21
   1.91999996      -4.31880166E-21
   1.92799997      -3.83844722E-21
   1.93599999      -3.03702714E-21
   1.94400001      -2.05711963E-21
   1.95200002      -1.04762637E-21
   1.96000004      -1.42783369E-22
   1.96800005       5.53947922E-22
   1.97599995       9.82426823E-22
   1.98399997       1.13200303E-21
   1.99199998       1.03790780E-21
   2.00000000       7.74837306E-22
   2.00799990       4.39892469E-22
   2.01600003       1.35501009E-22
   2.02399993      -4.84408495E-23
   2.03200006      -4.78791585E-23
   2.03999996       1.68983321E-22
   2.04800010       5.97613304E-22
   2.05599999       1.19902304E-21
   2.06399989       1.90136026E-21
   2.07200003       2.60643985E-21
   2.07999992       3.19942475E-21
   2.08800006       3.56407327E-21
   2.09599996       3.60077941E-21
   2.10400009       3.24343698E-21
   2.11199999       2.47303920E-21
   2.11999989       1.32299471E-21
   2.12800002      -1.22641012E-22
   2.13599992      -1.73670952E-21
   2.14400005      -3.36173936E-21
   2.15199995      -4.82395497E-21
   2.16000009      -5.95127653E-21
   2.16799998      -6.59215531E-21
   2.17600012      -6.63420581E-21
   2.18400002      -6.02097700E-21
   2.19199991      -4.76384180E-21
   2.20000005      -2.94812966E-21
   2.20799994      -7.31141631E-22
   2.21600008       1.66886859E-21
   2.22399998       3.99169091E-21
   2.23200011       5.96350127E-21
   2.24000001       7.33188176E-21
   2.24799991       7.90090286E-21
   2.25600004       7.56494475E-21
   2.26399994       6.32958968E-21
   2.27200007       4.31856458E-21
   2.27999997       1.76235373E-21
   2.28800011      -1.02938427E-21
   2.29600000      -3.70663793E-21
   2.30399990      -5.92355952E-21
   2.31200004      -7.38238744E-21
   2.31999993      -7.87298956E-21
   2.32800007      -7.30410498E-21
   2.33599997      -5.72204168E-21
   2.34400010      -3.31397109E-21
   2.35200000      -3.90679160E-22
   2.35999990       2.65165044E-21
   2.36800003       5.38571844E-21
   2.37599993       7.41644240E-21
   2.38400006       8.44130060E-21
   2.39199996       8.29761432E-21
   2.40000010       6.98864543E-21
   2.40799999       4.68493087E-21
   2.41599989       1.70135441E-21
   2.42400002      -1.54736977E-21
   2.43199992      -4.60603650E-21
   2.44000006      -7.04511909E-21
   2.44799995      -8.52284656E-21
   2.45600009      -8.83509916E-21
   2.46399999      -7.94402773E-21
   2.47199988      -5.98320982E-21
   2.48000002      -3.23830082E-21
   2.48799992      -1.05102229E-22
   2.49600005       2.96844789E-21
   2.50399995       5.54836202E-21
   2.51200008       7.27747041E-21
   2.51999998       7.92617630E-21
   2.52800012       7.42208646E-21
   2.53600001       5.85647347E-21
   2.54399991       3.46830974E-21
   2.55200005       6.09689465E-22
   2.55999994      -2.30363742E-21
   2.56800008      -4.85059357E-21
   2.57599998      -6.66457037E-21
   2.58400011      -7.48756540E-21
   2.59200001      -7.20698153E-21
   2.59999990      -5.87010095E-21
   2.60800004      -3.67272958E-21
   2.61599994      -9.27748589E-22
   2.62400007       1.98123509E-21
   2.63199997       4.65257348E-21
   2.64000010       6.72096688E-21
   2.64800000       7.90613817E-21
   2.65599990       8.05056116E-21
   2.66400003       7.13993547E-21
   2.67199993       5.30283034E-21
   2.68000007       2.78890204E-21
   2.68799996      -6.86018245E-23
   2.69600010      -2.89885446E-21
   2.70400000      -5.34179749E-21
   2.71199989      -7.09215610E-21
   2.72000003      -7.93615497E-21
   2.72799993      -7.77734922E-21
   2.73600006      -6.64754329E-21
   2.74399996      -4.70122487E-21
   2.75200009      -2.19421593E-21
   2.75999999       5.50217733E-22
   2.76799989       3.18300493E-21
   2.77600002       5.37282929E-21
   2.78399992       6.84800938E-21
   2.79200006       7.43110466E-21
   2.79999995       7.06181295E-21
   2.80800009       5.80327623E-21
   2.81599998       3.83045289E-21
   2.82399988       1.40238739E-21
   2.83200002      -1.17511639E-21
   2.83999991      -3.58981199E-21
   2.84800005      -5.56108275E-21
   2.85599995      -6.87125283E-21
   2.86400008      -7.38772938E-21
   2.87199998      -7.07418673E-21
   2.88000011      -5.98973114E-21
   2.88800001      -4.27629112E-21
   2.89599991      -2.13724144E-21
   2.90400004       1.87703343E-22
   2.91199994       2.44933491E-21
   2.92000008       4.41473038E-21
   2.92799997       5.89065162E-21
   2.93600011       6.74305115E-21
   2.94400001       6.90925790E-21
   2.95199990       6.40032776E-21
   2.96000004       5.29392401E-21
   2.96799994       3.72088983E-21
   2.97600007       1.85016736E-21
   2.98399997      -1.25753415E-22
   2.99200010      -2.00507712E-21
   3.00000000      -3.59424759E-21
   3.00799990      -4.72902105E-21
   3.01600003      -5.29665355E-21
   3.02399993      -5.25267727E-21
   3.03200006      -4.62677013E-21
   3.03999996      -3.51597239E-21
   3.04800010      -2.06808502E-21
   3.05599999      -4.60849865E-22
   3.06399989       1.11903966E-21
   3.07200003       2.49432658E-21
   3.07999992       3.51357648E-21
   3.08800006       4.06536330E-21
   3.09599996       4.08923642E-21
   3.10400009       3.58240453E-21
   3.11199999       2.60082084E-21
   3.11999989       1.25372975E-21
   3.12800002      -3.06989803E-22
   3.13599992      -1.90245260E-21
   3.14400005      -3.34590256E-21
   3.15199995      -4.46431154E-21
   3.16000009      -5.11957712E-21
   3.16799998      -5.22553177E-21
   3.17600012      -4.75911984E-21
   3.18400002      -3.76204651E-21
   3.19199991      -2.33361383E-21
   3.20000005      -6.17535059E-22
   3.20799994       1.21533703E-21
   3.21600008       2.98509409E-21
   3.22399998       4.51942608E-21
   3.23200011       5.66880081E-21
   3.24000001       6.31950519E-21
   3.24799991       6.40408521E-21
   3.25600004       5.90753572E-21
   3.26399994       4.86819176E-21
   3.27200007       3.37367794E-21
   3.27999997       1.55331928E-21
   3.28800011      -4.30598753E-22
   3.29600000      -2.39320456E-21
   3.30399990      -4.13959993E-21
   3.31200004      -5.48356405E-21
   3.31999993      -6.27091479E-21
   3.32800007      -6.40381379E-21
   3.33599997      -5.85900348E-21
   3.34400010      -4.69352054E-21
   3.35200000      -3.03690840E-21
   3.35999990      -1.07273451E-21
   3.36800003       9.83224418E-22
   3.37599993       2.90538183E-21
   3.38400006       4.47891321E-21
   3.39199996       5.52044185E-21
   3.40000010       5.89766206E-21
   3.40799999       5.54594914E-21
   3.41599989       4.47839663E-21
   3.42400002       2.78689326E-21
   3.43199992       6.35930639E-22
   3.44000006      -1.74950053E-21
   3.44799995      -4.10150439E-21
   3.45600009      -6.13343963E-21
   3.46399999      -7.57283043E-21
   3.47199988      -8.19794552E-21
   3.48000002      -7.87237644E-21
   3.48799992      -6.56746631E-21
   3.49600005      -4.36906541E-21
   3.50399995      -1.46848399E-21
   3.51200008       1.85672664E-21
   3.51999998       5.26849184E-21
   3.52800012       8.39917659E-21
   3.53600001       1.08881962E-20
   3.54399991       1.24237019E-20
   3.55200005       1.27836361E-20
   3.55999994       1.18684908E-20
   3.56800008       9.71938997E-21
   3.57599998       6.51849705E-21
   3.58400011       2.57236146E-21
   3.59200001      -1.71738265E-21
   3.59999990      -5.89581140E-21
   3.60800004      -9.50485292E-21
   3.61599994      -1.21382874E-20
   3.62400007      -1.34928151E-20
   3.63199997      -1.34081769E-20
   3.64000010      -1.18892713E-20
   3.64800000      -9.10768021E-21
   3.65599990      -5.38402692E-21
   3.66400003      -1.15346833E-21
   3.67199993       3.08335632E-21
   3.68000007       6.82012031E-21
   3.68799996       9.60766889E-21
   3.69600010       1.11117765E-20
   3.70400000       1.11557624E-20
   3.71199989       9.74167780E-21
   3.72000003       7.04957326E-21
   3.72799993       3.41569734E-21
   3.73600006      -7.06675230E-22
   3.74399996      -4.80147367E-21
   3.75200009      -8.35449591E-21
   3.75999999      -1.09207204E-20
   3.76799989      -1.21834293E-20
   3.77600002      -1.19945115E-20
   3.78399992      -1.03892302E-20
   3.79200006      -7.57515768E-21
   3.79999995      -3.90004107E-21
   3.80800009       1.95158483E-22
   3.81599998       4.23202929E-21
   3.82399988       7.75369218E-21
   3.83200002       1.03806522E-20
   3.83999991       1.18554676E-20
   3.84800005       1.20685320E-20
   3.85599995       1.10610947E-20
   3.86400008       9.00809461E-21
   3.87199998       6.18607910E-21
   3.88000011       2.93532836E-21
   3.88800001      -3.79498590E-22
   3.89599991      -3.40730517E-21
   3.90400004      -5.84603638E-21
   3.91199994      -7.47432566E-21
   3.92000008      -8.17422224E-21
   3.92799997      -7.94107282E-21
   3.93600011      -6.87592107E-21
   3.94400001      -5.16257637E-21
   3.95199990      -3.03501614E-21
   3.96000004      -7.43213349E-22
   3.96799994       1.47453436E-21
   3.97600007       3.41020515E-21
   3.98399997       4.89669274E-21
   3.99200010       5.81465360E-21
   4.00000000       6.09857526E-21
   4.00799990       5.74144650E-21
   4.01599979       4.79508160E-21
   4.02400017       3.36409731E-21
   4.03200006       1.59365433E-21
   4.03999996      -3.45358937E-22
   4.04799986      -2.26979471E-21
   4.05600023      -3.99620728E-21
   4.06400013      -5.35337116E-21
   4.07200003      -6.19856516E-21
   4.07999992      -6.43721606E-21
   4.08799982      -6.04056316E-21
   4.09600019      -5.05459215E-21
   4.10400009      -3.59636805E-21
   4.11199999      -1.83878898E-21
   4.11999989       1.04128890E-23
   4.12799978       1.73009369E-21
   4.13600016       3.10702670E-21
   4.14400005       3.95841587E-21
   4.15199995       4.15749498E-21
   4.15999985       3.65900961E-21
   4.16800022       2.51665481E-21
   4.17600012       8.84633718E-22
   4.18400002      -1.00100082E-21
   4.19199991      -2.85802211E-21
   4.19999981      -4.40242041E-21
   4.20800018      -5.39142348E-21
   4.21600008      -5.65769486E-21
   4.22399998      -5.13037611E-21
   4.23199987      -3.84343857E-21
   4.23999977      -1.93117956E-21
   4.24800014       3.87408631E-22
   4.25600004       2.83385313E-21
   4.26399994       5.10480136E-21
   4.27199984       6.91285582E-21
   4.28000021       8.02995354E-21
   4.28800011       8.32525217E-21
   4.29600000       7.78886997E-21
   4.30399990       6.53407253E-21
   4.31199980       4.77606816E-21
   4.32000017       2.79205627E-21
   4.32800007       8.73394987E-22
   4.33599997      -7.19844184E-22
   4.34399986      -1.79439062E-21
   4.35200024      -2.24610051E-21
   4.36000013      -2.06967637E-21
   4.36800003      -1.35461791E-21
   4.37599993      -2.68818275E-22
   4.38399982       9.70630816E-22
   4.39200020       2.13408781E-21
   4.40000010       3.01639993E-21
   4.40799999       3.46648373E-21
   4.41599989       3.40475295E-21
   4.42399979       2.82803883E-21
   4.43200016       1.80361462E-21
   4.44000006       4.55341521E-22
   4.44799995      -1.05730232E-21
   4.45599985      -2.56482010E-21
   4.46400023      -3.91490851E-21
   4.47200012      -4.99492851E-21
   4.48000002      -5.74468413E-21
   4.48799992      -6.15543747E-21
   4.49599981      -6.25751349E-21
   4.50400019      -6.10112345E-21
   4.51200008      -5.73710541E-21
   4.51999998      -5.20330250E-21
   4.52799988      -4.52011634E-21
   4.53599977      -3.69497904E-21
   4.54400015      -2.73249967E-21
   4.55200005      -1.64483906E-21
   4.55999994      -4.57638785E-22
   4.56799984       7.89804913E-22
   4.57600021       2.04808688E-21
   4.58400011       3.26089279E-21
   4.59200001       4.36656407E-21
   4.59999990       5.30040898E-21
   4.60799980       6.00340587E-21
   4.61600018       6.43735621E-21
   4.62400007       6.60208026E-21
   4.63199997       6.54356329E-21
   4.63999987       6.34530692E-21
   4.64799976       6.10339981E-21
   4.65600014       5.89547778E-21
   4.66400003       5.75704862E-21
   4.67199993       5.67301265E-21
   4.67999983       5.58269244E-21
   4.68800020       5.39085035E-21
   4.69600010       4.97893864E-21
   4.70400000       4.21723455E-21
   4.71199989       2.98365663E-21
   4.71999979       1.19207571E-21
   4.72800016      -1.17472370E-21
   4.73600006      -4.03912657E-21
   4.74399996      -7.22178435E-21
   4.75199986      -1.04575913E-20
   4.76000023      -1.34296795E-20
   4.76800013      -1.58110921E-20
   4.77600002      -1.73053729E-20
   4.78399992      -1.76830455E-20
   4.79199982      -1.68128902E-20
   4.80000019      -1.46868810E-20
   4.80800009      -1.14332759E-20
   4.81599998      -7.31147932E-21
   4.82399988      -2.68492366E-21
   4.83199978       2.02430039E-21
   4.84000015       6.38951302E-21
   4.84800005       1.00303121E-20
   4.85599995       1.26515893E-20
   4.86399984       1.40676959E-20
   4.87200022       1.42134525E-20
   4.88000011       1.31451544E-20
   4.88800001       1.10327686E-20
   4.89599991       8.14202197E-21
   4.90399981       4.80519638E-21
   4.91200018       1.38172161E-21
   4.92000008      -1.78495782E-21
   4.92799997      -4.40618271E-21
   4.93599987      -6.27432206E-21
   4.94399977      -7.27366166E-21
   4.95200014      -7.37874349E-21
   4.96000004      -6.64544060E-21
   4.96799994      -5.19976194E-21
   4.97599983      -3.22518811E-21
   4.98400021      -9.47370400E-22
   4.99200010       1.38560871E-21
   5.00000000       3.52651006E-21
   5.00799990       5.25224106E-21
   5.01599979       6.38457781E-21
   5.02400017       6.80593222E-21
   5.03200006       6.47016394E-21
   5.03999996       5.40810200E-21
   5.04799986       3.72610212E-21
   5.05600023       1.59637376E-21
   5.06400013      -7.60887620E-22
   5.07200003      -3.10089837E-21
   5.07999992      -5.17932921E-21
   5.08799982      -6.77660043E-21
   5.09600019      -7.72056699E-21
   5.10400009      -7.90788785E-21
   5.11199999      -7.32175365E-21
   5.11999989      -6.04143720E-21
   5.12799978      -4.23794072E-21
   5.13600016      -2.15454337E-21
   5.14400005      -7.43795680E-23
   5.15199995       1.71709548E-21
   5.15999985       2.96864944E-21
   5.16800022       3.49388610E-21
   5.17600012       3.19421307E-21
   5.18400002       2.07255454E-21
   5.19199991       2.35838487E-22
   5.19999981      -2.11578967E-21
   5.20800018      -4.71177223E-21
   5.21600008      -7.24261492E-21
   5.22399998      -9.39402364E-21
   5.23199987      -1.08800722E-20
   5.23999977      -1.14733360E-20
   5.24800014      -1.10308663E-20
   5.25600004      -9.51442770E-21
   5.26399994      -7.00012418E-21
   5.27199984      -3.67356565E-21
   5.28000021       1.90331778E-22
   5.28800011       4.25949750E-21
   5.29600000       8.18194798E-21
   5.30399990       1.16225072E-20
   5.31199980       1.42942367E-20
   5.32000017       1.59840019E-20
   5.32800007       1.65712356E-20
   5.33599997       1.60393132E-20
   5.34399986       1.44778498E-20
   5.35200024       1.20749168E-20
   5.36000013       9.09918222E-21
   5.36800003       5.87253766E-21
   5.37599993       2.73589967E-21
   5.38399982       1.14843570E-23
   5.39200020      -2.03275455E-21
   5.40000010      -3.21152146E-21
   5.40799999      -3.43986006E-21
   5.41599989      -2.74030518E-21
   5.42399979      -1.24175168E-21
   5.43200016       8.28383670E-22
   5.44000006       3.16001149E-21
   5.44799995       5.38786394E-21
   5.45599985       7.13202152E-21
   5.46400023       8.04772096E-21
   5.47200012       7.87542182E-21
   5.48000002       6.48037566E-21
   5.48799992       3.87428861E-21
   5.49599981       2.17282611E-22
   5.50400019      -4.19781680E-21
   5.51200008      -8.97590969E-21
   5.51999998      -1.36615357E-20
   5.52799988      -1.77881685E-20
   5.53599977      -2.09281202E-20
   5.54400015      -2.27354049E-20
   5.55200005      -2.29764618E-20
   5.55999994      -2.15488676E-20
   5.56799984      -1.84911622E-20
   5.57600021      -1.39861378E-20
   5.58400011      -8.35394985E-21
   5.59200001      -2.02914977E-21
   5.59999990       4.48188024E-21
   5.60799980       1.06579403E-20
   5.61600018       1.60215530E-20
   5.62400007       2.01853217E-20
   5.63199997       2.28797140E-20
   5.63999987       2.39650185E-20
   5.64799976       2.34346067E-20
   5.65600014       2.14134701E-20
   5.66400003       1.81493508E-20
   5.67199993       1.39910298E-20
   5.67999983       9.35209431E-21
   5.68800020       4.66584149E-21
   5.69600010       3.41043452E-22
   5.70400000      -3.27405215E-21
   5.71199989      -5.91883514E-21
   5.71999979      -7.44193071E-21
   5.72800016      -7.81867836E-21
   5.73600006      -7.16002368E-21
   5.74399996      -5.70486718E-21
   5.75199986      -3.79076438E-21
   5.76000023      -1.80694616E-21
   5.76800013      -1.40903747E-22
   5.77600002       8.68677170E-22
   5.78399992       9.66359203E-22
   5.79199982       2.62982994E-24
   5.80000019      -2.04995308E-21
   5.80800009      -5.08537029E-21
   5.81599998      -8.86141950E-21
   5.82399988      -1.30131537E-20
   5.83199978      -1.70869180E-20
   5.84000015      -2.05921524E-20
   5.84800005      -2.30609231E-20
   5.85599995      -2.41032449E-20
   5.86399984      -2.34496624E-20
   5.87200022      -2.09787883E-20
   5.88000011      -1.67319558E-20
   5.88800001      -1.09165578E-20
   5.89599991      -3.89779904E-21
   5.90399981       3.82411333E-21
   5.91200018       1.16527308E-20
   5.92000008       1.89471745E-20
   5.92799997       2.50798254E-20
   5.93599987       2.94913573E-20
   5.94399977       3.17376050E-20
   5.95200014       3.15266190E-20
   5.96000004       2.87467267E-20
   5.96799994       2.34855414E-20
   5.97599983       1.60361499E-20
   5.98400021       6.88474379E-21
   5.99200010      -3.32320356E-21
   6.00000000      -1.38367057E-20
   6.00799990      -2.38645129E-20
   6.01599979      -3.26416811E-20
   6.02400017      -3.94890111E-20
   6.03200006      -4.38611357E-20
   6.03999996      -4.53830446E-20
   6.04799986      -4.38762188E-20
   6.05600023      -3.93731638E-20
   6.06400013      -3.21185055E-20
   6.07200003      -2.25535964E-20
   6.07999992      -1.12837711E-20
   6.08799982       9.70113020E-22
   6.09600019       1.34309260E-20
   6.10400009       2.53290975E-20
   6.11199999       3.59630956E-20
   6.11999989       4.47505390E-20
   6.12799978       5.12655783E-20
   6.13600016       5.52612613E-20
   6.14400005       5.66770068E-20
   6.15199995       5.56319869E-20
   6.15999985       5.24039113E-20
   6.16800022       4.73941792E-20
   6.17600012       4.10815600E-20
   6.18400002       3.39709119E-20
   6.19199991       2.65446039E-20
   6.19999981       1.92235159E-20
   6.20800018       1.23399725E-20
   6.21600008       6.12179731E-21
   6.22399998       6.86091944E-22
   6.23199987      -3.95658743E-21
   6.23999977      -7.88585932E-21
   6.24800014      -1.12427650E-20
   6.25600004      -1.41933805E-20
   6.26399994      -1.68931251E-20
   6.27199984      -1.94597179E-20
   6.28000021      -2.19566644E-20
   6.28800011      -2.43849161E-20
   6.29600000      -2.66790725E-20
   6.30399990      -2.87087830E-20
   6.31199980      -3.02909372E-20
   6.32000017      -3.12173472E-20
   6.32800007      -3.12958163E-20
   6.33599997      -3.03937435E-20
   6.34399986      -2.84708394E-20
   6.35200024      -2.55917888E-20
   6.36000013      -2.19203686E-20
   6.36800003      -1.77018121E-20
   6.37599993      -1.32406187E-20
   6.38399982      -8.87463338E-21
   6.39200020      -4.94280846E-21
   6.40000010      -1.74598582E-21
   6.40799999       4.93748975E-22
   6.41599989       1.66446046E-21
   6.42399979       1.77824384E-21
   6.43200016       9.66378287E-22
   6.44000006      -5.38882522E-22
   6.44799995      -2.42972753E-21
   6.45599985      -4.35286470E-21
   6.46400023      -5.94588208E-21
   6.47200012      -6.87973951E-21
   6.48000002      -6.90173007E-21
   6.48799992      -5.86885170E-21
   6.49599981      -3.76371258E-21
   6.50400019      -6.91833892E-22
   6.51200008       3.13353868E-21
   6.51999998       7.41214333E-21
   6.52799988       1.17811417E-20
   6.53599977       1.58469533E-20
   6.54400015       1.92270379E-20
   6.55200005       2.15974709E-20
   6.55999994       2.27349105E-20
   6.56799984       2.25408510E-20
   6.57600021       2.10435943E-20
   6.58400011       1.83835091E-20
   6.59200001       1.47928780E-20
   6.59999990       1.05766884E-20
   6.60799980       6.09371719E-21