 -0.239999995       0.00000000    
 -0.231999993       0.00000000    
 -0.224000007       0.00000000    
 -0.216000006       0.00000000    
 -0.208000004       0.00000000    
 -0.200000003       0.00000000    
 -0.192000002       0.00000000    
 -0.184000000       0.00000000    
 -0.175999999       0.00000000    
 -0.167999998      -1.40269976E-42
 -0.159999996       1.29844190E-36
 -0.151999995      -1.08546378E-35
 -0.143999994      -1.33761913E-34
 -0.136000007      -3.73388135E-34
 -0.128000006       4.11710468E-34
 -0.119999997       4.83975085E-33
 -0.112000003       1.03052658E-32
 -0.104000002      -3.73087177E-33
  -9.60000008E-02  -6.23990899E-32
  -8.79999995E-02  -1.19415262E-31
  -7.99999982E-02   4.31213940E-33
  -7.19999969E-02   4.41481307E-31
  -6.40000030E-02   8.22738370E-31
  -5.60000017E-02   1.67560913E-31
  -4.80000004E-02  -2.01175721E-30
  -3.99999991E-02  -3.92523744E-30
  -3.20000015E-02  -1.75396716E-30
  -2.40000002E-02   6.01660289E-30
  -1.60000008E-02   1.34997397E-29
  -8.00000038E-03   9.51382008E-30
   1.38777878E-17  -1.02662975E-29
   8.00000038E-03  -3.22296612E-29
   1.60000008E-02  -3.18852839E-29
   2.40000002E-02   8.00635597E-31
   3.20000015E-02   4.41335062E-29
   3.99999991E-02   6.18046387E-29
   4.80000004E-02   4.13819301E-29
   5.60000017E-02   5.75913389E-30
   6.40000030E-02  -2.50286618E-29
   7.19999969E-02  -7.15148525E-29
   7.99999982E-02  -1.59659039E-28
   8.79999995E-02  -2.30973023E-28
   9.60000008E-02  -1.28966649E-28
  0.104000002       2.43903716E-28
  0.112000003       7.14404598E-28
  0.119999997       8.42786077E-28
  0.128000006       2.67673279E-28
  0.136000007      -8.58106657E-28
  0.143999994      -1.79466530E-27
  0.151999995      -1.69913513E-27
  0.159999996      -3.31150100E-28
  0.167999998       1.62622809E-27
  0.175999999       2.94853326E-27
  0.184000000       2.68893370E-27
  0.192000002       8.27557171E-28
  0.200000003      -1.68949450E-27
  0.208000004      -3.50595363E-27
  0.216000006      -3.63637144E-27
  0.224000007      -2.02807915E-27
  0.231999993       4.08557871E-28
  0.239999995       2.36663664E-27
  0.247999996       3.02180431E-27
  0.256000012       2.61364062E-27
  0.263999999       2.15456036E-27
  0.272000015       2.31619769E-27
  0.280000001       2.40322430E-27
  0.287999988       5.70887236E-28
  0.296000004      -4.44470118E-27
  0.303999990      -1.12802264E-26
  0.312000006      -1.55052028E-26
  0.319999993      -1.18449660E-26
  0.328000009       1.83664980E-27
  0.335999995       2.13224034E-26
  0.344000012       3.62451850E-26
  0.351999998       3.47967192E-26
  0.360000014       1.13850470E-26
  0.368000001      -2.69460495E-26
  0.375999987      -6.05240218E-26
  0.384000003      -6.62822626E-26
  0.391999990      -3.30355626E-26
  0.400000006       2.67895808E-26
  0.407999992       7.96042251E-26
  0.416000009       8.99687234E-26
  0.423999995       4.60852017E-26
  0.432000011      -2.75379355E-26
  0.439999998      -8.32115874E-26
  0.448000014      -8.30449652E-26
  0.456000000      -2.81368997E-26
  0.463999987       4.00591857E-26
  0.472000003       7.00323903E-26
  0.479999989       4.00829624E-26
  0.488000005      -2.40036260E-26
  0.495999992      -6.87883998E-26
  0.504000008      -5.55399369E-26
  0.512000024       8.79735062E-27
  0.519999981       7.70321010E-26
  0.527999997       9.87557711E-26
  0.536000013       5.85166111E-26
  0.544000030      -1.52250694E-26
  0.551999986      -7.54141719E-26
  0.560000002      -9.26522248E-26
  0.568000019      -7.18909466E-26
  0.575999975      -3.84374602E-26
  0.583999991      -9.97042762E-27
  0.592000008       1.75247037E-26
  0.600000024       5.70833494E-26
  0.607999980       1.05558057E-25
  0.615999997       1.33582674E-25
  0.624000013       1.05061136E-25
  0.632000029       1.18664949E-26
  0.639999986      -1.07960459E-25
  0.648000002      -1.88943638E-25
  0.656000018      -1.82774943E-25
  0.663999975      -9.37624418E-26
  0.671999991       2.42324173E-26
  0.680000007       1.07335866E-25
  0.688000023       1.25576339E-25
  0.695999980       9.64858670E-26
  0.703999996       6.05037147E-26
  0.712000012       4.27020484E-26
  0.720000029       3.49980328E-26
  0.727999985       1.22562245E-26
  0.736000001      -3.59624492E-26
  0.744000018      -9.01035200E-26
  0.751999974      -1.17279704E-25
  0.759999990      -1.03991811E-25
  0.768000007      -7.13910121E-26
  0.776000023      -5.40582959E-26
  0.783999979      -5.84691562E-26
  0.791999996      -4.21720294E-26
  0.800000012       5.62803938E-26
  0.808000028       2.50281332E-25
  0.815999985       4.56103746E-25
  0.824000001       5.17371861E-25
  0.832000017       3.07392619E-25
  0.839999974      -1.54814162E-25
  0.847999990      -6.69861928E-25
  0.856000006      -9.53017436E-25
  0.864000022      -8.13495996E-25
  0.871999979      -2.93720846E-25
  0.879999995       3.42185378E-25
  0.888000011       7.77133995E-25
  0.896000028       8.50834804E-25
  0.903999984       6.49387733E-25
  0.912000000       4.04070752E-25
  0.920000017       2.74944230E-25
  0.927999973       2.08694804E-25
  0.935999990      -3.05923572E-27
  0.944000006      -5.00706040E-25
  0.952000022      -1.15264924E-24
  0.959999979      -1.57356935E-24
  0.967999995      -1.38084422E-24
  0.976000011      -5.06756209E-25
  0.984000027       6.87948339E-25
  0.991999984       1.61381180E-24
   1.00000000       1.83212314E-24
   1.00800002       1.32687824E-24
   1.01600003       4.68517902E-25
   1.02400005      -2.99409889E-25
   1.03199995      -7.69880271E-25
   1.03999996      -1.04242940E-24
   1.04799998      -1.30719804E-24
   1.05599999      -1.56605899E-24
   1.06400001      -1.56271432E-24
   1.07200003      -1.00203903E-24
   1.08000004       1.29405704E-25
   1.08800006       1.43641158E-24
   1.09599996       2.32266407E-24
   1.10399997       2.38379251E-24
   1.11199999       1.67590797E-24
   1.12000000       6.42838364E-25
   1.12800002      -2.15198247E-25
   1.13600004      -6.49754850E-25
   1.14400005      -7.01120739E-25
   1.15199995      -5.02883987E-25
   1.15999997      -9.10167806E-26
   1.16799998       5.51995459E-25
   1.17600000       1.25804480E-24
   1.18400002       1.53840114E-24
   1.19200003       8.05520809E-25
   1.20000005      -1.10859225E-24
   1.20799994      -3.56023971E-24
   1.21599996      -5.25836693E-24
   1.22399998      -5.02730760E-24
   1.23199999      -2.68132599E-24
   1.24000001       6.79159147E-25
   1.24800003       3.28410348E-24
   1.25600004       3.87162677E-24
   1.26400006       2.58410480E-24
   1.27199996       8.75179643E-25
   1.27999997       4.33925908E-25
   1.28799999       1.88592069E-24
   1.29600000       4.25106216E-24
   1.30400002       5.59388328E-24
   1.31200004       4.41969735E-24
   1.32000005       8.00791145E-25
   1.32799995      -3.59426998E-24
   1.33599997      -6.58324541E-24
   1.34399998      -6.87448813E-24
   1.35200000      -4.80678745E-24
   1.36000001      -1.96537930E-24
   1.36800003      -4.79177102E-26
   1.37600005       1.63602997E-25
   1.38399994      -9.51618786E-25
   1.39199996      -2.40674717E-24
   1.39999998      -3.39936651E-24
   1.40799999      -3.70426125E-24
   1.41600001      -3.46502656E-24
   1.42400002      -2.70657802E-24
   1.43200004      -1.08790466E-24
   1.44000006       1.85766074E-24
   1.44799995       6.20892776E-24
   1.45599997       1.13370545E-23
   1.46399999       1.60764141E-23
   1.47200000       1.92616183E-23
   1.48000002       2.01972894E-23
   1.48800004       1.87079058E-23
   1.49600005       1.47993840E-23
   1.50399995       8.32223327E-24
   1.51199996      -9.58150850E-25
   1.51999998      -1.28281089E-23
   1.52800000      -2.60255073E-23
   1.53600001      -3.81432171E-23
   1.54400003      -4.62832771E-23
   1.55200005      -4.81889379E-23
   1.55999994      -4.31581920E-23
   1.56799996      -3.21823474E-23
   1.57599998      -1.72287237E-23
   1.58399999      -2.71257119E-25
   1.59200001       1.72761090E-23
   1.60000002       3.43528477E-23
   1.60800004       4.95278494E-23
   1.61600006       6.05362519E-23
   1.62399995       6.46683684E-23
   1.63199997       5.99690672E-23
   1.63999999       4.65119742E-23
   1.64800000       2.68069198E-23
   1.65600002       4.98504793E-24
   1.66400003      -1.48262968E-23
   1.67200005      -2.99092415E-23
   1.67999995      -3.93763770E-23
   1.68799996      -4.35685322E-23
   1.69599998      -4.31131575E-23
   1.70400000      -3.83879722E-23
   1.71200001      -2.97315806E-23
   1.72000003      -1.81226862E-23
   1.72800004      -5.52888193E-24
   1.73599994       5.44199324E-24
   1.74399996       1.23658451E-23
   1.75199997       1.38905721E-23
   1.75999999       1.01512664E-23
   1.76800001       2.51028024E-24
   1.77600002      -7.09192738E-24
   1.78400004      -1.65335022E-23
   1.79200006      -2.37693020E-23
   1.79999995      -2.68763806E-23
   1.80799997      -2.43331388E-23
   1.81599998      -1.53614379E-23
   1.82400000      -3.65132553E-25
   1.83200002       1.89331382E-23
   1.84000003       3.96532672E-23
   1.84800005       5.82977549E-23
   1.85599995       7.14477759E-23
   1.86399996       7.62914008E-23
   1.87199998       7.10631841E-23
   1.88000000       5.52601671E-23
   1.88800001       2.98762167E-23
   1.89600003      -2.47426322E-24
   1.90400004      -3.78813405E-23
   1.91199994      -7.16330635E-23
   1.91999996      -9.88074537E-23
   1.92799997      -1.15001443E-22
   1.93599999      -1.16893485E-22
   1.94400001      -1.02727070E-22
   1.95200002      -7.26216893E-23
   1.96000004      -2.88424492E-23
   1.96800005       2.39887363E-23
   1.97599995       7.90588889E-23
   1.98399997       1.28136343E-22
   1.99199998       1.62945872E-22
   2.00000000       1.76953239E-22
   2.00799990       1.66805017E-22
   2.01600003       1.33000573E-22
   2.02399993       7.95095241E-23
   2.03200006       1.26760931E-23
   2.03999996      -5.98989154E-23
   2.04800010      -1.30087543E-22
   2.05599999      -1.89641455E-22
   2.06399989      -2.30705338E-22
   2.07200003      -2.46882616E-22
   2.07999992      -2.34685362E-22
   2.08800006      -1.94653915E-22
   2.09599996      -1.31444283E-22
   2.10400009      -5.27378317E-23
   2.11199999       3.23206600E-23
   2.11999989       1.14307195E-22
   2.12800002       1.84083911E-22
   2.13599992       2.33267710E-22
   2.14400005       2.55360737E-22
   2.15199995       2.47583351E-22
   2.16000009       2.12366404E-22
   2.16799998       1.57171296E-22
   2.17600012       9.22090551E-23
   2.18400002       2.72034392E-23
   2.19199991      -3.08312874E-23
   2.20000005      -7.76039076E-23
   2.20799994      -1.09961076E-22
   2.21600008      -1.24676285E-22
   2.22399998      -1.19264397E-22
   2.23200011      -9.44597573E-23
   2.24000001      -5.62499414E-23
   2.24799991      -1.52387937E-23
   2.25600004       1.70373414E-23
   2.26399994       3.27512234E-23
   2.27200007       3.04501067E-23
   2.27999997       1.41666008E-23
   2.28800011      -1.00862761E-23
   2.29600000      -3.77592059E-23
   2.30399990      -6.69449389E-23
   2.31200004      -9.70364736E-23
   2.31999993      -1.26465750E-22
   2.32800007      -1.51411084E-22
   2.33599997      -1.66232973E-22
   2.34400010      -1.65106618E-22
   2.35200000      -1.43801114E-22
   2.35999990      -1.01090272E-22
   2.36800003      -3.97003401E-23
   2.37599993       3.33483059E-23
   2.38400006       1.07623788E-22
   2.39199996       1.71796159E-22
   2.40000010       2.17209632E-22
   2.40799999       2.40701506E-22
   2.41599989       2.44807747E-22
   2.42400002       2.35027488E-22
   2.43199992       2.15982669E-22
   2.44000006       1.89215344E-22
   2.44799995       1.54112081E-22
   2.45600009       1.10878502E-22
   2.46399999       6.28114908E-23
   2.47199988       1.57397425E-23
   2.48000002      -2.49796482E-23
   2.48799992      -5.73217383E-23
   2.49600005      -8.28746028E-23
   2.50399995      -1.04400187E-22
   2.51200008      -1.23013240E-22
   2.51999998      -1.37658399E-22
   2.52800012      -1.47395341E-22
   2.53600001      -1.54180011E-22
   2.54399991      -1.63034880E-22
   2.55200005      -1.78577864E-22
   2.55999994      -2.00291721E-22
   2.56800008      -2.20535595E-22
   2.57599998      -2.27670255E-22
   2.58400011      -2.12748491E-22
   2.59200001      -1.75121858E-22
   2.59999990      -1.22762408E-22
   2.60800004      -6.69088848E-23
   2.61599994      -1.49073601E-23
   2.62400007       3.34575474E-23
   2.63199997       8.35608424E-23
   2.64000010       1.39563933E-22
   2.64800000       1.99222316E-22
   2.65599990       2.54003038E-22
   2.66400003       2.94399204E-22
   2.67199993       3.16172194E-22
   2.68000007       3.22514434E-22
   2.68799996       3.20377139E-22
   2.69600010       3.13823080E-22
   2.70400000       2.99699466E-22
   2.71199989       2.69140534E-22
   2.72000003       2.13939456E-22
   2.72799993       1.33074322E-22
   2.73600006       3.46473957E-23
   2.74399996      -6.79863110E-23
   2.75200009      -1.62775692E-22
   2.75999999      -2.43421397E-22
   2.76799989      -3.08947819E-22
   2.77600002      -3.59696213E-22
   2.78399992      -3.93574292E-22
   2.79200006      -4.05815924E-22
   2.79999995      -3.92200109E-22
   2.80800009      -3.52784075E-22
   2.81599998      -2.92937401E-22
   2.82399988      -2.20930506E-22
   2.83200002      -1.44240314E-22
   2.83999991      -6.76323081E-23
   2.84800005       5.76172251E-24
   2.85599995       7.20364933E-23
   2.86400008       1.25701779E-22
   2.87199998       1.61994985E-22
   2.88000011       1.80804913E-22
   2.88800001       1.88772963E-22
   2.89599991       1.96921947E-22
   2.90400004       2.14420800E-22
   2.91199994       2.42240832E-22
   2.92000008       2.71088099E-22
   2.92799997       2.85471445E-22
   2.93600011       2.71772452E-22
   2.94400001       2.25550858E-22
   2.95199990       1.53840965E-22
   2.96000004       7.14345104E-23
   2.96799994      -6.13782773E-24
   2.97600007      -6.85523976E-23
   2.98399997      -1.12449661E-22
   2.99200010      -1.39017234E-22
   3.00000000      -1.50057841E-22
   3.00799990      -1.45668896E-22
   3.01600003      -1.24974210E-22
   3.02399993      -8.88582011E-23
   3.03200006      -4.23541597E-23
   3.03999996       5.15564581E-24
   3.04800010       4.20319164E-23
   3.05599999       5.75210740E-23
   3.06399989       4.44535584E-23
   3.07200003       9.05819099E-25
   3.07999992      -6.89992084E-23
   3.08800006      -1.54954824E-22
   3.09599996      -2.41390074E-22
   3.10400009      -3.10085571E-22
   3.11199999      -3.44460368E-22
   3.11999989      -3.34248065E-22
   3.12800002      -2.78479663E-22
   3.13599992      -1.85324720E-22
   3.14400005      -6.90244835E-23
   3.15199995       5.42688782E-23
   3.16000009       1.69736260E-22
   3.16799998       2.65358344E-22
   3.17600012       3.32183976E-22
   3.18400002       3.64593461E-22
   3.19199991       3.61070598E-22
   3.20000005       3.24970253E-22
   3.20799994       2.64416028E-22
   3.21600008       1.90960392E-22
   3.22399998       1.17463370E-22
   3.23200011       5.58952380E-23
   3.24000001       1.52976380E-23
   3.24799991      -1.64531388E-25
   3.25600004       7.14247995E-24
   3.26399994       2.79656460E-23
   3.27200007       4.82704651E-23
   3.27999997       5.38128472E-23
   3.28800011       3.53327076E-23
   3.29600000      -8.43505379E-24
   3.30399990      -7.16409774E-23
   3.31200004      -1.45158989E-22
   3.31999993      -2.20361592E-22
   3.32800007      -2.90185324E-22
   3.33599997      -3.47428100E-22
   3.34400010      -3.82975637E-22
   3.35200000      -3.86919664E-22
   3.35999990      -3.52987841E-22
   3.36800003      -2.83322335E-22
   3.37599993      -1.89581918E-22
   3.38400006      -8.86841153E-23
   3.39199996       4.42381718E-24
   3.40000010       8.21471342E-23
   3.40799999       1.44373410E-22
   3.41599989       1.94048537E-22
   3.42400002       2.32381585E-22
   3.43199992       2.57796992E-22
   3.44000006       2.69190618E-22
   3.44799995       2.70006211E-22
   3.45600009       2.68598732E-22
   3.46399999       2.73374382E-22
   3.47199988       2.85769091E-22
   3.48000002       2.96542508E-22
   3.48799992       2.88930770E-22
   3.49600005       2.47238726E-22
   3.50399995       1.65361515E-22
   3.51200008       4.97048382E-23
   3.51999998      -8.48881671E-23
   3.52800012      -2.22517467E-22
   3.53600001      -3.51152256E-22
   3.54399991      -4.61892525E-22
   3.55200005      -5.44453874E-22
   3.55999994      -5.84251541E-22
   3.56800008      -5.65363762E-22
   3.57599998      -4.78793081E-22
   3.58400011      -3.30512196E-22
   3.59200001      -1.42983134E-22
   3.59999990       5.18622781E-23
   3.60800004       2.24121770E-22
   3.61599994       3.54489478E-22
   3.62400007       4.34922872E-22
   3.63199997       4.62610552E-22
   3.64000010       4.33707496E-22
   3.64800000       3.43240271E-22
   3.65599990       1.92127705E-22
   3.66400003      -4.18678183E-24
   3.67199993      -2.13314981E-22
   3.68000007      -3.93533398E-22
   3.68799996      -5.08052070E-22
   3.69600010      -5.37570110E-22
   3.70400000      -4.83997190E-22
   3.71199989      -3.64429883E-22
   3.72000003      -2.00869848E-22
   3.72799993      -1.30373417E-23
   3.73600006       1.82127826E-22
   3.74399996       3.66571596E-22
   3.75200009       5.18414749E-22
   3.75999999       6.14440806E-22
   3.76799989       6.37143238E-22
   3.77600002       5.81841690E-22
   3.78399992       4.59184397E-22
   3.79200006       2.91515709E-22
   3.79999995       1.05449858E-22
   3.80800009      -7.52826307E-23
   3.81599998      -2.33621826E-22
   3.82399988      -3.59128511E-22
   3.83200002      -4.45765633E-22
   3.83999991      -4.89878735E-22
   3.84800005      -4.89916953E-22
   3.85599995      -4.47990549E-22
   3.86400008      -3.71846135E-22
   3.87199998      -2.75230061E-22
   3.88000011      -1.75117907E-22
   3.88800001      -8.61729817E-23
   3.89599991      -1.50697392E-23
   3.90400004       4.16902165E-23
   3.91199994       9.43099494E-23
   3.92000008       1.52007387E-22
   3.92799997       2.15771229E-22
   3.93600011       2.76504482E-22
   3.94400001       3.19967537E-22
   3.95199990       3.34998354E-22
   3.96000004       3.18946915E-22
   3.96799994       2.76435541E-22
   3.97600007       2.12982145E-22
   3.98399997       1.29405172E-22
   3.99200010       2.24919690E-23
   4.00000000      -1.07799496E-22
   4.00799990      -2.50207469E-22
   4.01599979      -3.80328775E-22
   4.02400017      -4.68031503E-22
   4.03200006      -4.90126778E-22
   4.03999996      -4.40130768E-22
   4.04799986      -3.29006974E-22
   4.05600023      -1.77478583E-22
   4.06400013      -6.44898208E-24
   4.07200003       1.67356980E-22
   4.07999992       3.28638948E-22
   4.08799982       4.58305214E-22
   4.09600019       5.32862087E-22
   4.10400009       5.31634038E-22
   4.11199999       4.48036139E-22
   4.11999989       2.96691369E-22
   4.12799978       1.10155237E-22
   4.13600016      -7.38258129E-23
   4.14400005      -2.26786958E-22
   4.15199995      -3.36714713E-22
   4.15999985      -4.04361113E-22
   4.16800022      -4.33094381E-22
   4.17600012      -4.21133609E-22
   4.18400002      -3.62554212E-22
   4.19199991      -2.56072404E-22
   4.19999981      -1.14094682E-22
   4.20800018       3.61635801E-23
   4.21600008       1.61913007E-22
   4.22399998       2.39122597E-22
   4.23199987       2.62783502E-22
   4.23999977       2.46705078E-22
   4.24800014       2.13565826E-22
   4.25600004       1.82216721E-22
   4.26399994       1.60180264E-22
   4.27199984       1.44780614E-22
   4.28000021       1.30071728E-22
   4.28800011       1.13327947E-22
   4.29600000       9.63690910E-23
   4.30399990       8.16675005E-23
   4.31199980       6.72517743E-23
   4.32000017       4.50910716E-23
   4.32800007       4.73829737E-24
   4.33599997      -5.99500083E-23
   4.34399986      -1.45454617E-22
   4.35200024      -2.38115481E-22
   4.36000013      -3.18888930E-22
   4.36800003      -3.70417527E-22
   4.37599993      -3.82369034E-22
   4.38399982      -3.52466334E-22
   4.39200020      -2.83820744E-22
   4.40000010      -1.81710222E-22
   4.40799999      -5.30113897E-23
   4.41599989       9.11219164E-23
   4.42399979       2.32230073E-22
   4.43200016       3.45403568E-22
   4.44000006       4.06076943E-22
   4.44799995       4.00080893E-22
   4.45599985       3.30753045E-22
   4.46400023       2.17759487E-22
   4.47200012       8.76311248E-23
   4.48000002      -3.79317897E-23
   4.48799992      -1.48049792E-22
   4.49599981      -2.39371625E-22
   4.50400019      -3.07371713E-22
   4.51200008      -3.40726645E-22
   4.51999998      -3.24902171E-22
   4.52799988      -2.53287232E-22
   4.53599977      -1.37189790E-22
   4.54400015      -5.78124682E-24
   4.55200005       1.05774112E-22
   4.55999994       1.72711490E-22
   4.56799984       1.90639749E-22
   4.57600021       1.72913691E-22
   4.58400011       1.38558268E-22
   4.59200001       1.00445596E-22
   4.59999990       6.20958425E-23
   4.60799980       2.38192133E-23
   4.61600018      -8.71188480E-24
   4.62400007      -2.18554403E-23
   4.63199997      -4.06954901E-25
   4.63999987       6.14472600E-23
   4.64799976       1.52773340E-22
   4.65600014       2.47612533E-22
   4.66400003       3.14885404E-22
   4.67199993       3.30461633E-22
   4.67999983       2.84932268E-22
   4.68800020       1.84283108E-22
   4.69600010       4.51971703E-23
   4.70400000      -1.11037057E-22
   4.71199989      -2.62759546E-22
   4.71999979      -3.89507203E-22
   4.72800016      -4.72198203E-22
   4.73600006      -4.93931889E-22
   4.74399996      -4.42678094E-22
   4.75199986      -3.15639581E-22
   4.76000023      -1.23452301E-22
   4.76800013       1.08442790E-22
   4.77600002       3.43355180E-22
   4.78399992       5.41722320E-22
   4.79199982       6.71398078E-22
   4.80000019       7.15385971E-22
   4.80800009       6.73633646E-22
   4.81599998       5.58977245E-22
   4.82399988       3.90765821E-22
   4.83199978       1.90566164E-22
   4.84000015      -1.82000734E-23
   4.84800005      -2.08808818E-22
   4.85599995      -3.52206199E-22
   4.86399984      -4.22873874E-22
   4.87200022      -4.07655573E-22
   4.88000011      -3.12147716E-22
   4.88800001      -1.59789582E-22
   4.89599991       1.66395472E-23
   4.90399981       1.86243660E-22
   4.91200018       3.27356828E-22
   4.92000008       4.27673026E-22
   4.92799997       4.79533070E-22
   4.93599987       4.76348748E-22
   4.94399977       4.14612922E-22
   4.95200014       3.00395658E-22
   4.96000004       1.54259857E-22
   4.96799994       8.46499895E-24
   4.97599983      -1.04244548E-22
   4.98400021      -1.64175939E-22
   4.99200010      -1.71802457E-22
   5.00000000      -1.43747446E-22
   5.00799990      -1.00858290E-22
   5.01599979      -5.72257119E-23
   5.02400017      -1.77445094E-23
   5.03200006       1.54753352E-23
   5.03999996       3.49992498E-23
   5.04799986       2.67808590E-23
   5.05600023      -2.17558892E-23
   5.06400013      -1.10197646E-22
   5.07200003      -2.19895773E-22
   5.07999992      -3.20376482E-22
   5.08799982      -3.83689575E-22
   5.09600019      -3.96680814E-22
   5.10400009      -3.62885962E-22
   5.11199999      -2.94156311E-22
   5.11999989      -2.00103631E-22
   5.12799978      -8.44202022E-23
   5.13600016       4.95756670E-23
   5.14400005       1.90225729E-22
   5.15199995       3.14592807E-22
   5.15999985       3.95231077E-22
   5.16800022       4.12272315E-22
   5.17600012       3.61996153E-22
   5.18400002       2.56161084E-22
   5.19199991       1.14013486E-22
   5.19999981      -4.58065148E-23
   5.20800018      -2.07571089E-22
   5.21600008      -3.55404784E-22
   5.22399998      -4.70477704E-22
   5.23199987      -5.33487218E-22
   5.23999977      -5.31899348E-22
   5.24800014      -4.66294091E-22
   5.25600004      -3.50272922E-22
   5.26399994      -2.03681891E-22
   5.27199984      -4.45010005E-23
   5.28000021       1.14481741E-22
   5.28800011       2.62702470E-22
   5.29600000       3.86877911E-22
   5.30399990       4.70102837E-22
   5.31199980       4.97204160E-22
   5.32000017       4.62710870E-22
   5.32800007       3.75134991E-22
   5.33599997       2.54036966E-22
   5.34399986       1.21958615E-22
   5.35200024      -3.02984079E-24
   5.36000013      -1.09711859E-22
   5.36800003      -1.91257256E-22
   5.37599993      -2.41919330E-22
   5.38399982      -2.56756630E-22
   5.39200020      -2.34651132E-22
   5.40000010      -1.81488445E-22
   5.40799999      -1.10088341E-22
   5.41599989      -3.63539890E-23
   5.42399979       2.57201345E-23
   5.43200016       6.69406538E-23
   5.44000006       8.27051492E-23
   5.44799995       7.15109921E-23
   5.45599985       3.47168250E-23
   5.46400023      -2.18042054E-23
   5.47200012      -8.60377646E-23
   5.48000002      -1.40834681E-22
   5.48799992      -1.68269635E-22
   5.49599981      -1.55284379E-22
   5.50400019      -9.74239495E-23
   5.51200008       1.01992112E-24
   5.51999998       1.29423272E-22
   5.52799988       2.73258969E-22
   5.53599977       4.15031688E-22
   5.54400015       5.34603993E-22
   5.55200005       6.11171413E-22
   5.55999994       6.27977053E-22
   5.56799984       5.78126749E-22
   5.57600021       4.68059170E-22
   5.58400011       3.16170150E-22
   5.59200001       1.47229894E-22
   5.59999990      -1.40712654E-23
   5.60799980      -1.47139220E-22
   5.61600018      -2.36348937E-22
   5.62400007      -2.70884712E-22
   5.63199997      -2.46042940E-22
   5.63999987      -1.66200068E-22
   5.64799976      -4.69121002E-23
   5.65600014       8.67462438E-23
   5.66400003       2.05920843E-22
   5.67199993       2.84831117E-22
   5.67999983       3.04946540E-22
   5.68800020       2.55249943E-22
   5.69600010       1.31024899E-22
   5.70400000      -6.51910929E-23
   5.71199989      -3.19621523E-22
   5.71999979      -6.03770055E-22
   5.72800016      -8.76734810E-22
   5.73600006      -1.09535283E-21
   5.74399996      -1.22806675E-21
   5.75199986      -1.26444220E-21
   5.76000023      -1.21440504E-21
   5.76800013      -1.09826513E-21
   5.77600002      -9.35134044E-22
   5.78399992      -7.37941335E-22
   5.79199982      -5.17360781E-22
   5.80000019      -2.89333506E-22
   5.80800009      -7.78656958E-23
   5.81599998       9.10865754E-23
   5.82399988       2.01074208E-22
   5.83199978       2.53476256E-22
   5.84000015       2.66221800E-22
   5.84800005       2.63651325E-22
   5.85599995       2.64669170E-22
   5.86399984       2.76878212E-22
   5.87200022       2.99018976E-22
   5.88000011       3.27478376E-22
   5.88800001       3.60297085E-22
   5.89599991       3.95450898E-22
   5.90399981       4.25920720E-22
   5.91200018       4.37193529E-22
   5.92000008       4.10840602E-22
   5.92799997       3.32748270E-22
   5.93599987       2.00727033E-22
   5.94399977       2.66854857E-23
   5.95200014      -1.67404286E-22
   5.96000004      -3.56338467E-22
   5.96799994      -5.16818044E-22
   5.97599983      -6.28830083E-22
   5.98400021      -6.74794648E-22
   5.99200010      -6.39715959E-22
   6.00000000      -5.14252492E-22
   6.00799990      -2.99560298E-22
   6.01599979      -1.05638833E-23
   6.02400017       3.25292083E-22
   6.03200006       6.74077731E-22
   6.03999996       1.00346712E-21
   6.04799986       1.28898044E-21
   6.05600023       1.51586855E-21
   6.06400013       1.67703670E-21
   6.07200003       1.76979614E-21
   6.07999992       1.79444778E-21
   6.08799982       1.75567247E-21
   6.09600019       1.66496755E-21
   6.10400009       1.54101456E-21
   6.11199999       1.40591916E-21
   6.11999989       1.27819731E-21
   6.12799978       1.16596590E-21
   6.13600016       1.06418533E-21
   6.14400005       9.57581718E-22
   6.15199995       8.27548260E-22
   6.15999985       6.59189742E-22
   6.16800022       4.45128587E-22
   6.17600012       1.85212373E-22
   6.18400002      -1.16082586E-22
   6.19199991      -4.51758552E-22
   6.19999981      -8.12329479E-22
   6.20800018      -1.18439087E-21
   6.21600008      -1.54985021E-21
   6.22399998      -1.88764292E-21
   6.23199987      -2.17796433E-21
   6.23999977      -2.40708448E-21
   6.24800014      -2.57002573E-21
   6.25600004      -2.66941059E-21
   6.26399994      -2.71101095E-21
   6.27199984      -2.69863757E-21
   6.28000021      -2.63147903E-21
   6.28800011      -2.50551695E-21
   6.29600000      -2.31786246E-21
   6.30399990      -2.07085616E-21
   6.31199980      -1.77290251E-21
   6.32000017      -1.43553540E-21
   6.32800007      -1.06923343E-21
   6.33599997      -6.81663518E-22
   6.34399986      -2.80171612E-22
   6.35200024       1.23337191E-22
   6.36000013       5.09471010E-22
   6.36800003       8.53741269E-22
   6.37599993       1.13373494E-21
   6.38399982       1.33668742E-21
   6.39200020       1.46251934E-21
   6.40000010       1.52074096E-21
   6.40799999       1.52414561E-21
   6.41599989       1.48421738E-21
   6.42399979       1.41095626E-21
   6.43200016       1.31549061E-21
   6.44000006       1.21117276E-21
   6.44799995       1.11037012E-21
   6.45599985       1.01852187E-21
   6.46400023       9.30344232E-22
   6.47200012       8.32273751E-22
   6.48000002       7.10670325E-22
   6.48799992       5.60727633E-22
   6.49599981       3.90184488E-22
   6.50400019       2.15640644E-22
   6.51200008       5.45633000E-23
   6.51999998      -8.11271434E-23
   6.52799988      -1.85788507E-22
   6.53599977      -2.55735049E-22
   6.54400015      -2.84464303E-22
   6.55200005      -2.62290294E-22
   6.55999994      -1.81756670E-22
   6.56799984      -4.56619261E-23
   6.57600021       1.27808013E-22
   6.58400011       3.06948151E-22
   6.59200001       4.55372217E-22
   6.59999990       5.43612254E-22
   6.60799980       5.57663823E-22