 -0.239999995       0.00000000    
 -0.231999993       0.00000000    
 -0.224000007       0.00000000    
 -0.216000006       0.00000000    
 -0.208000004       0.00000000    
 -0.200000003      -1.40129846E-45
 -0.192000002      -3.69992816E-35
 -0.184000000       8.10633995E-30
 -0.175999999       7.55275335E-29
 -0.167999998       1.29959177E-28
 -0.159999996      -4.99487764E-28
 -0.151999995      -2.13368983E-27
 -0.143999994      -1.25858925E-27
 -0.136000007       7.75118779E-27
 -0.128000006       1.69820753E-26
 -0.119999997      -2.54121930E-27
 -0.112000003      -5.79286077E-26
 -0.104000002      -7.39174748E-26
  -9.60000008E-02   5.04953625E-26
  -8.79999995E-02   2.44398871E-25
  -7.99999982E-02   2.08110529E-25
  -7.19999969E-02  -2.29695169E-25
  -6.40000030E-02  -6.73329760E-25
  -5.60000017E-02  -4.12530817E-25
  -4.80000004E-02   5.93003703E-25
  -3.99999991E-02   1.25679436E-24
  -3.20000015E-02   5.11595871E-25
  -2.40000002E-02  -1.04037126E-24
  -1.60000008E-02  -1.44670375E-24
  -8.00000038E-03   2.02464033E-26
   1.38777878E-17   1.37281095E-24
   8.00000038E-03   3.44858088E-25
   1.60000008E-02  -1.89813384E-24
   2.40000002E-02  -1.55437794E-24
   3.20000015E-02   2.25966288E-24
   3.99999991E-02   4.88656062E-24
   4.80000004E-02   1.75371589E-24
   5.60000017E-02  -4.50726486E-24
   6.40000030E-02  -6.44811472E-24
   7.19999969E-02  -1.82660545E-24
   7.99999982E-02   3.14651805E-24
   8.79999995E-02   2.97478067E-24
   9.60000008E-02   8.41132407E-25
  0.104000002       2.52491164E-24
  0.112000003       5.60038113E-24
  0.119999997       2.13110872E-24
  0.128000006      -7.80566822E-24
  0.136000007      -1.31317155E-23
  0.143999994      -5.94801675E-24
  0.151999995       7.03308546E-24
  0.159999996       1.24815505E-23
  0.167999998       6.58246444E-24
  0.175999999      -2.09508697E-24
  0.184000000      -4.37648828E-24
  0.192000002      -4.28503179E-25
  0.200000003       2.27547401E-24
  0.208000004      -1.83429645E-24
  0.216000006      -9.65364273E-24
  0.224000007      -1.14481451E-23
  0.231999993      -1.45806995E-24
  0.239999995       1.33625811E-23
  0.247999996       1.90799957E-23
  0.256000012       1.05554030E-23
  0.263999999      -3.35882340E-24
  0.272000015      -1.22780283E-23
  0.280000001      -1.49613608E-23
  0.287999988      -1.32294538E-23
  0.296000004      -4.04361975E-24
  0.303999990       1.24512772E-23
  0.312000006       2.29243689E-23
  0.319999993       1.26408823E-23
  0.328000009      -1.22879041E-23
  0.335999995      -2.63148363E-23
  0.344000012      -1.25074709E-23
  0.351999998       1.79279180E-23
  0.360000014       3.71367347E-23
  0.368000001       2.62217933E-23
  0.375999987      -1.04820469E-23
  0.384000003      -4.78829797E-23
  0.391999990      -5.52264607E-23
  0.400000006      -1.99758230E-23
  0.407999992       3.58227196E-23
  0.416000009       6.96412087E-23
  0.423999995       5.67833818E-23
  0.432000011       1.18309036E-23
  0.439999998      -3.16136102E-23
  0.448000014      -5.45792539E-23
  0.456000000      -5.74391398E-23
  0.463999987      -3.95261754E-23
  0.472000003       5.12778245E-24
  0.479999989       6.34520774E-23
  0.488000005       9.11598006E-23
  0.495999992       4.91693594E-23
  0.504000008      -4.21806640E-23
  0.512000024      -1.04092601E-22
  0.519999981      -7.48529855E-23
  0.527999997       1.83232872E-23
  0.536000013       8.26315769E-23
  0.544000030       6.03423120E-23
  0.551999986      -1.25427022E-23
  0.560000002      -6.01585453E-23
  0.568000019      -5.73165003E-23
  0.575999975      -3.75344720E-23
  0.583999991      -2.32790723E-23
  0.592000008       6.06772560E-24
  0.600000024       6.10728666E-23
  0.607999980       9.76682881E-23
  0.615999997       6.64918803E-23
  0.624000013      -9.08043983E-24
  0.632000029      -4.89550291E-23
  0.639999986      -1.62050063E-23
  0.648000002       3.57601282E-23
  0.656000018       3.40281589E-23
  0.663999975      -2.22789576E-23
  0.671999991      -6.74370493E-23
  0.680000007      -5.26797873E-23
  0.688000023       3.11346281E-24
  0.695999980       4.59493681E-23
  0.703999996       4.71525829E-23
  0.712000012       2.07117987E-23
  0.720000029      -7.82066683E-24
  0.727999985      -3.19238030E-23
  0.736000001      -5.65910575E-23
  0.744000018      -7.04809606E-23
  0.751999974      -4.80704888E-23
  0.759999990       9.16580483E-24
  0.768000007       5.35763971E-23
  0.776000023       4.08010882E-23
  0.783999979      -8.73287797E-24
  0.791999996      -2.98021647E-23
  0.800000012       4.16899893E-24
  0.808000028       5.20588844E-23
  0.815999985       6.96632084E-23
  0.824000001       6.46346367E-23
  0.832000017       6.19374897E-23
  0.839999974       5.05638068E-23
  0.847999990       5.08361413E-24
  0.856000006      -5.79597690E-23
  0.864000022      -8.80519537E-23
  0.871999979      -6.35839181E-23
  0.879999995      -1.54300751E-23
  0.888000011       1.37535658E-23
  0.896000028       9.53558733E-24
  0.903999984      -1.50402737E-23
  0.912000000      -3.70200085E-23
  0.920000017      -3.87433256E-23
  0.927999973      -2.48611234E-23
  0.935999990      -2.47745033E-23
  0.944000006      -5.96467197E-23
  0.952000022      -1.06428557E-22
  0.959999979      -1.12551986E-22
  0.967999995      -5.13587009E-23
  0.976000011       4.75171092E-23
  0.984000027       1.24311655E-22
  0.991999984       1.40563704E-22
   1.00000000       1.09242506E-22
   1.00800002       8.29567516E-23
   1.01600003       1.04540188E-22
   1.02400005       1.59277479E-22
   1.03199995       1.82433626E-22
   1.03999996       1.22514339E-22
   1.04799998      -7.47610580E-24
   1.05599999      -1.42643861E-22
   1.06400001      -2.16718544E-22
   1.07200003      -1.99847346E-22
   1.08000004      -1.13125645E-22
   1.08800006      -2.11505599E-23
   1.09599996       1.30463544E-23
   1.10399997      -1.03859802E-23
   1.11199999      -2.51173407E-23
   1.12000000       2.23929575E-23
   1.12800002       1.04491077E-22
   1.13600004       1.45262034E-22
   1.14400005       1.09594906E-22
   1.15199995       3.20415673E-23
   1.15999997      -3.83820999E-23
   1.16799998      -9.41259555E-23
   1.17600000      -1.60816654E-22
   1.18400002      -2.47552125E-22
   1.19200003      -3.16620267E-22
   1.20000005      -3.08233628E-22
   1.20799994      -2.05640501E-22
   1.21599996      -7.45050221E-23
   1.22399998      -1.23830754E-23
   1.23199999      -4.07409802E-23
   1.24000001      -6.59369325E-23
   1.24800003       2.49485560E-23
   1.25600004       2.36111446E-22
   1.26400006       4.55543772E-22
   1.27199996       5.72023515E-22
   1.27999997       5.73168562E-22
   1.28799999       5.24271505E-22
   1.29600000       4.79524285E-22
   1.30400002       4.33306225E-22
   1.31200004       3.42897767E-22
   1.32000005       1.76068175E-22
   1.32799995      -6.02055046E-23
   1.33599997      -3.17071041E-22
   1.34399998      -5.23279232E-22
   1.35200000      -6.23535248E-22
   1.36000001      -6.14581766E-22
   1.36800003      -5.43798147E-22
   1.37600005      -4.63362305E-22
   1.38399994      -3.84086252E-22
   1.39199996      -2.80492306E-22
   1.39999998      -1.42621508E-22
   1.40799999      -1.45609429E-23
   1.41600001       2.93774294E-23
   1.42400002      -4.52980908E-23
   1.43200004      -1.84522972E-22
   1.44000006      -2.75848679E-22
   1.44799995      -2.44957719E-22
   1.45599997      -1.27464322E-22
   1.46399999      -2.75511217E-23
   1.47200000       6.93483677E-24
   1.48000002       5.00095815E-23
   1.48800004       2.16914711E-22
   1.49600005       5.31363226E-22
   1.50399995       8.97257411E-22
   1.51199996       1.18517857E-21
   1.51999998       1.30808516E-21
   1.52800000       1.22542870E-21
   1.53600001       9.41384246E-22
   1.54400003       5.32095440E-22
   1.55200005       1.27747832E-22
   1.55999994      -1.87178379E-22
   1.56799996      -4.47739527E-22
   1.57599998      -7.46487639E-22
   1.58399999      -1.09728426E-21
   1.59200001      -1.38563012E-21
   1.60000002      -1.45868606E-21
   1.60800004      -1.25341450E-21
   1.61600006      -8.43348197E-22
   1.62399995      -3.80792777E-22
   1.63199997       2.78663912E-24
   1.63999999       2.58508154E-22
   1.64800000       4.08190131E-22
   1.65600002       4.90939671E-22
   1.66400003       5.28416041E-22
   1.67200005       5.26306085E-22
   1.67999995       4.80294769E-22
   1.68799996       3.70645880E-22
   1.69599998       1.72168918E-22
   1.70400000      -1.07348924E-22
   1.71200001      -3.99473230E-22
   1.72000003      -6.00309820E-22
   1.72800004      -6.32626359E-22
   1.73599994      -4.88453736E-22
   1.74399996      -2.19834355E-22
   1.75199997       1.02812336E-22
   1.75999999       4.23467678E-22
   1.76800001       7.06206761E-22
   1.77600002       9.29353776E-22
   1.78400004       1.08431443E-21
   1.79200006       1.16906551E-21
   1.79999995       1.16568762E-21
   1.80799997       1.02774485E-21
   1.81599998       7.10207358E-22
   1.82400000       2.21206847E-22
   1.83200002      -3.60309050E-22
   1.84000003      -9.15154684E-22
   1.84800005      -1.32732529E-21
   1.85599995      -1.52053538E-21
   1.86399996      -1.49169068E-21
   1.87199998      -1.31499493E-21
   1.88000000      -1.08203847E-21
   1.88800001      -8.21894058E-22
   1.89600003      -4.98308464E-22
   1.90400004      -9.22675949E-23
   1.91199994       3.39054815E-22
   1.91999996       6.99317645E-22
   1.92799997       9.23995883E-22
   1.93599999       9.96594210E-22
   1.94400001       9.21887845E-22
   1.95200002       7.20662378E-22
   1.96000004       4.48246316E-22
   1.96800005       1.86216360E-22
   1.97599995      -2.96337985E-24
   1.98399997      -1.11116271E-22
   1.99199998      -1.73394315E-22
   2.00000000      -2.27517860E-22
   2.00799990      -2.82430632E-22
   2.01600003      -3.16562737E-22
   2.02399993      -2.98543842E-22
   2.03200006      -2.13295897E-22
   2.03999996      -7.99603802E-23
   2.04800010       5.07973664E-23
   2.05599999       1.29979551E-22
   2.06399989       1.56937213E-22
   2.07200003       1.88614244E-22
   2.07999992       2.82246733E-22
   2.08800006       4.23901337E-22
   2.09599996       5.29173499E-22
   2.10400009       5.20341286E-22
   2.11199999       3.88951542E-22
   2.11999989       1.79664586E-22
   2.12800002      -6.29983372E-23
   2.13599992      -3.12636861E-22
   2.14400005      -5.41310901E-22
   2.15199995      -7.10754638E-22
   2.16000009      -7.91532531E-22
   2.16799998      -7.80806749E-22
   2.17600012      -6.93865644E-22
   2.18400002      -5.39775487E-22
   2.19199991      -3.10366279E-22
   2.20000005       8.94565210E-25
   2.20799994       3.65174997E-22
   2.21600008       7.06346862E-22
   2.22399998       9.28947860E-22
   2.23200011       9.63001508E-22
   2.24000001       7.91903611E-22
   2.24799991       4.56333087E-22
   2.25600004       4.28553546E-23
   2.26399994      -3.43406929E-22
   2.27200007      -6.18471494E-22
   2.27999997      -7.47052792E-22
   2.28800011      -7.39626544E-22
   2.29600000      -6.31995927E-22
   2.30399990      -4.64884390E-22
   2.31200004      -2.61945921E-22
   2.31999993      -1.37952556E-23
   2.32800007       3.01092102E-22
   2.33599997       6.58610150E-22
   2.34400010       9.56841880E-22
   2.35200000       1.06329191E-21
   2.35999990       9.07533555E-22
   2.36800003       5.33889903E-22
   2.37599993       7.50749520E-23
   2.38400006      -3.20953121E-22
   2.39199996      -5.59049593E-22
   2.40000010      -6.27453906E-22
   2.40799999      -5.81864006E-22
   2.41599989      -4.97579936E-22
   2.42400002      -4.20134343E-22
   2.43199992      -3.38905399E-22
   2.44000006      -1.97341949E-22
   2.44799995       5.18267415E-23
   2.45600009       3.71275479E-22
   2.46399999       6.22605276E-22
   2.47199988       6.63673905E-22
   2.48000002       4.82368173E-22
   2.48799992       2.12360624E-22
   2.49600005       1.88674118E-25
   2.50399995      -1.21593859E-22
   2.51200008      -2.14510364E-22
   2.51999998      -3.24493831E-22
   2.52800012      -4.36683559E-22
   2.53600001      -5.23996249E-22
   2.54399991      -5.83341410E-22
   2.55200005      -6.04501764E-22
   2.55999994      -5.44266769E-22
   2.56800008      -3.70243043E-22
   2.57599998      -1.18203738E-22
   2.58400011       1.27426987E-22
   2.59200001       3.13089301E-22
   2.59999990       4.53058595E-22
   2.60800004       5.82890004E-22
   2.61599994       7.02722242E-22
   2.62400007       7.84422282E-22
   2.63199997       8.12208310E-22
   2.64000010       7.82269613E-22
   2.64800000       6.68637746E-22
   2.65599990       4.30942166E-22
   2.66400003       7.43023921E-23
   2.67199993      -3.24913606E-22
   2.68000007      -6.74944342E-22
   2.68799996      -9.30983298E-22
   2.69600010      -1.08156016E-21
   2.70400000      -1.09866206E-21
   2.71199989      -9.44182443E-22
   2.72000003      -6.25565789E-22
   2.72799993      -2.10419142E-22
   2.73600006       2.23389379E-22
   2.74399996       6.26832662E-22
   2.75200009       9.60507850E-22
   2.75999999       1.16604214E-21
   2.76799989       1.18499833E-21
   2.77600002       1.00183780E-21
   2.78399992       6.52422754E-22
   2.79200006       1.93809152E-22
   2.79999995      -3.16554685E-22
   2.80800009      -8.08517400E-22
   2.81599998      -1.18941060E-21
   2.82399988      -1.37839370E-21
   2.83200002      -1.36140156E-21
   2.83999991      -1.19377834E-21
   2.84800005      -9.29683861E-22
   2.85599995      -5.61202666E-22
   2.86400008      -5.54652646E-23
   2.87199998       5.48217384E-22
   2.88000011       1.10970530E-21
   2.88800001       1.47379553E-21
   2.89599991       1.57172758E-21
   2.90400004       1.43409096E-21
   2.91199994       1.13443227E-21
   2.92000008       7.47482134E-22
   2.92799997       3.42471555E-22
   2.93600011      -3.02629384E-23
   2.94400001      -3.64961209E-22
   2.95199990      -6.88752513E-22
   2.96000004      -9.97675340E-22
   2.96799994      -1.21118477E-21
   2.97600007      -1.22091939E-21
   2.98399997      -1.00091641E-21
   2.99200010      -6.53741881E-22
   3.00000000      -3.25302029E-22
   3.00799990      -7.84989870E-23
   3.01600003       1.30399452E-22
   3.02399993       3.60103846E-22
   3.03200006       6.04694069E-22
   3.03999996       8.11295504E-22
   3.04800010       9.35460998E-22
   3.05599999       9.49378070E-22
   3.06399989       8.25590824E-22
   3.07200003       5.60981835E-22
   3.07999992       2.14721476E-22
   3.08800006      -1.19125986E-22
   3.09599996      -3.91645635E-22
   3.10400009      -6.26061724E-22
   3.11199999      -8.49987957E-22
   3.11999989      -1.02501915E-21
   3.12800002      -1.07167539E-21
   3.13599992      -9.56686683E-22
   3.14400005      -7.26745013E-22
   3.15199995      -4.48978480E-22
   3.16000009      -1.43684034E-22
   3.16799998       2.01495447E-22
   3.17600012       5.64365278E-22
   3.18400002       8.69206982E-22
   3.19199991       1.04525751E-21
   3.20000005       1.08195931E-21
   3.20799994       1.01003377E-21
   3.21600008       8.45065717E-22
   3.22399998       5.75414279E-22
   3.23200011       2.03491429E-22
   3.24000001      -2.23072572E-22
   3.24799991      -6.28405284E-22
   3.25600004      -9.45159368E-22
   3.26399994      -1.13226021E-21
   3.27200007      -1.17350615E-21
   3.27999997      -1.07544950E-21
   3.28800011      -8.65405707E-22
   3.29600000      -5.78593048E-22
   3.30399990      -2.39497212E-22
   3.31200004       1.39562621E-22
   3.31999993       5.33335454E-22
   3.32800007       8.79831890E-22
   3.33599997       1.09657755E-21
   3.34400010       1.13237047E-21
   3.35200000       1.00090268E-21
   3.35999990       7.58597020E-22
   3.36800003       4.55344802E-22
   3.37599993       1.13567395E-22
   3.38400006      -2.52862611E-22
   3.39199996      -6.13326505E-22
   3.40000010      -9.14699795E-22
   3.40799999      -1.09522096E-21
   3.41599989      -1.11240020E-21
   3.42400002      -9.72642525E-22
   3.43199992      -7.32249722E-22
   3.44000006      -4.54073537E-22
   3.44799995      -1.60026114E-22
   3.45600009       1.60926564E-22
   3.46399999       4.94761291E-22
   3.47199988       7.71148719E-22
   3.48000002       9.08992935E-22
   3.48799992       8.90615733E-22
   3.49600005       7.74912229E-22
   3.50399995       6.31712846E-22
   3.51200008       4.75126455E-22
   3.51999998       2.72527057E-22
   3.52800012       1.06459871E-23
   3.53600001      -2.66682065E-22
   3.54399991      -4.89637204E-22
   3.55200005      -6.13551576E-22
   3.55999994      -6.30874507E-22
   3.56800008      -5.54271797E-22
   3.57599998      -4.13980067E-22
   3.58400011      -2.63279159E-22
   3.59200001      -1.51638617E-22
   3.59999990      -7.73371527E-23
   3.60800004       1.38290819E-23
   3.61599994       1.63801691E-22
   3.62400007       3.44080983E-22
   3.63199997       4.76393782E-22
   3.64000010       5.05904753E-22
   3.64800000       4.40580002E-22
   3.65599990       3.23943623E-22
   3.66400003       1.90435036E-22
   3.67199993       5.52113650E-23
   3.68000007      -6.99553647E-23
   3.68799996      -1.72470641E-22
   3.69600010      -2.51787740E-22
   3.70400000      -3.20968090E-22
   3.71199989      -3.85653220E-22
   3.72000003      -4.28046025E-22
   3.72799993      -4.21725494E-22
   3.73600006      -3.60273356E-22
   3.74399996      -2.62492797E-22
   3.75200009      -1.51071925E-22
   3.75999999      -3.74262782E-23
   3.76799989       7.18016526E-23
   3.77600002       1.68994175E-22
   3.78399992       2.54695620E-22
   3.79200006       3.37766713E-22
   3.79999995       4.10815283E-22
   3.80800009       4.36465203E-22
   3.81599998       3.81602312E-22
   3.82399988       2.65331990E-22
   3.83200002       1.49703283E-22
   3.83999991       7.30354374E-23
   3.84800005       9.16432809E-24
   3.85599995      -9.44592840E-23
   3.86400008      -2.50455411E-22
   3.87199998      -4.16260342E-22
   3.88000011      -5.33045809E-22
   3.88800001      -5.61433240E-22
   3.89599991      -4.87216197E-22
   3.90400004      -3.21265156E-22
   3.91199994      -1.06798905E-22
   3.92000008       9.07992723E-23
   3.92799997       2.23980482E-22
   3.93600011       2.95912353E-22
   3.94400001       3.43638110E-22
   3.95199990       3.85940946E-22
   3.96000004       3.96558787E-22
   3.96799994       3.35658371E-22
   3.97600007       2.02927324E-22
   3.98399997       4.94966515E-23
   3.99200010      -6.54320110E-23
   4.00000000      -1.23622910E-22
   4.00799990      -1.49922472E-22
   4.01599979      -1.72128717E-22
   4.02400017      -1.88308570E-22
   4.03200006      -1.73539844E-22
   4.03999996      -1.08890245E-22
   4.04799986       1.34947230E-24
   4.05600023       1.31877058E-22
   4.06400013       2.44066875E-22
   4.07200003       2.97078327E-22
   4.07999992       2.73337476E-22
   4.08799982       2.06423391E-22
   4.09600019       1.71233657E-22
   4.10400009       2.24095188E-22
   4.11199999       3.48394398E-22
   4.11999989       4.72709537E-22
   4.12799978       5.46228142E-22
   4.13600016       5.81451375E-22
   4.14400005       6.14988086E-22
   4.15199995       6.43519001E-22
   4.15999985       6.18522385E-22
   4.16800022       4.99705442E-22
   4.17600012       2.95671151E-22
   4.18400002       5.10502626E-23
   4.19199991      -1.89126108E-22
   4.19999981      -3.94335057E-22
   4.20800018      -5.41950976E-22
   4.21600008      -6.13289851E-22
   4.22399998      -5.99769911E-22
   4.23199987      -5.07247559E-22
   4.23999977      -3.52135341E-22
   4.24800014      -1.57212241E-22
   4.25600004       4.59147592E-23
   4.26399994       2.14462553E-22
   4.27199984       3.05100828E-22
   4.28000021       2.96431411E-22
   4.28800011       2.02859507E-22
   4.29600000       6.14219786E-23
   4.30399990      -9.92618502E-23
   4.31199980      -2.76813488E-22
   4.32000017      -4.80267304E-22
   4.32800007      -6.96892547E-22
   4.33599997      -8.74549425E-22
   4.34399986      -9.40751642E-22
   4.35200024      -8.47950500E-22
   4.36000013      -6.11141322E-22
   4.36800003      -3.07109129E-22
   4.37599993      -3.23197323E-23
   4.38399982       1.52711064E-22
   4.39200020       2.53352966E-22
   4.40000010       3.21800698E-22
   4.40799999       4.01703548E-22
   4.41599989       4.82869156E-22
   4.42399979       5.10174750E-22
   4.43200016       4.40719498E-22
   4.44000006       2.91379243E-22
   4.44799995       1.29240571E-22
   4.45599985       2.13172178E-23
   4.46400023      -3.17660659E-24
   4.47200012       4.55537543E-23
   4.48000002       1.34046325E-22
   4.48799992       2.22103498E-22
   4.49599981       2.80892467E-22
   4.50400019       3.07350962E-22
   4.51200008       3.17839960E-22
   4.51999998       3.23072948E-22
   4.52799988       3.12875766E-22
   4.53599977       2.68530196E-22
   4.54400015       1.85825993E-22
   4.55200005       8.20513602E-23
   4.55999994      -1.72927335E-23
   4.56799984      -9.49198209E-23
   4.57600021      -1.44694660E-22
   4.58400011      -1.60773134E-22
   4.59200001      -1.30518274E-22
   4.59999990      -4.88436009E-23
   4.60799980       5.71207366E-23
   4.61600018       1.30897545E-22
   4.62400007       1.30743105E-22
   4.63199997       6.97212434E-23
   4.63999987      -3.19527656E-24
   4.64799976      -6.53984371E-23
   4.65600014      -1.48931171E-22
   4.66400003      -2.95906547E-22
   4.67199993      -4.95329625E-22
   4.67999983      -6.77865677E-22
   4.68800020      -7.69713875E-22
   4.69600010      -7.39720803E-22
   4.70400000      -5.98737753E-22
   4.71199989      -3.76198097E-22
   4.71999979      -1.10380990E-22
   4.72800016       1.53544657E-22
   4.73600006       3.79657347E-22
   4.74399996       5.58341158E-22
   4.75199986       6.91684551E-22
   4.76000023       7.56491355E-22
   4.76800013       6.99375452E-22
   4.77600002       4.88785992E-22
   4.78399992       1.70510303E-22
   4.79199982      -1.47310434E-22
   4.80000019      -3.76132489E-22
   4.80800009      -5.08171725E-22
   4.81599998      -5.88138037E-22
   4.82399988      -6.33003952E-22
   4.83199978      -5.99955502E-22
   4.84000015      -4.40503615E-22
   4.84800005      -1.69382661E-22
   4.85599995       1.37889933E-22
   4.86399984       4.08224083E-22
   4.87200022       6.10275418E-22
   4.88000011       7.32213876E-22
   4.88800001       7.51362472E-22
   4.89599991       6.49849932E-22
   4.90399981       4.49448162E-22
   4.91200018       2.06925044E-22
   4.92000008      -2.64933981E-23
   4.92799997      -2.26059111E-22
   4.93599987      -3.77437732E-22
   4.94399977      -4.65350083E-22
   4.95200014      -4.91512194E-22
   4.96000004      -4.86443996E-22
   4.96799994      -4.80613847E-22
   4.97599983      -4.65508713E-22
   4.98400021      -4.01561023E-22
   4.99200010      -2.70872116E-22
   5.00000000      -1.10325542E-22
   5.00799990       1.63130329E-23
   5.01599979       7.30566356E-23
   5.02400017       7.27989937E-23
   5.03200006       5.45242230E-23
   5.03999996       5.48969819E-23
   5.04799986       9.82911537E-23
   5.05600023       1.91006449E-22
   5.06400013       3.09997143E-22
   5.07200003       4.08473388E-22
   5.07999992       4.51793843E-22
   5.08799982       4.48005341E-22
   5.09600019       4.29520652E-22
   5.10400009       4.05130688E-22
   5.11199999       3.48278758E-22
   5.11999989       2.40909588E-22
   5.12799978       1.12034682E-22
   5.13600016       1.41401929E-23
   5.14400005      -3.28302641E-23
   5.15199995      -5.49319505E-23
   5.15999985      -8.05940438E-23
   5.16800022      -1.02551419E-22
   5.17600012      -9.29204183E-23
   5.18400002      -4.11498279E-23
   5.19199991       3.93256249E-23
   5.19999981       1.32546782E-22
   5.20800018       2.24463088E-22
   5.21600008       2.83939111E-22
   5.22399998       2.65039139E-22
   5.23199987       1.47552229E-22
   5.23999977      -3.56899890E-23
   5.24800014      -2.31105221E-22
   5.25600004      -4.18745922E-22
   5.26399994      -6.13609586E-22
   5.27199984      -8.12336951E-22
   5.28000021      -9.64631636E-22
   5.28800011      -1.01572357E-21
   5.29600000      -9.64690403E-22
   5.30399990      -8.59351698E-22
   5.31199980      -7.34209379E-22
   5.32000017      -5.72750125E-22
   5.32800007      -3.41676181E-22
   5.33599997      -5.37036625E-23
   5.34399986       2.16092504E-22
   5.35200024       3.77932582E-22
   5.36000013       3.87614038E-22
   5.36800003       2.65411103E-22
   5.37599993       7.23645774E-23
   5.38399982      -1.21089000E-22
   5.39200020      -2.55280236E-22
   5.40000010      -2.98388266E-22
   5.40799999      -2.59456781E-22
   5.41599989      -1.75567949E-22
   5.42399979      -7.11414959E-23
   5.43200016       7.01386959E-23
   5.44000006       2.85027436E-22
   5.44799995       5.83987140E-22
   5.45599985       9.31170403E-22
   5.46400023       1.26645906E-21
   5.47200012       1.53681312E-21
   5.48000002       1.70899251E-21
   5.48799992       1.76945969E-21
   5.49599981       1.72496501E-21
   5.50400019       1.60144600E-21
   5.51200008       1.43535122E-21
   5.51999998       1.26101453E-21
   5.52799988       1.09866155E-21
   5.53599977       9.43459871E-22
   5.54400015       7.62325391E-22
   5.55200005       5.10881973E-22
   5.55999994       1.67962623E-22
   5.56799984      -2.39458665E-22
   5.57600021      -6.49214400E-22
   5.58400011      -1.01038224E-21
   5.59200001      -1.32069977E-21
   5.59999990      -1.61233385E-21
   5.60799980      -1.89424078E-21
   5.61600018      -2.11370435E-21
   5.62400007      -2.18704070E-21
   5.63199997      -2.07111142E-21
   5.63999987      -1.79748932E-21
   5.64799976      -1.43862370E-21
   5.65600014      -1.05720104E-21
   5.66400003      -6.94810914E-22
   5.67199993      -3.87628957E-22
   5.67999983      -1.63898323E-22
   5.68800020      -2.32769960E-23
   5.69600010       6.10865675E-23
   5.70400000       1.09352896E-22
   5.71199989       1.14600222E-22
   5.71999979       6.66427168E-23
   5.72800016      -9.46345073E-24
   5.73600006      -5.17459969E-23
   5.74399996      -3.16704974E-24
   5.75199986       1.46069638E-22
   5.76000023       3.55197787E-22
   5.76800013       5.65234868E-22
   5.77600002       7.33909082E-22
   5.78399992       8.47408874E-22
   5.79199982       9.09667746E-22
   5.80000019       9.26961091E-22
   5.80800009       9.01668974E-22
   5.81599998       8.34444292E-22
   5.82399988       7.26869514E-22
   5.83199978       5.82897073E-22
   5.84000015       4.13595607E-22
   5.84800005       2.43018056E-22
   5.85599995       1.03010675E-22
   5.86399984       1.23468028E-23
   5.87200022      -4.24651745E-23
   5.88000011      -1.01028040E-22
   5.88800001      -1.98237666E-22
   5.89599991      -3.37691462E-22
   5.90399981      -4.94452664E-22
   5.91200018      -6.40252385E-22
   5.92000008      -7.62041301E-22
   5.92799997      -8.56704559E-22
   5.93599987      -9.14598619E-22
   5.94399977      -9.17411457E-22
   5.95200014      -8.56724148E-22
   5.96000004      -7.49791162E-22
   5.96799994      -6.26712957E-22
   5.97599983      -4.98275799E-22
   5.98400021      -3.45096127E-22
   5.99200010      -1.48549564E-22
   6.00000000       7.07765184E-23
   6.00799990       2.57676151E-22
   6.01599979       3.68726310E-22
   6.02400017       4.05699552E-22
   6.03200006       4.00403430E-22
   6.03999996       3.80051651E-22
   6.04799986       3.60058382E-22
   6.05600023       3.61033616E-22
   6.06400013       4.08394704E-22
   6.07200003       5.04492124E-22
   6.07999992       6.13549557E-22
   6.08799982       6.89262685E-22
   6.09600019       7.17076128E-22
   6.10400009       7.21477795E-22
   6.11199999       7.32513669E-22
   6.11999989       7.52300522E-22
   6.12799978       7.53086858E-22
   6.13600016       6.97469716E-22
   6.14400005       5.57005673E-22
   6.15199995       3.24091702E-22
   6.15999985       2.22626913E-23
   6.16800022      -2.93847027E-22
   6.17600012      -5.63442223E-22
   6.18400002      -7.58195698E-22
   6.19199991      -8.96088837E-22
   6.19999981      -1.00880704E-21
   6.20800018      -1.09379490E-21
   6.21600008      -1.10668092E-21
   6.22399998      -1.00633509E-21
   6.23199987      -8.00273059E-22
   6.23999977      -5.36588287E-22
   6.24800014      -2.57759278E-22
   6.25600004       1.96231548E-23
   6.26399994       2.76753181E-22
   6.27199984       4.68509566E-22
   6.28000021       5.52697003E-22
   6.28800011       5.39721314E-22
   6.29600000       4.88839357E-22
   6.30399990       4.45183971E-22
   6.31199980       3.96286661E-22
   6.32000017       3.04815601E-22
   6.32800007       1.73454584E-22
   6.33599997       5.78213019E-23
   6.34399986       1.42072760E-23
   6.35200024       4.76761025E-23
   6.36000013       1.13210703E-22
   6.36800003       1.54113267E-22
   6.37599993       1.33526459E-22
   6.38399982       4.32603463E-23
   6.39200020      -9.92298793E-23
   6.40000010      -2.58745342E-22
   6.40799999      -3.96520618E-22
   6.41599989      -4.86425165E-22
   6.42399979      -5.23446041E-22
   6.43200016      -5.19178468E-22
   6.44000006      -4.86130976E-22
   6.44799995      -4.20362368E-22
   6.45599985      -2.99878418E-22
   6.46400023      -1.08378886E-22
   6.47200012       1.34942269E-22
   6.48000002       3.74576780E-22
   6.48799992       5.53563160E-22
   6.49599981       6.49172546E-22
   6.50400019       6.75342079E-22
   6.51200008       6.57708400E-22
   6.51999998       6.11692944E-22
   6.52799988       5.40540114E-22
   6.53599977       4.47860141E-22
   6.54400015       3.51090864E-22
   6.55200005       2.82077828E-22
   6.55999994       2.67202007E-22
   6.56799984       2.99329168E-22
   6.57600021       3.30414378E-22
   6.58400011       2.99059113E-22
   6.59200001       1.72056155E-22
   6.59999990      -3.52572452E-23
   6.60799980      -2.74154029E-22