 -0.239999995       0.00000000    
 -0.231999993       0.00000000    
 -0.224000007       0.00000000    
 -0.216000006       0.00000000    
 -0.208000004       2.20286727E-26
 -0.200000003       1.26869381E-25
 -0.192000002       1.92674272E-25
 -0.184000000      -2.49652413E-25
 -0.175999999      -1.26316648E-24
 -0.167999998      -1.69834180E-24
 -0.159999996      -4.41412444E-25
 -0.151999995       1.79096452E-24
 -0.143999994       3.64204340E-24
 -0.136000007       4.55254153E-24
 -0.128000006       1.88072526E-24
 -0.119999997      -9.05813479E-24
 -0.112000003      -2.37330933E-23
 -0.104000002      -2.22224689E-23
  -9.60000008E-02   8.86173919E-24
  -8.79999995E-02   4.70894235E-23
  -7.99999982E-02   4.81773164E-23
  -7.19999969E-02  -1.80807339E-25
  -6.40000030E-02  -5.67062186E-23
  -5.60000017E-02  -7.29521210E-23
  -4.80000004E-02  -4.46550019E-23
  -3.99999991E-02  -4.28238911E-25
  -3.20000015E-02   4.09083039E-23
  -2.40000002E-02   7.37117183E-23
  -1.60000008E-02   7.93079418E-23
  -8.00000038E-03   3.53587274E-23
   1.38777878E-17  -4.17890671E-23
   8.00000038E-03  -9.62475874E-23
   1.60000008E-02  -9.11515208E-23
   2.40000002E-02  -4.60013193E-23
   3.20000015E-02   3.37021938E-25
   3.99999991E-02   3.78875599E-23
   4.80000004E-02   7.12678904E-23
   5.60000017E-02   8.52033896E-23
   6.40000030E-02   6.75188384E-23
   7.19999969E-02   4.58990924E-23
   7.99999982E-02   4.38642951E-23
   8.79999995E-02   1.51674381E-23
   9.60000008E-02  -9.46434041E-23
  0.104000002      -2.15869603E-22
  0.112000003      -1.92137751E-22
  0.119999997       2.49930344E-24
  0.128000006       1.90865275E-22
  0.136000007       2.15530406E-22
  0.143999994       1.33323122E-22
  0.151999995       8.45857242E-23
  0.159999996       7.15869436E-23
  0.167999998       1.17126147E-23
  0.175999999      -7.16410594E-23
  0.184000000      -8.78651452E-23
  0.192000002      -5.67644302E-23
  0.200000003      -5.84180278E-23
  0.208000004      -4.12197746E-23
  0.216000006       1.04767670E-22
  0.224000007       2.88808541E-22
  0.231999993       2.76145998E-22
  0.239999995       5.14535977E-23
  0.247999996      -1.15191981E-22
  0.256000012      -6.10676790E-23
  0.263999999       3.47874185E-23
  0.272000015      -5.15559445E-23
  0.280000001      -2.53420872E-22
  0.287999988      -3.45595141E-22
  0.296000004      -2.62043058E-22
  0.303999990      -9.76076720E-23
  0.312000006       9.12002093E-23
  0.319999993       2.91581747E-22
  0.328000009       4.07081510E-22
  0.335999995       3.16217153E-22
  0.344000012       5.44280829E-23
  0.351999998      -1.99131123E-22
  0.360000014      -3.31386305E-22
  0.368000001      -3.99475325E-22
  0.375999987      -5.22667277E-22
  0.384000003      -7.40451503E-22
  0.391999990      -9.92822117E-22
  0.400000006      -1.18550845E-21
  0.407999992      -1.24527578E-21
  0.416000009      -1.11796580E-21
  0.423999995      -7.53336568E-22
  0.432000011      -1.65026331E-22
  0.439999998       4.74276151E-22
  0.448000014       9.08747871E-22
  0.456000000       1.05772964E-21
  0.463999987       1.11181122E-21
  0.472000003       1.26975657E-21
  0.479999989       1.48389679E-21
  0.488000005       1.62964486E-21
  0.495999992       1.78988576E-21
  0.504000008       2.13248737E-21
  0.512000024       2.53904260E-21
  0.519999981       2.64920040E-21
  0.527999997       2.32206683E-21
  0.536000013       1.80832163E-21
  0.544000030       1.34358032E-21
  0.551999986       7.94373036E-22
  0.560000002      -1.36391122E-22
  0.568000019      -1.47190388E-21
  0.575999975      -2.91780449E-21
  0.583999991      -4.21119871E-21
  0.592000008      -5.29660346E-21
  0.600000024      -6.13995853E-21
  0.607999980      -6.54043754E-21
  0.615999997      -6.24236211E-21
  0.624000013      -5.19433963E-21
  0.632000029      -3.55926690E-21
  0.639999986      -1.48428857E-21
  0.648000002       9.45606280E-22
  0.656000018       3.45841427E-21
  0.663999975       5.51630756E-21
  0.671999991       6.69363316E-21
  0.680000007       7.01587292E-21
  0.688000023       6.74026749E-21
  0.695999980       5.91600624E-21
  0.703999996       4.42149404E-21
  0.712000012       2.39394531E-21
  0.720000029       2.97233828E-22
  0.727999985      -1.45117550E-21
  0.736000001      -2.70995698E-21
  0.744000018      -3.43849045E-21
  0.751999974      -3.56503777E-21
  0.759999990      -3.13627003E-21
  0.768000007      -2.39194642E-21
  0.776000023      -1.57178433E-21
  0.783999979      -7.54470104E-22
  0.791999996       7.76022541E-23
  0.800000012       9.03659983E-22
  0.808000028       1.57635422E-21
  0.815999985       1.83087280E-21
  0.824000001       1.45279038E-21
  0.832000017       5.40367095E-22
  0.839999974      -4.92136619E-22
  0.847999990      -1.29020496E-21
  0.856000006      -1.81111135E-21
  0.864000022      -2.10662404E-21
  0.871999979      -2.06643853E-21
  0.879999995      -1.61126261E-21
  0.888000011      -9.36893014E-22
  0.896000028      -3.06661915E-22
  0.903999984       2.81870124E-22
  0.912000000       9.56665781E-22
  0.920000017       1.62266714E-21
  0.927999973       2.03369482E-21
  0.935999990       2.13019869E-21
  0.944000006       2.02542584E-21
  0.952000022       1.71648055E-21
  0.959999979       1.11176871E-21
  0.967999995       3.26859253E-22
  0.976000011      -3.58010953E-22
  0.984000027      -8.75208989E-22
  0.991999984      -1.41651348E-21
   1.00000000      -2.02650970E-21
   1.00800002      -2.44138056E-21
   1.01600003      -2.47873718E-21
   1.02400005      -2.32162880E-21
   1.03199995      -2.19687942E-21
   1.03999996      -1.98707524E-21
   1.04799998      -1.44007540E-21
   1.05599999      -5.90915080E-22
   1.06400001       3.68037742E-22
   1.07200003       1.52683395E-21
   1.08000004       3.12897828E-21
   1.08800006       4.96928066E-21
   1.09599996       6.37239830E-21
   1.10399997       6.92719496E-21
   1.11199999       6.82357201E-21
   1.12000000       6.24097998E-21
   1.12800002       4.86336277E-21
   1.13600004       2.39957099E-21
   1.14400005      -7.76931107E-22
   1.15199995      -3.99052486E-21
   1.15999997      -6.99863138E-21
   1.16799998      -9.82533694E-21
   1.17600000      -1.20494980E-20
   1.18400002      -1.28893739E-20
   1.19200003      -1.20223585E-20
   1.20000005      -9.79381280E-21
   1.20799994      -6.55351006E-21
   1.21599996      -2.31953783E-21
   1.22399998       2.71631472E-21
   1.23199999       7.80733129E-21
   1.24000001       1.20633734E-20
   1.24800003       1.49704262E-20
   1.25600004       1.63072825E-20
   1.26400006       1.58512782E-20
   1.27199996       1.34728133E-20
   1.27999997       9.40442883E-21
   1.28799999       4.19566888E-21
   1.29600000      -1.54606933E-21
   1.30400002      -7.24295581E-21
   1.31200004      -1.22557204E-20
   1.32000005      -1.58816658E-20
   1.32799995      -1.75281317E-20
   1.33599997      -1.69372597E-20
   1.34399998      -1.42883576E-20
   1.35200000      -1.00661677E-20
   1.36000001      -4.80124021E-21
   1.36800003       1.01243353E-21
   1.37600005       6.75797675E-21
   1.38399994       1.16561090E-20
   1.39199996       1.50548729E-20
   1.39999998       1.66712533E-20
   1.40799999       1.64334599E-20
   1.41600001       1.42617392E-20
   1.42400002       1.02493316E-20
   1.43200004       4.96138973E-21
   1.44000006      -7.31573902E-22
   1.44799995      -6.12259298E-21
   1.45599997      -1.07659681E-20
   1.46399999      -1.41800228E-20
   1.47200000      -1.57954952E-20
   1.48000002      -1.53355311E-20
   1.48800004      -1.30408093E-20
   1.49600005      -9.39823710E-21
   1.50399995      -4.81546142E-21
   1.51199996       3.24760353E-22
   1.51999998       5.45542941E-21
   1.52800000       9.88453125E-21
   1.53600001       1.30568368E-20
   1.54400003       1.46730241E-20
   1.55200005       1.46036556E-20
   1.55999994       1.28247197E-20
   1.56799996       9.49224407E-21
   1.57599998       5.02644539E-21
   1.58399999       5.08229602E-23
   1.59200001      -4.79692256E-21
   1.60000002      -9.01398585E-21
   1.60800004      -1.22214683E-20
   1.61600006      -1.40812232E-20
   1.62399995      -1.43275211E-20
   1.63199997      -1.29226663E-20
   1.63999999      -1.01329262E-20
   1.64800000      -6.38924605E-21
   1.65600002      -2.09254561E-21
   1.66400003       2.40100320E-21
   1.67200005       6.64790397E-21
   1.67999995       1.01059200E-20
   1.68799996       1.23498138E-20
   1.69599998       1.32594281E-20
   1.70400000       1.29122562E-20
   1.71200001       1.13406615E-20
   1.72000003       8.55898724E-21
   1.72800004       4.84428551E-21
   1.73599994       7.74794190E-22
   1.74399996      -3.13623207E-21
   1.75199997      -6.66607327E-21
   1.75999999      -9.60206199E-21
   1.76800001      -1.14830974E-20
   1.77600002      -1.19148840E-20
   1.78400004      -1.09950374E-20
   1.79200006      -9.10726743E-21
   1.79999995      -6.42403569E-21
   1.80799997      -2.98627731E-21
   1.81599998       8.14337250E-22
   1.82400000       4.28913140E-21
   1.83200002       7.02912316E-21
   1.84000003       9.03323396E-21
   1.84800005       1.02211841E-20
   1.85599995       1.02643445E-20
   1.86399996       9.05340052E-21
   1.87199998       6.94648669E-21
   1.88000000       4.34837700E-21
   1.88800001       1.36208364E-21
   1.89600003      -1.92974310E-21
   1.90400004      -5.12233654E-21
   1.91199994      -7.69413921E-21
   1.91999996      -9.39392913E-21
   1.92799997      -1.02201727E-20
   1.93599999      -1.01552213E-20
   1.94400001      -9.12652684E-21
   1.95200002      -7.18093827E-21
   1.96000004      -4.54576581E-21
   1.96800005      -1.50772216E-21
   1.97599995       1.70933138E-21
   1.98399997       4.94161656E-21
   1.99199998       7.97231504E-21
   2.00000000       1.04384385E-20
   2.00799990       1.19191880E-20
   2.01600003       1.21702098E-20
   2.02399993       1.12264977E-20
   2.03200006       9.25240774E-21
   2.03999996       6.38913174E-21
   2.04800010       2.82058148E-21
   2.05599999      -1.11217200E-21
   2.06399989      -4.99034752E-21
   2.07200003      -8.48162485E-21
   2.07999992      -1.13332517E-20
   2.08800006      -1.32332710E-20
   2.09599996      -1.38117271E-20
   2.10400009      -1.28566300E-20
   2.11199999      -1.04915639E-20
   2.11999989      -7.07593803E-21
   2.12800002      -2.95086808E-21
   2.13599992       1.61321515E-21
   2.14400005       6.20353511E-21
   2.15199995       1.01725993E-20
   2.16000009       1.29172137E-20
   2.16799998       1.41741340E-20
   2.17600012       1.39164398E-20
   2.18400002       1.21107069E-20
   2.19199991       8.82349601E-21
   2.20000005       4.48978975E-21
   2.20799994      -2.13813339E-22
   2.21600008      -4.76424731E-21
   2.22399998      -8.82814325E-21
   2.23200011      -1.19682372E-20
   2.24000001      -1.36595210E-20
   2.24799991      -1.36746122E-20
   2.25600004      -1.21960681E-20
   2.26399994      -9.49982279E-21
   2.27200007      -5.79239444E-21
   2.27999997      -1.41680075E-21
   2.28800011       3.06612791E-21
   2.29600000       7.13713243E-21
   2.30399990       1.04733473E-20
   2.31200004       1.27855805E-20
   2.31999993       1.37326490E-20
   2.32800007       1.31327508E-20
   2.33599997       1.11250065E-20
   2.34400010       8.03964464E-21
   2.35200000       4.22523978E-21
   2.35999990       4.47018981E-23
   2.36800003      -4.10263287E-21
   2.37599993      -7.84600036E-21
   2.38400006      -1.08739685E-20
   2.39199996      -1.28928450E-20
   2.40000010      -1.36496950E-20
   2.40799999      -1.30274654E-20
   2.41599989      -1.10696500E-20
   2.42400002      -7.93638923E-21
   2.43199992      -3.91504301E-21
   2.44000006       5.42767756E-22
   2.44799995       4.89591766E-21
   2.45600009       8.67323025E-21
   2.46399999       1.15517614E-20
   2.47199988       1.33112578E-20
   2.48000002       1.37734151E-20
   2.48799992       1.28098361E-20
   2.49600005       1.04114493E-20
   2.50399995       6.76485753E-21
   2.51200008       2.26257404E-21
   2.51999998      -2.57806792E-21
   2.52800012      -7.19806995E-21
   2.53600001      -1.10193043E-20
   2.54399991      -1.34964210E-20
   2.55200005      -1.42880280E-20
   2.55999994      -1.33947966E-20
   2.56800008      -1.10589007E-20
   2.57599998      -7.54383630E-21
   2.58400011      -3.11401876E-21
   2.59200001       1.77998706E-21
   2.59999990       6.46084604E-21
   2.60800004       1.02784599E-20
   2.61599994       1.28475269E-20
   2.62400007       1.39843574E-20
   2.63199997       1.35392381E-20
   2.64000010       1.14691969E-20
   2.64800000       8.05833133E-21
   2.65599990       3.88523422E-21
   2.66400003      -4.99872757E-22
   2.67199993      -4.75252380E-21
   2.68000007      -8.54532907E-21
   2.68799996      -1.13923983E-20
   2.69600010      -1.28597626E-20
   2.70400000      -1.28813105E-20
   2.71199989      -1.16785317E-20
   2.72000003      -9.41001634E-21
   2.72799993      -6.12803428E-21
   2.73600006      -2.10023702E-21
   2.74399996       2.08056563E-21
   2.75200009       5.83419897E-21
   2.75999999       8.87091592E-21
   2.76799989       1.10315343E-20
   2.77600002       1.20659317E-20
   2.78399992       1.17800504E-20
   2.79200006       1.02865523E-20
   2.79999995       7.91033143E-21
   2.80800009       4.91400941E-21
   2.81599998       1.47570162E-21
   2.82399988      -2.14902452E-21
   2.83200002      -5.62102467E-21
   2.83999991      -8.61928903E-21
   2.84800005      -1.08177388E-20
   2.85599995      -1.18770922E-20
   2.86400008      -1.16452240E-20
   2.87199998      -1.02776545E-20
   2.88000011      -8.00179224E-21
   2.88800001      -4.90916507E-21
   2.89599991      -1.18097854E-21
   2.90400004       2.67907321E-21
   2.91199994       6.14988510E-21
   2.92000008       9.08060620E-21
   2.92799997       1.14308178E-20
   2.93600011       1.27832112E-20
   2.94400001       1.25809349E-20
   2.95199990       1.08122256E-20
   2.96000004       7.99449786E-21
   2.96799994       4.47537225E-21
   2.97600007       2.66473251E-22
   2.98399997      -4.32551847E-21
   2.99200010      -8.45755260E-21
   3.00000000      -1.14235307E-20
   3.00799990      -1.31558569E-20
   3.01600003      -1.37701451E-20
   3.02399993      -1.30212042E-20
   3.03200006      -1.06284009E-20
   3.03999996      -6.87567873E-21
   3.04800010      -2.45088466E-21
   3.05599999       2.17292572E-21
   3.06399989       6.79259959E-21
   3.07200003       1.09968840E-20
   3.07999992       1.40788596E-20
   3.08800006       1.55305131E-20
   3.09599996       1.53377509E-20
   3.10400009       1.36985778E-20
   3.11199999       1.07417359E-20
   3.11999989       6.69112294E-21
   3.12800002       2.07201736E-21
   3.13599992      -2.48838425E-21
   3.14400005      -6.55833743E-21
   3.15199995      -9.83727694E-21
   3.16000009      -1.19590655E-20
   3.16799998      -1.26242140E-20
   3.17600012      -1.18645262E-20
   3.18400002      -9.95007239E-21
   3.19199991      -7.10495559E-21
   3.20000005      -3.56435923E-21
   3.20799994       1.79043026E-22
   3.21600008       3.53414209E-21
   3.22399998       6.22933927E-21
   3.23200011       8.26510709E-21
   3.24000001       9.47251614E-21
   3.24799991       9.51787779E-21
   3.25600004       8.40973526E-21
   3.26399994       6.58699472E-21
   3.27200007       4.36639121E-21
   3.27999997       1.69608619E-21
   3.28800011      -1.37153664E-21
   3.29600000      -4.37098351E-21
   3.30399990      -6.84081194E-21
   3.31200004      -8.70613168E-21
   3.31999993      -9.98320485E-21
   3.32800007      -1.04373714E-20
   3.33599997      -9.85661713E-21
   3.34400010      -8.41053255E-21
   3.35200000      -6.42059813E-21
   3.35999990      -3.97397640E-21
   3.36800003      -1.06358736E-21
   3.37599993       2.06057052E-21
   3.38400006       4.97957236E-21
   3.39199996       7.42754553E-21
   3.40000010       9.26184438E-21
   3.40799999       1.02214983E-20
   3.41599989       1.00089605E-20
   3.42400002       8.60523988E-21
   3.43199992       6.29156724E-21
   3.44000006       3.36273557E-21
   3.44799995       1.60940152E-23
   3.45600009      -3.44797354E-21
   3.46399999      -6.51953830E-21
   3.47199988      -8.71057697E-21
   3.48000002      -9.81930030E-21
   3.48799992      -9.86075465E-21
   3.49600005      -8.80539740E-21
   3.50399995      -6.56916187E-21
   3.51200008      -3.30296914E-21
   3.51999998       4.82520896E-22
   3.52800012       4.20813314E-21
   3.53600001       7.51946274E-21
   3.54399991       1.01583038E-20
   3.55200005       1.17221243E-20
   3.55999994       1.18421325E-20
   3.56800008       1.05602603E-20
   3.57599998       8.26065211E-21
   3.58400011       5.23753033E-21
   3.59200001       1.61692474E-21
   3.59999990      -2.27151551E-21
   3.60800004      -5.78664335E-21
   3.61599994      -8.39443404E-21
   3.62400007      -9.96159395E-21
   3.63199997      -1.05111610E-20
   3.64000010      -9.95552176E-21
   3.64800000      -8.28887642E-21
   3.65599990      -5.85310497E-21
   3.66400003      -3.15774765E-21
   3.67199993      -5.16616298E-22
   3.68000007       1.95239141E-21
   3.68799996       4.06035417E-21
   3.69600010       5.51448639E-21
   3.70400000       6.15880718E-21
   3.71199989       6.07202309E-21
   3.72000003       5.38994684E-21
   3.72799993       4.17686062E-21
   3.73600006       2.53628944E-21
   3.74399996       7.24262966E-22
   3.75200009      -9.67358141E-22
   3.75999999      -2.38944711E-21
   3.76799989      -3.50199675E-21
   3.77600002      -4.21765258E-21
   3.78399992      -4.41680681E-21
   3.79200006      -4.10924588E-21
   3.79999995      -3.43232416E-21
   3.80800009      -2.47047002E-21
   3.81599998      -1.23914362E-21
   3.82399988       1.15435783E-22
   3.83200002       1.31212534E-21
   3.83999991       2.23482997E-21
   3.84800005       3.02607043E-21
   3.85599995       3.73742859E-21
   3.86400008       4.11773659E-21
   3.87199998       3.95660439E-21
   3.88000011       3.40093451E-21
   3.88800001       2.64959562E-21
   3.89599991       1.56655730E-21
   3.90400004      -2.30633488E-23
   3.91199994      -1.82681303E-21
   3.92000008      -3.32130242E-21
   3.92799997      -4.40454208E-21
   3.93600011      -5.34361786E-21
   3.94400001      -6.11020668E-21
   3.95199990      -6.29459001E-21
   3.96000004      -5.76031049E-21
   3.96799994      -4.86901854E-21
   3.97600007      -3.87094475E-21
   3.98399997      -2.54408081E-21
   3.99200010      -7.05377409E-22
   4.00000000       1.32394044E-21
   4.00799990       3.08756715E-21
   4.01599979       4.50814888E-21
   4.02400017       5.69124213E-21
   4.03200006       6.48262698E-21
   4.03999996       6.60973451E-21
   4.04799986       6.11011379E-21
   4.05600023       5.25533127E-21
   4.06400013       4.13178655E-21
   4.07200003       2.63174055E-21
   4.07999992       8.21113275E-22
   4.08799982      -1.00485511E-21
   4.09600019      -2.64821126E-21
   4.10400009      -4.10189899E-21
   4.11199999      -5.27599786E-21
   4.11999989      -5.92106182E-21
   4.12799978      -5.93058449E-21
   4.13600016      -5.46233241E-21
   4.14400005      -4.61776768E-21
   4.15199995      -3.24281558E-21
   4.15999985      -1.24178945E-21
   4.16800022       1.13536628E-21
   4.17600012       3.56418070E-21
   4.18400002       6.00982621E-21
   4.19199991       8.51507235E-21
   4.19999981       1.07860733E-20
   4.20800018       1.23725605E-20
   4.21600008       1.31970439E-20
   4.22399998       1.35160771E-20
   4.23199987       1.33761236E-20
   4.23999977       1.25340021E-20
   4.24800014       1.09733982E-20
   4.25600004       9.05965123E-21
   4.26399994       7.03382533E-21
   4.27199984       4.75581556E-21
   4.28000021       2.14289337E-21
   4.28800011      -5.14759382E-22
   4.29600000      -2.92590524E-21
   4.30399990      -5.16414067E-21
   4.31199980      -7.40126558E-21
   4.32000017      -9.56095742E-21
   4.32800007      -1.15148638E-20
   4.33599997      -1.33785470E-20
   4.34399986      -1.53145705E-20
   4.35200024      -1.72134072E-20
   4.36000013      -1.88274644E-20
   4.36800003      -2.00694583E-20
   4.37599993      -2.09389204E-20
   4.38399982      -2.12868177E-20
   4.39200020      -2.08943642E-20
   4.40000010      -1.97017733E-20
   4.40799999      -1.77654986E-20
   4.41599989      -1.50708172E-20
   4.42399979      -1.15747763E-20
   4.43200016      -7.39052839E-21
   4.44000006      -2.77381973E-21
   4.44799995       2.04806163E-21
   4.45599985       6.91489146E-21
   4.46400023       1.16248425E-20
   4.47200012       1.58960122E-20
   4.48000002       1.94508888E-20
   4.48799992       2.20940717E-20
   4.49599981       2.37223460E-20
   4.50400019       2.43093163E-20
   4.51200008       2.38833522E-20
   4.51999998       2.24950427E-20
   4.52799988       2.02019736E-20
   4.53599977       1.70995616E-20
   4.54400015       1.33652612E-20
   4.55200005       9.25981925E-21
   4.55999994       5.06625022E-21
   4.56799984       1.01936167E-21
   4.57600021      -2.70128148E-21
   4.58400011      -5.92166362E-21
   4.59200001      -8.45431497E-21
   4.59999990      -1.01411293E-20
   4.60799980      -1.08870144E-20
   4.61600018      -1.06566809E-20
   4.62400007      -9.50445630E-21
   4.63199997      -7.63026213E-21
   4.63999987      -5.33495185E-21
   4.64799976      -2.87474222E-21
   4.65600014      -4.12014478E-22
   4.66400003       1.86497664E-21
   4.67199993       3.66880855E-21
   4.67999983       4.74382467E-21
   4.68800020       5.02456848E-21
   4.69600010       4.59654856E-21
   4.70400000       3.54922158E-21
   4.71199989       1.95489597E-21
   4.71999979      -2.95841930E-23
   4.72800016      -2.14426641E-21
   4.73600006      -4.15141674E-21
   4.74399996      -5.92859409E-21
   4.75199986      -7.38884737E-21
   4.76000023      -8.35139076E-21
   4.76800013      -8.59628872E-21
   4.77600002      -8.08984578E-21
   4.78399992      -7.07592106E-21
   4.79199982      -5.86668398E-21
   4.80000019      -4.61187846E-21
   4.80800009      -3.37857256E-21
   4.81599998      -2.37150097E-21
   4.82399988      -1.87055183E-21
   4.83199978      -1.94262297E-21
   4.84000015      -2.41016217E-21
   4.84800005      -3.14247389E-21
   4.85599995      -4.16346498E-21
   4.86399984      -5.37843739E-21
   4.87200022      -6.41503607E-21
   4.88000011      -6.91142521E-21
   4.88800001      -6.81022403E-21
   4.89599991      -6.19341831E-21
   4.90399981      -4.97892935E-21
   4.91200018      -3.01385700E-21
   4.92000008      -3.79611783E-22
   4.92799997       2.63987665E-21
   4.93599987       5.85280569E-21
   4.94399977       9.17692751E-21
   4.95200014       1.23670134E-20
   4.96000004       1.49852250E-20
   4.96799994       1.67230313E-20
   4.97599983       1.75572962E-20
   4.98400021       1.75265516E-20
   4.99200010       1.65731678E-20
   5.00000000       1.47225386E-20
   5.00799990       1.22226736E-20
   5.01599979       9.35457101E-21
   5.02400017       6.25528479E-21
   5.03200006       3.06441841E-21
   5.03999996       7.45520067E-23
   5.04799986      -2.44473997E-21
   5.05600023      -4.44564908E-21
   5.06400013      -5.95748846E-21
   5.07200003      -6.87988491E-21
   5.07999992      -7.11872685E-21
   5.08799982      -6.81029188E-21
   5.09600019      -6.19633969E-21
   5.10400009      -5.36931215E-21
   5.11199999      -4.35272657E-21
   5.11999989      -3.33294232E-21
   5.12799978      -2.55172860E-21
   5.13600016      -2.01685859E-21
   5.14400005      -1.56632031E-21
   5.15199995      -1.18610975E-21
   5.15999985      -1.00213446E-21
   5.16800022      -9.62956676E-22
   5.17600012      -8.09087955E-22
   5.18400002      -4.08958166E-22
   5.19199991       1.31238788E-22
   5.19999981       7.58192568E-22
   5.20800018       1.59671607E-21
   5.21600008       2.65204343E-21
   5.22399998       3.63932812E-21
   5.23199987       4.29446163E-21
   5.23999977       4.64041255E-21
   5.24800014       4.73071014E-21
   5.25600004       4.34293207E-21
   5.26399994       3.22672393E-21
   5.27199984       1.50919648E-21
   5.28000021      -4.86623125E-22
   5.28800011      -2.73178094E-21
   5.29600000      -5.40756239E-21
   5.30399990      -8.35180273E-21
   5.31199980      -1.10184973E-20
   5.32000017      -1.30688341E-20
   5.32800007      -1.45828679E-20
   5.33599997      -1.55486335E-20
   5.34399986      -1.55949621E-20
   5.35200024      -1.44912382E-20
   5.36000013      -1.25161434E-20
   5.36800003      -1.00129510E-20
   5.37599993      -6.93742566E-21
   5.38399982      -3.22080078E-21
   5.39200020       7.29089482E-22
   5.40000010       4.31874108E-21
   5.40799999       7.34042984E-21
   5.41599989       9.84852466E-21
   5.42399979       1.16739701E-20
   5.43200016       1.25138581E-20
   5.44000006       1.23856322E-20
   5.44799995       1.15711008E-20
   5.45599985       1.01882859E-20
   5.46400023       8.21952492E-21
   5.47200012       5.91385993E-21
   5.48000002       3.75806893E-21
   5.48799992       2.02214014E-21
   5.49599981       6.60421930E-22
   5.50400019      -3.28657124E-22
   5.51200008      -7.86166005E-22
   5.51999998      -6.95764363E-22
   5.52799988      -2.88571100E-22
   5.53599977       2.73822784E-22
   5.54400015       1.06420360E-21
   5.55200005       2.09073171E-21
   5.55999994       3.05357702E-21
   5.56799984       3.60831693E-21
   5.57600021       3.74317483E-21
   5.58400011       3.68002436E-21
   5.59200001       3.47390937E-21
   5.59999990       2.96048830E-21
   5.60799980       2.11331782E-21
   5.61600018       1.18635411E-21
   5.62400007       3.75011272E-22
   5.63199997      -4.39736968E-22
   5.63999987      -1.41455145E-21
   5.64799976      -2.40218379E-21
   5.65600014      -3.15277427E-21
   5.66400003      -3.72059216E-21
   5.67199993      -4.35388979E-21
   5.67999983      -5.04579406E-21
   5.68800020      -5.53329223E-21
   5.69600010      -5.73542561E-21
   5.70400000      -5.84247239E-21
   5.71199989      -5.91223223E-21
   5.71999979      -5.71505224E-21
   5.72800016      -5.09648876E-21
   5.73600006      -4.19671336E-21
   5.74399996      -3.16725498E-21
   5.75199986      -1.93154064E-21
   5.76000023      -3.90676964E-22
   5.76800013       1.35430035E-21
   5.77600002       3.15507082E-21
   5.78399992       4.99992189E-21
   5.79199982       6.86979800E-21
   5.80000019       8.56553683E-21
   5.80800009       9.86145824E-21
   5.81599998       1.07187930E-20
   5.82399988       1.11800407E-20
   5.83199978       1.11465455E-20
   5.84000015       1.04473606E-20
   5.84800005       9.08961068E-21
   5.85599995       7.26714115E-21
   5.86399984       5.12508627E-21
   5.87200022       2.69011656E-21
   5.88000011       7.57218369E-23
   5.88800001      -2.42383993E-21
   5.89599991      -4.56957673E-21
   5.90399981      -6.37736744E-21
   5.91200018      -7.92204040E-21
   5.92000008      -9.05154825E-21
   5.92799997      -9.52554859E-21
   5.93599987      -9.39791559E-21
   5.94399977      -8.99938014E-21
   5.95200014      -8.51313122E-21
   5.96000004      -7.83907273E-21
   5.96799994      -6.95132537E-21
   5.97599983      -6.08263184E-21
   5.98400021      -5.38449908E-21
   5.99200010      -4.68627059E-21
   6.00000000      -3.83170093E-21
   6.00799990      -3.01697649E-21
   6.01599979      -2.50539214E-21
   6.02400017      -2.19650198E-21
   6.03200006      -1.80889415E-21
   6.03999996      -1.36069161E-21
   6.04799986      -1.10871010E-21
   6.05600023      -1.07243270E-21
   6.06400013      -9.92539692E-22
   6.07200003      -7.78490300E-22
   6.07999992      -6.28862849E-22
   6.08799982      -6.08760199E-22
   6.09600019      -4.45379659E-22
   6.10400009       8.59700804E-23
   6.11199999       8.61091282E-22
   6.11999989       1.71005597E-21
   6.12799978       2.76381359E-21
   6.13600016       4.20116834E-21
   6.14400005       5.82196009E-21
   6.15199995       7.20565917E-21
   6.15999985       8.20225510E-21
   6.16800022       8.91781480E-21
   6.17600012       9.24777585E-21
   6.18400002       8.81965980E-21
   6.19199991       7.48454506E-21
   6.19999981       5.51170839E-21
   6.20800018       3.16022071E-21
   6.21600008       4.10602227E-22
   6.22399998      -2.66608612E-21
   6.23199987      -5.60749736E-21
   6.23999977      -7.93283171E-21
   6.24800014      -9.56807731E-21
   6.25600004      -1.05902561E-20
   6.26399994      -1.07906018E-20
   6.27199984      -9.88232193E-21
   6.28000021      -7.98966241E-21
   6.28800011      -5.52801693E-21
   6.29600000      -2.68770631E-21
   6.30399990       5.64173882E-22
   6.31199980       4.02076380E-21
   6.32000017       7.20111533E-21
   6.32800007       9.81390666E-21
   6.33599997       1.18765647E-20
   6.34399986       1.33217413E-20
   6.35200024       1.38792603E-20
   6.36000013       1.34710539E-20
   6.36800003       1.23649147E-20
   6.37599993       1.07738037E-20
   6.38399982       8.62816183E-21
   6.39200020       5.93388756E-21
   6.40000010       3.03804840E-21
   6.40799999       2.85888443E-22
   6.41599989      -2.32514230E-21
   6.42399979      -4.87625879E-21
   6.43200016      -7.14646487E-21
   6.44000006      -8.82428361E-21
   6.44799995      -9.92818280E-21
   6.45599985      -1.06621513E-20
   6.46400023      -1.09563497E-20
   6.47200012      -1.05265252E-20
   6.48000002      -9.36555296E-21
   6.48799992      -7.80417928E-21
   6.49599981      -6.03780011E-21
   6.50400019      -3.95333364E-21
   6.51200008      -1.53934576E-21
   6.51999998       8.75691746E-22
   6.52799988       2.98646411E-21
   6.53599977       4.81934812E-21
   6.54400015       6.43745597E-21
   6.55200005       7.58595223E-21
   6.55999994       7.93457331E-21
   6.56799984       7.51334936E-21
   6.57600021       6.60100792E-21
   6.58400011       5.29001833E-21
   6.59200001       3.48371598E-21
   6.59999990       1.27636261E-21
   6.60799980      -9.90713977E-22