 -0.239999995       0.00000000    
 -0.231999993       0.00000000    
 -0.224000007       0.00000000    
 -0.216000006       0.00000000    
 -0.208000004       0.00000000    
 -0.200000003       0.00000000    
 -0.192000002       0.00000000    
 -0.184000000      -1.20185777E-36
 -0.175999999      -3.92773363E-30
 -0.167999998      -2.52300419E-29
 -0.159999996      -1.71095644E-29
 -0.151999995       2.94271455E-28
 -0.143999994       1.04518090E-27
 -0.136000007       6.25098119E-28
 -0.128000006      -4.52833392E-27
 -0.119999997      -1.28675678E-26
 -0.112000003      -7.74490772E-27
 -0.104000002       3.08331277E-26
  -9.60000008E-02   8.05182376E-26
  -8.79999995E-02   5.32264174E-26
  -7.99999982E-02  -1.16992164E-25
  -7.19999969E-02  -3.15219894E-25
  -6.40000030E-02  -2.48687538E-25
  -5.60000017E-02   2.37283296E-25
  -4.80000004E-02   8.13546138E-25
  -3.99999991E-02   8.22201323E-25
  -3.20000015E-02  -3.13957519E-26
  -2.40000002E-02  -1.21038695E-24
  -1.60000008E-02  -1.78766195E-24
  -8.00000038E-03  -1.33323222E-24
   1.38777878E-17  -8.49996085E-26
   8.00000038E-03   1.71744683E-24
   1.60000008E-02   3.95419960E-24
   2.40000002E-02   5.46462132E-24
   3.20000015E-02   3.46806762E-24
   3.99999991E-02  -3.95842553E-24
   4.80000004E-02  -1.36918675E-23
   5.60000017E-02  -1.71894401E-23
   6.40000030E-02  -7.19798105E-24
   7.19999969E-02   1.35166930E-23
   7.99999982E-02   3.11953972E-23
   8.79999995E-02   3.11285681E-23
   9.60000008E-02   1.01444625E-23
  0.104000002      -2.03402815E-23
  0.112000003      -4.30095359E-23
  0.119999997      -4.61217941E-23
  0.128000006      -2.83825369E-23
  0.136000007       3.42987689E-24
  0.143999994       3.85717011E-23
  0.151999995       6.47912224E-23
  0.159999996       7.04848102E-23
  0.167999998       4.84140661E-23
  0.175999999      -5.15339503E-26
  0.184000000      -6.27336334E-23
  0.192000002      -1.17906862E-22
  0.200000003      -1.39123168E-22
  0.208000004      -1.03822268E-22
  0.216000006      -5.84940243E-24
  0.224000007       1.31357483E-22
  0.231999993       2.50615606E-22
  0.239999995       2.78318357E-22
  0.247999996       1.65385471E-22
  0.256000012      -6.81503878E-23
  0.263999999      -3.20569469E-22
  0.272000015      -4.51511367E-22
  0.280000001      -3.65260800E-22
  0.287999988      -8.15749450E-23
  0.296000004       2.60789514E-22
  0.303999990       4.80997650E-22
  0.312000006       4.67439643E-22
  0.319999993       2.45874843E-22
  0.328000009      -4.61145303E-23
  0.335999995      -2.58040618E-22
  0.344000012      -3.21300775E-22
  0.351999998      -2.70487152E-22
  0.360000014      -1.87536433E-22
  0.368000001      -1.25935055E-22
  0.375999987      -7.64005413E-23
  0.384000003       8.76612530E-24
  0.391999990       1.60645402E-22
  0.400000006       3.50667529E-22
  0.407999992       4.89812496E-22
  0.416000009       4.75041586E-22
  0.423999995       2.58425784E-22
  0.432000011      -1.06978210E-22
  0.439999998      -4.83124116E-22
  0.448000014      -7.21463457E-22
  0.456000000      -7.44190830E-22
  0.463999987      -5.70315233E-22
  0.472000003      -2.69267358E-22
  0.479999989       1.09858171E-22
  0.488000005       5.58323386E-22
  0.495999992       1.04559487E-21
  0.504000008       1.42868026E-21
  0.512000024       1.44005097E-21
  0.519999981       8.22902184E-22
  0.527999997      -4.38035553E-22
  0.536000013      -1.95720546E-21
  0.544000030      -3.02982465E-21
  0.551999986      -2.97737684E-21
  0.560000002      -1.57533296E-21
  0.568000019       7.20160789E-22
  0.575999975       2.92820180E-21
  0.583999991       4.02219158E-21
  0.592000008       3.46033682E-21
  0.600000024       1.46558007E-21
  0.607999980      -1.09584801E-21
  0.615999997      -3.16146754E-21
  0.624000013      -3.99069086E-21
  0.632000029      -3.47568975E-21
  0.639999986      -2.08453614E-21
  0.648000002      -4.98906989E-22
  0.656000018       7.98882746E-22
  0.663999975       1.70907268E-21
  0.671999991       2.36626646E-21
  0.680000007       2.82101405E-21
  0.688000023       2.86204027E-21
  0.695999980       2.15153575E-21
  0.703999996       5.87295711E-22
  0.712000012      -1.43735061E-21
  0.720000029      -3.12640607E-21
  0.727999985      -3.71082553E-21
  0.736000001      -2.91563092E-21
  0.744000018      -1.12736266E-21
  0.751999974       8.65688132E-22
  0.759999990       2.36431423E-21
  0.768000007       3.14314961E-21
  0.776000023       3.46558506E-21
  0.783999979       3.72439848E-21
  0.791999996       3.99102004E-21
  0.800000012       3.85791302E-21
  0.808000028       2.74610938E-21
  0.815999985       4.76188603E-22
  0.824000001      -2.35914395E-21
  0.832000017      -4.57780653E-21
  0.839999974      -5.07016035E-21
  0.847999990      -3.48827759E-21
  0.856000006      -5.33425624E-22
  0.864000022       2.35330340E-21
  0.871999979       3.69417569E-21
  0.879999995       2.65027618E-21
  0.888000011      -6.66619878E-22
  0.896000028      -5.35691575E-21
  0.903999984      -1.01695289E-20
  0.912000000      -1.39035603E-20
  0.920000017      -1.55795058E-20
  0.927999973      -1.44606600E-20
  0.935999990      -1.01251213E-20
  0.944000006      -2.69074401E-21
  0.952000022       6.92002821E-21
  0.959999979       1.69232009E-20
  0.967999995       2.49892119E-20
  0.976000011       2.89029669E-20
  0.984000027       2.73173845E-20
  0.991999984       2.02537096E-20
   1.00000000       9.11294137E-21
   1.00800002      -3.79575977E-21
   1.01600003      -1.59502426E-20
   1.02400005      -2.51831842E-20
   1.03199995      -2.99196850E-20
   1.03999996      -2.91618518E-20
   1.04799998      -2.24653676E-20
   1.05599999      -1.01091722E-20
   1.06400001       6.59325068E-21
   1.07200003       2.51027764E-20
   1.08000004       4.18896347E-20
   1.08800006       5.31776063E-20
   1.09599996       5.59542965E-20
   1.10399997       4.87765078E-20
   1.11199999       3.20119317E-20
   1.12000000       7.53461937E-21
   1.12800002      -2.17847853E-20
   1.13600004      -5.24250690E-20
   1.14400005      -8.03293058E-20
   1.15199995      -1.01096173E-19
   1.15999997      -1.10579598E-19
   1.16799998      -1.05910874E-19
   1.17600000      -8.65605802E-20
   1.18400002      -5.48175694E-20
   1.19200003      -1.53224433E-20
   1.20000005       2.61924964E-20
   1.20799994       6.43853866E-20
   1.21599996       9.52880012E-20
   1.22399998       1.16513869E-19
   1.23199999       1.26893267E-19
   1.24000001       1.26084103E-19
   1.24800003       1.14612142E-19
   1.25600004       9.42575410E-20
   1.26400006       6.82493540E-20
   1.27199996       4.07601874E-20
   1.27999997       1.56360271E-20
   1.28799999      -5.06733953E-21
   1.29600000      -2.18681932E-20
   1.30400002      -3.73639938E-20
   1.31200004      -5.46801799E-20
   1.32000005      -7.56960733E-20
   1.32799995      -9.99834338E-20
   1.33599997      -1.24984638E-19
   1.34399998      -1.47079046E-19
   1.35200000      -1.62770611E-19
   1.36000001      -1.69282861E-19
   1.36800003      -1.64387115E-19
   1.37600005      -1.45962171E-19
   1.38399994      -1.11960576E-19
   1.39199996      -6.11810505E-20
   1.39999998       5.47055737E-21
   1.40799999       8.38909064E-20
   1.41600001       1.66707344E-19
   1.42400002       2.44400567E-19
   1.43200004       3.07110060E-19
   1.44000006       3.46335508E-19
   1.44799995       3.55880190E-19
   1.45599997       3.32142820E-19
   1.46399999       2.74227279E-19
   1.47200000       1.84338427E-19
   1.48000002       6.84328266E-20
   1.48800004      -6.34097206E-20
   1.49600005      -1.97590559E-19
   1.50399995      -3.18810168E-19
   1.51199996      -4.12573546E-19
   1.51999998      -4.67562652E-19
   1.52800000      -4.77006935E-19
   1.53600001      -4.38969810E-19
   1.54400003      -3.56070596E-19
   1.55200005      -2.35245048E-19
   1.55999994      -8.76867930E-20
   1.56799996       7.15697345E-20
   1.57599998       2.25046299E-19
   1.58399999       3.55285214E-19
   1.59200001       4.47710421E-19
   1.60000002       4.92787422E-19
   1.60800004       4.86788087E-19
   1.61600006       4.31238799E-19
   1.62399995       3.31847232E-19
   1.63199997       1.97775149E-19
   1.63999999       4.14948821E-20
   1.64800000      -1.21328190E-19
   1.65600002      -2.72803959E-19
   1.66400003      -3.95044141E-19
   1.67200005      -4.73149016E-19
   1.67999995      -4.97852662E-19
   1.68799996      -4.66839024E-19
   1.69599998      -3.84478047E-19
   1.70400000      -2.60508902E-19
   1.71200001      -1.08496628E-19
   1.72000003       5.54369015E-20
   1.72800004       2.13658814E-19
   1.73599994       3.48327333E-19
   1.74399996       4.43317471E-19
   1.75199997       4.86657031E-19
   1.75999999       4.72821970E-19
   1.76800001       4.04098124E-19
   1.77600002       2.90474553E-19
   1.78400004       1.48041729E-19
   1.79200006      -3.67386413E-21
   1.79999995      -1.44806290E-19
   1.80799997      -2.58024568E-19
   1.81599998      -3.30704069E-19
   1.82400000      -3.56183765E-19
   1.83200002      -3.34181071E-19
   1.84000003      -2.70584763E-19
   1.84800005      -1.76760690E-19
   1.85599995      -6.83207242E-20
   1.86399996       3.68214118E-20
   1.87199998       1.21162107E-19
   1.88000000       1.70743701E-19
   1.88800001       1.77936036E-19
   1.89600003       1.42960901E-19
   1.90400004       7.36255304E-20
   1.91199994      -1.65608926E-20
   1.91999996      -1.11121039E-19
   1.92799997      -1.93305828E-19
   1.93599999      -2.48255332E-19
   1.94400001      -2.64647519E-19
   1.95200002      -2.36121187E-19
   1.96000004      -1.62546393E-19
   1.96800005      -5.08128358E-20
   1.97599995       8.54423741E-20
   1.98399997       2.27514657E-19
   1.99199998       3.54516634E-19
   2.00000000       4.46785995E-19
   2.00799990       4.89006844E-19
   2.01600003       4.72519894E-19
   2.02399993       3.96634448E-19
   2.03200006       2.68921716E-19
   2.03999996       1.04416049E-19
   2.04800010      -7.63665355E-20
   2.05599999      -2.50465973E-19
   2.06399989      -3.96011167E-19
   2.07200003      -4.95378358E-19
   2.07999992      -5.37232146E-19
   2.08800006      -5.17229109E-19
   2.09599996      -4.37789010E-19
   2.10400009      -3.07548776E-19
   2.11199999      -1.40808422E-19
   2.11999989       4.33468587E-20
   2.12800002       2.22843439E-19
   2.13599992       3.75581693E-19
   2.14400005       4.83001099E-19
   2.15199995       5.33050851E-19
   2.16000009       5.21496999E-19
   2.16799998       4.51324063E-19
   2.17600012       3.30979649E-19
   2.18400002       1.72621259E-19
   2.19199991      -8.90192469E-21
   2.20000005      -1.96481361E-19
   2.20799994      -3.71419682E-19
   2.21600008      -5.15064326E-19
   2.22399998      -6.11383718E-19
   2.23200011      -6.49624536E-19
   2.24000001      -6.25927001E-19
   2.24799991      -5.43286953E-19
   2.25600004      -4.10157662E-19
   2.26399994      -2.38617050E-19
   2.27200007      -4.29766405E-20
   2.27999997       1.60931219E-19
   2.28800011       3.56224426E-19
   2.29600000       5.25843782E-19
   2.30399990       6.54144975E-19
   2.31200004       7.28895529E-19
   2.31999993       7.42993685E-19
   2.32800007       6.95292661E-19
   2.33599997       5.90409261E-19
   2.34400010       4.37888116E-19
   2.35200000       2.51229926E-19
   2.35999990       4.70084028E-20
   2.36800003      -1.56127536E-19
   2.37599993      -3.38940177E-19
   2.38400006      -4.83724934E-19
   2.39199996      -5.76743565E-19
   2.40000010      -6.10273900E-19
   2.40799999      -5.83606580E-19
   2.41599989      -5.02756499E-19
   2.42400002      -3.79205416E-19
   2.43199992      -2.28301125E-19
   2.44000006      -6.77620348E-20
   2.44799995       8.37150659E-20
   2.45600009       2.08113304E-19
   2.46399999       2.90284328E-19
   2.47199988       3.20395330E-19
   2.48000002       2.95806689E-19
   2.48799992       2.21522328E-19
   2.49600005       1.08978978E-19
   2.50399995      -2.61744196E-20
   2.51200008      -1.66231108E-19
   2.51999998      -2.92838403E-19
   2.52800012      -3.87902264E-19
   2.53600001      -4.34887157E-19
   2.54399991      -4.21219522E-19
   2.55200005      -3.41513174E-19
   2.55999994      -2.00254765E-19
   2.56800008      -1.23144769E-20
   2.57599998       1.99481649E-19
   2.58400011       4.08933641E-19
   2.59200001       5.91279662E-19
   2.59999990       7.26392222E-19
   2.60800004       7.99770018E-19
   2.61599994       8.02229278E-19
   2.62400007       7.29829416E-19
   2.63199997       5.84908200E-19
   2.64000010       3.77744848E-19
   2.64800000       1.27379778E-19
   2.65599990      -1.39776851E-19
   2.66400003      -3.93787189E-19
   2.67199993      -6.06385376E-19
   2.68000007      -7.55742451E-19
   2.68799996      -8.29332471E-19
   2.69600010      -8.24456758E-19
   2.70400000      -7.46993155E-19
   2.71199989      -6.09380959E-19
   2.72000003      -4.28632379E-19
   2.72799993      -2.24636095E-19
   2.73600006      -1.85804250E-20
   2.74399996       1.68801791E-19
   2.75200009       3.19290527E-19
   2.75999999       4.19355962E-19
   2.76799989       4.61993969E-19
   2.77600002       4.47653449E-19
   2.78399992       3.83853706E-19
   2.79200006       2.83490331E-19
   2.79999995       1.62319577E-19
   2.80800009       3.64162581E-20
   2.81599998      -7.96730608E-20
   2.82399988      -1.73831489E-19
   2.83200002      -2.36637684E-19
   2.83999991      -2.61571338E-19
   2.84800005      -2.45545334E-19
   2.85599995      -1.89655286E-19
   2.86400008      -9.96392685E-20
   2.87199998       1.44581219E-20
   2.88000011       1.39533892E-19
   2.88800001       2.61216477E-19
   2.89599991       3.65610108E-19
   2.90400004       4.40596719E-19
   2.91199994       4.76694002E-19
   2.92000008       4.67717335E-19
   2.92799997       4.11440412E-19
   2.93600011       3.10182493E-19
   2.94400001       1.71074806E-19
   2.95199990       5.79962662E-21
   2.96000004      -1.70230823E-19
   2.96799994      -3.39197120E-19
   2.97600007      -4.82678085E-19
   2.98399997      -5.83949032E-19
   2.99200010      -6.30588887E-19
   3.00000000      -6.16842231E-19
   3.00799990      -5.44928441E-19
   3.01600003      -4.24689803E-19
   3.02399993      -2.71612070E-19
   3.03200006      -1.03981107E-19
   3.03999996       5.97794834E-20
   3.04800010       2.02917240E-19
   3.05599999       3.11431097E-19
   3.06399989       3.75076596E-19
   3.07200003       3.88789234E-19
   3.07999992       3.54243949E-19
   3.08800006       2.80561259E-19
   3.09599996       1.83180723E-19
   3.10400009       8.07631104E-20
   3.11199999      -8.92974591E-21
   3.11999989      -7.26745958E-20
   3.12800002      -1.03780568E-19
   3.13599992      -1.02196588E-19
   3.14400005      -7.33379688E-20
   3.15199995      -2.64874977E-20
   3.16000009       2.67432161E-20
   3.16799998       7.39286081E-20
   3.17600012       1.03576080E-19
   3.18400002       1.07128368E-19
   3.19199991       8.08090124E-20
   3.20000005       2.66844475E-20
   3.20799994      -4.74901418E-20
   3.21600008      -1.29641342E-19
   3.22399998      -2.05594022E-19
   3.23200011      -2.61643535E-19
   3.24000001      -2.87044597E-19
   3.24799991      -2.76026784E-19
   3.25600004      -2.28954934E-19
   3.26399994      -1.52340794E-19
   3.27200007      -5.76639883E-20
   3.27999997       4.06873794E-20
   3.28800011       1.27816194E-19
   3.29600000       1.90588010E-19
   3.30399990       2.19561316E-19
   3.31200004       2.10578070E-19
   3.31999993       1.65942939E-19
   3.32800007       9.48893648E-20
   3.33599997       1.28871169E-20
   3.34400010      -6.04715815E-20
   3.35200000      -1.04774606E-19
   3.35999990      -1.02556935E-19
   3.36800003      -4.26000180E-20
   3.37599993       7.79415520E-20
   3.38400006       2.52811469E-19
   3.39199996       4.67162038E-19
   3.40000010       6.99078925E-19
   3.40799999       9.22044684E-19
   3.41599989       1.10830663E-18
   3.42400002       1.23285873E-18
   3.43199992       1.27732258E-18
   3.44000006       1.23280579E-18
   3.44799995       1.10107542E-18
   3.45600009       8.94008327E-19
   3.46399999       6.31829296E-19
   3.47199988       3.40768763E-19
   3.48000002       5.04443980E-20
   3.48799992      -2.09147125E-19
   3.49600005      -4.11194248E-19
   3.50399995      -5.35928613E-19
   3.51200008      -5.73906026E-19
   3.51999998      -5.27611260E-19
   3.52800012      -4.10704144E-19
   3.53600001      -2.45111710E-19
   3.54399991      -5.69849700E-20
   3.55200005       1.27231610E-19
   3.55999994       2.83787212E-19
   3.56800008       3.93551959E-19
   3.57599998       4.43265049E-19
   3.58400011       4.26477031E-19
   3.59200001       3.44156481E-19
   3.59999990       2.04547135E-19
   3.60800004       2.18905707E-20
   3.61599994      -1.85914077E-19
   3.62400007      -4.00076269E-19
   3.63199997      -6.03233869E-19
   3.64000010      -7.80756341E-19
   3.64800000      -9.21049172E-19
   3.65599990      -1.01536503E-18
   3.66400003      -1.05769196E-18
   3.67199993      -1.04496951E-18
   3.68000007      -9.77454411E-19
   3.68799996      -8.58882258E-19
   3.69600010      -6.96218741E-19
   3.70400000      -4.99117680E-19
   3.71199989      -2.79398217E-19
   3.72000003      -5.07419665E-20
   3.72799993       1.71523125E-19
   3.73600006       3.70946432E-19
   3.74399996       5.31130862E-19
   3.75200009       6.37549922E-19
   3.75999999       6.79606525E-19
   3.76799989       6.52387320E-19
   3.77600002       5.57747828E-19
   3.78399992       4.04661098E-19
   3.79200006       2.08901646E-19
   3.79999995      -7.95527706E-21
   3.80800009      -2.20404833E-19
   3.81599998      -4.01900228E-19
   3.82399988      -5.28547060E-19
   3.83200002      -5.82891534E-19
   3.83999991      -5.56807220E-19
   3.84800005      -4.52717655E-19
   3.85599995      -2.83017985E-19
   3.86400008      -6.81912769E-20
   3.87199998       1.65690493E-19
   3.88000011       3.89673154E-19
   3.88800001       5.74848081E-19
   3.89599991       6.95640852E-19
   3.90400004       7.33291684E-19
   3.91199994       6.78869817E-19
   3.92000008       5.34953419E-19
   3.92799997       3.15394739E-19
   3.93600011       4.32418585E-20
   3.94400001      -2.52513064E-19
   3.95199990      -5.40512589E-19
   3.96000004      -7.90363941E-19
   3.96799994      -9.75566785E-19
   3.97600007      -1.07610077E-18
   3.98399997      -1.08060952E-18
   3.99200010      -9.87854863E-19
   4.00000000      -8.07024289E-19
   4.00799990      -5.56679938E-19
   4.01599979      -2.62523242E-19
   4.02400017       4.55848379E-20
   4.03200006       3.36875560E-19
   4.03999996       5.82854155E-19
   4.04799986       7.60162284E-19
   4.05600023       8.52878581E-19
   4.06400013       8.54018849E-19
   4.07200003       7.66109144E-19
   4.07999992       6.00874130E-19
   4.08799982       3.78178110E-19
   4.09600019       1.24270975E-19
   4.10400009      -1.30726512E-19
   4.11199999      -3.56129326E-19
   4.11999989      -5.24526704E-19
   4.12799978      -6.15486741E-19
   4.13600016      -6.18305100E-19
   4.14400005      -5.33222802E-19
   4.15199995      -3.71102717E-19
   4.15999985      -1.52032824E-19
   4.16800022       9.66366998E-20
   4.17600012       3.42718428E-19
   4.18400002       5.52378340E-19
   4.19199991       6.94332356E-19
   4.19999981       7.44659730E-19
   4.20800018       6.91102526E-19
   4.21600008       5.35510525E-19
   4.22399998       2.93678999E-19
   4.23199987      -7.14015762E-21
   4.23999977      -3.32032159E-19
   4.24800014      -6.42507526E-19
   4.25600004      -9.00497146E-19
   4.26399994      -1.07243739E-18
   4.27199984      -1.13359023E-18
   4.28000021      -1.07210248E-18
   4.28800011      -8.91662236E-19
   4.29600000      -6.11625307E-19
   4.30399990      -2.64293408E-19
   4.31199980       1.09889161E-19
   4.32000017       4.67832003E-19
   4.32800007       7.68829793E-19
   4.33599997       9.78722169E-19
   4.34399986       1.07336197E-18
   4.35200024       1.04151914E-18
   4.36000013       8.86808651E-19
   4.36800003       6.27838615E-19
   4.37599993       2.96011545E-19
   4.38399982      -6.87565838E-20
   4.39200020      -4.23318493E-19
   4.40000010      -7.26262303E-19
   4.40799999      -9.41736235E-19
   4.41599989      -1.04208027E-18
   4.42399979      -1.00969564E-18
   4.43200016      -8.38456584E-19
   4.44000006      -5.34488440E-19
   4.44799995      -1.15785188E-19
   4.45599985       3.89679410E-19
   4.46400023       9.47085095E-19
   4.47200012       1.51831617E-18
   4.48000002       2.06502683E-18
   4.48799992       2.55077355E-18
   4.49599981       2.94240448E-18
   4.50400019       3.21122474E-18
   4.51200008       3.33435078E-18
   4.51999998       3.29626863E-18
   4.52799988       3.09028349E-18
   4.53599977       2.71944849E-18
   4.54400015       2.19672122E-18
   4.55200005       1.54431560E-18
   4.55999994       7.92375179E-19
   4.56799984      -2.28776961E-20
   4.57600021      -8.61396680E-19
   4.58400011      -1.68188483E-18
   4.59200001      -2.44457782E-18
   4.59999990      -3.11409099E-18
   4.60799980      -3.66216018E-18
   4.61600018      -4.07003136E-18
   4.62400007      -4.33017181E-18
   4.63199997      -4.44688244E-18
   4.63999987      -4.43548058E-18
   4.64799976      -4.31998425E-18
   4.65600014      -4.12965040E-18
   4.66400003      -3.89504503E-18
   4.67199993      -3.64437249E-18
   4.67999983      -3.40053702E-18
   4.68800020      -3.17905320E-18
   4.69600010      -2.98671241E-18
   4.70400000      -2.82099029E-18
   4.71199989      -2.67039110E-18
   4.71999979      -2.51601397E-18
   4.72800016      -2.33442549E-18
   4.73600006      -2.10151935E-18
   4.74399996      -1.79665552E-18
   4.75199986      -1.40627756E-18
   4.76000023      -9.26410440E-19
   4.76800013      -3.63800211E-19
   4.77600002       2.64243958E-19
   4.78399992       9.31135709E-19
   4.79199982       1.60326649E-18
   4.80000019       2.24306898E-18
   4.80800009       2.81261426E-18
   4.81599998       3.27732123E-18
   4.82399988       3.60929424E-18
   4.83199978       3.78991988E-18
   4.84000015       3.81153990E-18
   4.84800005       3.67815289E-18
   4.85599995       3.40511608E-18
   4.86399984       3.01776767E-18
   4.87200022       2.54900090E-18
   4.88000011       2.03603994E-18
   4.88800001       1.51691710E-18
   4.89599991       1.02720653E-18
   4.90399981       5.97361249E-19
   4.91200018       2.50717280E-19
   4.92000008       2.08608892E-21
   4.92799997      -1.43057811E-19
   4.93599987      -1.88614796E-19
   4.94399977      -1.46900310E-19
   4.95200014      -3.66686031E-20
   4.96000004       1.19546313E-19
   4.96799994       2.98171676E-19
   4.97599983       4.76844549E-19
   4.98400021       6.35912777E-19
   4.99200010       7.59335414E-19
   5.00000000       8.35338423E-19
   5.00799990       8.57052328E-19
   5.01599979       8.23046260E-19
   5.02400017       7.37444699E-19
   5.03200006       6.09352886E-19
   5.03999996       4.51590156E-19
   5.04799986       2.79020299E-19
   5.05600023       1.06894683E-19
   5.06400013      -5.04825743E-20
   5.07200003      -1.80694038E-19
   5.07999992      -2.73904962E-19
   5.08799982      -3.23543787E-19
   5.09600019      -3.27072798E-19
   5.10400009      -2.86716646E-19
   5.11199999      -2.09818925E-19
   5.11999989      -1.08486586E-19
   5.12799978       1.62295663E-21
   5.13600016       1.03209354E-19
   5.14400005       1.79531849E-19
   5.15199995       2.16450341E-19
   5.15999985       2.04022948E-19
   5.16800022       1.37654939E-19
   5.17600012       1.89727509E-20
   5.18400002      -1.43476817E-19
   5.19199991      -3.33902569E-19
   5.19999981      -5.29788451E-19
   5.20800018      -7.03709017E-19
   5.21600008      -8.26505168E-19
   5.22399998      -8.71346267E-19
   5.23199987      -8.17826544E-19
   5.23999977      -6.55244143E-19
   5.24800014      -3.84550554E-19
   5.25600004      -1.88964193E-20
   5.26399994       4.17024347E-19
   5.27199984       8.88615937E-19
   5.28000021       1.35395497E-18
   5.28800011       1.76736526E-18
   5.29600000       2.08395582E-18
   5.30399990       2.26476448E-18
   5.31199980       2.28178041E-18
   5.32000017       2.12193830E-18
   5.32800007       1.78930892E-18
   5.33599997       1.30512268E-18
   5.34399986       7.05736643E-19
   5.35200024       3.90085678E-20
   5.36000013      -6.40359028E-19
   5.36800003      -1.27600023E-18
   5.37599993      -1.81519926E-18
   5.38399982      -2.21394498E-18
   5.39200020      -2.44124367E-18
   5.40000010      -2.48211507E-18
   5.40799999      -2.33876302E-18
   5.41599989      -2.02968988E-18
   5.42399979      -1.58693525E-18
   5.43200016      -1.05197129E-18
   5.44000006      -4.70912113E-19
   5.44799995       1.10391906E-19
   5.45599985       6.50930086E-19
   5.46400023       1.11834447E-18
   5.47200012       1.49146920E-18
   5.48000002       1.76110702E-18
   5.48799992       1.92888407E-18
   5.49599981       2.00457006E-18
   5.50400019       2.00271924E-18
   5.51200008       1.93954187E-18
   5.51999998       1.83049486E-18
   5.52799988       1.68850569E-18
   5.53599977       1.52248961E-18
   5.54400015       1.33605789E-18
   5.55200005       1.12683392E-18
   5.55999994       8.87053600E-19
   5.56799984       6.05808521E-19
   5.57600021       2.72508811E-19
   5.58400011      -1.19532122E-19
   5.59200001      -5.70549740E-19
   5.59999990      -1.07333002E-18
   5.60799980      -1.61339831E-18
   5.61600018      -2.16958721E-18
   5.62400007      -2.71444860E-18
   5.63199997      -3.21468173E-18
   5.63999987      -3.63226505E-18
   5.64799976      -3.92684061E-18
   5.65600014      -4.05923624E-18
   5.66400003      -3.99534192E-18
   5.67199993      -3.70942694E-18
   5.67999983      -3.18645378E-18
   5.68800020      -2.42359308E-18
   5.69600010      -1.43140669E-18
   5.70400000      -2.34851853E-19
   5.71199989       1.12629233E-18
   5.71999979       2.59823055E-18
   5.72800016       4.11553457E-18
   5.73600006       5.60481784E-18
   5.74399996       6.98900533E-18
   5.75199986       8.19160517E-18
   5.76000023       9.14087268E-18
   5.76800013       9.77412163E-18
   5.77600002       1.00423019E-17
   5.78399992       9.91444124E-18
   5.79199982       9.38105533E-18
   5.80000019       8.45561062E-18
   5.80800009       7.17369491E-18
   5.81599998       5.59028841E-18
   5.82399988       3.77591571E-18
   5.83199978       1.81235975E-18
   5.84000015      -2.11943241E-19
   5.84800005      -2.20700721E-18
   5.85599995      -4.08699766E-18
   5.86399984      -5.77607566E-18
   5.87200022      -7.21346906E-18
   5.88000011      -8.35678487E-18
   5.88800001      -9.18308785E-18
   5.89599991      -9.68793272E-18
   5.90399981      -9.88310764E-18
   5.91200018      -9.79380439E-18
   5.92000008      -9.45563724E-18
   5.92799997      -8.91151370E-18
   5.93599987      -8.20827121E-18
   5.94399977      -7.39312773E-18
   5.95200014      -6.51035189E-18
   5.96000004      -5.59866651E-18
   5.96799994      -4.68980884E-18
   5.97599983      -3.80831472E-18
   5.98400021      -2.97223386E-18
   5.99200010      -2.19428393E-18
   6.00000000      -1.48300673E-18
   6.00799990      -8.43718796E-19
   6.01599979      -2.79302083E-19
   6.02400017       2.09038855E-19
   6.03200006       6.21029988E-19
   6.03999996       9.56773345E-19
   6.04799986       1.21663379E-18
   6.05600023       1.40166292E-18
   6.06400013       1.51435925E-18
   6.07200003       1.55933110E-18
   6.07999992       1.54347653E-18
   6.08799982       1.47559064E-18
   6.09600019       1.36566278E-18
   6.10400009       1.22427901E-18
   6.11199999       1.06237494E-18
   6.11999989       8.91230758E-19
   6.12799978       7.22348653E-19
   6.13600016       5.66935892E-19
   6.14400005       4.35067844E-19
   6.15199995       3.34914108E-19
   6.15999985       2.72392359E-19
   6.16800022       2.51258153E-19
   6.17600012       2.73255729E-19
   6.18400002       3.37921788E-19
   6.19199991       4.41993155E-19
   6.19999981       5.78843829E-19
   6.20800018       7.38537974E-19
   6.21600008       9.08767194E-19
   6.22399998       1.07637715E-18
   6.23199987       1.22882995E-18
   6.23999977       1.35509400E-18
   6.24800014       1.44598729E-18
   6.25600004       1.49448831E-18
   6.26399994       1.49654416E-18
   6.27199984       1.45239856E-18
   6.28000021       1.36782793E-18
   6.28800011       1.25442850E-18
   6.29600000       1.12847443E-18
   6.30399990       1.00860066E-18
   6.31199980       9.13114028E-19
   6.32000017       8.57734390E-19
   6.32800007       8.54087764E-19
   6.33599997       9.08744860E-19
   6.34399986       1.02242336E-18
   6.35200024       1.18923426E-18
   6.36000013       1.39627022E-18
   6.36800003       1.62405901E-18
   6.37599993       1.84823065E-18
   6.38399982       2.04230335E-18
   6.39200020       2.18105669E-18
   6.40000010       2.24376691E-18
   6.40799999       2.21671314E-18
   6.41599989       2.09467153E-18
   6.42399979       1.88141362E-18
   6.43200016       1.58933873E-18
   6.44000006       1.23832660E-18
   6.44799995       8.53814381E-19
   6.45599985       4.64118686E-19
   6.46400023       9.71957641E-20
   6.47200012      -2.22719000E-19
   6.48000002      -4.77984663E-19
   6.48799992      -6.59379426E-19
   6.49599981      -7.66565283E-19
   6.50400019      -8.07246232E-19
   6.51200008      -7.95374743E-19
   6.51999998      -7.48847229E-19
   6.52799988      -6.87025921E-19
   6.53599977      -6.28244502E-19
   6.54400015      -5.87391913E-19
   6.55200005      -5.73792495E-19
   6.55999994      -5.89782362E-19
   6.56799984      -6.30432085E-19
   6.57600021      -6.84638730E-19
   6.58400011      -7.37395689E-19
   6.59200001      -7.72661759E-19
   6.59999990      -7.76134263E-19
   6.60799980      -7.37428156E-19