 -0.239999995       0.00000000    
 -0.231999993      -3.63893657E-19
 -0.224000007      -9.70455429E-19
 -0.216000006      -1.67960543E-18
 -0.208000004      -2.49554931E-18
 -0.200000003      -3.47745571E-18
 -0.192000002      -4.67078617E-18
 -0.184000000      -6.21903584E-18
 -0.175999999      -8.40327325E-18
 -0.167999998      -1.14649003E-17
 -0.159999996      -1.54867881E-17
 -0.151999995      -2.05242270E-17
 -0.143999994      -2.67315856E-17
 -0.136000007      -3.42493339E-17
 -0.128000006      -4.30570438E-17
 -0.119999997      -5.30447071E-17
 -0.112000003      -6.41384663E-17
 -0.104000002      -7.62116041E-17
  -9.60000008E-02  -8.88977886E-17
  -8.79999995E-02  -1.01591239E-16
  -7.99999982E-02  -1.13582235E-16
  -7.19999969E-02  -1.24064082E-16
  -6.40000030E-02  -1.32025080E-16
  -5.60000017E-02  -1.36283300E-16
  -4.80000004E-02  -1.35703215E-16
  -3.99999991E-02  -1.29352387E-16
  -3.20000015E-02  -1.16497934E-16
  -2.40000002E-02  -9.66296311E-17
  -1.60000008E-02  -6.96251289E-17
  -8.00000038E-03  -3.58989735E-17
   1.38777878E-17   3.62069775E-18
   8.00000038E-03   4.75821949E-17
   1.60000008E-02   9.42069184E-17
   2.40000002E-02   1.41275222E-16
   3.20000015E-02   1.86280611E-16
   3.99999991E-02   2.26714271E-16
   4.80000004E-02   2.60270884E-16
   5.60000017E-02   2.84943419E-16
   6.40000030E-02   2.99166187E-16
   7.19999969E-02   3.02044379E-16
   7.99999982E-02   2.93486619E-16
   8.79999995E-02   2.74136337E-16
   9.60000008E-02   2.45245790E-16
  0.104000002       2.08622164E-16
  0.112000003       1.66537120E-16
  0.119999997       1.21482776E-16
  0.128000006       7.58880177E-17
  0.136000007       3.19701733E-17
  0.143999994      -8.32789228E-18
  0.151999995      -4.34670673E-17
  0.159999996      -7.24624179E-17
  0.167999998      -9.48836778E-17
  0.175999999      -1.10724478E-16
  0.184000000      -1.20317589E-16
  0.192000002      -1.24327456E-16
  0.200000003      -1.23671813E-16
  0.208000004      -1.19339822E-16
  0.216000006      -1.12265932E-16
  0.224000007      -1.03331627E-16
  0.231999993      -9.33647956E-17
  0.239999995      -8.30503695E-17
  0.247999996      -7.28624160E-17
  0.256000012      -6.31138609E-17
  0.263999999      -5.40348853E-17
  0.272000015      -4.57693525E-17
  0.280000001      -3.83457936E-17
  0.287999988      -3.17240242E-17
  0.296000004      -2.58730383E-17
  0.303999990      -2.07742358E-17
  0.312000006      -1.63736779E-17
  0.319999993      -1.25865506E-17
  0.328000009      -9.35114199E-18
  0.335999995      -6.63997027E-18
  0.344000012      -4.41568657E-18
  0.351999998      -2.61379892E-18
  0.360000014      -1.17804695E-18
  0.368000001      -8.13807041E-20
  0.375999987       7.01593089E-19
  0.384000003       1.21703042E-18
  0.391999990       1.51050893E-18
  0.400000006       1.60383176E-18
  0.407999992       1.51340179E-18
  0.416000009       1.28043971E-18
  0.423999995       9.64889744E-19
  0.432000011       6.15220078E-19
  0.439999998       2.59687615E-19
  0.448000014      -7.68735649E-20
  0.456000000      -3.65891505E-19
  0.463999987      -5.88880114E-19
  0.472000003      -7.45284407E-19
  0.479999989      -8.38935159E-19
  0.488000005      -8.65050078E-19
  0.495999992      -8.18667115E-19
  0.504000008      -7.09329968E-19
  0.512000024      -5.56934709E-19
  0.519999981      -3.75707244E-19
  0.527999997      -1.72522889E-19
  0.536000013       3.97737034E-20
  0.544000030       2.39213008E-19
  0.551999986       4.08580409E-19
  0.560000002       5.43234272E-19
  0.568000019       6.40279929E-19
  0.575999975       6.88799345E-19
  0.583999991       6.78824270E-19
  0.592000008       6.14500276E-19
  0.600000024       5.09716552E-19
  0.607999980       3.73458165E-19
  0.615999997       2.08243779E-19
  0.624000013       2.28109352E-20
  0.632000029      -1.62915367E-19
  0.639999986      -3.29777420E-19
  0.648000002      -4.69930663E-19
  0.656000018      -5.79511415E-19
  0.663999975      -6.46368495E-19
  0.671999991      -6.55573826E-19
  0.680000007      -6.06416085E-19
  0.688000023      -5.12532998E-19
  0.695999980      -3.82886396E-19
  0.703999996      -2.15910296E-19
  0.712000012      -1.91121050E-20
  0.720000029       1.79810583E-19
  0.727999985       3.53281240E-19
  0.736000001       4.92979793E-19
  0.744000018       5.95118659E-19
  0.751999974       6.41020204E-19
  0.759999990       6.13581072E-19
  0.768000007       5.24015041E-19
  0.776000023       3.99803584E-19
  0.783999979       2.52919494E-19
  0.791999996       8.37769946E-20
  0.800000012      -8.98208221E-20
  0.808000028      -2.36848434E-19
  0.815999985      -3.46435648E-19
  0.824000001      -4.29812688E-19
  0.832000017      -4.86823036E-19
  0.839999974      -4.98408424E-19
  0.847999990      -4.58032394E-19
  0.856000006      -3.83383195E-19
  0.864000022      -2.88214256E-19
  0.871999979      -1.68500801E-19
  0.879999995      -2.80652398E-20
  0.888000011       1.06432147E-19
  0.896000028       2.11344840E-19
  0.903999984       2.87573140E-19
  0.912000000       3.42129475E-19
  0.920000017       3.66994705E-19
  0.927999973       3.53297111E-19
  0.935999990       3.11374926E-19
  0.944000006       2.58378395E-19
  0.952000022       1.96414721E-19
  0.959999979       1.19964919E-19
  0.967999995       3.62456424E-20
  0.976000011      -3.97964703E-20
  0.984000027      -1.05770047E-19
  0.991999984      -1.69662421E-19
   1.00000000      -2.29009786E-19
   1.00800002      -2.68641431E-19
   1.01600003      -2.80699760E-19
   1.02400005      -2.72080590E-19
   1.03199995      -2.48383339E-19
   1.03999996      -2.04771171E-19
   1.04799998      -1.39615421E-19
   1.05599999      -6.47389352E-20
   1.06400001       7.34248486E-21
   1.07200003       7.64568016E-20
   1.08000004       1.44743812E-19
   1.08800006       2.02546844E-19
   1.09599996       2.36967781E-19
   1.10399997       2.48253445E-19
   1.11199999       2.44567141E-19
   1.12000000       2.25305697E-19
   1.12800002       1.83749798E-19
   1.13600004       1.23379636E-19
   1.14400005       5.69935197E-20
   1.15199995      -9.35546604E-21
   1.15999997      -7.73878257E-20
   1.16799998      -1.41818436E-19
   1.17600000      -1.89200582E-19
   1.18400002      -2.13442932E-19
   1.19200003      -2.19445769E-19
   1.20000005      -2.09499194E-19
   1.20799994      -1.79298997E-19
   1.21599996      -1.30337117E-19
   1.22399998      -7.36296469E-20
   1.23199999      -1.74071177E-20
   1.24000001       3.76778669E-20
   1.24800003       8.81201775E-20
   1.25600004       1.24274659E-19
   1.26400006       1.42010885E-19
   1.27199996       1.47375668E-19
   1.27999997       1.45249516E-19
   1.28799999       1.32693173E-19
   1.29600000       1.07615041E-19
   1.30400002       7.49897386E-20
   1.31200004       4.00935703E-20
   1.32000005       3.73877680E-21
   1.32799995      -3.16111175E-20
   1.33599997      -5.88652485E-20
   1.34399998      -7.40686407E-20
   1.35200000      -8.05642122E-20
   1.36000001      -8.15464956E-20
   1.36800003      -7.50317310E-20
   1.37600005      -6.02295536E-20
   1.38399994      -4.24180092E-20
   1.39199996      -2.66626032E-20
   1.39999998      -1.21256608E-20
   1.40799999       2.64270150E-21
   1.41600001       1.39211815E-20
   1.42400002       1.78187661E-20
   1.43200004       1.69947795E-20
   1.44000006       1.66625631E-20
   1.44799995       1.68372759E-20
   1.45599997       1.40663533E-20
   1.46399999       8.39628631E-21
   1.47200000       2.79402608E-21
   1.48000002      -2.51014641E-21
   1.48800004      -8.69894717E-21
   1.49600005      -1.22483994E-20
   1.50399995      -7.12903511E-21
   1.51199996       5.99142750E-21
   1.51999998       1.92183912E-20
   1.52800000       2.78591813E-20
   1.53600001       3.51325449E-20
   1.54400003       4.40087357E-20
   1.55200005       5.08990242E-20
   1.55999994       5.15101006E-20
   1.56799996       4.70845260E-20
   1.57599998       3.97078844E-20
   1.58399999       2.65711254E-20
   1.59200001       4.95970266E-21
   1.60000002      -2.10660203E-20
   1.60800004      -4.52071524E-20
   1.61600006      -6.68152749E-20
   1.62399995      -8.79843002E-20
   1.63199997      -1.05887461E-19
   1.63999999      -1.14916855E-19
   1.64800000      -1.14184503E-19
   1.65600002      -1.05965061E-19
   1.66400003      -8.86770962E-20
   1.67200005      -5.90192139E-20
   1.67999995      -2.02177854E-20
   1.68799996       1.93531247E-20
   1.69599998       5.58070196E-20
   1.70400000       9.10455341E-20
   1.71200001       1.24252583E-19
   1.72000003       1.49253445E-19
   1.72800004       1.61571780E-19
   1.73599994       1.61685905E-19
   1.74399996       1.49919972E-19
   1.75199997       1.24519026E-19
   1.75999999       8.69700152E-20
   1.76800001       4.35360957E-20
   1.77600002      -1.07493524E-21
   1.78400004      -4.68087873E-20
   1.79200006      -9.28729182E-20
   1.79999995      -1.34080975E-19
   1.80799997      -1.65257439E-19
   1.81599998      -1.85034991E-19
   1.82400000      -1.92428008E-19
   1.83200002      -1.83582733E-19
   1.84000003      -1.55528295E-19
   1.84800005      -1.10648616E-19
   1.85599995      -5.44631871E-20
   1.86399996       8.88578013E-21
   1.87199998       7.61581248E-20
   1.88000000       1.41881159E-19
   1.88800001       1.98745665E-19
   1.89600003       2.40638369E-19
   1.90400004       2.63592398E-19
   1.91199994       2.64832368E-19
   1.91999996       2.42965435E-19
   1.92799997       1.98725838E-19
   1.93599999       1.34114127E-19
   1.94400001       5.14340162E-20
   1.95200002      -4.52784127E-20
   1.96000004      -1.48267834E-19
   1.96800005      -2.46996596E-19
   1.97599995      -3.31107164E-19
   1.98399997      -3.91857454E-19
   1.99199998      -4.21986009E-19
   2.00000000      -4.16713818E-19
   2.00799990      -3.75504920E-19
   2.01600003      -3.01629394E-19
   2.02399993      -2.00052998E-19
   2.03200006      -7.72594641E-20
   2.03999996       5.72073976E-20
   2.04800010       1.91590346E-19
   2.05599999       3.15221006E-19
   2.06399989       4.19511549E-19
   2.07200003       4.96050442E-19
   2.07999992       5.37037655E-19
   2.08800006       5.38904447E-19
   2.09599996       5.02875458E-19
   2.10400009       4.31033012E-19
   2.11199999       3.25264271E-19
   2.11999989       1.91832865E-19
   2.12800002       4.32607641E-20
   2.13599992      -1.07108270E-19
   2.14400005      -2.49583061E-19
   2.15199995      -3.75312627E-19
   2.16000009      -4.73637156E-19
   2.16799998      -5.36434899E-19
   2.17600012      -5.62074086E-19
   2.18400002      -5.51386034E-19
   2.19199991      -5.03294166E-19
   2.20000005      -4.18907165E-19
   2.20799994      -3.06596407E-19
   2.21600008      -1.77771298E-19
   2.22399998      -4.01427100E-20
   2.23200011       9.98563647E-20
   2.24000001       2.31083063E-19
   2.24799991       3.40703080E-19
   2.25600004       4.21924875E-19
   2.26399994       4.73146690E-19
   2.27200007       4.91159375E-19
   2.27999997       4.71845328E-19
   2.28800011       4.17171352E-19
   2.29600000       3.35171516E-19
   2.30399990       2.32915914E-19
   2.31200004       1.15657414E-19
   2.31999993      -6.81695860E-21
   2.32800007      -1.20046525E-19
   2.33599997      -2.13479845E-19
   2.34400010      -2.84002460E-19
   2.35200000      -3.29399295E-19
   2.35999990      -3.44591010E-19
   2.36800003      -3.27752301E-19
   2.37599993      -2.84963230E-19
   2.38400006      -2.24667424E-19
   2.39199996      -1.51607912E-19
   2.40000010      -7.02769740E-20
   2.40799999       9.89646640E-21
   2.41599989       7.85087782E-20
   2.42400002       1.31232928E-19
   2.43199992       1.68106223E-19
   2.44000006       1.86962658E-19
   2.44799995       1.84228102E-19
   2.45600009       1.61339355E-19
   2.46399999       1.24691622E-19
   2.47199988       7.90956047E-20
   2.48000002       2.66770239E-20
   2.48799992      -2.71479869E-20
   2.49600005      -7.25706102E-20
   2.50399995      -1.02772622E-19
   2.51200008      -1.18067638E-19
   2.51999998      -1.20610972E-19
   2.52800012      -1.09811083E-19
   2.53600001      -8.61961231E-20
   2.54399991      -5.53374976E-20
   2.55200005      -2.33319540E-20
   2.55999994       8.81140334E-21
   2.56800008       4.21357080E-20
   2.57599998       7.37330510E-20
   2.58400011       9.84346286E-20
   2.59200001       1.14688825E-19
   2.59999990       1.24022860E-19
   2.60800004       1.25805033E-19
   2.61599994       1.17360941E-19
   2.62400007       9.89393574E-20
   2.63199997       7.40445362E-20
   2.64000010       4.47792577E-20
   2.64800000       1.11888949E-20
   2.65599990      -2.44321123E-20
   2.66400003      -5.69860169E-20
   2.67199993      -8.33559985E-20
   2.68000007      -1.03994342E-19
   2.68799996      -1.18937276E-19
   2.69600010      -1.26307765E-19
   2.70400000      -1.26113559E-19
   2.71199989      -1.21479357E-19
   2.72000003      -1.14021173E-19
   2.72799993      -1.01383683E-19
   2.73600006      -8.15394387E-20
   2.74399996      -5.65598444E-20
   2.75200009      -2.99804020E-20
   2.75999999      -3.21559738E-21
   2.76799989       2.31925546E-20
   2.77600002       4.73675930E-20
   2.78399992       6.76213818E-20
   2.79200006       8.42644172E-20
   2.79999995       9.79026739E-20
   2.80800009       1.07812330E-19
   2.81599998       1.13786900E-19
   2.82399988       1.17581708E-19
   2.83200002       1.20468633E-19
   2.83999991       1.20850454E-19
   2.84800005       1.15987459E-19
   2.85599995       1.04735334E-19
   2.86400008       8.72879627E-20
   2.87199998       6.38244353E-20
   2.88000011       3.48963428E-20
   2.88800001       1.93310817E-21
   2.89599991      -3.37700492E-20
   2.90400004      -7.14180632E-20
   2.91199994      -1.09282282E-19
   2.92000008      -1.44143447E-19
   2.92799997      -1.72771289E-19
   2.93600011      -1.92724436E-19
   2.94400001      -2.01498044E-19
   2.95199990      -1.96770357E-19
   2.96000004      -1.78279252E-19
   2.96799994      -1.47990069E-19
   2.97600007      -1.07831420E-19
   2.98399997      -5.88999384E-20
   2.99200010      -3.65708948E-21
   3.00000000       5.27265085E-20
   3.00799990       1.04436780E-19
   3.01600003       1.47528063E-19
   3.02399993       1.79804974E-19
   3.03200006       1.99720071E-19
   3.03999996       2.06751726E-19
   3.04800010       2.01890864E-19
   3.05599999       1.86188339E-19
   3.06399989       1.59358284E-19
   3.07200003       1.21469987E-19
   3.07999992       7.58429044E-20
   3.08800006       2.83903767E-20
   3.09599996      -1.63399400E-20
   3.10400009      -5.68640078E-20
   3.11199999      -9.21965042E-20
   3.11999989      -1.19984370E-19
   3.12800002      -1.38581898E-19
   3.13599992      -1.48767179E-19
   3.14400005      -1.51339026E-19
   3.15199995      -1.44975590E-19
   3.16000009      -1.28989459E-19
   3.16799998      -1.06347503E-19
   3.17600012      -8.08858303E-20
   3.18400002      -5.31029080E-20
   3.19199991      -2.21529162E-20
   3.20000005       9.45612035E-21
   3.20799994       3.72273475E-20
   3.21600008       5.97588491E-20
   3.22399998       7.81384210E-20
   3.23200011       9.09438942E-20
   3.24000001       9.46976528E-20
   3.24799991       8.94475310E-20
   3.25600004       7.91410996E-20
   3.26399994       6.58097916E-20
   3.27200007       4.80393833E-20
   3.27999997       2.62840178E-20
   3.28800011       5.07331357E-21
   3.29600000      -1.18583894E-20
   3.30399990      -2.46960572E-20
   3.31200004      -3.40348794E-20
   3.31999993      -3.81080719E-20
   3.32800007      -3.57998308E-20
   3.33599997      -2.91854426E-20
   3.34400010      -2.06668992E-20
   3.35200000      -1.02536630E-20
   3.35999990       2.04879915E-21
   3.36800003       1.36862025E-20
   3.37599993       2.19823458E-20
   3.38400006       2.72248372E-20
   3.39199996       3.08704225E-20
   3.40000010       3.22629843E-20
   3.40799999       2.96819093E-20
   3.41599989       2.34758317E-20
   3.42400002       1.54844156E-20
   3.43199992       5.95332267E-21
   3.44000006      -6.37515126E-21
   3.44799995      -2.12042483E-20
   3.45600009      -3.61750251E-20
   3.46399999      -4.97347513E-20
   3.47199988      -6.21839617E-20
   3.48000002      -7.31508386E-20
   3.48799992      -8.03029330E-20
   3.49600005      -8.18733548E-20
   3.50399995      -7.85449351E-20
   3.51200008      -7.11884883E-20
   3.51999998      -5.84055299E-20
   3.52800012      -3.83849771E-20
   3.53600001      -1.20325763E-20
   3.54399991       1.78744845E-20
   3.55200005       4.96626800E-20
   3.55999994       8.24442774E-20
   3.56800008       1.13362040E-19
   3.57599998       1.37842670E-19
   3.58400011       1.52895018E-19
   3.59200001       1.58045496E-19
   3.59999990       1.52810671E-19
   3.60800004       1.35659585E-19
   3.61599994       1.06433976E-19
   3.62400007       6.79436720E-20
   3.63199997       2.40615790E-20
   3.64000010      -2.22937437E-20
   3.64800000      -6.82321319E-20
   3.65599990      -1.09495203E-19
   3.66400003      -1.41776456E-19
   3.67199993      -1.63044162E-19
   3.68000007      -1.73414965E-19
   3.68799996      -1.73140651E-19
   3.69600010      -1.61949246E-19
   3.70400000      -1.40353551E-19
   3.71199989      -1.10511614E-19
   3.72000003      -7.53953932E-20
   3.72799993      -3.76874602E-20
   3.73600006       2.96802087E-22
   3.74399996       3.62812403E-20
   3.75200009       6.81955550E-20
   3.75999999       9.45017014E-20
   3.76799989       1.14127583E-19
   3.77600002       1.26348879E-19
   3.78399992       1.31029118E-19
   3.79200006       1.28818246E-19
   3.79999995       1.20871340E-19
   3.80800009       1.08356957E-19
   3.81599998       9.21618272E-20
   3.82399988       7.28511472E-20
   3.83200002       5.08881416E-20
   3.83999991       2.69604916E-20
   3.84800005       1.91525189E-21
   3.85599995      -2.35967245E-20
   3.86400008      -4.87874744E-20
   3.87199998      -7.18603851E-20
   3.88000011      -9.04361863E-20
   3.88800001      -1.03390158E-19
   3.89599991      -1.11145454E-19
   3.90400004      -1.13410507E-19
   3.91199994      -1.08215096E-19
   3.92000008      -9.46510592E-20
   3.92799997      -7.50764246E-20
   3.93600011      -5.27124755E-20
   3.94400001      -2.84512552E-20
   3.95199990      -2.21331459E-21
   3.96000004       2.40329814E-20
   3.96799994       4.73855584E-20
   3.97600007       6.69659251E-20
   3.98399997       8.27556721E-20
   3.99200010       9.25282618E-20
   4.00000000       9.34120202E-20
   4.00799990       8.60390169E-20
   4.01599979       7.37699639E-20
   4.02400017       5.81247215E-20
   4.03200006       3.84368859E-20
   4.03999996       1.58359318E-20
   4.04799986      -6.22419968E-21
   4.05600023      -2.58202069E-20
   4.06400013      -4.34090879E-20
   4.07200003      -5.81777580E-20
   4.07999992      -6.69967118E-20
   4.08799982      -6.81560571E-20
   4.09600019      -6.32343906E-20
   4.10400009      -5.41056221E-20
   4.11199999      -4.07656190E-20
   4.11999989      -2.33957002E-20
   4.12799978      -4.13341587E-21
   4.13600016       1.47388382E-20
   4.14400005       3.24596044E-20
   4.15199995       4.82220157E-20
   4.15999985       5.96142605E-20
   4.16800022       6.42620204E-20
   4.17600012       6.20540168E-20
   4.18400002       5.44613970E-20
   4.19199991       4.24708615E-20
   4.19999981       2.64798447E-20
   4.20800018       7.69153731E-21
   4.21600008      -1.18416527E-20
   4.22399998      -3.06808430E-20
   4.23199987      -4.83417275E-20
   4.23999977      -6.37269508E-20
   4.24800014      -7.43146300E-20
   4.25600004      -7.79625159E-20
   4.26399994      -7.48741143E-20
   4.27199984      -6.65113959E-20
   4.28000021      -5.31041100E-20
   4.28800011      -3.40728942E-20
   4.29600000      -1.08436003E-20
   4.30399990       1.30255461E-20
   4.31199980       3.51567238E-20
   4.32000017       5.55897619E-20
   4.32800007       7.37653304E-20
   4.33599997       8.67138800E-20
   4.34399986       9.19568415E-20
   4.35200024       9.01719473E-20
   4.36000013       8.30707116E-20
   4.36800003       7.05389706E-20
   4.37599993       5.20893048E-20
   4.38399982       2.94696115E-20
   4.39200020       5.32333820E-21
   4.40000010      -1.95238083E-20
   4.40799999      -4.49857943E-20
   4.41599989      -6.88770419E-20
   4.42399979      -8.76070606E-20
   4.43200016      -9.92083268E-20
   4.44000006      -1.03611894E-19
   4.44799995      -1.00466546E-19
   4.45599985      -8.88711606E-20
   4.46400023      -6.92375570E-20
   4.47200012      -4.37282892E-20
   4.48000002      -1.48075055E-20
   4.48799992       1.53719545E-20
   4.49599981       4.43053413E-20
   4.50400019       6.91831440E-20
   4.51200008       8.78613217E-20
   4.51999998       9.92055415E-20
   4.52799988       1.02648720E-19
   4.53599977       9.79873888E-20
   4.54400015       8.54922312E-20
   4.55200005       6.59049755E-20
   4.55999994       4.05398956E-20
   4.56799984       1.14865644E-20
   4.57600021      -1.86340027E-20
   4.58400011      -4.71382798E-20
   4.59200001      -7.13104199E-20
   4.59999990      -8.85088490E-20
   4.60799980      -9.70195940E-20
   4.61600018      -9.65738083E-20
   4.62400007      -8.75607578E-20
   4.63199997      -7.04901928E-20
   4.63999987      -4.70850656E-20
   4.64799976      -2.10093051E-20
   4.65600014       3.85366120E-21
   4.66400003       2.54681398E-20
   4.67199993       4.31161884E-20
   4.67999983       5.57522253E-20
   4.68800020       6.23364214E-20
   4.69600010       6.31756349E-20
   4.70400000       5.94603791E-20
   4.71199989       5.19232838E-20
   4.71999979       4.12871338E-20
   4.72800016       2.94769883E-20
   4.73600006       1.88402485E-20
   4.74399996       1.03721041E-20
   4.75199986       3.90728779E-21
   4.76000023      -3.68609962E-22
   4.76800013      -1.98406621E-21
   4.77600002      -1.54079504E-21
   4.78399992      -7.06600409E-22
   4.79199982      -7.94789151E-22
   4.80000019      -2.24914326E-21
   4.80800009      -5.48179943E-21
   4.81599998      -1.13939783E-20
   4.82399988      -2.08981253E-20
   4.83199978      -3.41457055E-20
   4.84000015      -4.99364154E-20
   4.84800005      -6.56610800E-20
   4.85599995      -7.82544977E-20
   4.86399984      -8.54691929E-20
   4.87200022      -8.60249936E-20
   4.88000011      -7.89733306E-20
   4.88800001      -6.39539667E-20
   4.89599991      -4.20260936E-20
   4.90399981      -1.51600977E-20
   4.91200018       1.51691030E-20
   4.92000008       4.78676270E-20
   4.92799997       8.07557110E-20
   4.93599987       1.10456671E-19
   4.94399977       1.33954585E-19
   4.95200014       1.49316867E-19
   4.96000004       1.55026920E-19
   4.96799994       1.49964045E-19
   4.97599983       1.34267724E-19
   4.98400021       1.09116690E-19
   4.99200010       7.55016148E-20
   5.00000000       3.42631651E-20
   5.00799990      -1.25068174E-20
   5.01599979      -6.10558683E-20
   5.02400017      -1.07152343E-19
   5.03200006      -1.47081049E-19
   5.03999996      -1.77749249E-19
   5.04799986      -1.96822522E-19
   5.05600023      -2.02975181E-19
   5.06400013      -1.95623420E-19
   5.07200003      -1.74637680E-19
   5.07999992      -1.40772195E-19
   5.08799982      -9.61742606E-20
   5.09600019      -4.42075725E-20
   5.10400009       1.10282272E-20
   5.11199999       6.52467013E-20
   5.11999989       1.14839656E-19
   5.12799978       1.57223615E-19
   5.13600016       1.89819753E-19
   5.14400005       2.09357513E-19
   5.15199995       2.13395499E-19
   5.15999985       2.02028486E-19
   5.16800022       1.76854058E-19
   5.17600012       1.39169881E-19
   5.18400002       9.10484227E-20
   5.19199991       3.73050411E-20
   5.19999981      -1.60756607E-20
   5.20800018      -6.52298734E-20
   5.21600008      -1.08116939E-19
   5.22399998      -1.41784457E-19
   5.23199987      -1.62811142E-19
   5.23999977      -1.70371780E-19
   5.24800014      -1.66271795E-19
   5.25600004      -1.52005294E-19
   5.26399994      -1.28275654E-19
   5.27199984      -9.72269320E-20
   5.28000021      -6.23612433E-20
   5.28800011      -2.60203475E-20
   5.29600000       1.05681274E-20
   5.30399990       4.46478943E-20
   5.31199980       7.19952414E-20
   5.32000017       9.02107214E-20
   5.32800007       9.98654055E-20
   5.33599997       1.01999887E-19
   5.34399986       9.66019389E-20
   5.35200024       8.42174877E-20
   5.36000013       6.72240701E-20
   5.36800003       4.84320679E-20
   5.37599993       2.93419607E-20
   5.38399982       1.04182873E-20
   5.39200020      -7.55605983E-21
   5.40000010      -2.29263576E-20
   5.40799999      -3.38037956E-20
   5.41599989      -3.91305027E-20
   5.42399979      -3.91364900E-20
   5.43200016      -3.47836588E-20
   5.44000006      -2.70890568E-20
   5.44799995      -1.71807158E-20
   5.45599985      -6.37241809E-21
   5.46400023       4.36986351E-21
   5.47200012       1.43841506E-20
   5.48000002       2.22030851E-20
   5.48799992       2.55115167E-20
   5.49599981       2.31171827E-20
   5.50400019       1.60227583E-20
   5.51200008       5.72965473E-21
   5.51999998      -7.24798352E-21
   5.52799988      -2.21648861E-20
   5.53599977      -3.68740961E-20
   5.54400015      -4.93599254E-20
   5.55200005      -5.92207746E-20
   5.55999994      -6.62127449E-20
   5.56799984      -6.85474622E-20
   5.57600021      -6.41984373E-20
   5.58400011      -5.30106580E-20
   5.59200001      -3.63089347E-20
   5.59999990      -1.54266502E-20
   5.60799980       8.20883215E-21
   5.61600018       3.25106021E-20
   5.62400007       5.54469504E-20
   5.63199997       7.57398428E-20
   5.63999987       9.22245702E-20
   5.64799976       1.03313482E-19
   5.65600014       1.07670229E-19
   5.66400003       1.04849027E-19
   5.67199993       9.51553745E-20
   5.67999983       7.95492680E-20
   5.68800020       5.95020418E-20
   5.69600010       3.61492662E-20
   5.70400000       9.93683750E-21
   5.71199989      -1.81663629E-20
   5.71999979      -4.58732105E-20
   5.72800016      -7.09127722E-20
   5.73600006      -9.22102754E-20
   5.74399996      -1.08788894E-19
   5.75199986      -1.18849672E-19
   5.76000023      -1.21286831E-19
   5.76800013      -1.16773462E-19
   5.77600002      -1.05909071E-19
   5.78399992      -8.78094678E-20
   5.79199982      -6.22911333E-20
   5.80000019      -3.20339199E-20
   5.80800009      -6.62484681E-22
   5.81599998       3.00223071E-20
   5.82399988       5.89887892E-20
   5.83199978       8.36323996E-20
   5.84000015       1.00945846E-19
   5.84800005       1.10181957E-19
   5.85599995       1.12087122E-19
   5.86399984       1.06195412E-19
   5.87200022       9.13021539E-20
   5.88000011       6.84241347E-20
   5.88800001       4.10898060E-20
   5.89599991       1.25299429E-20
   5.90399981      -1.55719351E-20
   5.91200018      -4.13555765E-20
   5.92000008      -6.18095203E-20
   5.92799997      -7.44477609E-20
   5.93599987      -7.87582443E-20
   5.94399977      -7.52367361E-20
   5.95200014      -6.41409418E-20
   5.96000004      -4.62987303E-20
   5.96799994      -2.43778043E-20
   5.97599983      -1.98186497E-21
   5.98400021       1.84408431E-20
   5.99200010       3.58246947E-20
   6.00000000       4.88660598E-20
   6.00799990       5.56485369E-20
   6.01599979       5.53711859E-20
   6.02400017       4.91925700E-20
   6.03200006       3.85247092E-20
   6.03999996       2.36073033E-20
   6.04799986       4.91573486E-21
   6.05600023      -1.50481715E-20
   6.06400013      -3.30171274E-20
   6.07200003      -4.75135064E-20
   6.07999992      -5.85650465E-20
   6.08799982      -6.53505771E-20
   6.09600019      -6.61365215E-20
   6.10400009      -6.06194982E-20
   6.11199999      -5.03442833E-20
   6.11999989      -3.64087553E-20
   6.12799978      -1.87201102E-20
   6.13600016       1.81304763E-21
   6.14400005       2.23580861E-20
   6.15199995       4.05121140E-20
   6.15999985       5.58735818E-20
   6.16800022       6.81713858E-20
   6.17600012       7.56769900E-20
   6.18400002       7.70562685E-20
   6.19199991       7.32790645E-20
   6.19999981       6.59312385E-20
   6.20800018       5.48583985E-20
   6.21600008       3.92665480E-20
   6.22399998       2.01255644E-20
   6.23199987      -3.44352957E-22
   6.23999977      -2.07402210E-20
   6.24800014      -4.02523017E-20
   6.25600004      -5.71086077E-20
   6.26399994      -6.91122391E-20
   6.27199984      -7.54225221E-20
   6.28000021      -7.63792082E-20
   6.28800011      -7.20504751E-20
   6.29600000      -6.24201993E-20
   6.30399990      -4.86528249E-20
   6.31199980      -3.28175378E-20
   6.32000017      -1.65304743E-20
   6.32800007      -7.82959468E-22
   6.33599997       1.33881614E-20
   6.34399986       2.50871424E-20
   6.35200024       3.40600858E-20
   6.36000013       4.02499236E-20
   6.36800003       4.33113223E-20
   6.37599993       4.31802497E-20
   6.38399982       4.05540126E-20
   6.39200020       3.62571195E-20
   6.40000010       3.07155684E-20
   6.40799999       2.44468884E-20
   6.41599989       1.83470130E-20
   6.42399979       1.30756486E-20
   6.43200016       8.77933475E-21
   6.44000006       5.61394032E-21
   6.44799995       3.76754637E-21
   6.45599985       2.77322802E-21
   6.46400023       1.58039076E-21
   6.47200012      -4.80110087E-22
   6.48000002      -3.43475642E-21
   6.48799992      -7.34468045E-21
   6.49599981      -1.24277344E-20
   6.50400019      -1.83749724E-20
   6.51200008      -2.42396958E-20
   6.51999998      -2.92214799E-20
   6.52799988      -3.31076100E-20
   6.53599977      -3.58090494E-20
   6.54400015      -3.68205620E-20
   6.55200005      -3.53866154E-20
   6.55999994      -3.12150821E-20
   6.56799984      -2.49073938E-20
   6.57600021      -1.74113538E-20
   6.58400011      -9.03944508E-21
   6.59200001       4.62998091E-22
   6.59999990       1.07782837E-20
   6.60799980       2.07821229E-20