 -0.239999995         0.00000000    
 -0.231999993         0.00000000    
 -0.224000007         0.00000000    
 -0.216000006         0.00000000    
 -0.208000004         0.00000000    
 -0.200000003         0.00000000    
 -0.192000002         0.00000000    
 -0.184000000         0.00000000    
 -0.175999999         0.00000000    
 -0.167999998         2.66749902E-36
 -0.159999996        -7.69687872E-35
 -0.151999995        -6.07850241E-34
 -0.143999994        -1.22657445E-33
 -0.136000007         2.84173739E-33
 -0.128000006         1.95400677E-32
 -0.119999997         3.65015593E-32
 -0.112000003        -1.08597884E-32
 -0.104000002        -1.94836132E-31
  -9.60000008E-02    -4.17339474E-31
  -8.79999995E-02    -2.75592464E-31
  -7.99999982E-02     6.78640113E-31
  -7.19999969E-02     2.26640314E-30
  -6.40000030E-02     3.18346364E-30
  -5.60000017E-02     1.30440508E-30
  -4.80000004E-02    -5.07477838E-30
  -3.99999991E-02    -1.48845511E-29
  -3.20000015E-02    -2.09073568E-29
  -2.40000002E-02    -9.00013620E-30
  -1.60000008E-02     3.19444190E-29
  -8.00000038E-03     8.74547153E-29
   0.00000000         1.03064034E-28
   8.00000038E-03     1.36566534E-29
   1.60000008E-02    -1.79127771E-28
   2.40000002E-02    -3.48027313E-28
   3.20000015E-02    -2.95622350E-28
   3.99999991E-02     6.88938002E-29
   4.80000004E-02     5.77367845E-28
   5.60000017E-02     8.59664638E-28
   6.40000030E-02     6.18421883E-28
   7.19999969E-02    -1.11718490E-28
   7.99999982E-02    -9.74046388E-28
   8.79999995E-02    -1.54800741E-27
   9.60000008E-02    -1.56594080E-27
  0.104000002        -8.91665023E-28
  0.112000003         5.56173516E-28
  0.119999997         2.60284232E-27
  0.128000006         4.41136950E-27
  0.136000007         4.49173856E-27
  0.143999994         1.62336519E-27
  0.151999995        -3.77210674E-27
  0.159999996        -9.12165026E-27
  0.167999998        -1.09565615E-26
  0.175999999        -7.25144903E-27
  0.184000000         1.04086364E-27
  0.192000002         1.05577138E-26
  0.200000003         1.75510905E-26
  0.208000004         1.94486584E-26
  0.216000006         1.48658804E-26
  0.224000007         3.03110655E-27
  0.231999993        -1.55325218E-26
  0.239999995        -3.67519295E-26
  0.247999996        -5.14018592E-26
  0.256000012        -4.72243168E-26
  0.263999999        -1.56604205E-26
  0.272000015         3.97644044E-26
  0.280000001         9.90551500E-26
  0.287999988         1.30387885E-25
  0.296000004         1.04558164E-25
  0.303999990         1.37928000E-26
  0.312000006        -1.15513297E-25
  0.319999993        -2.26525230E-25
  0.328000009        -2.55344291E-25
  0.335999995        -1.65256191E-25
  0.344000012         2.64721937E-26
  0.351999998         2.46978495E-25
  0.360000014         3.96540064E-25
  0.368000001         3.95161209E-25
  0.375999987         2.23167320E-25
  0.384000003        -6.54625067E-26
  0.391999990        -3.63629280E-25
  0.400000006        -5.54768650E-25
  0.407999992        -5.58813337E-25
  0.416000009        -3.61110768E-25
  0.423999995        -1.52627945E-26
  0.432000011         3.76614202E-25
  0.439999998         6.94611650E-25
  0.448000014         8.31133003E-25
  0.456000000         7.15484071E-25
  0.463999987         3.35069458E-25
  0.472000003        -2.45077192E-25
  0.479999989        -8.72501362E-25
  0.488000005        -1.32618454E-24
  0.495999992        -1.38035355E-24
  0.504000008        -9.05766837E-25
  0.512000024         3.35661948E-26
  0.519999981         1.14971379E-24
  0.527999997         2.00908417E-24
  0.536000013         2.20691175E-24
  0.544000030         1.56299664E-24
  0.551999986         2.36500302E-25
  0.560000002        -1.31077986E-24
  0.568000019        -2.49624561E-24
  0.575999975        -2.85893921E-24
  0.583999991        -2.24606370E-24
  0.592000008        -8.59871699E-25
  0.600000024         8.42457594E-25
  0.607999980         2.33101456E-24
  0.615999997         3.17569131E-24
  0.624000013         3.14580078E-24
  0.632000029         2.23016677E-24
  0.639999986         6.13488843E-25
  0.648000002        -1.35402541E-24
  0.656000018        -3.18994228E-24
  0.663999975        -4.34599408E-24
  0.671999991        -4.33885410E-24
  0.680000007        -2.93612313E-24
  0.688000023        -3.29923127E-25
  0.695999980         2.80473657E-24
  0.703999996         5.44805288E-24
  0.712000012         6.56965137E-24
  0.720000029         5.55053459E-24
  0.727999985         2.50738748E-24
  0.736000001        -1.65632509E-24
  0.744000018        -5.53908506E-24
  0.751999974        -7.76987365E-24
  0.759999990        -7.54411823E-24
  0.768000007        -4.91912322E-24
  0.776000023        -7.43426215E-25
  0.783999979         3.71304285E-24
  0.791999996         7.22051013E-24
  0.800000012         8.92951575E-24
  0.808000028         8.49399748E-24
  0.815999985         6.03145496E-24
  0.824000001         2.04120086E-24
  0.832000017        -2.65070379E-24
  0.839999974        -6.95201028E-24
  0.847999990        -9.64547802E-24
  0.856000006        -9.69213599E-24
  0.864000022        -6.61518560E-24
  0.871999979        -8.36650000E-25
  0.879999995         6.23982744E-24
  0.888000011         1.24767219E-23
  0.896000028         1.55902265E-23
  0.903999984         1.39117230E-23
  0.912000000         7.07876918E-24
  0.920000017        -3.55455557E-24
  0.927999973        -1.50796268E-23
  0.935999990        -2.39027189E-23
  0.944000006        -2.68179481E-23
  0.952000022        -2.22945566E-23
  0.959999979        -1.12030665E-23
  0.967999995         3.20788374E-24
  0.976000011         1.63586133E-23
  0.984000027         2.37896578E-23
  0.991999984         2.28151874E-23
   1.00000000         1.34424959E-23
   1.00800002        -1.55567601E-24
   1.01600003        -1.73369176E-23
   1.02400005        -2.87963008E-23
   1.03199995        -3.19549472E-23
   1.03999996        -2.52941560E-23
   1.04799998        -1.01027010E-23
   1.05599999         9.84588734E-24
   1.06400001         2.94972826E-23
   1.07200003         4.37104546E-23
   1.08000004         4.86828752E-23
   1.08800006         4.29133390E-23
   1.09599996         2.79084568E-23
   1.10399997         8.03702455E-24
   1.11199999        -1.03411240E-23
   1.12000000        -2.07806126E-23
   1.12800002        -1.90615395E-23
   1.13600004        -5.23334150E-24
   1.14400005         1.57148239E-23
   1.15199995         3.52465640E-23
   1.15999997         4.42140192E-23
   1.16799998         3.64080165E-23
   1.17600000         1.11512581E-23
   1.18400002        -2.63502309E-23
   1.19200003        -6.67768484E-23
   1.20000005        -9.98664711E-23
   1.20799994        -1.17623730E-22
   1.21599996        -1.16337243E-22
   1.22399998        -9.69095112E-23
   1.23199999        -6.37942979E-23
   1.24000001        -2.31740576E-23
   1.24800003         1.85685109E-23
   1.25600004         5.59396035E-23
   1.26400006         8.46458354E-23
   1.27199996         1.01564990E-22
   1.27999997         1.04736122E-22
   1.28799999         9.36861056E-23
   1.29600000         7.01181224E-23
   1.30400002         3.87157439E-23
   1.31200004         7.23776725E-24
   1.32000005        -1.45659474E-23
   1.32799995        -1.74594293E-23
   1.33599997         3.74348342E-24
   1.34399998         4.70355538E-23
   1.35200000         1.01714476E-22
   1.36000001         1.49752987E-22
   1.36800003         1.70166688E-22
   1.37600005         1.45066535E-22
   1.38399994         6.57266348E-23
   1.39199996        -6.33901676E-23
   1.39999998        -2.23920427E-22
   1.40799999        -3.86146403E-22
   1.41600001        -5.14105171E-22
   1.42400002        -5.72209358E-22
   1.43200004        -5.32462734E-22
   1.44000006        -3.81569319E-22
   1.44799995        -1.26827402E-22
   1.45599997         2.00531938E-22
   1.46399999         5.46890230E-22
   1.47200000         8.43739674E-22
   1.48000002         1.02114447E-21
   1.48800004         1.02452458E-21
   1.49600005         8.30249218E-22
   1.50399995         4.55192584E-22
   1.51199996        -4.29769938E-23
   1.51999998        -5.75766224E-22
   1.52800000        -1.04126731E-21
   1.53600001        -1.34510634E-21
   1.54400003        -1.42015400E-21
   1.55200005        -1.24101588E-21
   1.55999994        -8.30013948E-22
   1.56799996        -2.54375078E-22
   1.57599998         3.85198432E-22
   1.58399999         9.72685540E-22
   1.59200001         1.39725023E-21
   1.60000002         1.57610077E-21
   1.60800004         1.46884426E-21
   1.61600006         1.08752915E-21
   1.62399995         4.99243082E-22
   1.63199997        -1.86165519E-22
   1.63999999        -8.34839859E-22
   1.64800000        -1.31203507E-21
   1.65600002        -1.51106168E-21
   1.66400003        -1.37615975E-21
   1.67200005        -9.17416405E-22
   1.67999995        -2.11341037E-22
   1.68799996         6.08691284E-22
   1.69599998         1.38012965E-21
   1.70400000         1.93775742E-21
   1.71200001         2.14748769E-21
   1.72000003         1.93079202E-21
   1.72800004         1.28344958E-21
   1.73599994         2.78994278E-22
   1.74399996        -9.39865897E-22
   1.75199997        -2.18143582E-21
   1.75999999        -3.23398600E-21
   1.76800001        -3.90311271E-21
   1.77600002        -4.04243408E-21
   1.78400004        -3.58323898E-21
   1.79200006        -2.55262444E-21
   1.79999995        -1.07161289E-21
   1.80799997         6.63198771E-22
   1.81599998         2.40951735E-21
   1.82400000         3.91977870E-21
   1.83200002         4.98337747E-21
   1.84000003         5.45865089E-21
   1.84800005         5.29152971E-21
   1.85599995         4.51717516E-21
   1.86399996         3.24855435E-21
   1.87199998         1.66104168E-21
   1.88000000        -4.41171250E-23
   1.88800001        -1.65684166E-21
   1.89600003        -2.99608190E-21
   1.90400004        -3.92453014E-21
   1.91199994        -4.36676158E-21
   1.91999996        -4.31799225E-21
   1.92799997        -3.83897269E-21
   1.93599999        -3.03857063E-21
   1.94400001        -2.05884750E-21
   1.95200002        -1.04928638E-21
   1.96000004        -1.43989279E-22
   1.96800005         5.52768645E-22
   1.97599995         9.81619433E-22
   1.98399997         1.13097329E-21
   1.99199998         1.03742201E-21
   2.00000000         7.74273365E-22
   2.00799990         4.40132989E-22
   2.01600003         1.36020560E-22
   2.02399993        -4.80544970E-23
   2.03200006        -4.76147512E-23
   2.03999996         1.68496196E-22
   2.04800010         5.97069003E-22
   2.05599999         1.19935221E-21
   2.06399989         1.90287407E-21
   2.07200003         2.60904761E-21
   2.07999992         3.20232715E-21
   2.08800006         3.56644212E-21
   2.09599996         3.60196000E-21
   2.10400009         3.24331157E-21
   2.11199999         2.47236631E-21
   2.11999989         1.32203354E-21
   2.12800002        -1.23828847E-22
   2.13599992        -1.73825200E-21
   2.14400005        -3.36320187E-21
   2.15199995        -4.82518160E-21
   2.16000009        -5.95198375E-21
   2.16799998        -6.59219974E-21
   2.17600012        -6.63366095E-21
   2.18400002        -6.02012881E-21
   2.19199991        -4.76314992E-21
   2.20000005        -2.94798911E-21
   2.20799994        -7.31412394E-22
   2.21600008         1.66850721E-21
   2.22399998         3.99144736E-21
   2.23200011         5.96360427E-21
   2.24000001         7.33201182E-21
   2.24799991         7.90120902E-21
   2.25600004         7.56504411E-21
   2.26399994         6.32933078E-21
   2.27200007         4.31804395E-21
   2.27999997         1.76177515E-21
   2.28800011        -1.02969537E-21
   2.29600000        -3.70665247E-21
   2.30399990        -5.92321297E-21
   2.31200004        -7.38204413E-21
   2.31999993        -7.87278276E-21
   2.32800007        -7.30383033E-21
   2.33599997        -5.72164586E-21
   2.34400010        -3.31336060E-21
   2.35200000        -3.89705188E-22
   2.35999990         2.65280336E-21
   2.36800003         5.38668295E-21
   2.37599993         7.41677764E-21
   2.38400006         8.44092175E-21
   2.39199996         8.29681218E-21
   2.40000010         6.98770758E-21
   2.40799999         4.68424303E-21
   2.41599989         1.70106038E-21
   2.42400002        -1.54760626E-21
   2.43199992        -4.60654339E-21
   2.44000006        -7.04585095E-21
   2.44799995        -8.52375613E-21
   2.45600009        -8.83541420E-21
   2.46399999        -7.94341381E-21
   2.47199988        -5.98210516E-21
   2.48000002        -3.23712649E-21
   2.48799992        -1.04426056E-22
   2.49600005         2.96848243E-21
   2.50399995         5.54800053E-21
   2.51200008         7.27702773E-21
   2.51999998         7.92587822E-21
   2.52800012         7.42193540E-21
   2.53600001         5.85635877E-21
   2.54399991         3.46832671E-21
   2.55200005         6.09927764E-22
   2.55999994        -2.30327109E-21
   2.56800008        -4.84998652E-21
   2.57599998        -6.66425008E-21
   2.58400011        -7.48807834E-21
   2.59200001        -7.20856077E-21
   2.59999990        -5.87220848E-21
   2.60800004        -3.67461699E-21
   2.61599994        -9.28582131E-22
   2.62400007         1.98177066E-21
   2.63199997         4.65429085E-21
   2.64000010         6.72322789E-21
   2.64800000         7.90814069E-21
   2.65599990         8.05181486E-21
   2.66400003         7.14046377E-21
   2.67199993         5.30284165E-21
   2.68000007         2.78863123E-21
   2.68799996        -6.89885809E-23
   2.69600010        -2.89949625E-21
   2.70400000        -5.34267072E-21
   2.71199989        -7.09306406E-21
   2.72000003        -7.93693207E-21
   2.72799993        -7.77769980E-21
   2.73600006        -6.64723108E-21
   2.74399996        -4.70044131E-21
   2.75200009        -2.19325304E-21
   2.75999999         5.50939699E-22
   2.76799989         3.18305158E-21
   2.77600002         5.37195687E-21
   2.78399992         6.84640752E-21
   2.79200006         7.42930652E-21
   2.79999995         7.06055521E-21
   2.80800009         5.80302258E-21
   2.81599998         3.83112093E-21
   2.82399988         1.40346701E-21
   2.83200002        -1.17420752E-21
   2.83999991        -3.58940406E-21
   2.84800005        -5.56115303E-21
   2.85599995        -6.87137077E-21
   2.86400008        -7.38755086E-21
   2.87199998        -7.07378041E-21
   2.88000011        -5.98929008E-21
   2.88800001        -4.27601890E-21
   2.89599991        -2.13712976E-21
   2.90400004         1.87901341E-22
   2.91199994         2.44987896E-21
   2.92000008         4.41544164E-21
   2.92799997         5.89106764E-21
   2.93600011         6.74277488E-21
   2.94400001         6.90827078E-21
   2.95199990         6.39906478E-21
   2.96000004         5.29309037E-21
   2.96799994         3.72095122E-21
   2.97600007         1.85098525E-21
   2.98399997        -1.24787521E-22
   2.99200010        -2.00474754E-21
   3.00000000        -3.59487242E-21
   3.00799990        -4.73030544E-21
   3.01600003        -5.29791532E-21
   3.02399993        -5.25333117E-21
   3.03200006        -4.62677861E-21
   3.03999996        -3.51568199E-21
   3.04800010        -2.06800666E-21
   3.05599999        -4.61037828E-22
   3.06399989         1.11877793E-21
   3.07200003         2.49448572E-21
   3.07999992         3.51439841E-21
   3.08800006         4.06664244E-21
   3.09599996         4.09033220E-21
   3.10400009         3.58295544E-21
   3.11199999         2.60068654E-21
   3.11999989         1.25330919E-21
   3.12800002        -3.07148560E-22
   3.13599992        -1.90204770E-21
   3.14400005        -3.34519292E-21
   3.15199995        -4.46396217E-21
   3.16000009        -5.11992891E-21
   3.16799998        -5.22659038E-21
   3.17600012        -4.76032062E-21
   3.18400002        -3.76259298E-21
   3.19199991        -2.33323276E-21
   3.20000005        -6.16465995E-22
   3.20799994         1.21659346E-21
   3.21600008         2.98585342E-21
   3.22399998         4.51932026E-21
   3.23200011         5.66801443E-21
   3.24000001         6.31866508E-21
   3.24799991         6.40366678E-21
   3.25600004         5.90768758E-21
   3.26399994         4.86874510E-21
   3.27200007         3.37432700E-21
   3.27999997         1.55368511E-21
   3.28800011        -4.30536604E-22
   3.29600000        -2.39309228E-21
   3.30399990        -4.13942343E-21
   3.31200004        -5.48341017E-21
   3.31999993        -6.27100769E-21
   3.32800007        -6.40442408E-21
   3.33599997        -5.86014207E-21
   3.34400010        -4.69492731E-21
   3.35200000        -3.03789168E-21
   3.35999990        -1.07285386E-21
   3.36800003         9.83940729E-22
   3.37599993         2.90643055E-21
   3.38400006         4.47970202E-21
   3.39199996         5.52064501E-21
   3.40000010         5.89736317E-21
   3.40799999         5.54581303E-21
   3.41599989         4.47884576E-21
   3.42400002         2.78782263E-21
   3.43199992         6.36756557E-22
   3.44000006        -1.74948599E-21
   3.44799995        -4.10242204E-21
   3.45600009        -6.13498535E-21
   3.46399999        -7.57401708E-21
   3.47199988        -8.19818463E-21
   3.48000002        -7.87150725E-21
   3.48799992        -6.56605913E-21
   3.49600005        -4.36786300E-21
   3.50399995        -1.46797629E-21
   3.51200008         1.85657518E-21
   3.51999998         5.26814368E-21
   3.52800012         8.39894314E-21
   3.53600001         1.08881622E-20
   3.54399991         1.24236316E-20
   3.55200005         1.27831603E-20
   3.55999994         1.18676572E-20
   3.56800008         9.71866942E-21
   3.57599998         6.51814324E-21
   3.58400011         2.57248728E-21
   3.59200001        -1.71697411E-21
   3.59999990        -5.89550848E-21
   3.60800004        -9.50496117E-21
   3.61599994        -1.21386251E-20
   3.62400007        -1.34930307E-20
   3.63199997        -1.34080751E-20
   3.64000010        -1.18888715E-20
   3.64800000        -9.10715515E-21
   3.65599990        -5.38364403E-21
   3.66400003        -1.15330000E-21
   3.67199993         3.08355221E-21
   3.68000007         6.82059367E-21
   3.68799996         9.60835228E-21
   3.69600010         1.11124146E-20
   3.70400000         1.11559167E-20
   3.71199989         9.74129975E-21
   3.72000003         7.04882282E-21
   3.72799993         3.41499294E-21
   3.73600006        -7.07230033E-22
   3.74399996        -4.80209324E-21
   3.75200009        -8.35539418E-21
   3.75999999        -1.09218198E-20
   3.76799989        -1.21843720E-20
   3.77600002        -1.19949202E-20
   3.78399992        -1.03889256E-20
   3.79200006        -7.57443390E-21
   3.79999995        -3.89930639E-21
   3.80800009         1.95683826E-22
   3.81599998         4.23245944E-21
   3.82399988         7.75423905E-21
   3.83200002         1.03813122E-20
   3.83999991         1.18559741E-20
   3.84800005         1.20684302E-20
   3.85599995         1.10603338E-20
   3.86400008         9.00700732E-21
   3.87199998         6.18534077E-21
   3.88000011         2.93534128E-21
   3.88800001        -3.78951235E-22
   3.89599991        -3.40686977E-21
   3.90400004        -5.84629083E-21
   3.91199994        -7.47524331E-21
   3.92000008        -8.17523117E-21
   3.92799997        -7.94142825E-21
   3.93600011        -6.87538389E-21
   3.94400001        -5.16154199E-21
   3.95199990        -3.03413363E-21
   3.96000004        -7.42902954E-22
   3.96799994         1.47436392E-21
   3.97600007         3.40992848E-21
   3.98399997         4.89652189E-21
   3.99200010         5.81449890E-21
   4.00000000         6.09820206E-21
   4.00799990         5.74073200E-21
   4.01599979         4.79434529E-21
   4.02400017         3.36382407E-21
   4.03200006         1.59408680E-21
   4.03999996        -3.44285001E-22
   4.04799986        -2.26871247E-21
   4.05600023        -3.99569029E-21
   4.06400013        -5.35353029E-21
   4.07200003        -6.19906842E-21
   4.07999992        -6.43763934E-21
   4.08799982        -6.04068999E-21
   4.09600019        -5.05460224E-21
   4.10400009        -3.59651466E-21
   4.11199999        -1.83894933E-21
   4.11999989         1.03303529E-23
   4.12799978         1.73036834E-21
   4.13600016         3.10762668E-21
   4.14400005         3.95898173E-21
   4.15199995         4.15767512E-21
   4.15999985         3.65881776E-21
   4.16800022         2.51644882E-21
   4.17600012         8.84898170E-22
   4.18400002        -1.00020959E-21
   4.19199991        -2.85714686E-21
   4.19999981        -4.40211749E-21
   4.20800018        -5.39200671E-21
   4.21600008        -5.65885970E-21
   4.22399998        -5.13146097E-21
   4.23199987        -3.84390063E-21
   4.23999977        -1.93095620E-21
   4.24800014         3.87785997E-22
   4.25600004         2.83392805E-21
   4.26399994         5.10460184E-21
   4.27199984         6.91280977E-21
   4.28000021         8.03047618E-21
   4.28800011         8.32626838E-21
   4.29600000         7.78981509E-21
   4.30399990         6.53428619E-21
   4.31199980         4.77539446E-21
   4.32000017         2.79112448E-21
   4.32800007         8.73047030E-22
   4.33599997        -7.19163214E-22
   4.34399986        -1.79299294E-21
   4.35200024        -2.24499746E-21
   4.36000013        -2.06939607E-21
   4.36800003        -1.35518953E-21
   4.37599993        -2.69649192E-22
   4.38399982         9.70202988E-22
   4.39200020         2.13423624E-21
   4.40000010         3.01668024E-21
   4.40799999         3.46623452E-21
   4.41599989         3.40378844E-21
   4.42399979         2.82663327E-21
   4.43200016         1.80243887E-21
   4.44000006         4.54809134E-22
   4.44799995        -1.05738229E-21
   4.45599985        -2.56480577E-21
   4.46400023        -3.91507128E-21
   4.47200012        -4.99521124E-21
   4.48000002        -5.74458558E-21
   4.48799992        -6.15463492E-21
   4.49599981        -6.25613459E-21
   4.50400019        -6.09969890E-21
   4.51200008        -5.73624309E-21
   4.51999998        -5.20329200E-21
   4.52799988        -4.52075288E-21
   4.53599977        -3.69578239E-21
   4.54400015        -2.73298798E-21
   4.55200005        -1.64482997E-21
   4.55999994        -4.57313547E-22
   4.56799984         7.90315893E-22
   4.57600021         2.04866283E-21
   4.58400011         3.26157457E-21
   4.59200001         4.36720021E-21
   4.59999990         5.30090658E-21
   4.60799980         6.00359893E-21
   4.61600018         6.43722171E-21
   4.62400007         6.60171716E-21
   4.63199997         6.54313759E-21
   4.63999987         6.34496805E-21
   4.64799976         6.10314980E-21
   4.65600014         5.89525524E-21
   4.66400003         5.75689434E-21
   4.67199993         5.67306031E-21
   4.67999983         5.58311936E-21
   4.68800020         5.39167269E-21
   4.69600010         4.97988255E-21
   4.70400000         4.21786624E-21
   4.71199989         2.98364309E-21
   4.71999979         1.19141756E-21
   4.72800016        -1.17570840E-21
   4.73600006        -4.04000908E-21
   4.74399996        -7.22231992E-21
   4.75199986        -1.04577900E-20
   4.76000023        -1.34296803E-20
   4.76800013        -1.58109499E-20
   4.77600002        -1.73050530E-20
   4.78399992        -1.76824816E-20
   4.79199982        -1.68121955E-20
   4.80000019        -1.46863414E-20
   4.80800009        -1.14332177E-20
   4.81599998        -7.31201570E-21
   4.82399988        -2.68586656E-21
   4.83199978         2.02329973E-21
   4.84000015         6.38876097E-21
   4.84800005         1.00299470E-20
   4.85599995         1.26516047E-20
   4.86399984         1.40680287E-20
   4.87200022         1.42140649E-20
   4.88000011         1.31460042E-20
   4.88800001         1.10335748E-20
   4.89599991         8.14250180E-21
   4.90399981         4.80504290E-21
   4.91200018         1.38104619E-21
   4.92000008        -1.78575168E-21
   4.92799997        -4.40662094E-21
   4.93599987        -6.27424411E-21
   4.94399977        -7.27331027E-21
   4.95200014        -7.37856577E-21
   4.96000004        -6.64569788E-21
   4.96799994        -5.20025631E-21
   4.97599983        -3.22549063E-21
   4.98400021        -9.47190666E-22
   4.99200010         1.38615104E-21
   5.00000000         3.52690628E-21
   5.00799990         5.25210333E-21
   5.01599979         6.38400468E-21
   5.02400017         6.80538696E-21
   5.03200006         6.47016636E-21
   5.03999996         5.40870057E-21
   5.04799986         3.72683519E-21
   5.05600023         1.59656511E-21
   5.06400013        -7.61510378E-22
   5.07200003        -3.10196163E-21
   5.07999992        -5.18011034E-21
   5.08799982        -6.77653419E-21
   5.09600019        -7.71969296E-21
   5.10400009        -7.90679249E-21
   5.11199999        -7.32116234E-21
   5.11999989        -6.04145214E-21
   5.12799978        -4.23829211E-21
   5.13600016        -2.15461667E-21
   5.14400005        -7.40121418E-23
   5.15199995         1.71755108E-21
   5.15999985         2.96860683E-21
   5.16800022         3.49306296E-21
   5.17600012         3.19292888E-21
   5.18400002         2.07161912E-21
   5.19199991         2.35822382E-22
   5.19999981        -2.11480639E-21
   5.20800018        -4.71036667E-21
   5.21600008        -7.24158256E-21
   5.22399998        -9.39374819E-21
   5.23199987        -1.08804300E-20
   5.23999977        -1.14737480E-20
   5.24800014        -1.10309971E-20
   5.25600004        -9.51431622E-21
   5.26399994        -7.00014276E-21
   5.27199984        -3.67405355E-21
   5.28000021         1.89434622E-22
   5.28800011         4.25856328E-21
   5.29600000         8.18155539E-21
   5.30399990         1.16228101E-20
   5.31199980         1.42950348E-20
   5.32000017         1.59847904E-20
   5.32800007         1.65715829E-20
   5.33599997         1.60391581E-20
   5.34399986         1.44774411E-20
   5.35200024         1.20745436E-20
   5.36000013         9.09908206E-21
   5.36800003         5.87271295E-21
   5.37599993         2.73616887E-21
   5.38399982         1.16742137E-23
   5.39200020        -2.03275273E-21
   5.40000010        -3.21164162E-21
   5.40799999        -3.43994125E-21
   5.41599989        -2.74013897E-21
   5.42399979        -1.24124984E-21
   5.43200016         8.29090842E-22
   5.44000006         3.16060583E-21
   5.44799995         5.38799925E-21
   5.45599985         7.13150292E-21
   5.46400023         8.04669748E-21
   5.47200012         7.87439673E-21
   5.48000002         6.47983000E-21
   5.48799992         3.87442675E-21
   5.49599981         2.17872704E-22
   5.50400019        -4.19723964E-21
   5.51200008        -8.97570128E-21
   5.51999998        -1.36616665E-20
   5.52799988        -1.77883187E-20
   5.53599977        -2.09279845E-20
   5.54400015        -2.27350042E-20
   5.55200005        -2.29761403E-20
   5.55999994        -2.15489678E-20
   5.56799984        -1.84917486E-20
   5.57600021        -1.39868228E-20
   5.58400011        -8.35422934E-21
   5.59200001        -2.02880020E-21
   5.59999990         4.48258544E-21
   5.60799980         1.06584508E-20
   5.61600018         1.60214658E-20
   5.62400007         2.01846997E-20
   5.63199997         2.28790403E-20
   5.63999987         2.39647746E-20
   5.64799976         2.34349121E-20
   5.65600014         2.14140048E-20
   5.66400003         1.81496432E-20
   5.67199993         1.39908537E-20
   5.67999983         9.35164599E-21
   5.68800020         4.66552605E-21
   5.69600010         3.41201274E-22
   5.70400000        -3.27344065E-21
   5.71199989        -5.91809237E-21
   5.71999979        -7.44145088E-21
   5.72800016        -7.81861374E-21
   5.73600006        -7.16033226E-21
   5.74399996        -5.70531954E-21
   5.75199986        -3.79122038E-21
   5.76000023        -1.80733511E-21
   5.76800013        -1.41246025E-22
   5.77600002         8.68395149E-22
   5.78399992         9.66155841E-22
   5.79199982         2.54001674E-24
   5.80000019        -2.04994783E-21
   5.80800009        -5.08536666E-21
   5.81599998        -8.86145827E-21
   5.82399988        -1.30132038E-20
   5.83199978        -1.70869019E-20
   5.84000015        -2.05920070E-20
   5.84800005        -2.30607114E-20
   5.85599995        -2.41030333E-20
   5.86399984        -2.34495622E-20
   5.87200022        -2.09787576E-20
   5.88000011        -1.67318492E-20
   5.88800001        -1.09162767E-20
   5.89599991        -3.89739676E-21
   5.90399981         3.82454751E-21
   5.91200018         1.16531137E-20
   5.92000008         1.89475364E-20
   5.92799997         2.50802357E-20
   5.93599987         2.94918452E-20
   5.94399977         3.17379960E-20
   5.95200014         3.15266933E-20
   5.96000004         2.87463519E-20
   5.96799994         2.34848434E-20
   5.97599983         1.60353372E-20
   5.98400021         6.88412179E-21
   5.99200010        -3.32349821E-21
   6.00000000        -1.38367929E-20
   6.00799990        -2.38645969E-20
   6.01599979        -3.26418718E-20
   6.02400017        -3.94892826E-20
   6.03200006        -4.38612649E-20
   6.03999996        -4.53829315E-20
   6.04799986        -4.38758924E-20
   6.05600023        -3.93727955E-20
   6.06400013        -3.21183020E-20
   6.07200003        -2.25536513E-20
   6.07999992        -1.12839851E-20
   6.08799982         9.69922381E-22
   6.09600019         1.34309397E-20
   6.10400009         2.53293415E-20
   6.11199999         3.59635060E-20
   6.11999989         4.47510269E-20
   6.12799978         5.12660436E-20
   6.13600016         5.52616103E-20
   6.14400005         5.66771554E-20
   6.15199995         5.56317865E-20
   6.15999985         5.24033749E-20
   6.16800022         4.73934263E-20
   6.17600012         4.10808847E-20
   6.18400002         3.39705985E-20
   6.19199991         2.65447913E-20
   6.19999981         1.92241136E-20
   6.20800018         1.23406849E-20
   6.21600008         6.12230137E-21
   6.22399998         6.86251988E-22
   6.23199987        -3.95673122E-21