 -0.239999995       0.00000000    
 -0.231999993       0.00000000    
 -0.224000007      -4.41619836E-30
 -0.216000006       2.91356881E-24
 -0.208000004       2.56541254E-24
 -0.200000003      -2.49716207E-23
 -0.192000002      -8.52362125E-23
 -0.184000000      -1.18115437E-22
 -0.175999999      -4.21828412E-23
 -0.167999998       1.13348760E-22
 -0.159999996       1.68823756E-22
 -0.151999995      -3.57604659E-23
 -0.143999994      -4.32098674E-22
 -0.136000007      -7.45707210E-22
 -0.128000006      -7.38934870E-22
 -0.119999997      -4.02716143E-22
 -0.112000003       5.66837644E-23
 -0.104000002       3.34687934E-22
  -9.60000008E-02   1.51305150E-22
  -8.79999995E-02  -5.84666746E-22
  -7.99999982E-02  -1.61596165E-21
  -7.19999969E-02  -2.39819673E-21
  -6.40000030E-02  -2.46681071E-21
  -5.60000017E-02  -1.82953813E-21
  -4.80000004E-02  -9.96329455E-22
  -3.99999991E-02  -5.86836732E-22
  -3.20000015E-02  -8.54518568E-22
  -2.40000002E-02  -1.52945675E-21
  -1.60000008E-02  -2.08567876E-21
  -8.00000038E-03  -2.17968109E-21
   1.38777878E-17  -1.89402126E-21
   8.00000038E-03  -1.61884042E-21
   1.60000008E-02  -1.69822098E-21
   2.40000002E-02  -2.12447769E-21
   3.20000015E-02  -2.53016051E-21
   3.99999991E-02  -2.52094702E-21
   4.80000004E-02  -2.06558207E-21
   5.60000017E-02  -1.50574135E-21
   6.40000030E-02  -1.12920958E-21
   7.19999969E-02  -8.30150516E-22
   7.99999982E-02  -2.90408199E-22
   8.79999995E-02   6.56139715E-22
   9.60000008E-02   2.07609591E-21
  0.104000002       4.24265339E-21
  0.112000003       7.47937760E-21
  0.119999997       1.15636069E-20
  0.128000006       1.55979089E-20
  0.136000007       1.87017281E-20
  0.143999994       2.06501407E-20
  0.151999995       2.16396765E-20
  0.159999996       2.16395844E-20
  0.167999998       2.02188516E-20
  0.175999999       1.68638636E-20
  0.184000000       1.12050734E-20
  0.192000002       3.13404194E-21
  0.200000003      -6.89488726E-21
  0.208000004      -1.76441825E-20
  0.216000006      -2.75335694E-20
  0.224000007      -3.54368375E-20
  0.231999993      -4.08831045E-20
  0.239999995      -4.35089280E-20
  0.247999996      -4.26633911E-20
  0.256000012      -3.77879530E-20
  0.263999999      -2.89862084E-20
  0.272000015      -1.70196967E-20
  0.280000001      -2.92036721E-21
  0.287999988       1.21167815E-20
  0.296000004       2.65678764E-20
  0.303999990       3.87015643E-20
  0.312000006       4.71325736E-20
  0.319999993       5.12009290E-20
  0.328000009       5.07702845E-20
  0.335999995       4.58272115E-20
  0.344000012       3.64808881E-20
  0.351999998       2.33343709E-20
  0.360000014       7.67358329E-21
  0.368000001      -8.79628468E-21
  0.375999987      -2.43724761E-20
  0.384000003      -3.76008228E-20
  0.391999990      -4.73292972E-20
  0.400000006      -5.27149280E-20
  0.407999992      -5.32280352E-20
  0.416000009      -4.86779247E-20
  0.423999995      -3.93369521E-20
  0.432000011      -2.60997164E-20
  0.439999998      -1.04227584E-20
  0.448000014       6.03166007E-21
  0.456000000       2.17489128E-20
  0.463999987       3.54077472E-20
  0.472000003       4.57372330E-20
  0.479999989       5.15238945E-20
  0.488000005       5.18686156E-20
  0.495999992       4.64974378E-20
  0.504000008       3.59111028E-20
  0.512000024       2.13232622E-20
  0.519999981       4.43262947E-21
  0.527999997      -1.28599258E-20
  0.536000013      -2.86661121E-20
  0.544000030      -4.12333412E-20
  0.551999986      -4.90838313E-20
  0.560000002      -5.12235666E-20
  0.568000019      -4.73015478E-20
  0.575999975      -3.76270631E-20
  0.583999991      -2.31465007E-20
  0.592000008      -5.47010460E-21
  0.600000024       1.31964307E-20
  0.607999980       3.04130724E-20
  0.615999997       4.40378647E-20
  0.624000013       5.25561125E-20
  0.632000029       5.50647930E-20
  0.639999986       5.11796226E-20
  0.648000002       4.11396856E-20
  0.656000018       2.59871181E-20
  0.663999975       7.51406022E-21
  0.671999991      -1.20522517E-20
  0.680000007      -3.03768994E-20
  0.688000023      -4.52471446E-20
  0.695999980      -5.48353279E-20
  0.703999996      -5.80183318E-20
  0.712000012      -5.45395656E-20
  0.720000029      -4.49154161E-20
  0.727999985      -3.02936449E-20
  0.736000001      -1.24095388E-20
  0.744000018       6.53773991E-21
  0.751999974       2.42415893E-20
  0.759999990       3.86721800E-20
  0.768000007       4.82471607E-20
  0.776000023       5.19149765E-20
  0.783999979       4.93652116E-20
  0.791999996       4.11989033E-20
  0.800000012       2.87463519E-20
  0.808000028       1.36392228E-20
  0.815999985      -2.44620895E-21
  0.824000001      -1.77764393E-20
  0.832000017      -3.05956822E-20
  0.839999974      -3.94014495E-20
  0.847999990      -4.32614491E-20
  0.856000006      -4.19276591E-20
  0.864000022      -3.57716001E-20
  0.871999979      -2.56862473E-20
  0.879999995      -1.29837096E-20
  0.888000011       7.66811978E-22
  0.896000028       1.39627506E-20
  0.903999984       2.51830145E-20
  0.912000000       3.33274526E-20
  0.920000017       3.76698083E-20
  0.927999973       3.78670295E-20
  0.935999990       3.39724112E-20
  0.944000006       2.64553944E-20
  0.952000022       1.61959944E-20
  0.959999979       4.41720384E-21
  0.967999995      -7.47837351E-21
  0.976000011      -1.81568099E-20
  0.984000027      -2.65656308E-20
  0.991999984      -3.19745115E-20
   1.00000000      -3.38990635E-20
   1.00800002      -3.21167672E-20
   1.01600003      -2.68204993E-20
   1.02400005      -1.86983515E-20
   1.03199995      -8.80252004E-21
   1.03999996       1.65863829E-21
   1.04799998       1.14652128E-20
   1.05599999       1.95282156E-20
   1.06400001       2.50614917E-20
   1.07200003       2.76270053E-20
   1.08000004       2.70169192E-20
   1.08800006       2.32265127E-20
   1.09599996       1.66482958E-20
   1.10399997       8.19147913E-21
   1.11199999      -9.49736629E-22
   1.12000000      -9.65299822E-21
   1.12800002      -1.69721419E-20
   1.13600004      -2.20671479E-20
   1.14400005      -2.43013305E-20
   1.15199995      -2.34745845E-20
   1.15999997      -1.98429336E-20
   1.16799998      -1.38910072E-20
   1.17600000      -6.21764807E-21
   1.18400002       2.33297810E-21
   1.19200003       1.06223982E-20
   1.20000005       1.74864253E-20
   1.20799994       2.20731725E-20
   1.21599996       2.39249956E-20
   1.22399998       2.28857159E-20
   1.23199999       1.90986778E-20
   1.24000001       1.30683623E-20
   1.24800003       5.56702407E-21
   1.25600004      -2.57045265E-21
   1.26400006      -1.05011621E-20
   1.27199996      -1.72809388E-20
   1.27999997      -2.19395004E-20
   1.28799999      -2.38126541E-20
   1.29600000      -2.27749674E-20
   1.30400002      -1.91038639E-20
   1.31200004      -1.32264896E-20
   1.32000005      -5.71400454E-21
   1.32799995       2.57943006E-21
   1.33599997       1.05944445E-20
   1.34399998       1.73600831E-20
   1.35200000       2.21592574E-20
   1.36000001       2.44686358E-20
   1.36800003       2.39446137E-20
   1.37600005       2.05832619E-20
   1.38399994       1.48184301E-20
   1.39199996       7.38794587E-21
   1.39999998      -8.59738934E-22
   1.40799999      -9.03471464E-21
   1.41600001      -1.62412099E-20
   1.42400002      -2.16958715E-20
   1.43200004      -2.48276500E-20
   1.44000006      -2.52757589E-20
   1.44799995      -2.29225496E-20
   1.45599997      -1.80355456E-20
   1.46399999      -1.13015870E-20
   1.47200000      -3.59429646E-21
   1.48000002       4.28732558E-21
   1.48800004       1.16207203E-20
   1.49600005       1.76443376E-20
   1.50399995       2.16524025E-20
   1.51199996       2.32427170E-20
   1.51999998       2.23799143E-20
   1.52800000       1.92388833E-20
   1.53600001       1.41262868E-20
   1.54400003       7.56966549E-21
   1.55200005       3.28637585E-22
   1.55999994      -6.77785735E-21
   1.56799996      -1.30159745E-20
   1.57599998      -1.77372678E-20
   1.58399999      -2.04134281E-20
   1.59200001      -2.07931767E-20
   1.60000002      -1.89652287E-20
   1.60800004      -1.52022436E-20
   1.61600006      -9.82581435E-21
   1.62399995      -3.30317735E-21
   1.63199997       3.63340215E-21
   1.63999999       1.01392229E-20
   1.64800000       1.55477159E-20
   1.65600002       1.94324161E-20
   1.66400003       2.14386959E-20
   1.67200005       2.12457479E-20
   1.67999995       1.87812941E-20
   1.68799996       1.43744733E-20
   1.69599998       8.60737650E-21
   1.70400000       2.06939991E-21
   1.71200001      -4.69369946E-21
   1.72000003      -1.10988001E-20
   1.72800004      -1.65441616E-20
   1.73599994      -2.05129176E-20
   1.74399996      -2.25954966E-20
   1.75199997      -2.24777527E-20
   1.75999999      -2.00629879E-20
   1.76800001      -1.56339672E-20
   1.77600002      -9.79245409E-21
   1.78400004      -3.20689139E-21
   1.79200006       3.52134705E-21
   1.79999995       9.79151059E-21
   1.80799997       1.49879634E-20
   1.81599998       1.86227743E-20
   1.82400000       2.04206546E-20
   1.83200002       2.02364906E-20
   1.84000003       1.80158451E-20
   1.84800005       1.39277408E-20
   1.85599995       8.45996225E-21
   1.86399996       2.29114913E-21
   1.87199998      -3.90958637E-21
   1.88000000      -9.54472884E-21
   1.88800001      -1.40663194E-20
   1.89600003      -1.70170875E-20
   1.90400004      -1.81071726E-20
   1.91199994      -1.72361999E-20
   1.91999996      -1.44949573E-20
   1.92799997      -1.01931254E-20
   1.93599999      -4.84146228E-21
   1.94400001       9.60656686E-22
   1.95200002       6.63384230E-21
   1.96000004       1.16316934E-20
   1.96800005       1.54263966E-20
   1.97599995       1.75746606E-20
   1.98399997       1.78357621E-20
   1.99199998       1.62272157E-20
   2.00000000       1.29808242E-20
   2.00799990       8.47028424E-21
   2.01600003       3.18131886E-21
   2.02399993      -2.29935389E-21
   2.03200006      -7.35732969E-21
   2.03999996      -1.14870176E-20
   2.04800010      -1.43742067E-20
   2.05599999      -1.58529197E-20
   2.06399989      -1.58388641E-20
   2.07200003      -1.43603514E-20
   2.07999992      -1.16209901E-20
   2.08800006      -7.96263687E-21
   2.09599996      -3.77622126E-21
   2.10400009       5.08494186E-22
   2.11199999       4.40953061E-21
   2.11999989       7.50478190E-21
   2.12800002       9.59351634E-21
   2.13599992       1.06822831E-20
   2.14400005       1.08127919E-20
   2.15199995       9.99318110E-21
   2.16000009       8.31042835E-21
   2.16799998       6.00162469E-21
   2.17600012       3.35426181E-21
   2.18400002       6.01952468E-22
   2.19199991      -2.03751488E-21
   2.20000005      -4.30718115E-21
   2.20799994      -5.99276359E-21
   2.21600008      -7.03593205E-21
   2.22399998      -7.48596920E-21
   2.23200011      -7.34136688E-21
   2.24000001      -6.51327467E-21
   2.24799991      -4.96874146E-21
   2.25600004      -2.85612056E-21
   2.26399994      -4.58462381E-22
   2.27200007       1.93724993E-21
   2.27999997       4.10789403E-21
   2.28800011       5.90594275E-21
   2.29600000       7.27198226E-21
   2.30399990       8.19047747E-21
   2.31200004       8.55813017E-21
   2.31999993       8.13922701E-21
   2.32800007       6.75871265E-21
   2.33599997       4.53906758E-21
   2.34400010       1.86109276E-21
   2.35200000      -9.00207675E-22
   2.35999990      -3.51393433E-21
   2.36800003      -5.80491807E-21
   2.37599993      -7.58499822E-21
   2.38400006      -8.71473549E-21
   2.39199996      -9.11968402E-21
   2.40000010      -8.71247690E-21
   2.40799999      -7.42414310E-21
   2.41599989      -5.37305789E-21
   2.42400002      -2.89961156E-21
   2.43199992      -3.72107557E-22
   2.44000006       1.96159137E-21
   2.44799995       3.91176983E-21
   2.45600009       5.28358668E-21
   2.46399999       5.96803299E-21
   2.47199988       5.99698028E-21
   2.48000002       5.42393112E-21
   2.48799992       4.24603723E-21
   2.49600005       2.54365066E-21
   2.50399995       6.15649770E-22
   2.51200008      -1.14795009E-21
   2.51999998      -2.50430485E-21
   2.52800012      -3.39820578E-21
   2.53600001      -3.82357857E-21
   2.54399991      -3.75399846E-21
   2.55200005      -3.19401980E-21
   2.55999994      -2.20378586E-21
   2.56800008      -8.69496778E-22
   2.57599998       6.73673632E-22
   2.58400011       2.19060852E-21
   2.59200001       3.41225250E-21
   2.59999990       4.19571008E-21
   2.60800004       4.56729552E-21
   2.61599994       4.58459725E-21
   2.62400007       4.22588965E-21
   2.63199997       3.46179045E-21
   2.64000010       2.36480880E-21
   2.64800000       1.06874138E-21
   2.65599990      -3.30589719E-22
   2.66400003      -1.73896326E-21
   2.67199993      -2.96585770E-21
   2.68000007      -3.79289735E-21
   2.68799996      -4.16068577E-21
   2.69600010      -4.18378745E-21
   2.70400000      -3.95443224E-21
   2.71199989      -3.43657315E-21
   2.72000003      -2.59382252E-21
   2.72799993      -1.51488799E-21
   2.73600006      -3.54131424E-22
   2.74399996       7.52666351E-22
   2.75200009       1.65157030E-21
   2.75999999       2.16599990E-21
   2.76799989       2.23518096E-21
   2.77600002       1.98083261E-21
   2.78399992       1.53972078E-21
   2.79200006       9.04428296E-22
   2.79999995       3.23639842E-23
   2.80800009      -9.62457964E-22
   2.81599998      -1.85201115E-21
   2.82399988      -2.48008175E-21
   2.83200002      -2.78641525E-21
   2.83999991      -2.69630769E-21
   2.84800005      -2.14084925E-21
   2.85599995      -1.19517541E-21
   2.86400008      -7.18528907E-23
   2.87199998       1.05166291E-21
   2.88000011       2.11164892E-21
   2.88800001       3.06003876E-21
   2.89599991       3.79400040E-21
   2.90400004       4.21467707E-21
   2.91199994       4.27104895E-21
   2.92000008       3.92002871E-21
   2.92799997       3.13912114E-21
   2.93600011       2.03007631E-21
   2.94400001       8.25496010E-22
   2.95199990      -2.82664463E-22
   2.96000004      -1.26990601E-21
   2.96799994      -2.17304245E-21
   2.97600007      -2.91757043E-21
   2.98399997      -3.34299148E-21
   2.99200010      -3.37037527E-21
   3.00000000      -3.04861938E-21
   3.00799990      -2.44489184E-21
   3.01600003      -1.59763766E-21
   3.02399993      -6.03067325E-22
   3.03200006       3.56501389E-22
   3.03999996       1.13621527E-21
   3.04800010       1.71727744E-21
   3.05599999       2.11883102E-21
   3.06399989       2.28961332E-21
   3.07200003       2.15871441E-21
   3.07999992       1.73681958E-21
   3.08800006       1.08437047E-21
   3.09599996       2.26827045E-22
   3.10400009      -7.99990735E-22
   3.11199999      -1.84859842E-21
   3.11999989      -2.71336042E-21
   3.12800002      -3.29194236E-21
   3.13599992      -3.61078878E-21
   3.14400005      -3.69234563E-21
   3.15199995      -3.49177413E-21
   3.16000009      -2.98201600E-21
   3.16799998      -2.21248882E-21
   3.17600012      -1.25113622E-21
   3.18400002      -1.42279092E-22
   3.19199991       1.04301407E-21
   3.20000005       2.18177732E-21
   3.20799994       3.16782205E-21
   3.21600008       3.95921276E-21
   3.22399998       4.52707750E-21
   3.23200011       4.80743195E-21
   3.24000001       4.73933172E-21
   3.24799991       4.30869495E-21
   3.25600004       3.52165643E-21
   3.26399994       2.37989192E-21
   3.27200007       9.29431728E-22
   3.27999997      -6.92543185E-22
   3.28800011      -2.30360511E-21
   3.29600000      -3.75773450E-21
   3.30399990      -4.95292284E-21
   3.31200004      -5.77803874E-21
   3.31999993      -6.09906075E-21
   3.32800007      -5.81247094E-21
   3.33599997      -4.90054955E-21
   3.34400010      -3.44040088E-21
   3.35200000      -1.58462148E-21
   3.35999990       4.59062066E-22
   3.36800003       2.45380019E-21
   3.37599993       4.17245774E-21
   3.38400006       5.42956386E-21
   3.39199996       6.08619300E-21
   3.40000010       6.04699603E-21
   3.40799999       5.28638932E-21
   3.41599989       3.89257181E-21
   3.42400002       2.06554693E-21
   3.43199992       4.48379293E-23
   3.44000006      -1.96120908E-21
   3.44799995      -3.76911268E-21
   3.45600009      -5.17633108E-21
   3.46399999      -5.98018544E-21
   3.47199988      -6.06201655E-21
   3.48000002      -5.43205308E-21
   3.48799992      -4.18912333E-21
   3.49600005      -2.47393384E-21
   3.50399995      -4.76713568E-22
   3.51200008       1.55986271E-21
   3.51999998       3.40274679E-21
   3.52800012       4.89418656E-21
   3.53600001       5.93846169E-21
   3.54399991       6.45513575E-21
   3.55200005       6.39354310E-21
   3.55999994       5.78151023E-21
   3.56800008       4.71096565E-21
   3.57599998       3.27920345E-21
   3.58400011       1.59198280E-21
   3.59200001      -1.83082752E-22
   3.59999990      -1.83525630E-21
   3.60800004      -3.20398495E-21
   3.61599994      -4.20324195E-21
   3.62400007      -4.74707402E-21
   3.63199997      -4.73378541E-21
   3.64000010      -4.15057219E-21
   3.64800000      -3.12856510E-21
   3.65599990      -1.83839316E-21
   3.66400003      -3.90034238E-22
   3.67199993       1.10349569E-21
   3.68000007       2.43656470E-21
   3.68799996       3.39289817E-21
   3.69600010       3.89201322E-21
   3.70400000       3.96417786E-21
   3.71199989       3.61091439E-21
   3.72000003       2.80496663E-21
   3.72799993       1.62546170E-21
   3.73600006       2.72474374E-22
   3.74399996      -1.08122553E-21
   3.75200009      -2.35234758E-21
   3.75999999      -3.43963873E-21
   3.76799989      -4.18237058E-21
   3.77600002      -4.49798441E-21
   3.78399992      -4.46407041E-21
   3.79200006      -4.18438926E-21
   3.79999995      -3.65970068E-21
   3.80800009      -2.87898677E-21
   3.81599998      -1.95303280E-21
   3.82399988      -1.04093743E-21
   3.83200002      -1.97416089E-22
   3.83999991       5.97257522E-22
   3.84800005       1.30962280E-21
   3.85599995       1.88567837E-21
   3.86400008       2.37694792E-21
   3.87199998       2.88838545E-21
   3.88000011       3.39587005E-21
   3.88800001       3.74127409E-21
   3.89599991       3.81930049E-21
   3.90400004       3.64686120E-21
   3.91199994       3.23540206E-21
   3.92000008       2.53552002E-21
   3.92799997       1.55630720E-21
   3.93600011       4.17145986E-22
   3.94400001      -7.77921664E-22
   3.95199990      -2.00424530E-21
   3.96000004      -3.18580919E-21
   3.96799994      -4.10964735E-21
   3.97600007      -4.56763439E-21
   3.98399997      -4.51409909E-21
   3.99200010      -4.00721185E-21
   4.00000000      -3.07850351E-21
   4.00799990      -1.76734166E-21
   4.01599979      -2.28855314E-22
   4.02400017       1.30945488E-21
   4.03200006       2.68193927E-21
   4.03999996       3.78608321E-21
   4.04799986       4.47924764E-21
   4.05600023       4.59839840E-21
   4.06400013       4.11364350E-21
   4.07200003       3.17693578E-21
   4.07999992       1.98331799E-21
   4.08799982       6.55838055E-22
   4.09600019      -6.96582557E-22
   4.10400009      -1.89388757E-21
   4.11199999      -2.74298746E-21
   4.11999989      -3.14528602E-21
   4.12799978      -3.07847564E-21
   4.13600016      -2.51215883E-21
   4.14400005      -1.43773068E-21
   4.15199995       2.41295464E-23
   4.15999985       1.64013638E-21
   4.16800022       3.20848759E-21
   4.17600012       4.61374688E-21
   4.18400002       5.73188585E-21
   4.19199991       6.38520344E-21
   4.19999981       6.44789832E-21
   4.20800018       5.92867810E-21
   4.21600008       4.90350365E-21
   4.22399998       3.43935883E-21
   4.23199987       1.64037620E-21
   4.23999977      -3.04896456E-22
   4.24800014      -2.20564075E-21
   4.25600004      -3.96193826E-21
   4.26399994      -5.51856333E-21
   4.27199984      -6.77561209E-21
   4.28000021      -7.61963722E-21
   4.28800011      -8.01537690E-21
   4.29600000      -8.00465183E-21
   4.30399990      -7.64359072E-21
   4.31199980      -7.00368089E-21
   4.32000017      -6.20539061E-21
   4.32800007      -5.37288745E-21
   4.33599997      -4.55502393E-21
   4.34399986      -3.74493986E-21
   4.35200024      -2.97034641E-21
   4.36000013      -2.30499270E-21
   4.36800003      -1.78740200E-21
   4.37599993      -1.38733173E-21
   4.38399982      -1.07286749E-21
   4.39200020      -8.63072597E-22
   4.40000010      -7.84717732E-22
   4.40799999      -8.15393491E-22
   4.41599989      -9.11680969E-22
   4.42399979      -1.07258941E-21
   4.43200016      -1.32864089E-21
   4.44000006      -1.67095431E-21
   4.44799995      -2.02965303E-21
   4.45599985      -2.31865430E-21
   4.46400023      -2.45163793E-21
   4.47200012      -2.30428547E-21
   4.48000002      -1.72227970E-21
   4.48799992      -6.11946137E-22
   4.49599981       1.00455067E-21
   4.50400019       3.04825406E-21
   4.51200008       5.44897514E-21
   4.51999998       8.10210324E-21
   4.52799988       1.07965076E-20
   4.53599977       1.32532986E-20
   4.54400015       1.52375183E-20
   4.55200005       1.65982950E-20
   4.55999994       1.72234723E-20
   4.56799984       1.70194431E-20
   4.57600021       1.59544868E-20
   4.58400011       1.40970511E-20
   4.59200001       1.16127587E-20
   4.59999990       8.74971296E-21
   4.60799980       5.81703861E-21
   4.61600018       3.12409275E-21
   4.62400007       8.91541262E-22
   4.63199997      -7.99223382E-22
   4.63999987      -1.97662562E-21
   4.64799976      -2.70452901E-21
   4.65600014      -3.04136176E-21
   4.66400003      -3.07314501E-21
   4.67199993      -2.96759688E-21
   4.67999983      -2.95864027E-21
   4.68800020      -3.25725045E-21
   4.69600010      -3.98133499E-21
   4.70400000      -5.15121072E-21
   4.71199989      -6.69589539E-21
   4.71999979      -8.44784615E-21
   4.72800016      -1.01908635E-20
   4.73600006      -1.17571421E-20
   4.74399996      -1.30472394E-20
   4.75199986      -1.39412584E-20
   4.76000023      -1.42621092E-20
   4.76800013      -1.38860716E-20
   4.77600002      -1.28471327E-20
   4.78399992      -1.12827944E-20
   4.79199982      -9.32689762E-21
   4.80000019      -7.11472020E-21
   4.80800009      -4.83634854E-21
   4.81599998      -2.68621472E-21
   4.82399988      -7.64384710E-22
   4.83199978       9.09632506E-22
   4.84000015       2.30122293E-21
   4.84800005       3.34671177E-21
   4.85599995       4.02728149E-21
   4.86399984       4.39165858E-21
   4.87200022       4.50376539E-21
   4.88000011       4.42288223E-21
   4.88800001       4.23108013E-21
   4.89599991       4.01231913E-21
   4.90399981       3.78774969E-21
   4.91200018       3.52600680E-21
   4.92000008       3.23491375E-21
   4.92799997       2.98890749E-21
   4.93599987       2.84006546E-21
   4.94399977       2.75355643E-21
   4.95200014       2.66885685E-21
   4.96000004       2.58316873E-21
   4.96799994       2.53091741E-21
   4.97599983       2.51637167E-21
   4.98400021       2.51808339E-21
   4.99200010       2.53351507E-21
   5.00000000       2.56013631E-21
   5.00799990       2.54580242E-21
   5.01599979       2.41978683E-21
   5.02400017       2.17431391E-21
   5.03200006       1.86089829E-21
   5.03999996       1.50404488E-21
   5.04799986       1.07777161E-21
   5.05600023       5.78756525E-22
   5.06400013       6.23875317E-23
   5.07200003      -4.16177114E-22
   5.07999992      -8.42863571E-22
   5.08799982      -1.20228713E-21
   5.09600019      -1.45064134E-21
   5.10400009      -1.56690778E-21
   5.11199999      -1.58262643E-21
   5.11999989      -1.51984350E-21
   5.12799978      -1.34336494E-21
   5.13600016      -1.02403263E-21
   5.14400005      -6.16785729E-22
   5.15199995      -2.24337350E-22
   5.15999985       9.46696700E-23
   5.16800022       3.32562881E-22
   5.17600012       4.67275964E-22
   5.18400002       4.48652485E-22
   5.19199991       2.53359277E-22
   5.19999981      -9.15479139E-23
   5.20800018      -5.48870283E-22
   5.21600008      -1.09604804E-21
   5.22399998      -1.69231844E-21
   5.23199987      -2.24968186E-21
   5.23999977      -2.66095743E-21
   5.24800014      -2.84967053E-21
   5.25600004      -2.78944387E-21
   5.26399994      -2.49897584E-21
   5.27199984      -2.03659258E-21
   5.28000021      -1.48330336E-21
   5.28800011      -9.09378455E-22
   5.29600000      -3.67197460E-22
   5.30399990       6.50640421E-23
   5.31199980       2.50841864E-22
   5.32000017       4.52667793E-23
   5.32800007      -6.13131069E-22
   5.33599997      -1.67621497E-21
   5.34399986      -3.03780000E-21
   5.35200024      -4.57023024E-21
   5.36000013      -6.11037026E-21
   5.36800003      -7.46802568E-21
   5.37599993      -8.48799349E-21
   5.38399982      -9.07930081E-21
   5.39200020      -9.15907608E-21
   5.40000010      -8.60413401E-21
   5.40799999      -7.30494185E-21
   5.41599989      -5.25761652E-21
   5.42399979      -2.57276193E-21
   5.43200016       5.90301308E-22
   5.44000006       4.06612585E-21
   5.44799995       7.68653788E-21
   5.45599985       1.13049304E-20
   5.46400023       1.48362662E-20
   5.47200012       1.82428803E-20
   5.48000002       2.14668539E-20
   5.48799992       2.43952898E-20
   5.49599981       2.68965838E-20
   5.50400019       2.88703708E-20
   5.51200008       3.02584510E-20
   5.51999998       3.10282039E-20
   5.52799988       3.11494376E-20
   5.53599977       3.05618679E-20
   5.54400015       2.91519547E-20
   5.55200005       2.67834588E-20
   5.55999994       2.33745667E-20
   5.56799984       1.89445928E-20
   5.57600021       1.35812798E-20
   5.58400011       7.37787349E-21
   5.59200001       4.22573097E-22
   5.59999990      -7.15135767E-21
   5.60799980      -1.51182104E-20
   5.61600018      -2.31637730E-20
   5.62400007      -3.09287581E-20
   5.63199997      -3.80568158E-20
   5.63999987      -4.42320228E-20
   5.64799976      -4.92014622E-20
   5.65600014      -5.27757128E-20
   5.66400003      -5.48108098E-20
   5.67199993      -5.52026284E-20
   5.67999983      -5.39137550E-20
   5.68800020      -5.10052490E-20
   5.69600010      -4.66294959E-20
   5.70400000      -4.09929354E-20
   5.71199989      -3.43403676E-20
   5.71999979      -2.69683966E-20
   5.72800016      -1.92136705E-20
   5.73600006      -1.13909015E-20
   5.74399996      -3.73932852E-21
   5.75199986       3.56457410E-21
   5.76000023       1.03627854E-20
   5.76800013       1.65104006E-20
   5.77600002       2.19053727E-20
   5.78399992       2.64934431E-20
   5.79199982       3.02390219E-20
   5.80000019       3.31082465E-20
   5.80800009       3.50765648E-20
   5.81599998       3.61236300E-20
   5.82399988       3.62137281E-20
   5.83199978       3.53079750E-20
   5.84000015       3.34141967E-20
   5.84800005       3.06156799E-20
   5.85599995       2.70507140E-20
   5.86399984       2.28891926E-20
   5.87200022       1.83409562E-20
   5.88000011       1.36608458E-20
   5.88800001       9.11791092E-21
   5.89599991       4.96382159E-21
   5.90399981       1.43475093E-21
   5.91200018      -1.24845243E-21
   5.92000008      -2.92377226E-21
   5.92799997      -3.54402706E-21
   5.93599987      -3.18985583E-21
   5.94399977      -2.04633599E-21
   5.95200014      -3.80446208E-22
   5.96000004       1.48999826E-21
   5.96799994       3.25878586E-21
   5.97599983       4.68650243E-21
   5.98400021       5.59612322E-21
   5.99200010       5.84358997E-21
   6.00000000       5.34133907E-21
   6.00799990       4.11981787E-21
   6.01599979       2.32893287E-21
   6.02400017       1.58290166E-22
   6.03200006      -2.22353075E-21
   6.03999996      -4.64436751E-21
   6.04799986      -6.88893462E-21
   6.05600023      -8.73549902E-21
   6.06400013      -1.00390105E-20
   6.07200003      -1.07662694E-20
   6.07999992      -1.09681290E-20
   6.08799982      -1.07488978E-20
   6.09600019      -1.02527825E-20
   6.10400009      -9.63100281E-21
   6.11199999      -8.99325625E-21
   6.11999989      -8.40221228E-21
   6.12799978      -7.92059849E-21
   6.13600016      -7.63384146E-21
   6.14400005      -7.59776863E-21
   6.15199995      -7.77173425E-21
   6.15999985      -8.02367133E-21
   6.16800022      -8.19866688E-21
   6.17600012      -8.17422951E-21
   6.18400002      -7.86860001E-21
   6.19199991      -7.22930410E-21
   6.19999981      -6.22196977E-21
   6.20800018      -4.81795144E-21
   6.21600008      -3.00089575E-21
   6.22399998      -8.12769424E-22
   6.23199987       1.60159352E-21
   6.23999977       4.02001982E-21
   6.24800014       6.22756778E-21
   6.25600004       8.07129318E-21
   6.26399994       9.44450509E-21
   6.27199984       1.02571527E-20
   6.28000021       1.04440398E-20
   6.28800011       9.98644006E-21
   6.29600000       8.91424354E-21
   6.30399990       7.30906564E-21
   6.31199980       5.32184580E-21
   6.32000017       3.16260330E-21
   6.32800007       1.03999312E-21
   6.33599997      -8.90613915E-22
   6.34399986      -2.51655262E-21
   6.35200024      -3.73723674E-21
   6.36000013      -4.47807755E-21
   6.36800003      -4.72115758E-21
   6.37599993      -4.48750450E-21
   6.38399982      -3.79809227E-21
   6.39200020      -2.69396711E-21
   6.40000010      -1.29625412E-21
   6.40799999       2.01490499E-22
   6.41599989       1.62448155E-21
   6.42399979       2.87271103E-21
   6.43200016       3.87425024E-21
   6.44000006       4.52919271E-21
   6.44799995       4.74342037E-21
   6.45599985       4.49557032E-21
   6.46400023       3.82850328E-21
   6.47200012       2.78990128E-21
   6.48000002       1.42870349E-21
   6.48799992      -1.53654744E-22
   6.49599981      -1.79840031E-21
   6.50400019      -3.34857313E-21
   6.51200008      -4.67945362E-21
   6.51999998      -5.66909525E-21
   6.52799988      -6.19291263E-21
   6.53599977      -6.18083329E-21
   6.54400015      -5.65324675E-21
   6.55200005      -4.67898227E-21
   6.55999994      -3.32833224E-21
   6.56799984      -1.69399289E-21
   6.57600021       7.37514643E-23
   6.58400011       1.79737239E-21
   6.59200001       3.33343043E-21
   6.59999990       4.58194607E-21
   6.60799980       5.45394307E-21