 -0.239999995       0.00000000    
 -0.231999993       0.00000000    
 -0.224000007       0.00000000    
 -0.216000006       0.00000000    
 -0.208000004      -9.91358230E-33
 -0.200000003       7.58343236E-27
 -0.192000002      -2.45497192E-27
 -0.184000000      -1.31427111E-25
 -0.175999999      -3.00721148E-25
 -0.167999998       1.04611079E-25
 -0.159999996       1.49413510E-24
 -0.151999995       2.27632263E-24
 -0.143999994      -5.83611870E-25
 -0.136000007      -6.49363870E-24
 -0.128000006      -7.88550488E-24
 -0.119999997       2.38077570E-24
 -0.112000003       1.80081025E-23
 -0.104000002       2.03364965E-23
  -9.60000008E-02  -2.22825596E-25
  -8.79999995E-02  -2.74193725E-23
  -7.99999982E-02  -3.37977705E-23
  -7.19999969E-02  -1.25804256E-23
  -6.40000030E-02   1.54476683E-23
  -5.60000017E-02   3.02380545E-23
  -4.80000004E-02   3.49047474E-23
  -3.99999991E-02   3.87374218E-23
  -3.20000015E-02   2.87544533E-23
  -2.40000002E-02  -1.81536553E-23
  -1.60000008E-02  -8.89651454E-23
  -8.00000038E-03  -1.22734034E-22
   1.38777878E-17  -6.84387322E-23
   8.00000038E-03   4.93869273E-23
   1.60000008E-02   1.44053852E-22
   2.40000002E-02   1.50678820E-22
   3.20000015E-02   8.13315846E-23
   3.99999991E-02  -6.81678216E-24
   4.80000004E-02  -7.52054422E-23
   5.60000017E-02  -1.19643580E-22
   6.40000030E-02  -1.41133388E-22
   7.19999969E-02  -1.28241987E-22
   7.99999982E-02  -6.85030339E-23
   8.79999995E-02   3.52587819E-23
   9.60000008E-02   1.54171858E-22
  0.104000002       2.31132560E-22
  0.112000003       2.09657065E-22
  0.119999997       8.77388643E-23
  0.128000006      -7.07509088E-23
  0.136000007      -1.98427497E-22
  0.143999994      -2.75708906E-22
  0.151999995      -2.94165070E-22
  0.159999996      -2.10681423E-22
  0.167999998      -6.73324416E-24
  0.175999999       2.20422807E-22
  0.184000000       3.10062322E-22
  0.192000002       2.09250669E-22
  0.200000003       3.31306907E-23
  0.208000004      -7.69989333E-23
  0.216000006      -1.06047493E-22
  0.224000007      -1.41197481E-22
  0.231999993      -2.38498375E-22
  0.239999995      -3.51300839E-22
  0.247999996      -3.63919484E-22
  0.256000012      -1.78947088E-22
  0.263999999       1.78691750E-22
  0.272000015       5.10759643E-22
  0.280000001       5.62360840E-22
  0.287999988       2.66625823E-22
  0.296000004      -1.44237246E-22
  0.303999990      -3.40695469E-22
  0.312000006      -2.16173334E-22
  0.319999993       3.25089074E-23
  0.328000009       1.38664279E-22
  0.335999995       3.40783178E-23
  0.344000012      -1.18424367E-22
  0.351999998      -1.05862622E-22
  0.360000014       1.54005629E-22
  0.368000001       5.79627528E-22
  0.375999987       1.01217958E-21
  0.384000003       1.30798803E-21
  0.391999990       1.37563630E-21
  0.400000006       1.18771312E-21
  0.407999992       8.01206818E-22
  0.416000009       3.49658949E-22
  0.423999995      -3.38750220E-23
  0.432000011      -3.05913746E-22
  0.439999998      -5.17617911E-22
  0.448000014      -7.40269042E-22
  0.456000000      -1.00677675E-21
  0.463999987      -1.30615393E-21
  0.472000003      -1.58917026E-21
  0.479999989      -1.77573584E-21
  0.488000005      -1.80518376E-21
  0.495999992      -1.71146920E-21
  0.504000008      -1.62137094E-21
  0.512000024      -1.64739209E-21
  0.519999981      -1.77586388E-21
  0.527999997      -1.86583896E-21
  0.536000013      -1.74651209E-21
  0.544000030      -1.31904571E-21
  0.551999986      -5.84285619E-22
  0.560000002       3.99831966E-22
  0.568000019       1.56534419E-21
  0.575999975       2.82953890E-21
  0.583999991       4.06339753E-21
  0.592000008       5.10234325E-21
  0.600000024       5.79556422E-21
  0.607999980       6.01409258E-21
  0.615999997       5.62188860E-21
  0.624000013       4.51738438E-21
  0.632000029       2.76552530E-21
  0.639999986       6.54877386E-22
  0.648000002      -1.44700102E-21
  0.656000018      -3.29780350E-21
  0.663999975      -4.80773730E-21
  0.671999991      -5.88600479E-21
  0.680000007      -6.34629041E-21
  0.688000023      -6.02065226E-21
  0.695999980      -4.95015575E-21
  0.703999996      -3.42545710E-21
  0.712000012      -1.83606894E-21
  0.720000029      -4.73408379E-22
  0.727999985       5.68934108E-22
  0.736000001       1.36081076E-21
  0.744000018       2.01300683E-21
  0.751999974       2.53678462E-21
  0.759999990       2.80075479E-21
  0.768000007       2.66141222E-21
  0.776000023       2.16461191E-21
  0.783999979       1.57717322E-21
  0.791999996       1.16475250E-21
  0.800000012       9.59682083E-22
  0.808000028       7.90561816E-22
  0.815999985       5.01698875E-22
  0.824000001       7.27069557E-23
  0.832000017      -4.41116983E-22
  0.839999974      -9.64700298E-22
  0.847999990      -1.37860130E-21
  0.856000006      -1.54987464E-21
  0.864000022      -1.45717235E-21
  0.871999979      -1.22785036E-21
  0.879999995      -9.94658332E-22
  0.888000011      -7.57925542E-22
  0.896000028      -4.33475205E-22
  0.903999984       8.55767670E-24
  0.912000000       4.99056633E-22
  0.920000017       9.20581340E-22
  0.927999973       1.14803682E-21
  0.935999990       1.07466069E-21
  0.944000006       6.77038951E-22
  0.952000022       7.27134559E-23
  0.959999979      -5.20775677E-22
  0.967999995      -9.00286132E-22
  0.976000011      -9.50534628E-22
  0.984000027      -6.35725005E-22
  0.991999984       2.87695963E-23
   1.00000000       9.79469693E-22
   1.00800002       2.10811967E-21
   1.01600003       3.28544123E-21
   1.02400005       4.36791228E-21
   1.03199995       5.16069664E-21
   1.03999996       5.39539217E-21
   1.04799998       4.80029792E-21
   1.05599999       3.23264950E-21
   1.06400001       7.54077112E-22
   1.07200003      -2.39310904E-21
   1.08000004      -5.83241253E-21
   1.08800006      -9.08050604E-21
   1.09599996      -1.16213100E-20
   1.10399997      -1.30436641E-20
   1.11199999      -1.31208108E-20
   1.12000000      -1.17589056E-20
   1.12800002      -8.93924879E-21
   1.13600004      -4.78354227E-21
   1.14400005       3.45970412E-22
   1.15199995       5.87164101E-21
   1.15999997       1.11233206E-20
   1.16799998       1.54262948E-20
   1.17600000       1.81602431E-20
   1.18400002       1.88794944E-20
   1.19200003       1.74453910E-20
   1.20000005       1.40352824E-20
   1.20799994       9.04265445E-21
   1.21599996       3.00614095E-21
   1.22399998      -3.40484544E-21
   1.23199999      -9.44720070E-21
   1.24000001      -1.44259766E-20
   1.24800003      -1.77874770E-20
   1.25600004      -1.91408915E-20
   1.26400006      -1.82713615E-20
   1.27199996      -1.51943724E-20
   1.27999997      -1.02221736E-20
   1.28799999      -3.98084264E-21
   1.29600000       2.67271951E-21
   1.30400002       8.83796763E-21
   1.31200004       1.37689415E-20
   1.32000005       1.69555385E-20
   1.32799995       1.80884868E-20
   1.33599997       1.70402760E-20
   1.34399998       1.39178760E-20
   1.35200000       9.09016482E-21
   1.36000001       3.13032992E-21
   1.36800003      -3.25140384E-21
   1.37600005      -9.24917091E-21
   1.38399994      -1.40722147E-20
   1.39199996      -1.71426655E-20
   1.39999998      -1.82105605E-20
   1.40799999      -1.72789387E-20
   1.41600001      -1.44847193E-20
   1.42400002      -1.01018067E-20
   1.43200004      -4.59432470E-21
   1.44000006       1.42964638E-21
   1.44799995       7.32211716E-21
   1.45599997       1.24334576E-20
   1.46399999       1.61309865E-20
   1.47200000       1.79232461E-20
   1.48000002       1.76296568E-20
   1.48800004       1.54121180E-20
   1.49600005       1.16487064E-20
   1.50399995       6.80991545E-21
   1.51199996       1.42378099E-21
   1.51999998      -3.93902236E-21
   1.52800000      -8.71773645E-21
   1.53600001      -1.24182081E-20
   1.54400003      -1.46517323E-20
   1.55200005      -1.51834963E-20
   1.55999994      -1.39857501E-20
   1.56799996      -1.12489746E-20
   1.57599998      -7.34596161E-21
   1.58399999      -2.78392744E-21
   1.59200001       1.85799346E-21
   1.60000002       6.03072989E-21
   1.60800004       9.31601502E-21
   1.61600006       1.14498179E-20
   1.62399995       1.22758652E-20
   1.63199997       1.17219409E-20
   1.63999999       9.84309063E-21
   1.64800000       6.86934078E-21
   1.65600002       3.18845915E-21
   1.66400003      -7.26783535E-22
   1.67200005      -4.40263690E-21
   1.67999995      -7.44629845E-21
   1.68799996      -9.61185568E-21
   1.69599998      -1.07981611E-20
   1.70400000      -1.09647492E-20
   1.71200001      -1.00669375E-20
   1.72000003      -8.11621781E-21
   1.72800004      -5.29596773E-21
   1.73599994      -1.95507611E-21
   1.74399996       1.53324975E-21
   1.75199997       4.85965702E-21
   1.75999999       7.72806170E-21
   1.76800001       9.82583616E-21
   1.77600002       1.09303444E-20
   1.78400004       1.09993575E-20
   1.79200006       1.00896179E-20
   1.79999995       8.24079493E-21
   1.80799997       5.52853513E-21
   1.81599998       2.19427974E-21
   1.82400000      -1.37822002E-21
   1.83200002      -4.80989815E-21
   1.84000003      -7.78527933E-21
   1.84800005      -1.00135819E-20
   1.85599995      -1.12567221E-20
   1.86399996      -1.14138888E-20
   1.87199998      -1.04990392E-20
   1.88000000      -8.53798945E-21
   1.88800001      -5.58602621E-21
   1.89600003      -1.87025860E-21
   1.90400004       2.17131801E-21
   1.91199994       6.03923636E-21
   1.91999996       9.32565281E-21
   1.92799997       1.17243586E-20
   1.93599999       1.29785898E-20
   1.94400001       1.28899668E-20
   1.95200002       1.13797579E-20
   1.96000004       8.53629955E-21
   1.96800005       4.62540739E-21
   1.97599995       6.31673049E-23
   1.98399997      -4.64398987E-21
   1.99199998      -8.96437602E-21
   2.00000000      -1.23957845E-20
   2.00799990      -1.45310834E-20
   2.01600003      -1.51293919E-20
   2.02399993      -1.41366960E-20
   2.03200006      -1.16454550E-20
   2.03999996      -7.86759834E-21
   2.04800010      -3.15976370E-21
   2.05599999       1.96634342E-21
   2.06399989       6.91366522E-21
   2.07200003       1.11135286E-20
   2.07999992       1.41132894E-20
   2.08800006       1.56214690E-20
   2.09599996       1.55229215E-20
   2.10400009       1.38636828E-20
   2.11199999       1.08171701E-20
   2.11999989       6.66594119E-21
   2.12800002       1.81097846E-21
   2.13599992      -3.22765269E-21
   2.14400005      -7.86720414E-21
   2.15199995      -1.15805463E-20
   2.16000009      -1.40106834E-20
   2.16799998      -1.49934774E-20
   2.17600012      -1.44876177E-20
   2.18400002      -1.25232059E-20
   2.19199991      -9.24709973E-21
   2.20000005      -4.98751054E-21
   2.20799994      -2.22455998E-22
   2.21600008       4.52486334E-21
   2.22399998       8.76344625E-21
   2.23200011       1.20747326E-20
   2.24000001       1.41593271E-20
   2.24799991       1.48561073E-20
   2.25600004       1.40937602E-20
   2.26399994       1.18583950E-20
   2.27200007       8.26566851E-21
   2.27999997       3.64937788E-21
   2.28800011      -1.47397113E-21
   2.29600000      -6.52955009E-21
   2.30399990      -1.09667323E-20
   2.31200004      -1.42981271E-20
   2.31999993      -1.61681223E-20
   2.32800007      -1.64086493E-20
   2.33599997      -1.50007314E-20
   2.34400010      -1.20137345E-20
   2.35200000      -7.64404874E-21
   2.35999990      -2.29783120E-21
   2.36800003       3.43298857E-21
   2.37599993       8.89613200E-21
   2.38400006       1.34771447E-20
   2.39199996       1.66464670E-20
   2.40000010       1.80316423E-20
   2.40799999       1.75003484E-20
   2.41599989       1.51582350E-20
   2.42400002       1.12676451E-20
   2.43199992       6.19608241E-21
   2.44000006       4.28220306E-22
   2.44799995      -5.43798874E-21
   2.45600009      -1.07598733E-20
   2.46399999      -1.49397559E-20
   2.47199988      -1.74917971E-20
   2.48000002      -1.80982110E-20
   2.48799992      -1.66699851E-20
   2.49600005      -1.33844916E-20
   2.50399995      -8.66004464E-21
   2.51200008      -3.06596796E-21
   2.51999998       2.78342399E-21
   2.52800012       8.29200904E-21
   2.53600001       1.28940720E-20
   2.54399991       1.60713293E-20
   2.55200005       1.74218971E-20
   2.55999994       1.67527759E-20
   2.56800008       1.41302967E-20
   2.57599998       9.86853855E-21
   2.58400011       4.48382823E-21
   2.59200001      -1.36958289E-21
   2.59999990      -6.99112778E-21
   2.60800004      -1.17409144E-20
   2.61599994      -1.51209731E-20
   2.62400007      -1.68046055E-20
   2.63199997      -1.66329122E-20
   2.64000010      -1.46202881E-20
   2.64800000      -1.09822936E-20
   2.65599990      -6.14514012E-21
   2.66400003      -6.84659019E-22
   2.67199993       4.78660623E-21
   2.68000007       9.69856667E-21
   2.68799996       1.35351370E-20
   2.69600010       1.58540797E-20
   2.70400000       1.63786026E-20
   2.71199989       1.50910136E-20
   2.72000003       1.22231591E-20
   2.72799993       8.16519030E-21
   2.73600006       3.39377948E-21
   2.74399996      -1.56580221E-21
   2.75200009      -6.20136174E-21
   2.75999999      -1.00830263E-20
   2.76799989      -1.28724167E-20
   2.77600002      -1.43006022E-20
   2.78399992      -1.42066105E-20
   2.79200006      -1.26166200E-20
   2.79999995      -9.75383429E-21
   2.80800009      -5.97011387E-21
   2.81599998      -1.69376459E-21
   2.82399988       2.59395399E-21
   2.83200002       6.42796278E-21
   2.83999991       9.45535295E-21
   2.84800005       1.14530450E-20
   2.85599995       1.22758337E-20
   2.86400008       1.18520724E-20
   2.87199998       1.02370394E-20
   2.88000011       7.61753615E-21
   2.88800001       4.25992684E-21
   2.89599991       4.98490824E-22
   2.90400004      -3.25089372E-21
   2.91199994      -6.56525538E-21
   2.92000008      -9.14251227E-21
   2.92799997      -1.08173333E-20
   2.93600011      -1.14656595E-20
   2.94400001      -1.09825820E-20
   2.95199990      -9.37880885E-21
   2.96000004      -6.82739126E-21
   2.96799994      -3.58910921E-21
   2.97600007       4.50475864E-23
   2.98399997       3.72460043E-21
   2.99200010       7.04824040E-21
   3.00000000       9.67128102E-21
   3.00799990       1.13769266E-20
   3.01600003       1.20280082E-20
   3.02399993       1.15200539E-20
   3.03200006       9.83631647E-21
   3.03999996       7.11104231E-21
   3.04800010       3.60044983E-21
   3.05599999      -3.69821148E-22
   3.06399989      -4.39710715E-21
   3.07200003      -8.00653399E-21
   3.07999992      -1.07579677E-20
   3.08800006      -1.23731372E-20
   3.09599996      -1.27423805E-20
   3.10400009      -1.18369958E-20
   3.11199999      -9.67741702E-21
   3.11999989      -6.40135083E-21
   3.12800002      -2.32304365E-21
   3.13599992       2.09721850E-21
   3.14400005       6.33064062E-21
   3.15199995       9.85123480E-21
   3.16000009       1.22219134E-20
   3.16799998       1.31937796E-20
   3.17600012       1.27286714E-20
   3.18400002       1.09098717E-20
   3.19199991       7.87182553E-21
   3.20000005       3.86593845E-21
   3.20799994      -6.47993370E-22
   3.21600008      -5.07323683E-21
   3.22399998      -8.86834229E-21
   3.23200011      -1.16477160E-20
   3.24000001      -1.31473662E-20
   3.24799991      -1.32150609E-20
   3.25600004      -1.18746745E-20
   3.26399994      -9.33113692E-21
   3.27200007      -5.87994876E-21
   3.27999997      -1.86251650E-21
   3.28800011       2.29212152E-21
   3.29600000       6.08866687E-21
   3.30399990       9.10365659E-21
   3.31200004       1.10805439E-20
   3.31999993       1.18897350E-20
   3.32800007       1.14815004E-20
   3.33599997       9.92871352E-21
   3.34400010       7.45740158E-21
   3.35200000       4.37639129E-21
   3.35999990       9.98161430E-22
   3.36800003      -2.35918595E-21
   3.37599993      -5.36073743E-21
   3.38400006      -7.71375002E-21
   3.39199996      -9.23364350E-21
   3.40000010      -9.83673087E-21
   3.40799999      -9.50083415E-21
   3.41599989      -8.26517172E-21
   3.42400002      -6.25400565E-21
   3.43199992      -3.67674351E-21
   3.44000006      -8.04091903E-22
   3.44799995       2.06443844E-21
   3.45600009       4.64229633E-21
   3.46399999       6.69294977E-21
   3.47199988       8.04047344E-21
   3.48000002       8.56632443E-21
   3.48799992       8.21778089E-21
   3.49600005       7.02012434E-21
   3.50399995       5.07759164E-21
   3.51200008       2.57416001E-21
   3.51999998      -2.30157957E-22
   3.52800012      -3.03981504E-21
   3.53600001      -5.58513723E-21
   3.54399991      -7.63487221E-21
   3.55200005      -8.96010521E-21
   3.55999994      -9.34744465E-21
   3.56800008      -8.69568126E-21
   3.57599998      -7.08635372E-21
   3.58400011      -4.73868024E-21
   3.59200001      -1.91665462E-21
   3.59999990       1.10486157E-21
   3.60800004       4.02862848E-21
   3.61599994       6.55154308E-21
   3.62400007       8.40791934E-21
   3.63199997       9.39542274E-21
   3.64000010       9.39489364E-21
   3.64800000       8.41338649E-21
   3.65599990       6.61113240E-21
   3.66400003       4.25517984E-21
   3.67199993       1.63186286E-21
   3.68000007      -9.96554931E-22
   3.68799996      -3.37935329E-21
   3.69600010      -5.27845517E-21
   3.70400000      -6.51418263E-21
   3.71199989      -7.00219859E-21
   3.72000003      -6.73823952E-21
   3.72799993      -5.76907344E-21
   3.73600006      -4.20150842E-21
   3.74399996      -2.22378642E-21
   3.75200009      -8.05047321E-23
   3.75999999       1.98583003E-21
   3.76799989       3.76044344E-21
   3.77600002       5.04896869E-21
   3.78399992       5.70701389E-21
   3.79200006       5.70895219E-21
   3.79999995       5.15701108E-21
   3.80800009       4.19126398E-21
   3.81599998       2.90794254E-21
   3.82399988       1.38066501E-21
   3.83200002      -2.79219829E-22
   3.83999991      -1.92362467E-21
   3.84800005      -3.39983631E-21
   3.85599995      -4.54405651E-21
   3.86400008      -5.18569300E-21
   3.87199998      -5.22966000E-21
   3.88000011      -4.72534801E-21
   3.88800001      -3.79820052E-21
   3.89599991      -2.52751438E-21
   3.90400004      -9.53764894E-22
   3.91199994       8.11613774E-22
   3.92000008       2.56904729E-21
   3.92799997       4.13023074E-21
   3.93600011       5.35882013E-21
   3.94400001       6.11005562E-21
   3.95199990       6.23553707E-21
   3.96000004       5.70102531E-21
   3.96799994       4.62997223E-21
   3.97600007       3.18130897E-21
   3.98399997       1.44671567E-21
   3.99200010      -4.81322434E-22
   4.00000000      -2.40922311E-21
   4.00799990      -4.09107981E-21
   4.01599979      -5.34889840E-21
   4.02400017      -6.08829730E-21
   4.03200006      -6.23747456E-21
   4.03999996      -5.75580260E-21
   4.04799986      -4.70077574E-21
   4.05600023      -3.22319569E-21
   4.06400013      -1.49020384E-21
   4.07200003       3.41596260E-22
   4.07999992       2.08764130E-21
   4.08799982       3.54495885E-21
   4.09600019       4.57481931E-21
   4.10400009       5.13966856E-21
   4.11199999       5.23852755E-21
   4.11999989       4.84957172E-21
   4.12799978       3.96970681E-21
   4.13600016       2.67331001E-21
   4.14400005       1.08738819E-21
   4.15199995      -6.63742870E-22
   4.15999985      -2.43856540E-21
   4.16800022      -4.02979493E-21
   4.17600012      -5.21446015E-21
   4.18400002      -5.87178641E-21
   4.19199991      -6.00628242E-21
   4.19999981      -5.65360460E-21
   4.20800018      -4.82776089E-21
   4.21600008      -3.57584524E-21
   4.22399998      -2.01390691E-21
   4.23199987      -2.75163746E-22
   4.23999977       1.51297090E-21
   4.24800014       3.16163294E-21
   4.25600004       4.40342733E-21
   4.26399994       5.01656244E-21
   4.27199984       4.93940563E-21
   4.28000021       4.22662878E-21
   4.28800011       2.94986097E-21
   4.29600000       1.20278029E-21
   4.30399990      -8.45642886E-22
   4.31199980      -2.98343872E-21
   4.32000017      -5.02492189E-21
   4.32800007      -6.79360852E-21
   4.33599997      -8.06712335E-21
   4.34399986      -8.61633251E-21
   4.35200024      -8.31163277E-21
   4.36000013      -7.16346650E-21
   4.36800003      -5.28341543E-21
   4.37599993      -2.85391973E-21
   4.38399982      -1.17220060E-22
   4.39200020       2.67087694E-21
   4.40000010       5.29826913E-21
   4.40799999       7.58948552E-21
   4.41599989       9.35159025E-21
   4.42399979       1.03693374E-20
   4.43200016       1.04795366E-20
   4.44000006       9.65433108E-21
   4.44799995       8.02124149E-21
   4.45599985       5.81395687E-21
   4.46400023       3.29643510E-21
   4.47200012       7.11538299E-22
   4.48000002      -1.72330156E-21
   4.48799992      -3.79873003E-21
   4.49599981      -5.31512819E-21
   4.50400019      -6.11028746E-21
   4.51200008      -6.09321798E-21
   4.51999998      -5.27295935E-21
   4.52799988      -3.77441948E-21
   4.53599977      -1.81929652E-21
   4.54400015       3.31899506E-22
   4.55200005       2.43692639E-21
   4.55999994       4.28810389E-21
   4.56799984       5.69844845E-21
   4.57600021       6.49693462E-21
   4.58400011       6.55264128E-21
   4.59200001       5.81982792E-21
   4.59999990       4.37721564E-21
   4.60799980       2.42230068E-21
   4.61600018       2.04513565E-22
   4.62400007      -2.05711922E-21
   4.63199997      -4.20182427E-21
   4.63999987      -6.09041210E-21
   4.64799976      -7.56556190E-21
   4.65600014      -8.46392044E-21
   4.66400003      -8.67250970E-21
   4.67199993      -8.18256109E-21
   4.67999983      -7.10064763E-21
   4.68800020      -5.60709387E-21
   4.69600010      -3.88670804E-21
   4.70400000      -2.07726559E-21
   4.71199989      -2.66415872E-22
   4.71999979       1.47203091E-21
   4.72800016       3.04208857E-21
   4.73600006       4.32796285E-21
   4.74399996       5.23742208E-21
   4.75199986       5.74367277E-21
   4.76000023       5.88329545E-21
   4.76800013       5.72495902E-21
   4.77600002       5.35620570E-21
   4.78399992       4.88572371E-21
   4.79199982       4.41602850E-21
   4.80000019       4.00016749E-21
   4.80800009       3.65616739E-21
   4.81599998       3.43705338E-21
   4.82399988       3.44888029E-21
   4.83199978       3.76959695E-21
   4.84000015       4.37072461E-21
   4.84800005       5.13539452E-21
   4.85599995       5.91968857E-21
   4.86399984       6.57196653E-21
   4.87200022       6.93615743E-21
   4.88000011       6.89162215E-21
   4.88800001       6.38079733E-21
   4.89599991       5.36621265E-21
   4.90399981       3.78495472E-21
   4.91200018       1.59486339E-21
   4.92000008      -1.13803099E-21
   4.92799997      -4.23125703E-21
   4.93599987      -7.45154669E-21
   4.94399977      -1.05527890E-20
   4.95200014      -1.32735096E-20
   4.96000004      -1.53683437E-20
   4.96799994      -1.66684503E-20
   4.97599983      -1.70851231E-20
   4.98400021      -1.65613239E-20
   4.99200010      -1.50778288E-20
   5.00000000      -1.27329939E-20
   5.00799990      -9.77600741E-21
   5.01599979      -6.52736663E-21
   5.02400017      -3.27878077E-21
   5.03200006      -2.68619735E-22
   5.03999996       2.30311013E-21
   5.04799986       4.28711717E-21
   5.05600023       5.59961006E-21
   5.06400013       6.20033706E-21
   5.07200003       6.08039344E-21
   5.07999992       5.30576505E-21
   5.08799982       4.05551306E-21
   5.09600019       2.57895447E-21
   5.10400009       1.11490063E-21
   5.11199999      -1.37693399E-22
   5.11999989      -1.01031893E-21
   5.12799978      -1.38760043E-21
   5.13600016      -1.24753569E-21
   5.14400005      -6.47752496E-22
   5.15199995       3.28425135E-22
   5.15999985       1.58365768E-21
   5.16800022       2.97389888E-21
   5.17600012       4.31301099E-21
   5.18400002       5.42913331E-21
   5.19199991       6.19321797E-21
   5.19999981       6.49466189E-21
   5.20800018       6.24259880E-21
   5.21600008       5.42637308E-21
   5.22399998       4.14666247E-21
   5.23199987       2.55620600E-21
   5.23999977       7.96476732E-22
   5.24800014      -9.74052528E-22
   5.25600004      -2.52679585E-21
   5.26399994      -3.61066640E-21
   5.27199984      -4.06520739E-21
   5.28000021      -3.85023414E-21
   5.28800011      -2.97726859E-21
   5.29600000      -1.48327519E-21
   5.30399990       5.06643480E-22
   5.31199980       2.75469299E-21
   5.32000017       4.99094609E-21
   5.32800007       6.98301673E-21
   5.33599997       8.51032818E-21
   5.34399986       9.34429426E-21
   5.35200024       9.32509785E-21
   5.36000013       8.43636741E-21
   5.36800003       6.77072535E-21
   5.37599993       4.47004606E-21
   5.38399982       1.74895930E-21
   5.39200020      -1.08064543E-21
   5.40000010      -3.69660998E-21
   5.40799999      -5.87091197E-21
   5.41599989      -7.44567161E-21
   5.42399979      -8.26008827E-21
   5.43200016      -8.20233265E-21
   5.44000006      -7.33572121E-21
   5.44799995      -5.89850701E-21
   5.45599985      -4.16752737E-21
   5.46400023      -2.37165606E-21
   5.47200012      -7.20014477E-22
   5.48000002       5.82254675E-22
   5.48799992       1.39249535E-21
   5.49599981       1.66460657E-21
   5.50400019       1.40624319E-21
   5.51200008       6.49854678E-22
   5.51999998      -5.05114428E-22
   5.52799988      -1.86335358E-21
   5.53599977      -3.19178888E-21
   5.54400015      -4.30130324E-21
   5.55200005      -5.06389187E-21
   5.55999994      -5.39197157E-21
   5.56799984      -5.25325484E-21
   5.57600021      -4.70249068E-21
   5.58400011      -3.85421656E-21
   5.59200001      -2.80734174E-21
   5.59999990      -1.61811634E-21
   5.60799980      -3.47875063E-22
   5.61600018       9.09038980E-22
   5.62400007       2.07795141E-21
   5.63199997       3.15323612E-21
   5.63999987       4.15129840E-21
   5.64799976       5.03130023E-21
   5.65600014       5.71083354E-21
   5.66400003       6.15452506E-21
   5.67199993       6.39581058E-21
   5.67999983       6.46216274E-21
   5.68800020       6.32287288E-21
   5.69600010       5.92393352E-21
   5.70400000       5.23563121E-21
   5.71199989       4.25229602E-21
   5.71999979       2.98742498E-21
   5.72800016       1.49444819E-21
   5.73600006      -1.37162010E-22
   5.74399996      -1.82901286E-21
   5.75199986      -3.53291384E-21
   5.76000023      -5.18637115E-21
   5.76800013      -6.67996166E-21
   5.77600002      -7.89854895E-21
   5.78399992      -8.77901648E-21
   5.79199982      -9.30453708E-21
   5.80000019      -9.45936687E-21
   5.80800009      -9.21933829E-21
   5.81599998      -8.58170482E-21
   5.82399988      -7.57744132E-21
   5.83199978      -6.25165739E-21
   5.84000015      -4.65480824E-21
   5.84800005      -2.86093016E-21
   5.85599995      -9.73678722E-22
   5.86399984       9.01116948E-22
   5.87200022       2.67552094E-21
   5.88000011       4.25893325E-21
   5.88800001       5.53993350E-21
   5.89599991       6.42384182E-21
   5.90399981       6.88660979E-21
   5.91200018       6.96384536E-21
   5.92000008       6.69361499E-21
   5.92799997       6.11012429E-21
   5.93599987       5.29169208E-21
   5.94399977       4.35805356E-21
   5.95200014       3.39805715E-21
   5.96000004       2.45023418E-21
   5.96799994       1.58354752E-21
   5.97599983       9.39985551E-22
   5.98400021       6.40485433E-22
   5.99200010       6.80326822E-22
   6.00000000       9.67688125E-22
   6.00799990       1.43573745E-21
   6.01599979       2.06207403E-21
   6.02400017       2.80522815E-21
   6.03200006       3.58997678E-21
   6.03999996       4.34738140E-21
   6.04799986       5.00939852E-21
   6.05600023       5.47123632E-21
   6.06400013       5.62673213E-21
   6.07200003       5.44984513E-21
   6.07999992       4.98104537E-21
   6.08799982       4.22281842E-21
   6.09600019       3.11734585E-21
   6.10400009       1.65793369E-21
   6.11199999      -3.81005933E-23
   6.11999989      -1.81115941E-21
   6.12799978      -3.56478857E-21
   6.13600016      -5.24034953E-21
   6.14400005      -6.73252681E-21
   6.15199995      -7.90062417E-21
   6.15999985      -8.64723384E-21
   6.16800022      -8.92619323E-21
   6.17600012      -8.69061963E-21
   6.18400002      -7.90930553E-21
   6.19199991      -6.64259353E-21
   6.19999981      -5.03319975E-21
   6.20800018      -3.20195395E-21
   6.21600008      -1.21393672E-21
   6.22399998       8.31195448E-22
   6.23199987       2.74887344E-21
   6.23999977       4.35869011E-21
   6.24800014       5.57072498E-21
   6.25600004       6.33710903E-21
   6.26399994       6.58028438E-21
   6.27199984       6.24525563E-21
   6.28000021       5.38589818E-21
   6.28800011       4.12093949E-21
   6.29600000       2.52747823E-21
   6.30399990       6.57770600E-22
   6.31199980      -1.35351366E-21
   6.32000017      -3.29144920E-21
   6.32800007      -4.98734091E-21
   6.33599997      -6.37601883E-21
   6.34399986      -7.41981979E-21
   6.35200024      -8.05613736E-21
   6.36000013      -8.25137460E-21
   6.36800003      -8.03958486E-21
   6.37599993      -7.46812665E-21
   6.38399982      -6.55946390E-21
   6.39200020      -5.36578533E-21
   6.40000010      -4.00760242E-21
   6.40799999      -2.60582673E-21
   6.41599989      -1.20846725E-21
   6.42399979       1.74406683E-22
   6.43200016       1.50051502E-21
   6.44000006       2.70884485E-21
   6.44799995       3.77194642E-21
   6.45599985       4.67897864E-21
   6.46400023       5.38361091E-21
   6.47200012       5.82180014E-21
   6.48000002       5.97296498E-21
   6.48799992       5.85372455E-21
   6.49599981       5.45544153E-21
   6.50400019       4.74452988E-21
   6.51200008       3.74105963E-21
   6.51999998       2.55554845E-21
   6.52799988       1.32724350E-21
   6.53599977       1.57121150E-22
   6.54400015      -8.81264007E-22
   6.55200005      -1.70319174E-21
   6.55999994      -2.22460977E-21
   6.56799984      -2.39955846E-21
   6.57600021      -2.21761952E-21
   6.58400011      -1.68031917E-21
   6.59200001      -8.22069854E-22
   6.59999990       2.41612268E-22
   6.60799980       1.32496946E-21