 -0.239999995       0.00000000    
 -0.231999993       0.00000000    
 -0.224000007       0.00000000    
 -0.216000006       0.00000000    
 -0.208000004       0.00000000    
 -0.200000003       0.00000000    
 -0.192000002       0.00000000    
 -0.184000000       0.00000000    
 -0.175999999       0.00000000    
 -0.167999998       0.00000000    
 -0.159999996       5.28596405E-40
 -0.151999995       2.61283309E-40
 -0.143999994      -1.40047955E-38
 -0.136000007       6.59731037E-39
 -0.128000006       3.71660091E-37
 -0.119999997       8.69219832E-37
 -0.112000003      -2.16413145E-36
 -0.104000002      -1.39508766E-35
  -9.60000008E-02  -2.11249881E-35
  -8.79999995E-02   2.57263224E-35
  -7.99999982E-02   1.53152725E-34
  -7.19999969E-02   2.39755986E-34
  -6.40000030E-02   4.80635045E-35
  -5.60000017E-02  -4.91565610E-34
  -4.80000004E-02  -1.22509204E-33
  -3.99999991E-02  -2.13175313E-33
  -3.20000015E-02  -2.56828214E-33
  -2.40000002E-02   1.29196307E-33
  -1.60000008E-02   1.48376716E-32
  -8.00000038E-03   3.13250819E-32
   1.38777878E-17   1.85310263E-32
   8.00000038E-03  -5.58018159E-32
   1.60000008E-02  -1.50915396E-31
   2.40000002E-02  -1.22807997E-31
   3.20000015E-02   1.37855359E-31
   3.99999991E-02   4.63445654E-31
   4.80000004E-02   4.04954842E-31
   5.60000017E-02  -2.83439406E-31
   6.40000030E-02  -1.06421923E-30
   7.19999969E-02  -8.43359645E-31
   7.99999982E-02   7.30463945E-31
   8.79999995E-02   2.19327479E-30
   9.60000008E-02   1.26672193E-30
  0.104000002      -2.24654499E-30
  0.112000003      -4.85371510E-30
  0.119999997      -2.16708703E-30
  0.128000006       5.46730773E-30
  0.136000007       1.08833406E-29
  0.143999994       6.05553112E-30
  0.151999995      -8.22348464E-30
  0.159999996      -1.98321237E-29
  0.167999998      -1.55676198E-29
  0.175999999       4.39342913E-30
  0.184000000       2.38302158E-29
  0.192000002       2.51739943E-29
  0.200000003       7.58135702E-30
  0.208000004      -1.19014150E-29
  0.216000006      -1.70645954E-29
  0.224000007      -1.05154932E-29
  0.231999993      -8.74473532E-30
  0.239999995      -1.82439808E-29
  0.247999996      -2.19600280E-29
  0.256000012       2.67828338E-30
  0.263999999       5.03567967E-29
  0.272000015       7.99215246E-29
  0.280000001       5.04335571E-29
  0.287999988      -3.09532361E-29
  0.296000004      -1.03353779E-28
  0.303999990      -1.03811368E-28
  0.312000006      -2.82325983E-29
  0.319999993       6.23620570E-29
  0.328000009       9.89434111E-29
  0.335999995       6.50641788E-29
  0.344000012      -1.48555995E-30
  0.351999998      -5.86434594E-29
  0.360000014      -9.40613713E-29
  0.368000001      -1.01512999E-28
  0.375999987      -4.35733043E-29
  0.384000003       1.20808927E-28
  0.391999990       3.43268437E-28
  0.400000006       4.39008172E-28
  0.407999992       1.96492966E-28
  0.416000009      -3.98872682E-28
  0.423999995      -1.03165817E-27
  0.432000011      -1.19646270E-27
  0.439999998      -5.65869033E-28
  0.448000014       6.90340537E-28
  0.456000000       1.91318260E-27
  0.463999987       2.32140310E-27
  0.472000003       1.49407540E-27
  0.479999989      -3.42569661E-28
  0.488000005      -2.37689723E-27
  0.495999992      -3.56712694E-27
  0.504000008      -3.13168843E-27
  0.512000024      -9.98183105E-28
  0.519999981       1.99199531E-27
  0.527999997       4.33423639E-27
  0.536000013       4.61395615E-27
  0.544000030       2.43857687E-27
  0.551999986      -1.09377221E-27
  0.560000002      -3.90213321E-27
  0.568000019      -4.25945176E-27
  0.575999975      -2.06718323E-27
  0.583999991       9.62688986E-28
  0.592000008       2.51475529E-27
  0.600000024       1.45062825E-27
  0.607999980      -1.22045728E-27
  0.615999997      -3.03274802E-27
  0.624000013      -1.98685732E-27
  0.632000029       1.74907430E-27
  0.639999986       5.72747761E-27
  0.648000002       6.89043423E-27
  0.656000018       3.83401884E-27
  0.663999975      -2.02755934E-27
  0.671999991      -7.31495849E-27
  0.680000007      -8.96638795E-27
  0.688000023      -6.27230008E-27
  0.695999980      -1.16958548E-27
  0.703999996       3.34476562E-27
  0.712000012       5.35617103E-27
  0.720000029       5.03291293E-27
  0.727999985       3.83664889E-27
  0.736000001       2.87295592E-27
  0.744000018       1.99926685E-27
  0.751999974       4.55064361E-28
  0.759999990      -1.80983489E-27
  0.768000007      -3.67907508E-27
  0.776000023      -3.93805450E-27
  0.783999979      -2.79820885E-27
  0.791999996      -2.08191371E-27
  0.800000012      -3.46249964E-27
  0.808000028      -6.24246665E-27
  0.815999985      -7.01757950E-27
  0.824000001      -2.13978424E-27
  0.832000017       8.70556003E-27
  0.839999974       2.08564762E-26
  0.847999990       2.67230638E-26
  0.856000006       2.04532435E-26
  0.864000022       2.08679517E-27
  0.871999979      -2.15431565E-26
  0.879999995      -3.97335587E-26
  0.888000011      -4.30364053E-26
  0.896000028      -2.80779509E-26
  0.903999984       1.25566311E-28
  0.912000000       2.97235825E-26
  0.920000017       4.73751896E-26
  0.927999973       4.52013847E-26
  0.935999990       2.55798240E-26
  0.944000006      -1.25433988E-28
  0.952000022      -1.87660488E-26
  0.959999979      -2.43251053E-26
  0.967999995      -2.14397757E-26
  0.976000011      -2.08529217E-26
  0.984000027      -2.85893238E-26
  0.991999984      -3.93418307E-26
   1.00000000      -3.92143249E-26
   1.00800002      -1.64643468E-26
   1.01600003       2.76778659E-26
   1.02400005       7.60274866E-26
   1.03199995       1.04630985E-25
   1.03999996       9.52535861E-26
   1.04799998       4.49163564E-26
   1.05599999      -3.25071552E-26
   1.06400001      -1.12192648E-25
   1.07200003      -1.69213376E-25
   1.08000004      -1.85152816E-25
   1.08800006      -1.53955167E-25
   1.09599996      -8.25904088E-26
   1.10399997       1.08803101E-26
   1.11199999       1.04652987E-25
   1.12000000       1.78654611E-25
   1.12800002       2.27434146E-25
   1.13600004       2.38972839E-25
   1.14400005       2.13000062E-25
   1.15199995       1.45571215E-25
   1.15999997       4.20912729E-26
   1.16799998      -8.87286033E-26
   1.17600000      -2.19046311E-25
   1.18400002      -3.20708393E-25
   1.19200003      -3.71587974E-25
   1.20000005      -3.52297663E-25
   1.20799994      -2.51565425E-25
   1.21599996      -7.32687045E-26
   1.22399998       1.66858121E-25
   1.23199999       4.28784803E-25
   1.24000001       6.38564217E-25
   1.24800003       7.43062944E-25
   1.25600004       7.00129436E-25
   1.26400006       5.16713162E-25
   1.27199996       2.22954007E-25
   1.27999997      -1.40403830E-25
   1.28799999      -5.33477541E-25
   1.29600000      -9.02723018E-25
   1.30400002      -1.17968971E-24
   1.31200004      -1.27443881E-24
   1.32000005      -1.12004956E-24
   1.32799995      -7.17316743E-25
   1.33599997      -1.33999426E-25
   1.34399998       5.11782683E-25
   1.35200000       1.08860438E-24
   1.36000001       1.50918272E-24
   1.36800003       1.70544056E-24
   1.37600005       1.62492143E-24
   1.38399994       1.24311808E-24
   1.39199996       5.79947069E-25
   1.39999998      -2.66360610E-25
   1.40799999      -1.12237286E-24
   1.41600001      -1.80764794E-24
   1.42400002      -2.19174018E-24
   1.43200004      -2.22770277E-24
   1.44000006      -1.92819555E-24
   1.44799995      -1.31758033E-24
   1.45599997      -4.23387367E-25
   1.46399999       6.91781464E-25
   1.47200000       1.87699769E-24
   1.48000002       2.90347139E-24
   1.48800004       3.53109721E-24
   1.49600005       3.60867695E-24
   1.50399995       3.11484766E-24
   1.51199996       2.12866838E-24
   1.51999998       7.55886618E-25
   1.52800000      -8.98420176E-25
   1.53600001      -2.70363340E-24
   1.54400003      -4.44053945E-24
   1.55200005      -5.79131623E-24
   1.55999994      -6.41433373E-24
   1.56799996      -6.06892073E-24
   1.57599998      -4.69505753E-24
   1.58399999      -2.43906759E-24
   1.59200001       4.09792434E-25
   1.60000002       3.49413158E-24
   1.60800004       6.42856005E-24
   1.61600006       8.82035791E-24
   1.62399995       1.02872692E-23
   1.63199997       1.05048331E-23
   1.63999999       9.26285760E-24
   1.64800000       6.52148707E-24
   1.65600002       2.43591945E-24
   1.66400003      -2.61967059E-24
   1.67200005      -8.03923258E-24
   1.67999995      -1.30271062E-23
   1.68799996      -1.66957125E-23
   1.69599998      -1.82386156E-23
   1.70400000      -1.71286473E-23
   1.71200001      -1.32644468E-23
   1.72000003      -6.99559326E-24
   1.72800004       9.55673629E-25
   1.73599994       9.60124422E-24
   1.74399996       1.77884584E-23
   1.75199997       2.42866702E-23
   1.75999999       2.79350887E-23
   1.76800001       2.78181764E-23
   1.77600002       2.34662848E-23
   1.78400004       1.50486451E-23
   1.79200006       3.42909237E-24
   1.79999995      -9.87487167E-24
   1.80799997      -2.29324153E-23
   1.81599998      -3.36107662E-23
   1.82400000      -4.00589468E-23
   1.83200002      -4.08307557E-23
   1.84000003      -3.53015697E-23
   1.84800005      -2.37980497E-23
   1.85599995      -7.41594411E-24
   1.86399996       1.17778637E-23
   1.87199998       3.10915453E-23
   1.88000000       4.73886574E-23
   1.88800001       5.76894990E-23
   1.89600003       5.96307531E-23
   1.90400004       5.21730988E-23
   1.91199994       3.57256960E-23
   1.91999996       1.19253310E-23
   1.92799997      -1.60309584E-23
   1.93599999      -4.45388627E-23
   1.94400001      -6.94135497E-23
   1.95200002      -8.64583096E-23
   1.96000004      -9.21945905E-23
   1.96800005      -8.45188982E-23
   1.97599995      -6.33301384E-23
   1.98399997      -3.04320039E-23
   1.99199998       1.00631112E-23
   2.00000000       5.27788588E-23
   2.00799990       9.17402571E-23
   2.01600003       1.21110382E-22
   2.02399993       1.36173144E-22
   2.03200006       1.33499549E-22
   2.03999996       1.11944954E-22
   2.04800010       7.30789320E-23
   2.05599999       2.13723166E-23
   2.06399989      -3.67393255E-23
   2.07200003      -9.36815428E-23
   2.07999992      -1.41523464E-22
   2.08800006      -1.73267934E-22
   2.09599996      -1.83863194E-22
   2.10400009      -1.70683676E-22
   2.11199999      -1.34929344E-22
   2.11999989      -7.96230318E-23
   2.12800002      -1.23816768E-23
   2.13599992       5.86680778E-23
   2.14400005       1.23953070E-22
   2.15199995       1.74846955E-22
   2.16000009       2.04023588E-22
   2.16799998       2.06628987E-22
   2.17600012       1.81879997E-22
   2.18400002       1.32214514E-22
   2.19199991       6.43746723E-23
   2.20000005      -1.26284056E-23
   2.20799994      -8.73921315E-23
   2.21600008      -1.49715665E-22
   2.22399998      -1.90884750E-22
   2.23200011      -2.04210933E-22
   2.24000001      -1.87604818E-22
   2.24799991      -1.42147207E-22
   2.25600004      -7.27962610E-23
   2.26399994       1.11787617E-23
   2.27200007       9.80901709E-23
   2.27999997       1.75126742E-22
   2.28800011       2.30218289E-22
   2.29600000       2.54485645E-22
   2.30399990       2.42857305E-22
   2.31200004       1.94681683E-22
   2.31999993       1.13931659E-22
   2.32800007       8.88215885E-24
   2.33599997      -1.08210486E-22
   2.34400010      -2.22658654E-22
   2.35200000      -3.19131066E-22
   2.35999990      -3.84472251E-22
   2.36800003      -4.08592210E-22
   2.37599993      -3.86959044E-22
   2.38400006      -3.19804640E-22
   2.39199996      -2.12819400E-22
   2.40000010      -7.62308794E-23
   2.40799999       7.56527327E-23
   2.41599989       2.25986788E-22
   2.42400002       3.57625409E-22
   2.43199992       4.55414828E-22
   2.44000006       5.08304506E-22
   2.44799995       5.10583393E-22
   2.45600009       4.62248963E-22
   2.46399999       3.68746076E-22
   2.47199988       2.40397371E-22
   2.48000002       9.14085506E-23
   2.48799992      -6.15061027E-23
   2.49600005      -2.01135562E-22
   2.50399995      -3.12188510E-22
   2.51200008      -3.83334146E-22
   2.51999998      -4.08495880E-22
   2.52800012      -3.87205143E-22
   2.53600001      -3.24274944E-22
   2.54399991      -2.29129408E-22
   2.55200005      -1.14833598E-22
   2.55999994       3.22212544E-24
   2.56800008       1.09135309E-22
   2.57599998       1.88696564E-22
   2.58400011       2.31341248E-22
   2.59200001       2.31526031E-22
   2.59999990       1.89171900E-22
   2.60800004       1.09378922E-22
   2.61599994       1.78530444E-24
   2.62400007      -1.20343091E-22
   2.63199997      -2.41259186E-22
   2.64000010      -3.44244662E-22
   2.64800000      -4.13584197E-22
   2.65599990      -4.36681237E-22
   2.66400003      -4.05648989E-22
   2.67199993      -3.18774451E-22
   2.68000007      -1.80682620E-22
   2.68799996      -2.19631715E-24
   2.69600010       2.00631966E-22
   2.70400000       4.08023952E-22
   2.71199989       5.98285641E-22
   2.72000003       7.50091762E-22
   2.72799993       8.44595935E-22
   2.73600006       8.67614417E-22
   2.74399996       8.11286618E-22
   2.75200009       6.75531355E-22
   2.75999999       4.68629977E-22
   2.76799989       2.06790104E-22
   2.77600002      -8.71267777E-23
   2.78399992      -3.85933752E-22
   2.79200006      -6.60842488E-22
   2.79999995      -8.84396025E-22
   2.80800009      -1.03317050E-21
   2.81599998      -1.09030160E-21
   2.82399988      -1.04754347E-21
   2.83200002      -9.06594293E-22
   2.83999991      -6.79397556E-22
   2.84800005      -3.87151147E-22
   2.85599995      -5.82224976E-23
   2.86400008       2.74681392E-22
   2.87199998       5.77639649E-22
   2.88000011       8.19133323E-22
   2.88800001       9.73253216E-22
   2.89599991       1.02293161E-21
   2.90400004       9.61949357E-22
   2.91199994       7.95877097E-22
   2.92000008       5.41250518E-22
   2.92799997       2.23744025E-22
   2.93600011      -1.24410143E-22
   2.94400001      -4.67235726E-22
   2.95199990      -7.68075973E-22
   2.96000004      -9.93230759E-22
   2.96799994      -1.11580334E-21
   2.97600007      -1.11900866E-21
   2.98399997      -9.98329047E-22
   2.99200010      -7.61932299E-22
   3.00000000      -4.29438307E-22
   3.00799990      -3.00090609E-23
   3.01600003       3.99962804E-22
   3.02399993       8.19580790E-22
   3.03200006       1.18690674E-21
   3.03999996       1.46304107E-21
   3.04800010       1.61664040E-21
   3.05599999       1.62751925E-21
   3.06399989       1.48873860E-21
   3.07200003       1.20703241E-21
   3.07999992       8.02176221E-22
   3.08800006       3.05382016E-22
   3.09599996      -2.42490920E-22
   3.10400009      -7.94056230E-22
   3.11199999      -1.29944692E-21
   3.11999989      -1.71125089E-21
   3.12800002      -1.98952649E-21
   3.13599992      -2.10582635E-21
   3.14400005      -2.04580910E-21
   3.15199995      -1.81040877E-21
   3.16000009      -1.41586421E-21
   3.16799998      -8.92846556E-22
   3.17600012      -2.84385442E-22
   3.18400002       3.57477986E-22
   3.19199991       9.76249828E-22
   3.20000005       1.51646248E-21
   3.20799994       1.92905022E-21
   3.21600008       2.17597150E-21
   3.22399998       2.23366533E-21
   3.23200011       2.09501181E-21
   3.24000001       1.76997345E-21
   3.24799991       1.28495228E-21
   3.25600004       6.80871174E-22
   3.26399994       9.94140025E-24
   3.27200007      -6.68738973E-22
   3.27999997      -1.29443810E-21
   3.28800011      -1.81044047E-21
   3.29600000      -2.16913091E-21
   3.30399990      -2.33619231E-21
   3.31200004      -2.29353798E-21
   3.31999993      -2.04090519E-21
   3.32800007      -1.59618171E-21
   3.33599997      -9.94363286E-22
   3.34400010      -2.84978918E-22
   3.35200000       4.72088596E-22
   3.35999990       1.21189422E-21
   3.36800003       1.87012087E-21
   3.37599993       2.38823239E-21
   3.38400006       2.71797130E-21
   3.39199996       2.82518813E-21
   3.40000010       2.69317406E-21
   3.40799999       2.32524671E-21
   3.41599989       1.74567885E-21
   3.42400002       9.98102966E-22
   3.43199992       1.41563311E-22
   3.44000006      -7.55079332E-22
   3.44799995      -1.61888525E-21
   3.45600009      -2.37812891E-21
   3.46399999      -2.96719218E-21
   3.47199988      -3.33172781E-21
   3.48000002      -3.43411988E-21
   3.48799992      -3.25821455E-21
   3.49600005      -2.81186034E-21
   3.50399995      -2.12636632E-21
   3.51200008      -1.25329263E-21
   3.51999998      -2.59758820E-22
   3.52800012       7.76480964E-22
   3.53600001       1.77216257E-21
   3.54399991       2.64439524E-21
   3.55200005       3.31771965E-21
   3.55999994       3.73161531E-21
   3.56800008       3.84684423E-21
   3.57599998       3.64919048E-21
   3.58400011       3.15018549E-21
   3.59200001       2.38572015E-21
   3.59999990       1.41335914E-21
   3.60800004       3.08862041E-22
   3.61599994      -8.38749378E-22
   3.62400007      -1.93408681E-21
   3.63199997      -2.88381233E-21
   3.64000010      -3.60544603E-21
   3.64800000      -4.03484607E-21
   3.65599990      -4.13137336E-21
   3.66400003      -3.88098644E-21
   3.67199993      -3.29755067E-21
   3.68000007      -2.42264359E-21
   3.68799996      -1.32333812E-21
   3.69600010      -8.74412807E-23
   3.70400000       1.18373554E-21
   3.71199989       2.38419908E-21
   3.72000003       3.41247667E-21
   3.72799993       4.17994316E-21
   3.73600006       4.61784321E-21
   3.74399996       4.68289725E-21
   3.75200009       4.36131907E-21
   3.75999999       3.67087165E-21
   3.76799989       2.66032130E-21
   3.77600002       1.40617513E-21
   3.78399992       6.74457615E-24
   3.79200006      -1.42576544E-21
   3.79999995      -2.77435933E-21
   3.80800009      -3.92675965E-21
   3.81599998      -4.78461178E-21
   3.82399988      -5.27168182E-21
   3.83200002      -5.34049897E-21
   3.83999991      -4.97676810E-21
   3.84800005      -4.20140502E-21
   3.85599995      -3.06972259E-21
   3.86400008      -1.66771738E-21
   3.87199998      -1.05512443E-22
   3.88000011       1.49151519E-21
   3.88800001       2.99305732E-21
   3.89599991       4.27454265E-21
   3.90400004       5.22724712E-21
   3.91199994       5.76733345E-21
   3.92000008       5.84329594E-21
   3.92799997       5.44123365E-21
   3.93600011       4.58724924E-21
   3.94400001       3.34612753E-21
   3.95199990       1.81624810E-21
   3.96000004       1.21354815E-22
   3.96799994      -1.59969208E-21
   3.97600007      -3.20413903E-21
   3.98399997      -4.55667021E-21
   3.99200010      -5.54071626E-21
   4.00000000      -6.06877414E-21
   4.00799990      -6.09084952E-21
   4.01599979      -5.59953817E-21
   4.02400017      -4.63112737E-21
   4.03200006      -3.26245062E-21
   4.03999996      -1.60445988E-21
   4.04799986       2.06605372E-22
   4.05600023       2.01989933E-21
   4.06400013       3.68208868E-21
   4.07200003       5.05033911E-21
   4.07999992       6.00526299E-21
   4.08799982       6.46182549E-21
   4.09600019       6.37709521E-21
   4.10400009       5.75376696E-21
   4.11199999       4.63975824E-21
   4.11999989       3.12433610E-21
   4.12799978       1.33133043E-21
   4.13600016      -5.90496744E-22
   4.14400005      -2.47971925E-21
   4.15199995      -4.17628386E-21
   4.15999985      -5.53578023E-21
   4.16800022      -6.44219449E-21
   4.17600012      -6.81784637E-21
   4.18400002      -6.62956423E-21
   4.19199991      -5.89141054E-21
   4.19999981      -4.66384301E-21
   4.20800018      -3.04910790E-21
   4.21600008      -1.18303791E-21
   4.22399998       7.76609151E-22
   4.23199987       2.66428675E-21
   4.23999977       4.32138337E-21
   4.24800014       5.60998455E-21
   4.25600004       6.42419725E-21
   4.26399994       6.69852920E-21
   4.27199984       6.41298387E-21
   4.28000021       5.59475078E-21
   4.28800011       4.31628135E-21
   4.29600000       2.68939459E-21
   4.30399990       8.55557593E-22
   4.31199980      -1.02679418E-21
   4.32000017      -2.79658375E-21
   4.32800007      -4.30432317E-21
   4.33599997      -5.42480273E-21
   4.34399986      -6.06729750E-21
   4.35200024      -6.18273604E-21
   4.36000013      -5.76758225E-21
   4.36800003      -4.86394681E-21
   4.37599993      -3.55571462E-21
   4.38399982      -1.96081993E-21
   4.39200020      -2.20243149E-22
   4.40000010       1.51486053E-21
   4.40799999       3.09628304E-21
   4.41599989       4.39108142E-21
   4.42399979       5.29214000E-21
   4.43200016       5.72674506E-21
   4.44000006       5.66260948E-21
   4.44799995       5.11072087E-21
   4.45599985       4.12418117E-21
   4.46400023       2.79283539E-21
   4.47200012       1.23429888E-21
   4.48000002      -4.17233354E-22
   4.48799992      -2.02277911E-21
   4.49599981      -3.44992719E-21
   4.50400019      -4.58326035E-21
   4.51200008      -5.33349984E-21
   4.51999998      -5.64492890E-21
   4.52799988      -5.49987179E-21
   4.53599977      -4.91953472E-21
   4.54400015      -3.96086349E-21
   4.55200005      -2.71020356E-21
   4.55999994      -1.27494281E-21
   4.56799984       2.25767498E-22
   4.57600021       1.67067351E-21
   4.58400011       2.94623801E-21
   4.59200001       3.95603369E-21
   4.59999990       4.62866320E-21
   4.60799980       4.92305872E-21
   4.61600018       4.83052960E-21
   4.62400007       4.37367791E-21
   4.63199997       3.60295520E-21
   4.63999987       2.59156716E-21
   4.64799976       1.42906921E-21
   4.65600014       2.13801147E-22
   4.66400003      -9.55473478E-22
   4.67199993      -1.98783800E-21
   4.67999983      -2.80727954E-21
   4.68800020      -3.35785145E-21
   4.69600010      -3.60691096E-21
   4.70400000      -3.54660554E-21
   4.71199989      -3.19383441E-21
   4.71999979      -2.58839576E-21
   4.72800016      -1.78913169E-21
   4.73600006      -8.68263782E-22
   4.74399996       9.52806649E-23
   4.75199986       1.02253519E-21
   4.76000023       1.84044718E-21
   4.76800013       2.48706472E-21
   4.77600002       2.91588113E-21
   4.78399992       3.09927147E-21
   4.79199982       3.03024935E-21
   4.80000019       2.72219687E-21
   4.80800009       2.20650428E-21
   4.81599998       1.52888029E-21
   4.82399988       7.45272263E-22
   4.83199978      -8.24713434E-23
   4.84000015      -8.91125046E-22
   4.84800005      -1.62106680E-21
   4.85599995      -2.22133234E-21
   4.86399984      -2.65374040E-21
   4.87200022      -2.89513800E-21
   4.88000011      -2.93762330E-21
   4.88800001      -2.78741832E-21
   4.89599991      -2.46321260E-21
   4.90399981      -1.99453804E-21
   4.91200018      -1.41971083E-21
   4.92000008      -7.83004957E-22
   4.92799997      -1.30962510E-22
   4.93599987       4.91553291E-22
   4.94399977       1.04466469E-21
   4.95200014       1.49578398E-21
   4.96000004       1.82103388E-21
   4.96799994       2.00623206E-21
   4.97599983       2.04743519E-21
   4.98400021       1.95077623E-21
   4.99200010       1.73128720E-21
   5.00000000       1.41087074E-21
   5.00799990       1.01593147E-21
   5.01599979       5.75320726E-22
   5.02400017       1.18677699E-22
   5.03200006      -3.25046135E-22
   5.03999996      -7.29202018E-22
   5.04799986      -1.07111024E-21
   5.05600023      -1.33335093E-21
   5.06400013      -1.50427409E-21
   5.07200003      -1.57770757E-21
   5.07999992      -1.55240859E-21
   5.08799982      -1.43167556E-21
   5.09600019      -1.22331470E-21
   5.10400009      -9.39691918E-22
   5.11199999      -5.97429279E-22
   5.11999989      -2.16616711E-22
   5.12799978       1.80373753E-22
   5.13600016       5.70119142E-22
   5.14400005       9.29216552E-22
   5.15199995       1.23520381E-21
   5.15999985       1.46743416E-21
   5.16800022       1.60818482E-21
   5.17600012       1.64405085E-21
   5.18400002       1.56758663E-21
   5.19199991       1.37882849E-21
   5.19999981       1.08628000E-21
   5.20800018       7.06906764E-22
   5.21600008       2.65074177E-22
   5.22399998      -2.09255377E-22
   5.23199987      -6.82652106E-22
   5.23999977      -1.12044936E-21
   5.24800014      -1.48915855E-21
   5.25600004      -1.75928937E-21
   5.26399994      -1.90840806E-21
   5.27199984      -1.92378037E-21
   5.28000021      -1.80383757E-21
   5.28800011      -1.55813857E-21
   5.29600000      -1.20621381E-21
   5.30399990      -7.75928282E-22
   5.31199980      -3.01729376E-22
   5.32000017       1.77579797E-22
   5.32800007       6.22113582E-22
   5.33599997       9.95209550E-22
   5.34399986       1.26782867E-21
   5.35200024       1.42169719E-21
   5.36000013       1.45030904E-21
   5.36800003       1.35818997E-21
   5.37599993       1.15943631E-21
   5.38399982       8.76451779E-22
   5.39200020       5.38649625E-22
   5.40000010       1.80283255E-22
   5.40799999      -1.63144766E-22
   5.41599989      -4.59394473E-22
   5.42399979      -6.83486607E-22
   5.43200016      -8.19968935E-22
   5.44000006      -8.63243446E-22
   5.44799995      -8.16826163E-22
   5.45599985      -6.92370115E-22
   5.46400023      -5.08684017E-22
   5.47200012      -2.90128955E-22
   5.48000002      -6.37953518E-23
   5.48799992       1.44245905E-22
   5.49599981       3.12570218E-22
   5.50400019       4.26798589E-22
   5.51200008       4.80395238E-22
   5.51999998       4.74326083E-22
   5.52799988       4.16363083E-22
   5.53599977       3.20177134E-22
   5.54400015       2.03924255E-22
   5.55200005       8.79465241E-23
   5.55999994      -8.21710178E-24
   5.56799984      -6.87951459E-23
   5.57600021      -8.38761659E-23
   5.58400011      -5.03758685E-23
   5.59200001       2.78075804E-23
   5.59999990       1.40044015E-22
   5.60799980       2.69514265E-22
   5.61600018       3.94441938E-22
   5.62400007       4.90370479E-22
   5.63199997       5.33453997E-22
   5.63999987       5.04078584E-22
   5.64799976       3.90054913E-22
   5.65600014       1.88715610E-22
   5.66400003      -9.22764427E-23
   5.67199993      -4.35181518E-22
   5.67999983      -8.13495782E-22
   5.68800020      -1.19399412E-21
   5.69600010      -1.53959163E-21
   5.70400000      -1.81271421E-21
   5.71199989      -1.97899347E-21
   5.71999979      -2.01085890E-21
   5.72800016      -1.89076827E-21
   5.73600006      -1.61356624E-21
   5.74399996      -1.18770191E-21
   5.75199986      -6.35009451E-22
   5.76000023       1.10323949E-23
   5.76800013       7.08256335E-22
   5.77600002       1.40958220E-21
   5.78399992       2.06725097E-21
   5.79199982       2.63703644E-21
   5.80000019       3.08222703E-21
   5.80800009       3.37698868E-21
   5.81599998       3.50874062E-21
   5.82399988       3.47924081E-21
   5.83199978       3.30428807E-21
   5.84000015       3.01212549E-21
   5.84800005       2.64078622E-21
   5.85599995       2.23452220E-21
   5.86399984       1.83964484E-21
   5.87200022       1.50010325E-21
   5.88000011       1.25329960E-21
   5.88800001       1.12663615E-21
   5.89599991       1.13510072E-21
   5.90399981       1.27994042E-21
   5.91200018       1.54835256E-21
   5.92000008       1.91410280E-21
   5.92799997       2.33913833E-21
   5.93599987       2.77629400E-21
   5.94399977       3.17288732E-21
   5.95200014       3.47486822E-21
   5.96000004       3.63089597E-21
   5.96799994       3.59602191E-21
   5.97599983       3.33465505E-21
   5.98400021       2.82295902E-21
   5.99200010       2.05061285E-21
   6.00000000       1.02196246E-21
   6.00799990      -2.43466381E-22
   6.01599979      -1.71110468E-21
   6.02400017      -3.33207415E-21
   6.03200006      -5.04454279E-21
   6.03999996      -6.77587988E-21
   6.04799986      -8.44575639E-21
   6.05600023      -9.97012748E-21
   6.06400013      -1.12657565E-20
   6.07200003      -1.22547769E-20
   6.07999992      -1.28689617E-20
   6.08799982      -1.30536363E-20
   6.09600019      -1.27714279E-20
   6.10400009      -1.20058909E-20
   6.11199999      -1.07645545E-20
   6.11999989      -9.08074595E-21
   6.12799978      -7.01352386E-21
   6.13600016      -4.64568422E-21
   6.14400005      -2.08012155E-21
   6.15199995       5.64925281E-22
   6.15999985       3.16154569E-21
   6.16800022       5.57873708E-21
   6.17600012       7.68998392E-21
   6.18400002       9.38141560E-21
   6.19199991       1.05598265E-20
   6.19999981       1.11595365E-20
   6.20800018       1.11474729E-20
   6.21600008       1.05261439E-20
   6.22399998       9.33461689E-21
   6.23199987       7.64743501E-21
   6.23999977       5.57123672E-21
   6.24800014       3.23902239E-21
   6.25600004       8.02202323E-22
   6.26399994      -1.57888998E-21
   6.27199984      -3.74506103E-21
   6.28000021      -5.54822389E-21
   6.28800011      -6.86078221E-21
   6.29600000      -7.58414519E-21
   6.30399990      -7.65591361E-21
   6.31199980      -7.05502425E-21
   6.32000017      -5.80411027E-21
   6.32800007      -3.96868172E-21
   6.33599997      -1.65332462E-21
   6.34399986       1.00452735E-21
   6.35200024       3.84275841E-21
   6.36000013       6.68432253E-21
   6.36800003       9.34840027E-21
   6.37599993       1.16622425E-20
   6.38399982       1.34728666E-20
   6.39200020       1.46573432E-20
   6.40000010       1.51308217E-20
   6.40799999       1.48519504E-20
   6.41599989       1.38256163E-20
   6.42399979       1.21029004E-20
   6.43200016       9.77810848E-21
   6.44000006       6.98248601E-21
   6.44799995       3.87508025E-21
   6.45599985       6.31574562E-22
   6.46400023      -2.56765324E-21
   6.47200012      -5.54938469E-21
   6.48000002      -8.15869725E-21
   6.48799992      -1.02691145E-20
   6.49599981      -1.17910234E-20
   6.50400019      -1.26773345E-20
   6.51200008      -1.29252763E-20
   6.51999998      -1.25742084E-20
   6.52799988      -1.17000869E-20
   6.53599977      -1.04077569E-20
   6.54400015      -8.82196444E-21
   6.55200005      -7.07744860E-21
   6.55999994      -5.30805071E-21
   6.56799984      -3.63559450E-21
   6.57600021      -2.15971789E-21
   6.58400011      -9.50519179E-22
   6.59200001      -4.49128395E-23
   6.59999990       5.53301990E-22
   6.60799980       8.70538831E-22