 -0.239999995         0.00000000    
 -0.231999993         0.00000000    
 -0.224000007         0.00000000    
 -0.216000006         0.00000000    
 -0.208000004         0.00000000    
 -0.200000003         0.00000000    
 -0.192000002         0.00000000    
 -0.184000000         0.00000000    
 -0.175999999         0.00000000    
 -0.167999998         0.00000000    
 -0.159999996         0.00000000    
 -0.151999995         0.00000000    
 -0.143999994        -6.03135563E-38
 -0.136000007        -6.10270190E-37
 -0.128000006        -1.01933751E-36
 -0.119999997         6.03337255E-36
 -0.112000003         3.66835828E-35
 -0.104000002         6.75111259E-35
  -9.60000008E-02    -8.09028018E-35
  -8.79999995E-02    -6.91424032E-34
  -7.99999982E-02    -1.43131774E-33
  -7.19999969E-02    -2.18194802E-34
  -6.40000030E-02     5.88159994E-33
  -5.60000017E-02     1.47386729E-32
  -4.80000004E-02     1.18554600E-32
  -3.99999991E-02    -2.34064773E-32
  -3.20000015E-02    -8.59608103E-32
  -2.40000002E-02    -1.09645435E-31
  -1.60000008E-02     8.87441664E-33
  -8.00000038E-03     2.88993899E-31
   0.00000000         5.32295957E-31
   8.00000038E-03     3.70263699E-31
   1.60000008E-02    -4.07826950E-31
   2.40000002E-02    -1.46764654E-30
   3.20000015E-02    -1.92809248E-30
   3.99999991E-02    -9.44592278E-31
   4.80000004E-02     1.52217754E-30
   5.60000017E-02     4.43070265E-30
   6.40000030E-02     6.06775138E-30
   7.19999969E-02     4.65414475E-30
   7.99999982E-02    -1.15109071E-30
   8.79999995E-02    -1.12013079E-29
   9.60000008E-02    -2.17224495E-29
  0.104000002        -2.38958058E-29
  0.112000003        -7.29828143E-30
  0.119999997         3.00344803E-29
  0.128000006         7.11801559E-29
  0.136000007         8.22551378E-29
  0.143999994         3.39621827E-29
  0.151999995        -6.80952254E-29
  0.159999996        -1.70853795E-28
  0.167999998        -1.99071883E-28
  0.175999999        -1.08162248E-28
  0.184000000         7.52618996E-29
  0.192000002         2.62214303E-28
  0.200000003         3.56848554E-28
  0.208000004         3.13216370E-28
  0.216000006         1.45873593E-28
  0.224000007        -1.06459280E-28
  0.231999993        -4.13272403E-28
  0.239999995        -7.30022542E-28
  0.247999996        -9.34165771E-28
  0.256000012        -8.03515643E-28
  0.263999999        -1.21266576E-28
  0.272000015         1.10494039E-27
  0.280000001         2.45367288E-27
  0.287999988         3.12649555E-27
  0.296000004         2.30760284E-27
  0.303999990        -2.74586116E-28
  0.312000006        -3.90602089E-27
  0.319999993        -6.91931856E-27
  0.328000009        -7.34896040E-27
  0.335999995        -3.99765779E-27
  0.344000012         2.61697287E-27
  0.351999998         1.00337014E-26
  0.360000014         1.46565780E-26
  0.368000001         1.33939799E-26
  0.375999987         5.40367871E-27
  0.384000003        -6.98832771E-27
  0.391999990        -1.88534844E-26
  0.400000006        -2.46729483E-26
  0.407999992        -2.09519114E-26
  0.416000009        -8.11605136E-27
  0.423999995         9.41337395E-27
  0.432000011         2.51447518E-26
  0.439999998         3.34373178E-26
  0.448000014         3.17368757E-26
  0.456000000         2.08670380E-26
  0.463999987         3.52431583E-27
  0.472000003        -1.74513134E-26
  0.479999989        -3.92562177E-26
  0.488000005        -5.74652198E-26
  0.495999992        -6.44431259E-26
  0.504000008        -5.06916810E-26
  0.512000024        -1.03402270E-26
  0.519999981         5.16186049E-26
  0.527999997         1.15644038E-25
  0.536000013         1.52199014E-25
  0.544000030         1.34625153E-25
  0.551999986         5.45357786E-26
  0.560000002        -6.90523908E-26
  0.568000019        -1.93170354E-25
  0.575999975        -2.66618642E-25
  0.583999991        -2.51045492E-25
  0.592000008        -1.37934289E-25
  0.600000024         4.54533118E-26
  0.607999980         2.42946183E-25
  0.615999997         3.86359050E-25
  0.624000013         4.17300911E-25
  0.632000029         3.08042739E-25
  0.639999986         7.52646705E-26
  0.648000002        -2.19100496E-25
  0.656000018        -4.83024463E-25
  0.663999975        -6.22909321E-25
  0.671999991        -5.76242578E-25
  0.680000007        -3.35828195E-25
  0.688000023         4.40410998E-26
  0.695999980         4.61211620E-25
  0.703999996         7.93000699E-25
  0.712000012         9.28140609E-25
  0.720000029         7.96546087E-25
  0.727999985         3.93490722E-25
  0.736000001        -2.05441172E-25
  0.744000018        -8.46272427E-25
  0.751999974        -1.32515369E-24
  0.759999990        -1.44684249E-24
  0.768000007        -1.10070867E-24
  0.776000023        -3.24846980E-25
  0.783999979         6.76539586E-25
  0.791999996         1.58302789E-24
  0.800000012         2.06563090E-24
  0.808000028         1.91228640E-24
  0.815999985         1.11815077E-24
  0.824000001        -9.94732647E-26
  0.832000017        -1.36924520E-24
  0.839999974        -2.28959955E-24
  0.847999990        -2.56071054E-24
  0.856000006        -2.07894155E-24
  0.864000022        -9.66880385E-25
  0.871999979         4.64408282E-25
  0.879999995         1.80615857E-24
  0.888000011         2.67025926E-24
  0.896000028         2.80452220E-24
  0.903999984         2.17181335E-24
  0.912000000         9.63622291E-25
  0.920000017        -4.64026178E-25
  0.927999973        -1.71532144E-24
  0.935999990        -2.49218830E-24
  0.944000006        -2.68109564E-24
  0.952000022        -2.35027085E-24
  0.959999979        -1.66172268E-24
  0.967999995        -7.60879713E-25
  0.976000011         2.84031045E-25
  0.984000027         1.44485209E-24
  0.991999984         2.62948245E-24
   1.00000000         3.59510894E-24
   1.00800002         3.95922977E-24
   1.01600003         3.35107442E-24
   1.02400005         1.62459573E-24
   1.03199995        -9.81490878E-25
   1.03999996        -3.85611027E-24
   1.04799998        -6.19053231E-24
   1.05599999        -7.24964040E-24
   1.06400001        -6.62631722E-24
   1.07200003        -4.30354310E-24
   1.08000004        -6.50853240E-25
   1.08800006         3.70900941E-24
   1.09599996         7.94626532E-24
   1.10399997         1.10995120E-23
   1.11199999         1.21196345E-23
   1.12000000         1.01246747E-23
   1.12800002         4.75048487E-24
   1.13600004        -3.37793474E-24
   1.14400005        -1.24181663E-23
   1.15199995        -1.95243563E-23
   1.15999997        -2.16146594E-23
   1.16799998        -1.65194952E-23
   1.17600000        -4.13918039E-24
   1.18400002         1.29757656E-23
   1.19200003         2.99671692E-23
   1.20000005         4.09935735E-23
   1.20799994         4.11693758E-23
   1.21599996         2.84439955E-23
   1.22399998         4.70359182E-24
   1.23199999        -2.44228733E-23
   1.24000001        -5.10268397E-23
   1.24800003        -6.72297240E-23
   1.25600004        -6.75433183E-23
   1.26400006        -5.06373160E-23
   1.27199996        -1.98609049E-23
   1.27999997         1.75842649E-23
   1.28799999         5.25037893E-23
   1.29600000         7.61113386E-23
   1.30400002         8.22869582E-23
   1.31200004         6.92070070E-23
   1.32000005         3.97569551E-23
   1.32799995         8.03711015E-25
   1.33599997        -3.85457475E-23
   1.34399998        -6.92047225E-23
   1.35200000        -8.42350723E-23
   1.36000001        -8.03187187E-23
   1.36800003        -5.83739147E-23
   1.37600005        -2.31552306E-23
   1.38399994         1.77692497E-23
   1.39199996         5.55378209E-23
   1.39999998         8.16776673E-23
   1.40799999         8.99210429E-23
   1.41600001         7.77195987E-23
   1.42400002         4.72220247E-23
   1.43200004         5.17603589E-24
   1.44000006        -3.84929885E-23
   1.44799995        -7.31525232E-23
   1.45599997        -9.02942120E-23
   1.46399999        -8.57187304E-23
   1.47200000        -6.03783850E-23
   1.48000002        -1.97879984E-23
   1.48800004         2.75611340E-23
   1.49600005         7.19795502E-23
   1.50399995         1.04041849E-22
   1.51199996         1.15812190E-22
   1.51999998         1.02146727E-22
   1.52800000         6.22421983E-23
   1.53600001         1.09386086E-24
   1.54400003        -7.00682033E-23
   1.55200005        -1.35269715E-22
   1.55999994        -1.77401426E-22
   1.56799996        -1.83101369E-22
   1.57599998        -1.47211403E-22
   1.58399999        -7.51381240E-23
   1.59200001         1.79446734E-23
   1.60000002         1.10784899E-22
   1.60800004         1.81344468E-22
   1.61600006         2.12119169E-22
   1.62399995         1.94110850E-22
   1.63199997         1.28838341E-22
   1.63999999         2.82357078E-23
   1.64800000        -8.72264644E-23
   1.65600002        -1.91980585E-22
   1.66400003        -2.60033596E-22
   1.67200005        -2.70335690E-22
   1.67999995        -2.11939788E-22
   1.68799996        -8.77660769E-23
   1.69599998         8.42774562E-23
   1.70400000         2.73420048E-22
   1.71200001         4.41295101E-22
   1.72000003         5.49342439E-22
   1.72800004         5.66866207E-22
   1.73599994         4.78050466E-22
   1.74399996         2.86519102E-22
   1.75199997         1.63488583E-23
   1.75999999        -2.91012328E-22
   1.76800001        -5.83758332E-22
   1.77600002        -8.09572328E-22
   1.78400004        -9.26321218E-22
   1.79200006        -9.11007068E-22
   1.79999995        -7.64527689E-22
   1.80799997        -5.10966085E-22
   1.81599998        -1.91694450E-22
   1.82400000         1.43804850E-22
   1.83200002         4.47634514E-22
   1.84000003         6.81396441E-22
   1.84800005         8.20939398E-22
   1.85599995         8.57992485E-22
   1.86399996         7.99598451E-22
   1.87199998         6.65877768E-22
   1.88000000         4.86527048E-22
   1.88800001         2.95815771E-22
   1.89600003         1.26123877E-22
   1.90400004         8.26980242E-25
   1.91199994        -7.14579490E-23
   1.91999996        -9.91554360E-23
   1.92799997        -1.05365980E-22
   1.93599999        -1.21007678E-22
   1.94400001        -1.75674288E-22
   1.95200002        -2.89035228E-22
   1.96000004        -4.64924527E-22
   1.96800005        -6.89138385E-22
   1.97599995        -9.30540324E-22
   1.98399997        -1.14448849E-21
   1.99199998        -1.27843803E-21
   2.00000000        -1.27949967E-21
   2.00799990        -1.10445828E-21
   2.01600003        -7.31076099E-22
   2.02399993        -1.68033343E-22
   2.03200006         5.39580001E-22
   2.03999996         1.31206940E-21
   2.04800010         2.04489912E-21
   2.05599999         2.62477676E-21
   2.06399989         2.94820479E-21
   2.07200003         2.93916861E-21
   2.07999992         2.56244559E-21
   2.08800006         1.83117350E-21
   2.09599996         8.07643418E-22
   2.10400009        -4.02606586E-22
   2.11199999        -1.66290273E-21
   2.11999989        -2.82206297E-21
   2.12800002        -3.73375192E-21
   2.13599992        -4.27513679E-21
   2.14400005        -4.36301544E-21
   2.15199995        -3.96492023E-21
   2.16000009        -3.10476427E-21
   2.16799998        -1.86208716E-21
   2.17600012        -3.64976684E-22
   2.18400002         1.22357653E-21
   2.19199991         2.72455017E-21
   2.20000005         3.96531079E-21
   2.20799994         4.80200721E-21
   2.21600008         5.13847787E-21
   2.22399998         4.93838377E-21
   2.23200011         4.22855618E-21
   2.24000001         3.09353351E-21
   2.24799991         1.66307399E-21
   2.25600004         9.49597436E-23
   2.26399994        -1.44397301E-21
   2.27200007        -2.79607646E-21
   2.27999997        -3.82898997E-21
   2.28800011        -4.44870012E-21
   2.29600000        -4.60884721E-21
   2.30399990        -4.31553697E-21
   2.31200004        -3.62613362E-21
   2.31999993        -2.64129392E-21
   2.32800007        -1.49040892E-21
   2.33599997        -3.12591271E-22
   2.34400010         7.62960014E-22
   2.35200000         1.63308425E-21
   2.35999990         2.23025442E-21
   2.36800003         2.52541391E-21
   2.37599993         2.52567665E-21
   2.38400006         2.26972160E-21
   2.39199996         1.82254162E-21
   2.40000010         1.26951757E-21
   2.40799999         7.08142486E-22
   2.41599989         2.36012668E-22
   2.42400002        -6.47726053E-23
   2.43199992        -1.43904322E-22
   2.44000006         4.77202433E-24
   2.44799995         3.39137791E-22
   2.45600009         7.75160524E-22
   2.46399999         1.20246979E-21
   2.47199988         1.50509945E-21
   2.48000002         1.58227292E-21
   2.48799992         1.36518284E-21
   2.49600005         8.27843963E-22
   2.50399995        -7.81243270E-24
   2.51200008        -1.07176536E-21
   2.51999998        -2.25045977E-21
   2.52800012        -3.39671783E-21
   2.53600001        -4.34575652E-21
   2.54399991        -4.93686310E-21
   2.55200005        -5.03809256E-21
   2.55999994        -4.56975849E-21
   2.56800008        -3.52193431E-21
   2.57599998        -1.96251832E-21
   2.58400011        -3.40820885E-23
   2.59200001         2.06003293E-21
   2.59999990         4.07879690E-21
   2.60800004         5.77305707E-21
   2.61599994         6.91833023E-21
   2.62400007         7.34642528E-21
   2.63199997         6.97111712E-21
   2.64000010         5.80331581E-21
   2.64800000         3.95279242E-21
   2.65599990         1.61600951E-21
   2.66400003        -9.47666759E-22
   2.67199993        -3.44749290E-21
   2.68000007        -5.59600124E-21
   2.68799996        -7.14267551E-21
   2.69600010        -7.90341025E-21
   2.70400000        -7.78301024E-21
   2.71199989        -6.78802909E-21
   2.72000003        -5.02759609E-21
   2.72799993        -2.70088808E-21
   2.73600006        -7.21877716E-23
   2.74399996         2.56284000E-21
   2.75200009         4.91370810E-21
   2.75999999         6.72834769E-21
   2.76799989         7.81843926E-21
   2.77600002         8.07520048E-21
   2.78399992         7.47651963E-21
   2.79200006         6.08701978E-21
   2.79999995         4.05177621E-21
   2.80800009         1.58304608E-21
   2.81599998        -1.06083702E-21
   2.82399988        -3.60343099E-21
   2.83200002        -5.78144682E-21
   2.83999991        -7.37375374E-21
   2.84800005        -8.22310264E-21
   2.85599995        -8.24825087E-21
   2.86400008        -7.44751984E-21
   2.87199998        -5.89648066E-21
   2.88000011        -3.74191185E-21
   2.88800001        -1.19200159E-21
   2.89599991         1.49934483E-21
   2.90400004         4.05554457E-21
   2.91199994         6.20674084E-21
   2.92000008         7.72128108E-21
   2.92799997         8.43322267E-21
   2.93600011         8.26075632E-21
   2.94400001         7.21348185E-21
   2.95199990         5.38998925E-21
   2.96000004         2.96839013E-21
   2.96799994         1.92206502E-22
   2.97600007        -2.64872421E-21
   2.98399997        -5.24352698E-21
   2.99200010        -7.29244124E-21
   3.00000000        -8.54344125E-21
   3.00799990        -8.82757375E-21
   3.01600003        -8.08548935E-21
   3.02399993        -6.37896485E-21
   3.03200006        -3.88510174E-21
   3.03999996        -8.75291889E-22
   3.04800010         2.31629575E-21
   3.05599999         5.32938857E-21
   3.06399989         7.81576869E-21
   3.07200003         9.47672555E-21
   3.07999992         1.00974947E-20
   3.08800006         9.57556556E-21
   3.09599996         7.93812922E-21
   3.10400009         5.34422532E-21
   3.11199999         2.06951199E-21
   3.11999989        -1.52494169E-21
   3.12800002        -5.03512190E-21
   3.13599992        -8.06134197E-21
   3.14400005        -1.02540742E-20
   3.15199995        -1.13536105E-20
   3.16000009        -1.12200297E-20
   3.16799998        -9.85097550E-21
   3.17600012        -7.38507982E-21
   3.18400002        -4.08952036E-21
   3.19199991        -3.31770511E-22
   3.20000005         3.46230461E-21
   3.20799994         6.85928537E-21
   3.21600008         9.47112108E-21
   3.22399998         1.10026880E-20
   3.23200011         1.12871323E-20
   3.24000001         1.03042414E-20
   3.24799991         8.18015225E-21
   3.25600004         5.16946807E-21
   3.26399994         1.62338709E-21
   3.27200007        -2.05154585E-21
   3.27999997        -5.43896173E-21
   3.28800011        -8.15809141E-21
   3.29600000        -9.90509282E-21
   3.30399990        -1.04867010E-20
   3.31200004        -9.84266008E-21
   3.31999993        -8.05370671E-21
   3.32800007        -5.33298447E-21
   3.33599997        -2.00070898E-21
   3.34400010         1.55505896E-21
   3.35200000         4.92607623E-21
   3.35999990         7.73270974E-21
   3.36800003         9.66684784E-21
   3.37599993         1.05237577E-20
   3.38400006         1.02203254E-20
   3.39199996         8.79972992E-21
   3.40000010         6.42349528E-21
   3.40799999         3.35250143E-21
   3.41599989        -8.14461840E-23
   3.42400002        -3.51138937E-21
   3.43199992        -6.57481642E-21
   3.44000006        -8.95269452E-21
   3.44799995        -1.04031081E-20
   3.45600009        -1.07857841E-20
   3.46399999        -1.00751188E-20
   3.47199988        -8.36109882E-21
   3.48000002        -5.83822259E-21
   3.48799992        -2.78354839E-21
   3.49600005         4.74236014E-22
   3.50399995         3.59125875E-21
   3.51200008         6.24600042E-21
   3.51999998         8.17290634E-21
   3.52800012         9.18832790E-21
   3.53600001         9.20671893E-21
   3.54399991         8.24698101E-21
   3.55200005         6.42931664E-21
   3.55999994         3.96313783E-21
   3.56800008         1.12597416E-21
   3.57599998        -1.76578605E-21
   3.58400011        -4.39194252E-21
   3.59200001        -6.46490480E-21
   3.59999990        -7.76170549E-21
   3.60800004        -8.14671121E-21
   3.61599994        -7.58226465E-21
   3.62400007        -6.12778144E-21
   3.63199997        -3.92998517E-21
   3.64000010        -1.20752860E-21
   3.64800000         1.76814218E-21
   3.65599990         4.69572380E-21
   3.66400003         7.27169872E-21
   3.67199993         9.22235216E-21
   3.68000007         1.03367704E-20
   3.68799996         1.04946230E-20
   3.69600010         9.68185907E-21
   3.70400000         7.99026341E-21
   3.71199989         5.60164085E-21
   3.72000003         2.76203058E-21
   3.72799993        -2.47491187E-22
   3.73600006        -3.13860516E-21
   3.74399996        -5.64122557E-21
   3.75200009        -7.52785168E-21
   3.75999999        -8.63697890E-21
   3.76799989        -8.89283540E-21
   3.77600002        -8.31576221E-21
   3.78399992        -7.01859034E-21
   3.79200006        -5.18826663E-21
   3.79999995        -3.05727065E-21
   3.80800009        -8.72268519E-22
   3.81599998         1.13359095E-21
   3.82399988         2.76212732E-21
   3.83200002         3.86623451E-21
   3.83999991         4.36246492E-21
   3.84800005         4.23977522E-21
   3.85599995         3.56153195E-21
   3.86400008         2.45715091E-21
   3.87199998         1.10220898E-21
   3.88000011        -3.09707372E-22
   3.88800001        -1.59669930E-21
   3.89599991        -2.61259948E-21
   3.90400004        -3.26107899E-21
   3.91199994        -3.49974301E-21
   3.92000008        -3.33728785E-21
   3.92799997        -2.82716682E-21
   3.93600011        -2.05929582E-21
   3.94400001        -1.14911028E-21
   3.95199990        -2.22546774E-22
   3.96000004         6.02475111E-22
   3.96799994         1.23465542E-21
   3.97600007         1.62266108E-21
   3.98399997         1.75885437E-21
   3.99200010         1.67279396E-21
   4.00000000         1.41806727E-21
   4.00799990         1.05826753E-21
   4.01599979         6.56667356E-22
   4.02400017         2.70465417E-22
   4.03200006        -5.26515903E-23
   4.03999996        -2.78564633E-22
   4.04799986        -3.91906779E-22
   4.05600023        -3.99893838E-22
   4.06400013        -3.31073487E-22
   4.07200003        -2.27304981E-22
   4.07999992        -1.31055179E-22
   4.08799982        -7.31122409E-23
   4.09600019        -6.57257386E-23
   4.10400009        -1.03016065E-22
   4.11199999        -1.66917300E-22
   4.11999989        -2.34751374E-22
   4.12799978        -2.85365270E-22
   4.13600016        -3.03062134E-22
   4.14400005        -2.80411754E-22
   4.15199995        -2.20909705E-22
   4.15999985        -1.40889788E-22
   4.16800022        -6.85636815E-23
   4.17600012        -3.84773975E-23
   4.18400002        -8.16558948E-23
   4.19199991        -2.14512106E-22
   4.19999981        -4.30938986E-22
   4.20800018        -7.00973520E-22
   4.21600008        -9.76647666E-22
   4.22399998        -1.20258197E-21
   4.23199987        -1.32750472E-21
   4.23999977        -1.31355292E-21
   4.24800014        -1.14232057E-21
   4.25600004        -8.18425090E-22
   4.26399994        -3.71464124E-22
   4.27199984         1.44189359E-22
   4.28000021         6.53785502E-22
   4.28800011         1.07285790E-21
   4.29600000         1.32381301E-21
   4.30399990         1.35463417E-21
   4.31199980         1.15369643E-21
   4.32000017         7.55354133E-22
   4.32800007         2.34622985E-22
   4.33599997        -3.06424221E-22
   4.34399986        -7.55683309E-22
   4.35200024        -1.00732211E-21
   4.36000013        -9.76043840E-22
   4.36800003        -6.09935690E-22
   4.37599993         9.77589187E-23
   4.38399982         1.10006610E-21
   4.39200020         2.29507663E-21
   4.40000010         3.53574273E-21
   4.40799999         4.65078099E-21
   4.41599989         5.47235673E-21
   4.42399979         5.86345644E-21
   4.43200016         5.73863012E-21
   4.44000006         5.07498974E-21
   4.44799995         3.91388019E-21
   4.45599985         2.35531601E-21
   4.46400023         5.46962982E-22
   4.47200012        -1.33175453E-21
   4.48000002        -3.09010261E-21
   4.48799992        -4.54944652E-21
   4.49599981        -5.56615771E-21
   4.50400019        -6.04955350E-21
   4.51200008        -5.97113411E-21
   4.51999998        -5.36392821E-21
   4.52799988        -4.31360311E-21
   4.53599977        -2.94455558E-21
   4.54400015        -1.40444191E-21
   4.55200005         1.50725659E-22
   4.55999994         1.57024508E-21
   4.56799984         2.72113745E-21
   4.57600021         3.49905921E-21
   4.58400011         3.83669471E-21
   4.59200001         3.70833429E-21
   4.59999990         3.12985111E-21
   4.60799980         2.15465828E-21
   4.61600018         8.67168010E-22
   4.62400007        -6.24529037E-22
   4.63199997        -2.19601004E-21
   4.63999987        -3.71416172E-21
   4.64799976        -5.04590352E-21
   4.65600014        -6.06802653E-21
   4.66400003        -6.67723253E-21
   4.67199993        -6.79864673E-21
   4.67999983        -6.39168558E-21
   4.68800020        -5.45321000E-21
   4.69600010        -4.01861063E-21
   4.70400000        -2.16150130E-21
   4.71199989         8.71255297E-24
   4.71999979         2.35272158E-21
   4.72800016         4.71197741E-21
   4.73600006         6.92376749E-21
   4.74399996         8.83849189E-21
   4.75199986         1.03354917E-20
   4.76000023         1.13341257E-20
   4.76800013         1.17981821E-20
   4.77600002         1.17336386E-20
   4.78399992         1.11814180E-20
   4.79199982         1.02075332E-20
   4.80000019         8.89269242E-21
   4.80800009         7.32299604E-21
   4.81599998         5.58193513E-21
   4.82399988         3.74355126E-21
   4.83199978         1.86643289E-21
   4.84000015        -1.07601227E-23
   4.84800005        -1.87085778E-21
   4.85599995        -3.71489560E-21
   4.86399984        -5.55370235E-21
   4.87200022        -7.39564899E-21
   4.88000011        -9.23413706E-21
   4.88800001        -1.10386332E-20
   4.89599991        -1.27516693E-20
   4.90399981        -1.42920266E-20
   4.91200018        -1.55624129E-20
   4.92000008        -1.64593868E-20
   4.92799997        -1.68839292E-20
   4.93599987        -1.67521199E-20
   4.94399977        -1.60054763E-20
   4.95200014        -1.46205547E-20
   4.96000004        -1.26166369E-20
   4.96799994        -1.00604550E-20
   4.97599983        -7.06669445E-21
   4.98400021        -3.79368091E-21
   4.99200010        -4.33630453E-22
   5.00000000         2.80253921E-21
   5.00799990         5.70484698E-21
   5.01599979         8.08609842E-21
   5.02400017         9.80229625E-21
   5.03200006         1.07680571E-20
   5.03999996         1.09645302E-20
   5.04799986         1.04393223E-20
   5.05600023         9.29974687E-21
   5.06400013         7.70157172E-21
   5.07200003         5.83477654E-21
   5.07999992         3.90717955E-21
   5.08799982         2.12624232E-21
   5.09600019         6.79446630E-22
   5.10400009        -2.85230217E-22
   5.11199999        -6.76300627E-22
   5.11999989        -4.70158727E-22
   5.12799978         2.85704089E-22
   5.13600016         1.47913313E-21
   5.14400005         2.94875833E-21
   5.15199995         4.50601711E-21
   5.15999985         5.95989811E-21
   5.16800022         7.14047266E-21
   5.17600012         7.91786491E-21
   5.18400002         8.21482760E-21
   5.19199991         8.01222166E-21
   5.19999981         7.34781549E-21
   5.20800018         6.30929670E-21
   5.21600008         5.02281032E-21
   5.22399998         3.63825618E-21
   5.23199987         2.31244217E-21
   5.23999977         1.19102558E-21
   5.24800014         3.90333677E-22
   5.25600004        -1.89457726E-23
   5.26399994        -2.33139289E-23
   5.27199984         3.29941036E-22
   5.28000021         9.38925221E-22
   5.28800011         1.66217834E-21
   5.29600000         2.33883157E-21
   5.30399990         2.80906982E-21
   5.31199980         2.93138774E-21
   5.32000017         2.59598680E-21
   5.32800007         1.73580257E-21
   5.33599997         3.36432339E-22
   5.34399986        -1.55595258E-21
   5.35200024        -3.83192267E-21
   5.36000013        -6.32465164E-21
   5.36800003        -8.82517622E-21
   5.37599993        -1.11042034E-20
   5.38399982        -1.29356540E-20
   5.39200020        -1.41176062E-20
   5.40000010        -1.44892882E-20
   5.40799999        -1.39448983E-20
   5.41599989        -1.24458314E-20
   5.42399979        -1.00305351E-20
   5.43200016        -6.81973257E-21
   5.44000006        -3.01338080E-21
   5.44799995         1.12228447E-21
   5.45599985         5.27691955E-21
   5.46400023         9.12455098E-21
   5.47200012         1.23548843E-20
   5.48000002         1.47043212E-20
   5.48799992         1.59842217E-20
   5.49599981         1.61036297E-20
   5.50400019         1.50829066E-20
   5.51200008         1.30551590E-20
   5.51999998         1.02534562E-20
   5.52799988         6.98485607E-21
   5.53599977         3.59500611E-21
   5.54400015         4.28594012E-22
   5.55200005        -2.20911447E-21
   5.55999994        -4.08597657E-21
   5.56799984        -5.06927541E-21
   5.57600021        -5.14234842E-21
   5.58400011        -4.40890134E-21
   5.59200001        -3.08215978E-21
   5.59999990        -1.45772337E-21
   5.60799980         1.27566722E-22
   5.61600018         1.34454614E-21
   5.62400007         1.91953138E-21
   5.63199997         1.67260141E-21
   5.63999987         5.40907862E-22
   5.64799976        -1.41424065E-21
   5.65600014        -4.01491861E-21
   5.66400003        -6.98641269E-21
   5.67199993        -9.98771960E-21
   5.67999983        -1.26513365E-20
   5.68800020        -1.46292304E-20
   5.69600010        -1.56391985E-20
   5.70400000        -1.55033745E-20
   5.71199989        -1.41713164E-20
   5.71999979        -1.17240363E-20
   5.72800016        -8.36016501E-21
   5.73600006        -4.36955897E-21
   5.74399996        -1.00311540E-22
   5.75199986         4.07668412E-21
   5.76000023         7.80358474E-21
   5.76800013         1.07706509E-20
   5.77600002         1.27479373E-20
   5.78399992         1.36092666E-20
   5.79199982         1.33439557E-20
   5.80000019         1.20537292E-20
   5.80800009         9.93581160E-21
   5.81599998         7.25640073E-21
   5.82399988         4.31927261E-21
   5.83199978         1.43368848E-21
   5.84000015        -1.11620693E-21
   5.84800005        -3.09894613E-21
   5.85599995        -4.35829146E-21
   5.86399984        -4.82804725E-21
   5.87200022        -4.53651132E-21
   5.88000011        -3.59975916E-21
   5.88800001        -2.20544527E-21
   5.89599991        -5.90404858E-22
   5.90399981         9.84566567E-22
   5.91200018         2.26102671E-21
   5.92000008         3.00967202E-21
   5.92799997         3.05678335E-21
   5.93599987         2.30759097E-21
   5.94399977         7.62016663E-22
   5.95200014        -1.48166546E-21
   5.96000004        -4.23683808E-21
   5.96799994        -7.24969685E-21
   5.97599983        -1.02259032E-20
   5.98400021        -1.28573012E-20
   5.99200010        -1.48459759E-20
   6.00000000        -1.59265727E-20
   6.00799990        -1.58887065E-20
   6.01599979        -1.46001320E-20
   6.02400017        -1.20271964E-20
   6.03200006        -8.24744792E-21
   6.03999996        -3.44966587E-21
   6.04799986         2.07978429E-21
   6.05600023         7.98117816E-21
   6.06400013         1.38510311E-20
   6.07200003         1.92724423E-20
   6.07999992         2.38442292E-20
   6.08799982         2.72088881E-20
   6.09600019         2.90802679E-20
   6.10400009         2.92698086E-20
   6.11199999         2.77091643E-20
   6.11999989         2.44641122E-20
   6.12799978         1.97367831E-20
   6.13600016         1.38540781E-20
   6.14400005         7.24346472E-21
   6.15199995         3.99526368E-22
   6.15999985        -6.15426576E-21
   6.16800022        -1.19050249E-20
   6.17600012        -1.63888471E-20
   6.18400002        -1.92273335E-20
   6.19199991        -2.01608925E-20
   6.19999981        -1.90762890E-20
   6.20800018        -1.60238536E-20
   6.21600008        -1.12198859E-20
   6.22399998        -5.03217870E-21
   6.23199987         2.04995732E-21