 -0.239999995       0.00000000    
 -0.231999993       0.00000000    
 -0.224000007      -1.42191685E-28
 -0.216000006      -2.41867850E-26
 -0.208000004       8.71652375E-22
 -0.200000003       3.33724281E-21
 -0.192000002       5.45176970E-21
 -0.184000000       5.16741990E-21
 -0.175999999       5.49008901E-21
 -0.167999998       1.06168090E-20
 -0.159999996       1.74270347E-20
 -0.151999995       1.97169792E-20
 -0.143999994       2.00820696E-20
 -0.136000007       2.69961928E-20
 -0.128000006       4.12567704E-20
 -0.119999997       5.65361599E-20
 -0.112000003       7.07214867E-20
 -0.104000002       8.52865475E-20
  -9.60000008E-02   9.82571014E-20
  -8.79999995E-02   1.09897019E-19
  -7.99999982E-02   1.27785588E-19
  -7.19999969E-02   1.53680193E-19
  -6.40000030E-02   1.74971602E-19
  -5.60000017E-02   1.81494231E-19
  -4.80000004E-02   1.79153052E-19
  -3.99999991E-02   1.75439709E-19
  -3.20000015E-02   1.66312365E-19
  -2.40000002E-02   1.47945492E-19
  -1.60000008E-02   1.22866539E-19
  -8.00000038E-03   8.60009020E-20
   1.38777878E-17   2.69054970E-20
   8.00000038E-03  -4.61342409E-20
   1.60000008E-02  -1.10270918E-19
   2.40000002E-02  -1.63817731E-19
   3.20000015E-02  -2.27521508E-19
   3.99999991E-02  -3.02651014E-19
   4.80000004E-02  -3.61305202E-19
   5.60000017E-02  -3.88864482E-19
   6.40000030E-02  -4.01739910E-19
   7.19999969E-02  -4.11097572E-19
   7.99999982E-02  -4.02476333E-19
   8.79999995E-02  -3.64767470E-19
   9.60000008E-02  -3.09261996E-19
  0.104000002      -2.48092533E-19
  0.112000003      -1.80258359E-19
  0.119999997      -1.08467703E-19
  0.128000006      -4.48417001E-20
  0.136000007       6.28564733E-21
  0.143999994       5.09228670E-20
  0.151999995       8.85715273E-20
  0.159999996       1.12081202E-19
  0.167999998       1.22260293E-19
  0.175999999       1.25411787E-19
  0.184000000       1.21680452E-19
  0.192000002       1.10219451E-19
  0.200000003       9.92616477E-20
  0.208000004       9.72022781E-20
  0.216000006       1.01109640E-19
  0.224000007       1.04241133E-19
  0.231999993       1.06678059E-19
  0.239999995       1.10954220E-19
  0.247999996       1.16182622E-19
  0.256000012       1.21764114E-19
  0.263999999       1.27518887E-19
  0.272000015       1.28563797E-19
  0.280000001       1.19473030E-19
  0.287999988       1.01701630E-19
  0.296000004       7.78947000E-20
  0.303999990       4.53706272E-20
  0.312000006       5.37261522E-21
  0.319999993      -3.07032189E-20
  0.328000009      -5.53170508E-20
  0.335999995      -7.41581184E-20
  0.344000012      -9.17681022E-20
  0.351999998      -1.00522756E-19
  0.360000014      -9.38058228E-20
  0.368000001      -7.58978989E-20
  0.375999987      -4.99282340E-20
  0.384000003      -1.13765050E-20
  0.391999990       3.75406260E-20
  0.400000006       8.19043740E-20
  0.407999992       1.10283183E-19
  0.416000009       1.23668310E-19
  0.423999995       1.24159009E-19
  0.432000011       1.09079609E-19
  0.439999998       7.94865962E-20
  0.448000014       4.12750783E-20
  0.456000000      -3.47454995E-21
  0.463999987      -5.45342083E-20
  0.472000003      -1.04020062E-19
  0.479999989      -1.39559664E-19
  0.488000005      -1.54503470E-19
  0.495999992      -1.47190302E-19
  0.504000008      -1.16375704E-19
  0.512000024      -6.55901945E-20
  0.519999981      -5.52535525E-21
  0.527999997       5.39869056E-20
  0.536000013       1.07355099E-19
  0.544000030       1.46637047E-19
  0.551999986       1.62353414E-19
  0.560000002       1.53043225E-19
  0.568000019       1.23933899E-19
  0.575999975       7.72228290E-20
  0.583999991       1.52398496E-20
  0.592000008      -4.99747888E-20
  0.600000024      -1.03411574E-19
  0.607999980      -1.39909781E-19
  0.615999997      -1.59011902E-19
  0.624000013      -1.54614041E-19
  0.632000029      -1.23019335E-19
  0.639999986      -7.32943932E-20
  0.648000002      -1.69957731E-20
  0.656000018       4.29850383E-20
  0.663999975       1.01735506E-19
  0.671999991       1.42976863E-19
  0.680000007       1.54088885E-19
  0.688000023       1.39678132E-19
  0.695999980       1.08965756E-19
  0.703999996       6.24050580E-20
  0.712000012       2.18438710E-21
  0.720000029      -5.71937879E-20
  0.727999985      -1.01118261E-19
  0.736000001      -1.27200035E-19
  0.744000018      -1.36527091E-19
  0.751999974      -1.24363981E-19
  0.759999990      -8.88965253E-20
  0.768000007      -3.93977369E-20
  0.776000023       1.22755235E-20
  0.783999979       6.04686670E-20
  0.791999996       1.00906438E-19
  0.800000012       1.25447136E-19
  0.808000028       1.27272542E-19
  0.815999985       1.06415306E-19
  0.824000001       6.77380853E-20
  0.832000017       1.80736880E-20
  0.839999974      -3.35306418E-20
  0.847999990      -7.71310055E-20
  0.856000006      -1.05423348E-19
  0.864000022      -1.15374855E-19
  0.871999979      -1.07584797E-19
  0.879999995      -8.49621053E-20
  0.888000011      -5.08190138E-20
  0.896000028      -8.54599065E-21
  0.903999984       3.59543488E-20
  0.912000000       7.42893428E-20
  0.920000017       1.00371291E-19
  0.927999973       1.12277593E-19
  0.935999990       1.08086941E-19
  0.944000006       8.54321701E-20
  0.952000022       4.76052685E-20
  0.959999979       3.97349051E-21
  0.967999995      -3.79990262E-20
  0.976000011      -7.47486995E-20
  0.984000027      -1.00230754E-19
  0.991999984      -1.07122481E-19
   1.00000000      -9.64374527E-20
   1.00800002      -7.63989313E-20
   1.01600003      -5.00955959E-20
   1.02400005      -1.44870587E-20
   1.03199995       2.70282267E-20
   1.03999996       6.25618605E-20
   1.04799998       8.46791320E-20
   1.05599999       9.49866425E-20
   1.06400001       9.43298611E-20
   1.07200003       7.94878757E-20
   1.08000004       5.18989337E-20
   1.08800006       1.95935887E-20
   1.09599996      -1.18716243E-20
   1.10399997      -4.19369326E-20
   1.11199999      -6.77049205E-20
   1.12000000      -8.27332672E-20
   1.12800002      -8.43473356E-20
   1.13600004      -7.50471631E-20
   1.14400005      -5.65679029E-20
   1.15199995      -2.93436668E-20
   1.15999997       2.38529364E-21
   1.16799998       3.13526138E-20
   1.17600000       5.33751086E-20
   1.18400002       6.79445703E-20
   1.19200003       7.37251604E-20
   1.20000005       6.83355230E-20
   1.20799994       5.22976800E-20
   1.21599996       2.93923380E-20
   1.22399998       3.31112099E-21
   1.23199999      -2.33116331E-20
   1.24000001      -4.70356998E-20
   1.24800003      -6.33135156E-20
   1.25600004      -6.86121955E-20
   1.26400006      -6.22092877E-20
   1.27199996      -4.60967851E-20
   1.27999997      -2.35554543E-20
   1.28799999       2.07064714E-21
   1.29600000       2.72467995E-20
   1.30400002       4.78997578E-20
   1.31200004       6.07067658E-20
   1.32000005       6.44785737E-20
   1.32799995       5.90269170E-20
   1.33599997       4.37837458E-20
   1.34399998       1.97469047E-20
   1.35200000      -8.28572845E-21
   1.36000001      -3.41914201E-20
   1.36800003      -5.44398128E-20
   1.37600005      -6.72446010E-20
   1.38399994      -6.97720061E-20
   1.39199996      -5.99487969E-20
   1.39999998      -4.00115954E-20
   1.40799999      -1.48476319E-20
   1.41600001       1.21886461E-20
   1.42400002       3.88189011E-20
   1.43200004       6.09075251E-20
   1.44000006       7.37029946E-20
   1.44799995       7.51810759E-20
   1.45599997       6.55458111E-20
   1.46399999       4.52212468E-20
   1.47200000       1.64083165E-20
   1.48000002      -1.51282190E-20
   1.48800004      -4.30703542E-20
   1.49600005      -6.41848793E-20
   1.50399995      -7.68632769E-20
   1.51199996      -7.85053726E-20
   1.51999998      -6.75829696E-20
   1.52800000      -4.66601824E-20
   1.53600001      -2.04083697E-20
   1.54400003       8.05468091E-21
   1.55200005       3.64248983E-20
   1.55999994       6.04948783E-20
   1.56799996       7.51388638E-20
   1.57599998       7.75812180E-20
   1.58399999       6.81739255E-20
   1.59200001       4.90648578E-20
   1.60000002       2.36442906E-20
   1.60800004      -3.82486821E-21
   1.61600006      -2.95535509E-20
   1.62399995      -5.07464481E-20
   1.63199997      -6.45632950E-20
   1.63999999      -6.82740273E-20
   1.64800000      -6.13670239E-20
   1.65600002      -4.61987158E-20
   1.66400003      -2.58093454E-20
   1.67200005      -2.29359574E-21
   1.67999995       2.20682934E-20
   1.68799996       4.33734804E-20
   1.69599998       5.69385574E-20
   1.70400000       5.96445108E-20
   1.71200001       5.16816566E-20
   1.72000003       3.63145214E-20
   1.72800004       1.75291349E-20
   1.73599994      -2.25845813E-21
   1.74399996      -2.15622285E-20
   1.75199997      -3.75152257E-20
   1.75999999      -4.63541159E-20
   1.76800001      -4.66720602E-20
   1.77600002      -4.01922310E-20
   1.78400004      -2.88448833E-20
   1.79200006      -1.32866193E-20
   1.79999995       5.06390076E-21
   1.80799997       2.28628763E-20
   1.81599998       3.66613104E-20
   1.82400000       4.42315381E-20
   1.83200002       4.40922357E-20
   1.84000003       3.60387051E-20
   1.84800005       2.23268827E-20
   1.85599995       6.20877365E-21
   1.86399996      -1.05370548E-20
   1.87199998      -2.66859209E-20
   1.88000000      -3.92209562E-20
   1.88800001      -4.46889980E-20
   1.89600003      -4.23244118E-20
   1.90400004      -3.35965190E-20
   1.91199994      -1.98801697E-20
   1.91999996      -2.94555583E-21
   1.92799997       1.38563383E-20
   1.93599999       2.76465539E-20
   1.94400001       3.78909208E-20
   1.95200002       4.41292326E-20
   1.96000004       4.39604361E-20
   1.96800005       3.57842081E-20
   1.97599995       2.16010284E-20
   1.98399997       4.84325315E-21
   1.99199998      -1.25137781E-20
   2.00000000      -2.86787008E-20
   2.00799990      -4.03026467E-20
   2.01600003      -4.45170479E-20
   2.02399993      -4.13661489E-20
   2.03200006      -3.27477961E-20
   2.03999996      -2.03676391E-20
   2.04800010      -5.74941699E-21
   2.05599999       9.13610566E-21
   2.06399989       2.22148175E-20
   2.07200003       3.17958631E-20
   2.07999992       3.68679763E-20
   2.08800006       3.73736001E-20
   2.09599996       3.34085583E-20
   2.10400009       2.41945870E-20
   2.11199999       9.67300323E-21
   2.11999989      -6.87286519E-21
   2.12800002      -2.03558841E-20
   2.13599992      -2.83576707E-20
   2.14400005      -3.16084097E-20
   2.15199995      -3.04841711E-20
   2.16000009      -2.44346600E-20
   2.16799998      -1.47071146E-20
   2.17600012      -4.16721516E-21
   2.18400002       5.49165936E-21
   2.19199991       1.35994050E-20
   2.20000005       1.87883365E-20
   2.20799994       2.03909957E-20
   2.21600008       1.98169469E-20
   2.22399998       1.76734763E-20
   2.23200011       1.21556631E-20
   2.24000001       3.15158923E-21
   2.24799991      -5.58251715E-21
   2.25600004      -1.13842549E-20
   2.26399994      -1.56239490E-20
   2.27200007      -1.86839744E-20
   2.27999997      -1.72261445E-20
   2.28800011      -1.01883674E-20
   2.29600000      -2.24772074E-21
   2.30399990       2.67278818E-21
   2.31200004       6.25173615E-21
   2.31999993       1.05343535E-20
   2.32800007       1.32566001E-20
   2.33599997       1.22190837E-20
   2.34400010       9.38835455E-21
   2.35200000       7.07283610E-21
   2.35999990       4.32254659E-21
   2.36800003      -6.19536330E-23
   2.37599993      -4.86657941E-21
   2.38400006      -8.77950761E-21
   2.39199996      -1.17372631E-20
   2.40000010      -1.29381905E-20
   2.40799999      -1.11447490E-20
   2.41599989      -7.40666164E-21
   2.42400002      -4.07124363E-21
   2.43199992      -1.24393878E-21
   2.44000006       2.58099435E-21
   2.44799995       7.00768836E-21
   2.45600009       9.91917347E-21
   2.46399999       1.04516912E-20
   2.47199988       9.40900902E-21
   2.48000002       7.70030187E-21
   2.48799992       6.05003737E-21
   2.49600005       4.88134708E-21
   2.50399995       3.34109215E-21
   2.51200008      -8.22717188E-25
   2.51999998      -4.91744334E-21
   2.52800012      -9.54485244E-21
   2.53600001      -1.24127264E-20
   2.54399991      -1.28700151E-20
   2.55200005      -1.06128274E-20
   2.55999994      -6.66682371E-21
   2.56800008      -3.24024417E-21
   2.57599998      -8.26714617E-22
   2.58400011       2.36894026E-21
   2.59200001       6.63644501E-21
   2.59999990       9.50295218E-21
   2.60800004       9.87391280E-21
   2.61599994       9.73677046E-21
   2.62400007       9.94301954E-21
   2.63199997       8.26156896E-21
   2.64000010       3.57536784E-21
   2.64800000      -1.83066944E-21
   2.65599990      -5.82905615E-21
   2.66400003      -8.60926754E-21
   2.67199993      -1.01937530E-20
   2.68000007      -9.59050247E-21
   2.68799996      -7.23064100E-21
   2.69600010      -4.72807350E-21
   2.70400000      -2.01799657E-21
   2.71199989       1.85521607E-21
   2.72000003       5.60987187E-21
   2.72799993       6.97630881E-21
   2.73600006       6.35937990E-21
   2.74399996       5.85820255E-21
   2.75200009       5.57914704E-21
   2.75999999       4.05346611E-21
   2.76799989       1.17312831E-21
   2.77600002      -2.04950294E-21
   2.78399992      -5.29749688E-21
   2.79200006      -8.19954980E-21
   2.79999995      -9.30690553E-21
   2.80800009      -7.79083210E-21
   2.81599998      -4.72035867E-21
   2.82399988      -1.37364307E-21
   2.83200002       2.09035993E-21
   2.83999991       5.47738847E-21
   2.84800005       7.87903751E-21
   2.85599995       8.73229693E-21
   2.86400008       8.11934317E-21
   2.87199998       6.10553804E-21
   2.88000011       3.15909121E-21
   2.88800001       5.84961086E-22
   2.89599991      -9.42840394E-22
   2.90400004      -2.43761665E-21
   2.91199994      -4.90065698E-21
   2.92000008      -7.59975096E-21
   2.92799997      -9.06444468E-21
   2.93600011      -8.64561825E-21
   2.94400001      -6.43317507E-21
   2.95199990      -2.96318754E-21
   2.96000004       6.19316143E-22
   2.96799994       3.37439506E-21
   2.97600007       5.43545712E-21
   2.98399997       6.93242138E-21
   2.99200010       6.97143216E-21
   3.00000000       5.21757096E-21
   3.00799990       3.22735825E-21
   3.01600003       2.45420247E-21
   3.02399993       2.22880383E-21
   3.03200006       1.27462736E-21
   3.03999996      -3.22562447E-22
   3.04800010      -2.03125468E-21
   3.05599999      -3.91851047E-21
   3.06399989      -5.51477477E-21
   3.07200003      -5.55740487E-21
   3.07999992      -3.94090210E-21
   3.08800006      -2.09292184E-21
   3.09599996      -8.46065665E-22
   3.10400009       1.47763190E-22
   3.11199999       8.27985225E-22
   3.11999989       7.13681426E-22
   3.12800002       3.33095621E-22
   3.13599992       5.68898212E-22
   3.14400005       1.08239168E-21
   3.15199995       1.31134633E-21
   3.16000009       1.95148365E-21
   3.16799998       3.37526182E-21
   3.17600012       4.00941996E-21
   3.18400002       2.52527336E-21
   3.19199991       2.26737986E-22
   3.20000005      -8.20134027E-22
   3.20799994      -5.77531708E-22
   3.21600008      -1.60878475E-22
   3.22399998       1.84758166E-22
   3.23200011       5.40705510E-22
   3.24000001       2.79131805E-22
   3.24799991      -9.66035278E-22
   3.25600004      -2.50525280E-21
   3.26399994      -3.58395993E-21
   3.27200007      -3.98261494E-21
   3.27999997      -3.45248830E-21
   3.28800011      -1.96696966E-21
   3.29600000      -4.32239735E-22
   3.30399990       2.54507985E-22
   3.31200004       4.70048513E-22
   3.31999993       9.41564081E-22
   3.32800007       1.40072667E-21
   3.33599997       1.48121825E-21
   3.34400010       1.86390025E-21
   3.35200000       3.09410705E-21
   3.35999990       4.28954661E-21
   3.36800003       4.26602730E-21
   3.37599993       2.98135643E-21
   3.38400006       1.03312506E-21
   3.39199996      -1.14723832E-21
   3.40000010      -2.98080390E-21
   3.40799999      -3.80038883E-21
   3.41599989      -3.65187760E-21
   3.42400002      -3.06314917E-21
   3.43199992      -2.09932421E-21
   3.44000006      -6.97372680E-22
   3.44799995       5.27545896E-22
   3.45600009       9.97438960E-22
   3.46399999       1.07357704E-21
   3.47199988       1.17132864E-21
   3.48000002       8.93544388E-22
   3.48799992       1.03918029E-22
   3.49600005      -3.26159047E-22
   3.50399995       1.33375664E-23
   3.51200008       9.77424726E-23
   3.51999998      -8.91751490E-22
   3.52800012      -2.12477678E-21
   3.53600001      -2.28744581E-21
   3.54399991      -1.09075123E-21
   3.55200005       1.02967305E-21
   3.55999994       3.47538076E-21
   3.56800008       5.19421240E-21
   3.57599998       5.09531262E-21
   3.58400011       3.34326189E-21
   3.59200001       1.29336434E-21
   3.59999990      -1.20518458E-22
   3.60800004      -1.10626976E-21
   3.61599994      -2.19192240E-21
   3.62400007      -3.54913555E-21
   3.63199997      -4.98108212E-21
   3.64000010      -5.89193723E-21
   3.64800000      -5.57434672E-21
   3.65599990      -4.06457893E-21
   3.66400003      -2.20362490E-21
   3.67199993      -4.64860358E-22
   3.68000007       1.53477536E-21
   3.68799996       3.95072608E-21
   3.69600010       5.98336936E-21
   3.70400000       6.73562631E-21
   3.71199989       6.15354925E-21
   3.72000003       4.79301688E-21
   3.72799993       3.20668520E-21
   3.73600006       1.69144188E-21
   3.74399996       1.86486781E-22
   3.75200009      -1.49933009E-21
   3.75999999      -3.07294286E-21
   3.76799989      -3.86080129E-21
   3.77600002      -3.88652507E-21
   3.78399992      -4.05269184E-21
   3.79200006      -4.68157368E-21
   3.79999995      -4.79821745E-21
   3.80800009      -3.59789235E-21
   3.81599998      -1.69599612E-21
   3.82399988      -9.65566568E-23
   3.83200002       1.16852196E-21
   3.83999991       2.47811397E-21
   3.84800005       3.56529586E-21
   3.85599995       3.99555862E-21
   3.86400008       4.00213931E-21
   3.87199998       3.91189666E-21
   3.88000011       3.33819157E-21
   3.88800001       1.85460356E-21
   3.89599991       7.54422630E-24
   3.90400004      -1.23980298E-21
   3.91199994      -1.79796612E-21
   3.92000008      -2.39697635E-21
   3.92799997      -3.35359316E-21
   3.93600011      -4.02778878E-21
   3.94400001      -3.52254379E-21
   3.95199990      -1.54553901E-21
   3.96000004       1.34239519E-21
   3.96799994       3.98240492E-21
   3.97600007       5.24791492E-21
   3.98399997       4.83656139E-21
   3.99200010       3.42667727E-21
   4.00000000       1.76736993E-21
   4.00799990      -2.33585223E-22
   4.01599979      -3.12655470E-21
   4.02400017      -6.81116834E-21
   4.03200006      -1.03728279E-20
   4.03999996      -1.29919217E-20
   4.04799986      -1.44734732E-20
   4.05600023      -1.49329107E-20
   4.06400013      -1.46860150E-20
   4.07200003      -1.45812765E-20
   4.07999992      -1.57175173E-20
   4.08799982      -1.85678218E-20
   4.09600019      -2.29828676E-20
   4.10400009      -2.92029168E-20
   4.11199999      -3.80608450E-20
   4.11999989      -4.98120798E-20
   4.12799978      -6.34753974E-20
   4.13600016      -7.77337617E-20
   4.14400005      -9.17470995E-20
   4.15199995      -1.04506393E-19
   4.15999985      -1.14054972E-19
   4.16800022      -1.18225448E-19
   4.17600012      -1.16065434E-19
   4.18400002      -1.08126529E-19
   4.19199991      -9.55561629E-20
   4.19999981      -7.93012625E-20
   4.20800018      -6.00192171E-20
   4.21600008      -3.82763353E-20
   4.22399998      -1.46712227E-20
   4.23199987       1.00931754E-20
   4.23999977       3.51051865E-20
   4.24800014       5.91254679E-20
   4.25600004       8.06729541E-20
   4.26399994       9.86086984E-20
   4.27199984       1.12927848E-19
   4.28000021       1.24763367E-19
   4.28800011       1.35210413E-19
   4.29600000       1.44141870E-19
   4.30399990       1.50414872E-19
   4.31199980       1.53141065E-19
   4.32000017       1.52391071E-19
   4.32800007       1.48616994E-19
   4.33599997       1.41792612E-19
   4.34399986       1.31496708E-19
   4.35200024       1.17831180E-19
   4.36000013       1.01938908E-19
   4.36800003       8.52945091E-20
   4.37599993       6.85112148E-20
   4.38399982       5.12586183E-20
   4.39200020       3.35731317E-20
   4.40000010       1.67921283E-20
   4.40799999       2.65674560E-21
   4.41599989      -8.23118784E-21
   4.42399979      -1.64199584E-20
   4.43200016      -2.22910538E-20
   4.44000006      -2.55402774E-20
   4.44799995      -2.60038540E-20
   4.45599985      -2.42405505E-20
   4.46400023      -2.11722791E-20
   4.47200012      -1.77745410E-20
   4.48000002      -1.50886920E-20
   4.48799992      -1.37341321E-20
   4.49599981      -1.33525708E-20
   4.50400019      -1.32751987E-20
   4.51200008      -1.36974857E-20
   4.51999998      -1.54032178E-20
   4.52799988      -1.84602964E-20
   4.53599977      -2.20488256E-20
   4.54400015      -2.53290571E-20
   4.55200005      -2.75115619E-20
   4.55999994      -2.74766814E-20
   4.56799984      -2.46098931E-20
   4.57600021      -1.98028170E-20
   4.58400011      -1.44349043E-20
   4.59200001      -8.69703431E-21
   4.59999990      -2.24957543E-21
   4.60799980       3.80374764E-21
   4.61600018       7.14305760E-21
   4.62400007       6.49081195E-21
   4.63199997       2.56665945E-21
   4.63999987      -3.05233584E-21
   4.64799976      -9.05495553E-21
   4.65600014      -1.46613579E-20
   4.66400003      -1.96731758E-20
   4.67199993      -2.40322221E-20
   4.67999983      -2.68169127E-20
   4.68800020      -2.62749850E-20
   4.69600010      -2.14072145E-20
   4.70400000      -1.29361031E-20
   4.71199989      -2.44128787E-21
   4.71999979       8.58822129E-21
   4.72800016       1.85848080E-20
   4.73600006       2.58323529E-20
   4.74399996       2.90999910E-20
   4.75199986       2.79699363E-20
   4.76000023       2.28250716E-20
   4.76800013       1.51451148E-20
   4.77600002       7.08640622E-21
   4.78399992      -2.81067278E-22
   4.79199982      -7.63765344E-21
   4.80000019      -1.53430905E-20
   4.80800009      -2.16539292E-20
   4.81599998      -2.41291412E-20
   4.82399988      -2.19092405E-20
   4.83199978      -1.57437254E-20
   4.84000015      -7.05003128E-21
   4.84800005       2.08453634E-21
   4.85599995       9.41439539E-21
   4.86399984       1.41962578E-20
   4.87200022       1.72836691E-20
   4.88000011       1.90928537E-20
   4.88800001       1.89686829E-20
   4.89599991       1.68873365E-20
   4.90399981       1.39667572E-20
   4.91200018       1.09236413E-20
   4.92000008       7.86995064E-21
   4.92799997       5.85195871E-21
   4.93599987       6.56269629E-21
   4.94399977       1.01278516E-20
   4.95200014       1.48770711E-20
   4.96000004       1.94844348E-20
   4.96799994       2.38383000E-20
   4.97599983       2.79408266E-20
   4.98400021       3.14337098E-20
   4.99200010       3.40439203E-20
   5.00000000       3.53766795E-20
   5.00799990       3.47591956E-20
   5.01599979       3.21921860E-20
   5.02400017       2.86753921E-20
   5.03200006       2.49103131E-20
   5.03999996       2.07713938E-20
   5.04799986       1.65820600E-20
   5.05600023       1.34755121E-20
   5.06400013       1.18088442E-20
   5.07200003       1.05445479E-20
   5.07999992       8.66208028E-21
   5.08799982       5.95991023E-21
   5.09600019       2.41420780E-21
   5.10400009      -1.86903620E-21
   5.11199999      -6.20477750E-21
   5.11999989      -1.02341378E-20
   5.12799978      -1.49400015E-20
   5.13600016      -2.13280362E-20
   5.14400005      -2.85504943E-20
   5.15199995      -3.46803937E-20
   5.15999985      -3.87078651E-20
   5.16800022      -4.04788588E-20
   5.17600012      -3.94610518E-20
   5.18400002      -3.50607030E-20
   5.19199991      -2.77879695E-20
   5.19999981      -1.91552008E-20
   5.20800018      -1.07192655E-20
   5.21600008      -3.48404556E-21
   5.22399998       2.51371949E-21
   5.23199987       8.14011639E-21
   5.23999977       1.37777965E-20
   5.24800014       1.80665374E-20
   5.25600004       1.90246872E-20
   5.26399994       1.62175496E-20
   5.27199984       1.08198803E-20
   5.28000021       4.03289807E-21
   5.28800011      -3.24055740E-21
   5.29600000      -9.43940872E-21
   5.30399990      -1.25043827E-20
   5.31199980      -1.13882446E-20
   5.32000017      -6.90273820E-21
   5.32800007      -9.08068517E-22
   5.33599997       5.30897482E-21
   5.34399986       1.18914297E-20
   5.35200024       1.93391984E-20
   5.36000013       2.65829321E-20
   5.36800003       3.11550566E-20
   5.37599993       3.16851437E-20
   5.38399982       2.87815782E-20
   5.39200020       2.26770757E-20
   5.40000010       1.18963145E-20
   5.40799999      -4.18790599E-21
   5.41599989      -2.29459320E-20
   5.42399979      -4.02902680E-20
   5.43200016      -5.38839765E-20
   5.44000006      -6.34890459E-20
   5.44799995      -6.94648572E-20
   5.45599985      -7.21289991E-20
   5.46400023      -7.16023629E-20
   5.47200012      -6.74554739E-20
   5.48000002      -5.93437660E-20
   5.48799992      -4.82039728E-20
   5.49599981      -3.58426762E-20
   5.50400019      -2.36363209E-20
   5.51200008      -1.28190183E-20
   5.51999998      -5.20741780E-21
   5.52799988      -1.75434284E-21
   5.53599977      -9.21290179E-22
   5.54400015      -2.87004006E-22
   5.55200005       7.19983226E-22
   5.55999994       1.26258316E-21
   5.56799984       1.45699696E-21
   5.57600021       2.45021055E-21
   5.58400011       4.51542831E-21
   5.59200001       6.55981650E-21
   5.59999990       7.41870907E-21
   5.60799980       6.79029899E-21
   5.61600018       5.05310742E-21
   5.62400007       2.41641207E-21
   5.63199997      -2.07533921E-21
   5.63999987      -1.03525345E-20
   5.64799976      -2.33146575E-20
   5.65600014      -3.94244264E-20
   5.66400003      -5.61668884E-20
   5.67199993      -7.22672158E-20
   5.67999983      -8.75297644E-20
   5.68800020      -1.01445488E-19
   5.69600010      -1.13273945E-19
   5.70400000      -1.22870907E-19
   5.71199989      -1.30410090E-19
   5.71999979      -1.35930164E-19
   5.72800016      -1.39874406E-19
   5.73600006      -1.43231338E-19
   5.74399996      -1.46526024E-19
   5.75199986      -1.49392825E-19
   5.76000023      -1.51410125E-19
   5.76800013      -1.52519749E-19
   5.77600002      -1.52422594E-19
   5.78399992      -1.50208619E-19
   5.79199982      -1.44480277E-19
   5.80000019      -1.33476772E-19
   5.80800009      -1.15769795E-19
   5.81599998      -9.14564360E-20
   5.82399988      -6.19693213E-20
   5.83199978      -2.83208547E-20
   5.84000015       9.57922648E-21
   5.84800005       5.17339822E-20
   5.85599995       9.73909335E-20
   5.86399984       1.45622226E-19
   5.87200022       1.95358063E-19
   5.88000011       2.45137973E-19
   5.88800001       2.94350825E-19
   5.89599991       3.44477376E-19
   5.90399981       3.97576374E-19
   5.91200018       4.53640996E-19
   5.92000008       5.10403990E-19
   5.92799997       5.65153731E-19
   5.93599987       6.15960198E-19
   5.94399977       6.61964830E-19
   5.95200014       7.02776371E-19
   5.96000004       7.36259453E-19
   5.96799994       7.57124774E-19
   5.97599983       7.59991420E-19
   5.98400021       7.43821952E-19
   5.99200010       7.10724853E-19
   6.00000000       6.60607427E-19
   6.00799990       5.90420480E-19
   6.01599979       4.99155161E-19
   6.02400017       3.90455538E-19
   6.03200006       2.69666567E-19
   6.03999996       1.40901997E-19
   6.04799986       7.28193670E-21
   6.05600023      -1.28378948E-19
   6.06400013      -2.63392195E-19
   6.07200003      -3.94082828E-19
   6.07999992      -5.15417584E-19
   6.08799982      -6.23175229E-19
   6.09600019      -7.15473593E-19
   6.10400009      -7.91147694E-19
   6.11199999      -8.48474154E-19
   6.11999989      -8.86610127E-19
   6.12799978      -9.06092506E-19
   6.13600016      -9.06813807E-19
   6.14400005      -8.87894842E-19
   6.15199995      -8.50545053E-19
   6.15999985      -7.98517512E-19
   6.16800022      -7.34748763E-19
   6.17600012      -6.59864567E-19
   6.18400002      -5.74779167E-19
   6.19199991      -4.82798233E-19
   6.19999981      -3.88698167E-19
   6.20800018      -2.97037689E-19
   6.21600008      -2.10829442E-19
   6.22399998      -1.30537011E-19
   6.23199987      -5.53985087E-20
   6.23999977       1.32961133E-20
   6.24800014       7.20579908E-20
   6.25600004       1.19194322E-19
   6.26399994       1.56493176E-19
   6.27199984       1.86096367E-19
   6.28000021       2.08714484E-19
   6.28800011       2.25894624E-19
   6.29600000       2.40638111E-19
   6.30399990       2.54402034E-19
   6.31199980       2.66406519E-19
   6.32000017       2.76740202E-19
   6.32800007       2.87154871E-19
   6.33599997       2.98188219E-19
   6.34399986       3.08362050E-19
   6.35200024       3.16569724E-19
   6.36000013       3.22751658E-19
   6.36800003       3.26322545E-19
   6.37599993       3.26044974E-19
   6.38399982       3.20706247E-19
   6.39200020       3.08219258E-19
   6.40000010       2.85916194E-19
   6.40799999       2.53916272E-19
   6.41599989       2.16097161E-19
   6.42399979       1.75409853E-19
   6.43200016       1.30427590E-19
   6.44000006       7.89286176E-20
   6.44799995       2.28483344E-20
   6.45599985      -3.25687470E-20
   6.46400023      -8.28138591E-20
   6.47200012      -1.25542171E-19
   6.48000002      -1.59630168E-19
   6.48799992      -1.84442251E-19
   6.49599981      -1.99152922E-19
   6.50400019      -2.02284150E-19
   6.51200008      -1.92898105E-19
   6.51999998      -1.72138069E-19
   6.52799988      -1.42553786E-19
   6.53599977      -1.06513094E-19
   6.54400015      -6.63451002E-20
   6.55200005      -2.49117930E-20
   6.55999994       1.55470018E-20
   6.56799984       5.44827357E-20
   6.57600021       9.18822079E-20
   6.58400011       1.26724639E-19
   6.59200001       1.57233179E-19
   6.59999990       1.81919945E-19
   6.60799980       2.00065470E-19