  -0.6228000         1.0000000E-24
  -0.6108000         1.0000000E-24
  -0.5988000         1.0000000E-24
  -0.5868000         1.0000000E-24
  -0.5748000         1.0000000E-24
  -0.5628000         1.9543147E-22
  -0.5508000         1.1481237E-21
  -0.5388000         1.9042209E-21
  -0.5268000        -7.3311830E-21
  -0.5148000        -5.6700827E-20
  -0.5028000        -1.9675764E-19
  -0.4908000        -4.5470185E-19
  -0.4788000        -7.1894331E-19
  -0.4668000        -5.7854728E-19
  -0.4548000         7.4854551E-19
  -0.4428000         4.1607884E-18
  -0.4308000         9.8739896E-18
  -0.4188000         1.6132055E-17
  -0.4068000         1.8025917E-17
  -0.3948000         7.6280793E-18
  -0.3828000        -2.3137534E-17
  -0.3708000        -7.6208216E-17
  -0.3588000        -1.3896465E-16
  -0.3468000        -1.7775604E-16
  -0.3348000        -1.3970841E-16
  -0.3228000         3.1079154E-17
  -0.3108000         3.6131514E-16
  -0.2988000         8.0750780E-16
  -0.2868000         1.2241630E-15
  -0.2748000         1.3665385E-15
  -0.2628000         9.5072714E-16
  -0.2508000        -2.2328723E-16
  -0.2388000        -2.1106625E-15
  -0.2268000        -4.2830585E-15
  -0.2148000        -5.8959079E-15
  -0.2028000        -5.8382457E-15
  -0.1908000        -3.0927439E-15
  -0.1788000         2.7535171E-15
  -0.1668000         1.1007401E-14
  -0.1548000         1.9608489E-14
  -0.1428000         2.5335723E-14
  -0.1308000         2.4600524E-14
  -0.1188000         1.4738514E-14
  -0.1068000        -4.5374797E-15
  -9.4800003E-02    -3.0058848E-14
  -8.2800001E-02    -5.5075742E-14
  -7.0799999E-02    -7.0479443E-14
  -5.8800001E-02    -6.7359224E-14
  -4.6799999E-02    -4.0347201E-14
  -3.4800000E-02     9.2730313E-15
  -2.2800000E-02     7.1930946E-14
  -1.0800000E-02     1.3063444E-13
   1.2000001E-03     1.6470356E-13
   1.3200000E-02     1.5577418E-13
   2.5200000E-02     9.4500803E-14
   3.7200000E-02    -1.4222030E-14
   4.9199998E-02    -1.4964240E-13
   6.1200000E-02    -2.7842052E-13
   7.3200002E-02    -3.6261185E-13
   8.5199997E-02    -3.7054097E-13
   9.7199999E-02    -2.8746626E-13
   0.1092000        -1.2254686E-13
   0.1212000         9.0617489E-14
   0.1332000         3.0081577E-13
   0.1452000         4.5206395E-13
   0.1572000         4.9902210E-13
   0.1692000         4.2046420E-13
   0.1812000         2.2660144E-13
   0.1932000        -4.2209742E-14
   0.2052000        -3.2523352E-13
   0.2172000        -5.5681918E-13
   0.2292000        -6.8303338E-13
   0.2412000        -6.7464746E-13
   0.2532000        -5.3295991E-13
   0.2652000        -2.8730628E-13
   0.2772000         1.4278904E-14
   0.2892000         3.1785796E-13
   0.3012000         5.7583262E-13
   0.3132000         7.5539412E-13
   0.3252000         8.4167699E-13
   0.3372000         8.3601691E-13
   0.3492000         7.5104435E-13
   0.3612000         6.0467847E-13
   0.3732000         4.1452827E-13
   0.3852000         1.9329186E-13
   0.3972000        -5.4840769E-14
   0.4092000        -3.3659016E-13
   0.4212000        -6.6973667E-13
   0.4332000        -1.0790148E-12
   0.4452000        -1.5856728E-12
   0.4572000        -2.1901070E-12
   0.4692000        -2.8500880E-12
   0.4812000        -3.4609652E-12
   0.4932000        -3.8472142E-12
   0.5052000        -3.7749894E-12
   0.5172000        -2.9917249E-12
   0.5292000        -1.2913920E-12
   0.5412000         1.4054982E-12
   0.5532000         4.9767044E-12
   0.5652000         9.0517940E-12
   0.5772000         1.3015912E-11
   0.5892000         1.6075511E-11
   0.6012000         1.7382552E-11
   0.6132000         1.6197143E-11
   0.6252000         1.2055631E-11
   0.6372000         4.9064359E-12
   0.6492000        -4.8188359E-12
   0.6612000        -1.6216833E-11
   0.6732000        -2.8004781E-11
   0.6852000        -3.8673106E-11
   0.6972000        -4.6665831E-11
   0.7092000        -5.0554255E-11
   0.7212000        -4.9178422E-11
   0.7332000        -4.1747009E-11
   0.7452000        -2.7903643E-11
   0.7572000        -7.7796450E-12
   0.7692000         1.7945385E-11
   0.7812000         4.7964230E-11
   0.7932000         8.0253207E-11
   0.8052000         1.1200608E-10
   0.8172000         1.3964174E-10
   0.8292000         1.5894223E-10
   0.8412000         1.6536682E-10
   0.8532000         1.5455925E-10
   0.8652000         1.2302373E-10
   0.8772000         6.8899199E-11
   0.8892000        -7.2780193E-12
   0.9012000        -1.0195828E-10
   0.9132000        -2.0824462E-10
   0.9252000        -3.1595115E-10
   0.9372000        -4.1211609E-10
   0.9492000        -4.8196613E-10
   0.9612000        -5.1026083E-10
   0.9732000        -4.8288329E-10
   0.9852000        -3.8850001E-10
   0.9972000        -2.2010067E-10
    1.009200         2.3761448E-11
    1.021200         3.3816316E-10
    1.033200         7.1151879E-10
    1.045200         1.1258177E-09
    1.057200         1.5573525E-09
    1.069200         1.9778521E-09
    1.081200         2.3559039E-09
    1.093200         2.6585409E-09
    1.105200         2.8528344E-09
    1.117200         2.9073073E-09
    1.129200         2.7929270E-09
    1.141200         2.4833473E-09
    1.153200         1.9539117E-09
    1.165200         1.1788376E-09
    1.177200         1.2577366E-10
    1.189200        -1.2532315E-09
    1.201200        -3.0355025E-09
    1.213200        -5.3476081E-09
    1.225200        -8.3928882E-09
    1.237200        -1.2488416E-08
    1.249200        -1.8113377E-08
    1.261200        -2.5970898E-08
    1.273200        -3.7065512E-08
    1.285200        -5.2798182E-08
    1.297200        -7.5080379E-08
    1.309200        -1.0646812E-07
    1.321200        -1.5031567E-07
    1.333200        -2.1094688E-07
    1.345200        -2.9384111E-07
    1.357200        -4.0582739E-07
    1.369200        -5.5527988E-07
    1.381200        -7.5230309E-07
    1.393200        -1.0088961E-06
    1.405200        -1.3390793E-06
    1.417200        -1.7589684E-06
    1.429200        -2.2867796E-06
    1.441200        -2.9427438E-06
    1.453200        -3.7489224E-06
    1.465200        -4.7288972E-06
    1.477200        -5.9073345E-06
    1.489200        -7.3094120E-06
    1.501200        -8.9601062E-06
    1.513200        -1.0883349E-05
    1.525200        -1.3101074E-05
    1.537200        -1.5632166E-05
    1.549200        -1.8491362E-05
    1.561200        -2.1688136E-05
    1.573200        -2.5225610E-05
    1.585200        -2.9099559E-05
    1.597200        -3.3297572E-05
    1.609200        -3.7798385E-05
    1.621200        -4.2571497E-05
    1.633200        -4.7577090E-05
    1.645200        -5.2766238E-05
    1.657200        -5.8081543E-05
    1.669200        -6.3458108E-05
    1.681200        -6.8824884E-05
    1.693200        -7.4106349E-05
    1.705200        -7.9224468E-05
    1.717200        -8.4100939E-05
    1.729200        -8.8659479E-05
    1.741200        -9.2828268E-05
    1.753200        -9.6542259E-05
    1.765200        -9.9745390E-05
    1.777200        -1.0239251E-04
    1.789200        -1.0445095E-04
    1.801200        -1.0590161E-04
    1.813200        -1.0673968E-04
    1.825200        -1.0697465E-04
    1.837200        -1.0662989E-04
    1.849200        -1.0574169E-04
    1.861200        -1.0435771E-04
    1.873200        -1.0253514E-04
    1.885200        -1.0033842E-04
    1.897200        -9.7836797E-05
    1.909200        -9.5101801E-05
    1.921200        -9.2204697E-05
    1.933200        -8.9214103E-05
    1.945200        -8.6193933E-05
    1.957200        -8.3201623E-05
    1.969200        -8.0286860E-05
    1.981200        -7.7490738E-05
    1.993200        -7.4845469E-05
    2.005200        -7.2374503E-05
    2.017200        -7.0093105E-05
    2.029200        -6.8009322E-05
    2.041200        -6.6125154E-05
    2.053200        -6.4437969E-05
    2.065200        -6.2941835E-05
    2.077200        -6.1628940E-05
    2.089200        -6.0490740E-05
    2.101200        -5.9518927E-05
    2.113200        -5.8706089E-05
    2.125200        -5.8046073E-05
    2.137200        -5.7533991E-05
    2.149200        -5.7165962E-05
    2.161200        -5.6938614E-05
    2.173200        -5.6848381E-05
    2.185200        -5.6890778E-05
    2.197200        -5.7059595E-05
    2.209200        -5.7346275E-05
    2.221200        -5.7739380E-05
    2.233200        -5.8224341E-05
    2.245200        -5.8783487E-05
    2.257200        -5.9396352E-05
    2.269200        -6.0040304E-05
    2.281200        -6.0691425E-05
    2.293200        -6.1325649E-05
    2.305200        -6.1919993E-05
    2.317200        -6.2453888E-05
    2.329200        -6.2910469E-05
    2.341200        -6.3277730E-05
    2.353200        -6.3549516E-05
    2.365200        -6.3726176E-05
    2.377200        -6.3814914E-05
    2.389200        -6.3829793E-05
    2.401200        -6.3791289E-05
    2.413200        -6.3725573E-05
    2.425200        -6.3663385E-05
    2.437200        -6.3638683E-05
    2.449200        -6.3687061E-05
    2.461200        -6.3844062E-05
    2.473200        -6.4143431E-05
    2.485200        -6.4615451E-05
    2.497200        -6.5285494E-05
    2.509200        -6.6172666E-05
    2.521200        -6.7288915E-05
    2.533200        -6.8638386E-05
    2.545200        -7.0217291E-05
    2.557200        -7.2014111E-05
    2.569200        -7.4010240E-05
    2.581200        -7.6181037E-05
    2.593200        -7.8497200E-05
    2.605200        -8.0926387E-05
    2.617200        -8.3435079E-05
    2.629200        -8.5990534E-05
    2.641200        -8.8562694E-05
    2.653200        -9.1126145E-05
    2.665200        -9.3661729E-05
    2.677200        -9.6158044E-05
    2.689200        -9.8612516E-05
    2.701200        -1.0103205E-04
    2.713200        -1.0343327E-04
    2.725200        -1.0584219E-04
    2.737200        -1.0829350E-04
    2.749200        -1.1082922E-04
    2.761200        -1.1349702E-04
    2.773200        -1.1634814E-04
    2.785200        -1.1943498E-04
    2.797200        -1.2280847E-04
    2.809200        -1.2651547E-04
    2.821200        -1.3059599E-04
    2.833200        -1.3508073E-04
    2.845200        -1.3998878E-04
    2.857200        -1.4532583E-04
    2.869200        -1.5108261E-04
    2.881200        -1.5723424E-04
    2.893200        -1.6373988E-04
    2.905200        -1.7054330E-04
    2.917200        -1.7757386E-04
    2.929200        -1.8474838E-04
    2.941200        -1.9197327E-04
    2.953200        -1.9914734E-04
    2.965200        -2.0616486E-04
    2.977200        -2.1291876E-04
    2.989200        -2.1930403E-04
    3.001200        -2.2522088E-04
    3.013200        -2.3057779E-04
    3.025200        -2.3529408E-04
    3.037200        -2.3930220E-04
    3.049200        -2.4254931E-04
    3.061200        -2.4499829E-04
    3.073200        -2.4662819E-04
    3.085200        -2.4743393E-04
    3.097200        -2.4742563E-04
    3.109200        -2.4662729E-04
    3.121200        -2.4507500E-04
    3.133200        -2.4281516E-04
    3.145200        -2.3990210E-04
    3.157200        -2.3639592E-04
    3.169200        -2.3236027E-04
    3.181200        -2.2786015E-04
    3.193200        -2.2296012E-04
    3.205200        -2.1772263E-04
    3.217200        -2.1220665E-04
    3.229200        -2.0646674E-04
    3.241200        -2.0055247E-04
    3.253200        -1.9450819E-04
    3.265200        -1.8837300E-04
    3.277200        -1.8218128E-04
    3.289200        -1.7596307E-04
    3.301200        -1.6974501E-04
    3.313200        -1.6355110E-04
    3.325200        -1.5740369E-04
    3.337200        -1.5132426E-04
    3.349200        -1.4533431E-04
    3.361200        -1.3945599E-04
    3.373200        -1.3371260E-04
    3.385200        -1.2812894E-04
    3.397200        -1.2273128E-04
    3.409200        -1.1754719E-04
    3.421200        -1.1260516E-04
    3.433200        -1.0793388E-04
    3.445200        -1.0356136E-04
    3.457200        -9.9513942E-05
    3.469200        -9.5815230E-05
    3.481200        -9.2484945E-05
    3.493200        -8.9537876E-05
    3.505200        -8.6982938E-05
    3.517200        -8.4822423E-05
    3.529200        -8.3051425E-05
    3.541200        -8.1657658E-05
    3.553200        -8.0621401E-05
    3.565200        -7.9915852E-05
    3.577200        -7.9507707E-05
    3.589200        -7.9357997E-05
    3.601200        -7.9423131E-05
    3.613200        -7.9656107E-05
    3.625200        -8.0007769E-05
    3.637200        -8.0428130E-05
    3.649200        -8.0867641E-05
    3.661200        -8.1278318E-05
    3.673200        -8.1614846E-05
    3.685200        -8.1835358E-05
    3.697200        -8.1902203E-05
    3.709200        -8.1782353E-05
    3.721200        -8.1447834E-05
    3.733200        -8.0875863E-05
    3.745200        -8.0049038E-05
    3.757200        -7.8955309E-05
    3.769200        -7.7588113E-05
    3.781200        -7.5946373E-05
    3.793200        -7.4034630E-05
    3.805200        -7.1863207E-05
    3.817200        -6.9448361E-05
    3.829200        -6.6812550E-05
    3.841200        -6.3984568E-05
    3.853200        -6.0999690E-05
    3.865200        -5.7899593E-05
    3.877200        -5.4732165E-05
    3.889200        -5.1550964E-05
    3.901200        -4.8414440E-05
    3.913200        -4.5384735E-05
    3.925200        -4.2526211E-05
    3.937200        -3.9903589E-05
    3.949200        -3.7579819E-05
    3.961200        -3.5613732E-05
    3.973200        -3.4057550E-05
    3.985200        -3.2954435E-05
    3.997200        -3.2336124E-05
    4.009200        -3.2220898E-05
    4.021200        -3.2611908E-05
    4.033200        -3.3496068E-05
    4.045200        -3.4843626E-05
    4.057200        -3.6608402E-05
    4.069200        -3.8728795E-05
    4.081200        -4.1129537E-05
    4.093200        -4.3724125E-05
    4.105200        -4.6417841E-05
    4.117200        -4.9111215E-05
    4.129200        -5.1703795E-05
    4.141200        -5.4098036E-05
    4.153200        -5.6203113E-05
    4.165200        -5.7938432E-05
    4.177200        -5.9236751E-05
    4.189200        -6.0046656E-05
    4.201200        -6.0334391E-05
    4.213200        -6.0084822E-05
    4.225200        -5.9301601E-05
    4.237200        -5.8006521E-05
    4.249200        -5.6238085E-05
    4.261200        -5.4049418E-05
    4.273200        -5.1505616E-05
    4.285200        -4.8680733E-05
    4.297200        -4.5654491E-05
    4.309200        -4.2508957E-05
    4.321200        -3.9325303E-05
    4.333200        -3.6180809E-05
    4.345200        -3.3146243E-05
    4.357200        -3.0283696E-05
    4.369200        -2.7644955E-05
    4.381200        -2.5270472E-05
    4.393200        -2.3188892E-05
    4.405200        -2.1417145E-05
    4.417200        -1.9961049E-05
    4.429200        -1.8816343E-05
    4.441200        -1.7970056E-05
    4.453200        -1.7402137E-05
    4.465200        -1.7087204E-05
    4.477200        -1.6996371E-05
    4.489200        -1.7098984E-05
    4.501200        -1.7364249E-05
    4.513200        -1.7762653E-05
    4.525200        -1.8267092E-05
    4.537200        -1.8853720E-05
    4.549200        -1.9502462E-05
    4.561200        -2.0197187E-05
    4.573200        -2.0925574E-05
    4.585200        -2.1678690E-05
    4.597200        -2.2450340E-05
    4.609200        -2.3236244E-05
    4.621200        -2.4033096E-05
    4.633200        -2.4837622E-05
    4.645200        -2.5645659E-05
    4.657200        -2.6451347E-05
    4.669200        -2.7246509E-05
    4.681200        -2.8020249E-05
    4.693200        -2.8758812E-05
    4.705200        -2.9445730E-05
    4.717200        -3.0062269E-05
    4.729200        -3.0588119E-05
    4.741200        -3.1002368E-05
    4.753200        -3.1284642E-05
    4.765200        -3.1416355E-05
    4.777200        -3.1382053E-05
    4.789200        -3.1170657E-05
    4.801200        -3.0776635E-05
    4.813200        -3.0200927E-05
    4.825200        -2.9451614E-05
    4.837200        -2.8544235E-05
    4.849200        -2.7501726E-05
    4.861200        -2.6353979E-05
    4.873200        -2.5136971E-05
    4.885200        -2.3891556E-05
    4.897200        -2.2661927E-05
    4.909200        -2.1493817E-05
    4.921200        -2.0432566E-05
    4.933200        -1.9521096E-05
    4.945200        -1.8797960E-05
    4.957200        -1.8295510E-05
    4.969200        -1.8038361E-05
    4.981200        -1.8042161E-05
    4.993200        -1.8312789E-05
    5.005200        -1.8846004E-05
    5.017200        -1.9627574E-05
    5.029200        -2.0633877E-05
    5.041200        -2.1832941E-05
    5.053200        -2.3185859E-05
    5.065200        -2.4648529E-05
    5.077200        -2.6173573E-05
    5.089200        -2.7712382E-05
    5.101200        -2.9217144E-05
    5.113200        -3.0642772E-05
    5.125200        -3.1948628E-05
    5.137200        -3.3100001E-05
    5.149200        -3.4069217E-05
    5.161200        -3.4836441E-05
    5.173200        -3.5390098E-05
    5.185200        -3.5726931E-05
    5.197200        -3.5851775E-05
    5.209200        -3.5777033E-05
    5.221200        -3.5521924E-05
    5.233200        -3.5111563E-05
    5.245200        -3.4575904E-05
    5.257200        -3.3948600E-05
    5.269200        -3.3265824E-05
    5.281200        -3.2565073E-05
    5.293200        -3.1883992E-05
    5.305200        -3.1259220E-05
    5.317200        -3.0725292E-05
    5.329200        -3.0313593E-05
    5.341200        -3.0051398E-05
    5.353200        -2.9960984E-05
    5.365200        -3.0058858E-05
    5.377200        -3.0355139E-05
    5.389200        -3.0853083E-05
    5.401200        -3.1548832E-05
    5.413200        -3.2431417E-05
    5.425200        -3.3482986E-05
    5.437200        -3.4679397E-05
    5.449200        -3.5991059E-05
    5.461200        -3.7384081E-05
    5.473200        -3.8821694E-05
    5.485200        -4.0265877E-05
    5.497200        -4.1679083E-05
    5.509200        -4.3026055E-05
    5.521200        -4.4275552E-05
    5.533200        -4.5401906E-05
    5.545200        -4.6386333E-05
    5.557200        -4.7217880E-05
    5.569200        -4.7893929E-05
    5.581200        -4.8420268E-05
    5.593200        -4.8810634E-05
    5.605200        -4.9085826E-05
    5.617200        -4.9272359E-05
    5.629200        -4.9400809E-05
    5.641200        -4.9503877E-05
    5.653200        -4.9614351E-05
    5.665200        -4.9763061E-05
    5.677200        -4.9976927E-05
    5.689200        -5.0277282E-05
    5.701200        -5.0678533E-05
    5.713200        -5.1187206E-05
    5.725200        -5.1801511E-05
    5.737200        -5.2511365E-05
    5.749200        -5.3298932E-05
    5.761200        -5.4139564E-05
    5.773200        -5.5003129E-05
    5.785200        -5.5855624E-05
    5.797200        -5.6660992E-05
    5.809200        -5.7382938E-05
    5.821200        -5.7986828E-05
    5.833200        -5.8441368E-05
    5.845200        -5.8720125E-05
    5.857200        -5.8802780E-05
    5.869200        -5.8676083E-05
    5.881200        -5.8334455E-05
    5.893200        -5.7780242E-05
    5.905200        -5.7023670E-05
    5.917200        -5.6082441E-05
    5.929200        -5.4981061E-05
    5.941200        -5.3749907E-05
    5.953200        -5.2424082E-05
    5.965200        -5.1042141E-05
    5.977200        -4.9644685E-05
    5.989200        -4.8272916E-05
    6.001200        -4.6967190E-05
    6.013200        -4.5765606E-05
    6.025200        -4.4702683E-05
    6.037200        -4.3808148E-05
    6.049200        -4.3105912E-05
    6.061200        -4.2613214E-05
    6.073200        -4.2340002E-05
    6.085200        -4.2288604E-05
    6.097200        -4.2453630E-05
    6.109200        -4.2822267E-05
    6.121200        -4.3374817E-05
    6.133200        -4.4085602E-05
    6.145200        -4.4924120E-05
    6.157200        -4.5856472E-05
    6.169200        -4.6846937E-05
    6.181200        -4.7859663E-05
    6.193200        -4.8860351E-05
    6.205200        -4.9817867E-05
    6.217200        -5.0705654E-05
    6.229200        -5.1502917E-05
    6.241200        -5.2195457E-05
    6.253200        -5.2776144E-05
    6.265200        -5.3244978E-05
    6.277200        -5.3608761E-05
    6.289200        -5.3880369E-05
    6.301200        -5.4077664E-05
    6.313200        -5.4222157E-05
    6.325200        -5.4337441E-05
    6.337200        -5.4447530E-05
    6.349200        -5.4575194E-05
    6.361200        -5.4740412E-05
    6.373200        -5.4959004E-05
    6.385200        -5.5241573E-05
    6.397200        -5.5592780E-05
    6.409200        -5.6011002E-05
    6.421200        -5.6488367E-05
    6.433200        -5.7011210E-05
    6.445200        -5.7560777E-05
    6.457200        -5.8114234E-05
    6.469200        -5.8645895E-05
    6.481200        -5.9128488E-05
    6.493200        -5.9534494E-05
    6.505200        -5.9837457E-05
    6.517200        -6.0013146E-05
    6.529200        -6.0040631E-05
    6.541200        -5.9903112E-05
    6.553200        -5.9588594E-05
    6.565200        -5.9090358E-05
    6.577200        -5.8407219E-05
    6.589200        -5.7543639E-05
    6.601200        -5.6509660E-05
    6.613200        -5.5320725E-05
    6.625200        -5.3997410E-05
    6.637200        -5.2565061E-05
    6.649200        -5.1053350E-05
    6.661200        -4.9495771E-05
    6.673200        -4.7929076E-05
    6.685200        -4.6392590E-05
    6.697200        -4.4927452E-05
    6.709200        -4.3575717E-05
    6.721200        -4.2379303E-05
    6.733200        -4.1378837E-05
    6.745200        -4.0612314E-05
    6.757200        -4.0113671E-05
    6.769200        -3.9911269E-05
    6.781200        -4.0026367E-05
    6.793200        -4.0471696E-05
    6.805200        -4.1250154E-05
    6.817200        -4.2353800E-05
    6.829200        -4.3763193E-05
    6.841200        -4.5447203E-05
    6.853200        -4.7363283E-05
    6.865200        -4.9458376E-05
    6.877200        -5.1670326E-05
    6.889200        -5.3929860E-05
    6.901200        -5.6163033E-05
    6.913200        -5.8294103E-05
    6.925200        -6.0248618E-05
    6.937200        -6.1956642E-05
    6.949200        -6.3355961E-05
    6.961200        -6.4395012E-05
    6.973200        -6.5035500E-05
    6.985200        -6.5254353E-05
    6.997200        -6.5045075E-05
    7.009200        -6.4418302E-05
    7.021200        -6.3401429E-05
    7.033200        -6.2037543E-05
    7.045200        -6.0383431E-05
    7.057200        -5.8506957E-05
    7.069200        -5.6483910E-05
    7.081200        -5.4394452E-05
    7.093200        -5.2319410E-05
    7.105200        -5.0336606E-05
    7.117200        -4.8517424E-05
    7.129200        -4.6923735E-05
    7.141200        -4.5605455E-05
    7.153200        -4.4598724E-05
    7.165200        -4.3924847E-05
    7.177200        -4.3590015E-05
    7.189200        -4.3585795E-05
    7.201200        -4.3890323E-05
    7.213200        -4.4470107E-05
    7.225200        -4.5282293E-05
    7.237200        -4.6277284E-05
    7.249200        -4.7401511E-05
    7.261200        -4.8600203E-05
    7.273200        -4.9820046E-05
    7.285200        -5.1011539E-05
    7.297200        -5.2131039E-05
    7.309200        -5.3142358E-05
    7.321200        -5.4017917E-05
    7.333200        -5.4739401E-05
    7.345200        -5.5298002E-05
    7.357200        -5.5694189E-05
    7.369200        -5.5937115E-05
    7.381200        -5.6043660E-05
    7.393200        -5.6037214E-05
    7.405200        -5.5946261E-05
    7.417200        -5.5802782E-05
    7.429200        -5.5640623E-05
    7.441200        -5.5493823E-05
    7.453200        -5.5395045E-05
    7.465200        -5.5374039E-05
    7.477200        -5.5456316E-05
    7.489200        -5.5661953E-05
    7.501200        -5.6004668E-05
    7.513200        -5.6491073E-05
    7.525200        -5.7120247E-05
    7.537200        -5.7883564E-05
    7.549200        -5.8764850E-05
    7.561200        -5.9740818E-05
    7.573200        -6.0781829E-05
    7.585200        -6.1852908E-05
    7.597200        -6.2915038E-05
    7.609200        -6.3926585E-05
    7.621200        -6.4844971E-05
    7.633200        -6.5628308E-05
    7.645200        -6.6237124E-05
    7.657200        -6.6636007E-05
    7.669200        -6.6795074E-05
    7.681200        -6.6691333E-05
    7.693200        -6.6309767E-05
    7.705200        -6.5644097E-05
    7.717200        -6.4697306E-05
    7.729200        -6.3481719E-05
    7.741200        -6.2018837E-05
    7.753200        -6.0338763E-05
    7.765200        -5.8479331E-05
    7.777200        -5.6484991E-05
    7.789200        -5.4405438E-05
    7.801200        -5.2294065E-05
    7.813200        -5.0206330E-05
    7.825200        -4.8198053E-05
    7.837200        -4.6323708E-05
    7.849200        -4.4634762E-05
    7.861200        -4.3178141E-05
    7.873200        -4.1994786E-05
    7.885200        -4.1118434E-05
    7.897200        -4.0574549E-05
    7.909200        -4.0379549E-05
    7.921200        -4.0540232E-05
    7.933200        -4.1053485E-05
    7.945200        -4.1906278E-05
    7.957200        -4.3075896E-05
    7.969200        -4.4530483E-05
    7.981200        -4.6229776E-05
    7.993200        -4.8126149E-05
    8.005200        -5.0165829E-05
    8.017200        -5.2290336E-05
    8.029200        -5.4438089E-05
    8.041200        -5.6546156E-05
    8.053200        -5.8552119E-05
    8.065200        -6.0395952E-05
    8.077200        -6.2021893E-05
    8.089200        -6.3380277E-05
    8.101200        -6.4429172E-05
    8.113200        -6.5135871E-05
    8.125200        -6.5478016E-05
    8.137200        -6.5444437E-05
    8.149200        -6.5035601E-05
    8.161200        -6.4263637E-05
    8.173200        -6.3151900E-05
    8.185200        -6.1734128E-05
    8.197200        -6.0053178E-05
    8.209200        -5.8159403E-05
    8.221200        -5.6108722E-05
    8.233200        -5.3960513E-05
    8.245200        -5.1775358E-05
    8.257200        -4.9612794E-05
    8.269200        -4.7529196E-05
    8.281200        -4.5575805E-05
    8.293200        -4.3797103E-05
    8.305200        -4.2229520E-05
    8.317200        -4.0900610E-05
    8.329200        -3.9828636E-05
    8.341200        -3.9022623E-05
    8.353200        -3.8482864E-05
    8.365200        -3.8201768E-05
    8.377200        -3.8165042E-05
    8.389200        -3.8353101E-05
    8.401200        -3.8742568E-05
    8.413200        -3.9307863E-05
    8.425200        -4.0022675E-05
    8.437200        -4.0861316E-05
    8.449200        -4.1799845E-05
    8.461200        -4.2816933E-05
    8.473200        -4.3894433E-05
    8.485200        -4.5017641E-05
    8.497200        -4.6175282E-05
    8.509200        -4.7359252E-05
    8.521200        -4.8564089E-05
    8.533200        -4.9786344E-05
    8.545200        -5.1023802E-05
    8.557200        -5.2274674E-05
    8.569200        -5.3536787E-05
    8.581200        -5.4806824E-05
    8.593200        -5.6079669E-05
    8.605200        -5.7347879E-05
    8.617200        -5.8601327E-05
    8.629200        -5.9827042E-05
    8.641200        -6.1009214E-05
    8.653200        -6.2129438E-05
    8.665200        -6.3167114E-05
    8.677200        -6.4100095E-05
    8.689200        -6.4905435E-05
    8.701200        -6.5560307E-05
    8.713200        -6.6043016E-05
    8.725200        -6.6334069E-05
    8.737200        -6.6417269E-05
    8.749200        -6.6280787E-05
    8.761200        -6.5918131E-05
    8.773200        -6.5329055E-05
    8.785200        -6.4520231E-05
    8.797200        -6.3505780E-05
    8.809200        -6.2307496E-05
    8.821200        -6.0954811E-05
    8.833200        -5.9484439E-05
    8.845200        -5.7939687E-05
    8.857200        -5.6369419E-05
    8.869200        -5.4826720E-05
    8.881200        -5.3367276E-05
    8.893200        -5.2047475E-05
    8.905200        -5.0922463E-05
    8.917200        -5.0044022E-05
    8.929200        -4.9458537E-05
    8.941200        -4.9205057E-05
    8.953200        -4.9313589E-05
    8.965200        -4.9803679E-05
    8.977200        -5.0683386E-05
    8.989200        -5.1948653E-05
    9.001200        -5.3583168E-05
    9.013200        -5.5558685E-05
    9.025200        -5.7835849E-05
    9.037200        -6.0365401E-05
    9.049200        -6.3089858E-05
    9.061200        -6.5945445E-05
    9.073200        -6.8864363E-05
    9.085200        -7.1777067E-05
    9.097200        -7.4614698E-05
    9.109200        -7.7311372E-05
    9.121200        -7.9806305E-05
    9.133200        -8.2045655E-05
    9.145200        -8.3984021E-05
    9.157200        -8.5585598E-05
    9.169200        -8.6824810E-05
    9.181200        -8.7686567E-05
    9.193200        -8.8166147E-05
    9.205200        -8.8268593E-05
    9.217200        -8.8007851E-05
    9.229200        -8.7405606E-05
    9.241200        -8.6489948E-05
    9.253200        -8.5293839E-05
    9.265200        -8.3853571E-05
    9.277200        -8.2207276E-05
    9.289200        -8.0393467E-05
    9.301200        -7.8449797E-05
    9.313200        -7.6412012E-05
    9.325200        -7.4313168E-05
    9.337200        -7.2183051E-05
    9.349200        -7.0047943E-05
    9.361200        -6.7930545E-05
    9.373200        -6.5850138E-05
    9.385200        -6.3822903E-05
    9.397200        -6.1862338E-05
    9.409200        -5.9979746E-05
    9.421200        -5.8184683E-05
    9.433200        -5.6485449E-05
    9.445200        -5.4889442E-05
