  -0.6228000         1.0000000E-24
  -0.6108000         1.0000000E-24
  -0.5988000         1.0000000E-24
  -0.5868000         1.0000000E-24
  -0.5748000         1.0000000E-24
  -0.5628000         1.0000000E-24
  -0.5508000         9.5936333E-25
  -0.5388000         3.6415641E-25
  -0.5268000        -3.9110079E-24
  -0.5148000        -2.4248303E-23
  -0.5028000        -9.6644959E-23
  -0.4908000        -3.0236279E-22
  -0.4788000        -7.8721725E-22
  -0.4668000        -1.7582540E-21
  -0.4548000        -3.4374742E-21
  -0.4428000        -5.9761776E-21
  -0.4308000        -9.3818365E-21
  -0.4188000        -1.3555159E-20
  -0.4068000        -1.8525870E-20
  -0.3948000        -2.4865523E-20
  -0.3828000        -3.4057175E-20
  -0.3708000        -4.8427906E-20
  -0.3588000        -7.0292632E-20
  -0.3468000        -1.0037702E-19
  -0.3348000        -1.3634282E-19
  -0.3228000        -1.7296380E-19
  -0.3108000        -2.0555649E-19
  -0.2988000        -2.3706037E-19
  -0.2868000        -2.8663103E-19
  -0.2748000        -3.9466372E-19
  -0.2628000        -6.1765075E-19
  -0.2508000        -1.0082774E-18
  -0.2388000        -1.5826931E-18
  -0.2268000        -2.2865673E-18
  -0.2148000        -2.9800954E-18
  -0.2028000        -3.4635268E-18
  -0.1908000        -3.5541424E-18
  -0.1788000        -3.2026485E-18
  -0.1668000        -2.6085225E-18
  -0.1548000        -2.2732131E-18
  -0.1428000        -2.9320591E-18
  -0.1308000        -5.3391758E-18
  -0.1188000        -9.9396562E-18
  -0.1068000        -1.6529970E-17
  -9.4800003E-02    -2.4049851E-17
  -8.2800001E-02    -3.0639610E-17
  -7.0799999E-02    -3.4026753E-17
  -5.8800001E-02    -3.2193562E-17
  -4.6799999E-02    -2.4166183E-17
  -3.4800000E-02    -1.0703820E-17
  -2.2800000E-02     5.3194624E-18
  -1.0800000E-02     1.8972669E-17
   1.2000001E-03     2.3814116E-17
   1.3200000E-02     1.2941370E-17
   2.5200000E-02    -1.9408200E-17
   3.7200000E-02    -7.5631446E-17
   4.9199998E-02    -1.5195403E-16
   6.1200000E-02    -2.3550287E-16
   7.3200002E-02    -3.0242848E-16
   8.5199997E-02    -3.1901892E-16
   9.7199999E-02    -2.4804553E-16
   0.1092000        -6.1740357E-17
   0.1212000         2.3961728E-16
   0.1332000         6.0834467E-16
   0.1452000         9.3810297E-16
   0.1572000         1.0717903E-15
   0.1692000         8.3751473E-16
   0.1812000         1.1362038E-16
   0.1932000        -1.0895627E-15
   0.2052000        -2.5586417E-15
   0.2172000        -3.8546233E-15
   0.2292000        -4.3751933E-15
   0.2412000        -3.5189797E-15
   0.2532000        -9.3249487E-16
   0.2652000         3.2250799E-15
   0.2772000         8.1024182E-15
   0.2892000         1.2175908E-14
   0.3012000         1.3549519E-14
   0.3132000         1.0533482E-14
   0.3252000         2.3852300E-15
   0.3372000        -1.0017368E-14
   0.3492000        -2.3863649E-14
   0.3612000        -3.4719833E-14
   0.3732000        -3.7572562E-14
   0.3852000        -2.8470685E-14
   0.3972000        -6.3494293E-15
   0.4092000         2.5590890E-14
   0.4212000         5.9616842E-14
   0.4332000         8.4761997E-14
   0.4452000         8.9704889E-14
   0.4572000         6.6647222E-14
   0.4692000         1.5073424E-14
   0.4812000        -5.6003443E-14
   0.4932000        -1.2853579E-13
   0.5052000        -1.7923298E-13
   0.5172000        -1.8615684E-13
   0.5292000        -1.3649073E-13
   0.5412000        -3.3029257E-14
   0.5532000         1.0319123E-13
   0.5652000         2.3592242E-13
   0.5772000         3.2258750E-13
   0.5892000         3.2717866E-13
   0.6012000         2.3351869E-13
   0.6132000         5.4357065E-14
   0.6252000        -1.6766990E-13
   0.6372000        -3.6909202E-13
   0.6492000        -4.8337864E-13
   0.6612000        -4.6282493E-13
   0.6732000        -2.9765085E-13
   0.6852000        -2.5155461E-14
   0.6972000         2.7598231E-13
   0.7092000         5.0677263E-13
   0.7212000         5.7952281E-13
   0.7332000         4.5059345E-13
   0.7452000         1.4291097E-13
   0.7572000        -2.5146432E-13
   0.7692000        -5.9299646E-13
   0.7812000        -7.3702047E-13
   0.7932000        -5.8536363E-13
   0.8052000        -1.3068660E-13
   0.8172000         5.2320946E-13
   0.8292000         1.1762595E-12
   0.8412000         1.5830185E-12
   0.8532000         1.5281885E-12
   0.8652000         9.0530312E-13
   0.8772000        -2.2720148E-13
   0.8892000        -1.6345036E-12
   0.9012000        -2.9487762E-12
   0.9132000        -3.7610592E-12
   0.9252000        -3.7386431E-12
   0.9372000        -2.7339697E-12
   0.9492000        -8.5000079E-13
   0.9612000         1.5626838E-12
   0.9732000         3.9823310E-12
   0.9852000         5.8482212E-12
   0.9972000         6.7115905E-12
    1.009200         6.3594650E-12
    1.021200         4.8713139E-12
    1.033200         2.5878267E-12
    1.045200        -1.0472799E-15
    1.057200        -2.4142517E-12
    1.069200        -4.3316522E-12
    1.081200        -5.6864409E-12
    1.093200        -6.6615155E-12
    1.105200        -7.5844409E-12
    1.117200        -8.7509982E-12
    1.129200        -1.0235248E-11
    1.141200        -1.1754314E-11
    1.153200        -1.2643346E-11
    1.165200        -1.1963451E-11
    1.177200        -8.7212928E-12
    1.189200        -2.1392150E-12
    1.201200         8.1078434E-12
    1.213200         2.1766790E-11
    1.225200         3.8036775E-11
    1.237200         5.5744739E-11
    1.249200         7.3594297E-11
    1.261200         9.0369871E-11
    1.273200         1.0495629E-10
    1.285200         1.1604819E-10
    1.297200         1.2146811E-10
    1.309200         1.1707139E-10
    1.321200         9.5277522E-11
    1.333200         4.3290250E-11
    1.345200        -5.8926794E-11
    1.357200        -2.4092212E-10
    1.369200        -5.4437788E-10
    1.381200        -1.0262990E-09
    1.393200        -1.7632119E-09
    1.405200        -2.8569340E-09
    1.417200        -4.4427844E-09
    1.429200        -6.7013248E-09
    1.441200        -9.8750474E-09
    1.453200        -1.4291839E-08
    1.465200        -2.0397517E-08
    1.477200        -2.8800045E-08
    1.489200        -4.0328533E-08
    1.501200        -5.6110515E-08
    1.513200        -7.7670165E-08
    1.525200        -1.0705104E-07
    1.537200        -1.4696479E-07
    1.549200        -2.0096729E-07
    1.561200        -2.7366008E-07
    1.573200        -3.7091559E-07
    1.585200        -5.0011863E-07
    1.597200        -6.7041714E-07
    1.609200        -8.9296913E-07
    1.621200        -1.1811710E-06
    1.633200        -1.5508519E-06
    1.645200        -2.0204104E-06
    1.657200        -2.6108728E-06
    1.669200        -3.3458523E-06
    1.681200        -4.2513834E-06
    1.693200        -5.3556105E-06
    1.705200        -6.6883126E-06
    1.717200        -8.2802608E-06
    1.729200        -1.0162388E-05
    1.741200        -1.2364795E-05
    1.753200        -1.4915588E-05
    1.765200        -1.7839589E-05
    1.777200        -2.1156960E-05
    1.789200        -2.4881772E-05
    1.801200        -2.9020595E-05
    1.813200        -3.3571170E-05
    1.825200        -3.8521248E-05
    1.837200        -4.3847631E-05
    1.849200        -4.9515551E-05
    1.861200        -5.5478380E-05
    1.873200        -6.1677805E-05
    1.885200        -6.8044414E-05
    1.897200        -7.4498785E-05
    1.909200        -8.0953076E-05
    1.921200        -8.7313005E-05
    1.933200        -9.3480310E-05
    1.945200        -9.9355457E-05
    1.957200        -1.0484065E-04
    1.969200        -1.0984289E-04
    1.981200        -1.1427706E-04
    1.993200        -1.1806888E-04
    2.005200        -1.2115741E-04
    2.017200        -1.2349745E-04
    2.029200        -1.2506107E-04
    2.041200        -1.2583873E-04
    2.053200        -1.2583972E-04
    2.065200        -1.2509176E-04
    2.077200        -1.2363997E-04
    2.089200        -1.2154527E-04
    2.101200        -1.1888203E-04
    2.113200        -1.1573538E-04
    2.125200        -1.1219806E-04
    2.137200        -1.0836720E-04
    2.149200        -1.0434092E-04
    2.161200        -1.0021515E-04
    2.173200        -9.6080650E-05
    2.185200        -9.2020447E-05
    2.197200        -8.8107721E-05
    2.209200        -8.4404288E-05
    2.221200        -8.0959624E-05
    2.233200        -7.7810539E-05
    2.245200        -7.4981355E-05
    2.257200        -7.2484625E-05
    2.269200        -7.0322210E-05
    2.281200        -6.8486712E-05
    2.293200        -6.6963134E-05
    2.305200        -6.5730550E-05
    2.317200        -6.4763881E-05
    2.329200        -6.4035477E-05
    2.341200        -6.3516592E-05
    2.353200        -6.3178675E-05
    2.365200        -6.2994404E-05
    2.377200        -6.2938474E-05
    2.389200        -6.2988205E-05
    2.401200        -6.3123880E-05
    2.413200        -6.3328989E-05
    2.425200        -6.3590240E-05
    2.437200        -6.3897525E-05
    2.449200        -6.4243759E-05
    2.461200        -6.4624648E-05
    2.473200        -6.5038359E-05
    2.485200        -6.5485219E-05
    2.497200        -6.5967237E-05
    2.509200        -6.6487642E-05
    2.521200        -6.7050336E-05
    2.533200        -6.7659326E-05
    2.545200        -6.8318099E-05
    2.557200        -6.9029040E-05
    2.569200        -6.9792892E-05
    2.581200        -7.0608272E-05
    2.593200        -7.1471346E-05
    2.605200        -7.2375653E-05
    2.617200        -7.3312171E-05
    2.629200        -7.4269519E-05
    2.641200        -7.5234500E-05
    2.653200        -7.6192729E-05
    2.665200        -7.7129516E-05
    2.677200        -7.8030811E-05
    2.689200        -7.8884201E-05
    2.701200        -7.9679899E-05
    2.713200        -8.0411563E-05
    2.725200        -8.1077022E-05
    2.737200        -8.1678649E-05
    2.749200        -8.2223596E-05
    2.761200        -8.2723585E-05
    2.773200        -8.3194493E-05
    2.785200        -8.3655650E-05
    2.797200        -8.4128878E-05
    2.809200        -8.4637431E-05
    2.821200        -8.5204840E-05
    2.833200        -8.5853739E-05
    2.845200        -8.6604741E-05
    2.857200        -8.7475550E-05
    2.869200        -8.8480156E-05
    2.881200        -8.9628338E-05
    2.893200        -9.0925285E-05
    2.905200        -9.2371578E-05
    2.917200        -9.3963237E-05
    2.929200        -9.5691947E-05
    2.941200        -9.7545460E-05
    2.953200        -9.9507888E-05
    2.965200        -1.0156014E-04
    2.977200        -1.0368038E-04
    2.989200        -1.0584421E-04
    3.001200        -1.0802509E-04
    3.013200        -1.1019449E-04
    3.025200        -1.1232217E-04
    3.037200        -1.1437645E-04
    3.049200        -1.1632438E-04
    3.061200        -1.1813219E-04
    3.073200        -1.1976569E-04
    3.085200        -1.2119077E-04
    3.097200        -1.2237408E-04
    3.109200        -1.2328375E-04
    3.121200        -1.2389023E-04
    3.133200        -1.2416713E-04
    3.145200        -1.2409208E-04
    3.157200        -1.2364759E-04
    3.169200        -1.2282172E-04
    3.181200        -1.2160865E-04
    3.193200        -1.2000915E-04
    3.205200        -1.1803069E-04
    3.217200        -1.1568753E-04
    3.229200        -1.1300037E-04
    3.241200        -1.0999604E-04
    3.253200        -1.0670694E-04
    3.265200        -1.0317026E-04
    3.277200        -9.9427292E-05
    3.289200        -9.5522613E-05
    3.301200        -9.1503272E-05
    3.313200        -8.7418091E-05
    3.325200        -8.3316954E-05
    3.337200        -7.9250218E-05
    3.349200        -7.5268224E-05
    3.361200        -7.1420807E-05
    3.373200        -6.7756933E-05
    3.385200        -6.4324304E-05
    3.397200        -6.1168947E-05
    3.409200        -5.8334717E-05
    3.421200        -5.5862754E-05
    3.433200        -5.3790769E-05
    3.445200        -5.2152183E-05
    3.457200        -5.0975166E-05
    3.469200        -5.0281567E-05
    3.481200        -5.0085746E-05
    3.493200        -5.0393428E-05
    3.505200        -5.1200648E-05
    3.517200        -5.2492840E-05
    3.529200        -5.4244196E-05
    3.541200        -5.6417353E-05
    3.553200        -5.8963513E-05
    3.565200        -6.1822990E-05
    3.577200        -6.4926280E-05
    3.589200        -6.8195601E-05
    3.601200        -7.1546870E-05
    3.613200        -7.4892057E-05
    3.625200        -7.8141908E-05
    3.637200        -8.1208746E-05
    3.649200        -8.4009400E-05
    3.661200        -8.6468041E-05
    3.673200        -8.8518784E-05
    3.685200        -9.0107918E-05
    3.697200        -9.1195718E-05
    3.709200        -9.1757698E-05
    3.721200        -9.1785259E-05
    3.733200        -9.1285670E-05
    3.745200        -9.0281552E-05
    3.757200        -8.8809677E-05
    3.769200        -8.6919339E-05
    3.781200        -8.4670319E-05
    3.793200        -8.2130522E-05
    3.805200        -7.9373443E-05
    3.817200        -7.6475553E-05
    3.829200        -7.3513700E-05
    3.841200        -7.0562586E-05
    3.853200        -6.7692468E-05
    3.865200        -6.4967084E-05
    3.877200        -6.2441846E-05
    3.889200        -6.0162361E-05
    3.901200        -5.8163238E-05
    3.913200        -5.6467310E-05
    3.925200        -5.5085064E-05
    3.937200        -5.4014516E-05
    3.949200        -5.3241343E-05
    3.961200        -5.2739404E-05
    3.973200        -5.2471587E-05
    3.985200        -5.2390966E-05
    3.997200        -5.2442374E-05
    4.009200        -5.2564290E-05
    4.021200        -5.2691030E-05
    4.033200        -5.2755240E-05
    4.045200        -5.2690557E-05
    4.057200        -5.2434440E-05
    4.069200        -5.1930936E-05
    4.081200        -5.1133396E-05
    4.093200        -5.0006878E-05
    4.105200        -4.8530212E-05
    4.117200        -4.6697522E-05
    4.129200        -4.4519089E-05
    4.141200        -4.2021584E-05
    4.153200        -3.9247443E-05
    4.165200        -3.6253503E-05
    4.177200        -3.3108903E-05
    4.189200        -2.9892293E-05
    4.201200        -2.6688491E-05
    4.213200        -2.3584762E-05
    4.225200        -2.0666903E-05
    4.237200        -1.8015291E-05
    4.249200        -1.5701176E-05
    4.261200        -1.3783367E-05
    4.273200        -1.2305503E-05
    4.285200        -1.1294071E-05
    4.297200        -1.0757223E-05
    4.309200        -1.0684505E-05
    4.321200        -1.1047450E-05
    4.333200        -1.1801026E-05
    4.345200        -1.2885828E-05
    4.357200        -1.4230898E-05
    4.369200        -1.5757014E-05
    4.381200        -1.7380269E-05
    4.393200        -1.9015757E-05
    4.405200        -2.0581176E-05
    4.417200        -2.2000160E-05
    4.429200        -2.3205213E-05
    4.441200        -2.4140090E-05
    4.453200        -2.4761554E-05
    4.465200        -2.5040457E-05
    4.477200        -2.4962128E-05
    4.489200        -2.4526104E-05
    4.501200        -2.3745255E-05
    4.513200        -2.2644404E-05
    4.525200        -2.1258531E-05
    4.537200        -1.9630699E-05
    4.549200        -1.7809802E-05
    4.561200        -1.5848278E-05
    4.573200        -1.3799886E-05
    4.585200        -1.1717665E-05
    4.597200        -9.6521408E-06
    4.609200        -7.6498609E-06
    4.621200        -5.7522811E-06
    4.633200        -3.9950314E-06
    4.645200        -2.4075230E-06
    4.657200        -1.0128880E-06
    4.669200         1.7182244E-07
    4.681200         1.1352512E-06
    4.693200         1.8712163E-06
    4.705200         2.3781545E-06
    4.717200         2.6585690E-06
    4.729200         2.7185504E-06
    4.741200         2.5673914E-06
    4.753200         2.2173342E-06
    4.765200         1.6834184E-06
    4.777200         9.8343514E-07
    4.789200         1.3794126E-07
    4.801200        -8.2972275E-07
    4.813200        -1.8934472E-06
    4.825200        -3.0244883E-06
    4.837200        -4.1917538E-06
    4.849200        -5.3622980E-06
    4.861200        -6.5020545E-06
    4.873200        -7.5768112E-06
    4.885200        -8.5534075E-06
    4.897200        -9.4011075E-06
    4.909200        -1.0093085E-05
    4.921200        -1.0607911E-05
    4.933200        -1.0930962E-05
    4.945200        -1.1055618E-05
    4.957200        -1.0984157E-05
    4.969200        -1.0728237E-05
    4.981200        -1.0308924E-05
    4.993200        -9.7561870E-06
    5.005200        -9.1078655E-06
    5.017200        -8.4081366E-06
    5.029200        -7.7055311E-06
    5.041200        -7.0506039E-06
    5.053200        -6.4933643E-06
    5.065200        -6.0806310E-06
    5.077200        -5.8534547E-06
    5.089200        -5.8447636E-06
    5.101200        -6.0774028E-06
    5.113200        -6.5626764E-06
    5.125200        -7.2994953E-06
    5.137200        -8.2742072E-06
    5.149200        -9.4611087E-06
    5.161200        -1.0823630E-05
    5.173200        -1.2316122E-05
    5.185200        -1.3886134E-05
    5.197200        -1.5477062E-05
    5.209200        -1.7030989E-05
    5.221200        -1.8491581E-05
    5.233200        -1.9806845E-05
    5.245200        -2.0931606E-05
    5.257200        -2.1829561E-05
    5.269200        -2.2474815E-05
    5.281200        -2.2852812E-05
    5.293200        -2.2960645E-05
    5.305200        -2.2806778E-05
    5.317200        -2.2410190E-05
    5.329200        -2.1799076E-05
    5.341200        -2.1009209E-05
    5.353200        -2.0082061E-05
    5.365200        -1.9062882E-05
    5.377200        -1.7998789E-05
    5.389200        -1.6937040E-05
    5.401200        -1.5923511E-05
    5.413200        -1.5001481E-05
    5.425200        -1.4210700E-05
    5.437200        -1.3586762E-05
    5.449200        -1.3160725E-05
    5.461200        -1.2958925E-05
    5.473200        -1.3002921E-05
    5.485200        -1.3309488E-05
    5.497200        -1.3890587E-05
    5.509200        -1.4753274E-05
    5.521200        -1.5899488E-05
    5.533200        -1.7325734E-05
    5.545200        -1.9022651E-05
    5.557200        -2.0974536E-05
    5.569200        -2.3158873E-05
    5.581200        -2.5545980E-05
    5.593200        -2.8098824E-05
    5.605200        -3.0773179E-05
    5.617200        -3.3518074E-05
    5.629200        -3.6276739E-05
    5.641200        -3.8987953E-05
    5.653200        -4.1587820E-05
    5.665200        -4.4011962E-05
    5.677200        -4.6197929E-05
    5.689200        -4.8087852E-05
    5.701200        -4.9631017E-05
    5.713200        -5.0786384E-05
    5.725200        -5.1524759E-05
    5.737200        -5.1830502E-05
    5.749200        -5.1702711E-05
    5.761200        -5.1155654E-05
    5.773200        -5.0218561E-05
    5.785200        -4.8934617E-05
    5.797200        -4.7359285E-05
    5.809200        -4.5558023E-05
    5.821200        -4.3603461E-05
    5.833200        -4.1572312E-05
    5.845200        -3.9542028E-05
    5.857200        -3.7587557E-05
    5.869200        -3.5778201E-05
    5.881200        -3.4174915E-05
    5.893200        -3.2828015E-05
    5.905200        -3.1775533E-05
    5.917200        -3.1042218E-05
    5.929200        -3.0639185E-05
    5.941200        -3.0564253E-05
    5.953200        -3.0802883E-05
    5.965200        -3.1329604E-05
    5.977200        -3.2109841E-05
    5.989200        -3.3102006E-05
    6.001200        -3.4259712E-05
    6.013200        -3.5533994E-05
    6.025200        -3.6875397E-05
    6.037200        -3.8235863E-05
    6.049200        -3.9570303E-05
    6.061200        -4.0837880E-05
    6.073200        -4.2002914E-05
    6.085200        -4.3035467E-05
    6.097200        -4.3911597E-05
    6.109200        -4.4613338E-05
    6.121200        -4.5128490E-05
    6.133200        -4.5450211E-05
    6.145200        -4.5576526E-05
    6.157200        -4.5509791E-05
    6.169200        -4.5256151E-05
    6.181200        -4.4825058E-05
    6.193200        -4.4228826E-05
    6.205200        -4.3482283E-05
    6.217200        -4.2602507E-05
    6.229200        -4.1608593E-05
    6.241200        -4.0521492E-05
    6.253200        -3.9363844E-05
    6.265200        -3.8159760E-05
    6.277200        -3.6934580E-05
    6.289200        -3.5714504E-05
    6.301200        -3.4526176E-05
    6.313200        -3.3396125E-05
    6.325200        -3.2350130E-05
    6.337200        -3.1412506E-05
    6.349200        -3.0605355E-05
    6.361200        -2.9947807E-05
    6.373200        -2.9455292E-05
    6.385200        -2.9138904E-05
    6.397200        -2.9004872E-05
    6.409200        -2.9054196E-05
    6.421200        -2.9282473E-05
    6.433200        -2.9679943E-05
    6.445200        -3.0231737E-05
    6.457200        -3.0918389E-05
    6.469200        -3.1716514E-05
    6.481200        -3.2599677E-05
    6.493200        -3.3539414E-05
    6.505200        -3.4506320E-05
    6.517200        -3.5471163E-05
    6.529200        -3.6406000E-05
    6.541200        -3.7285146E-05
    6.553200        -3.8086062E-05
    6.565200        -3.8790058E-05
    6.577200        -3.9382787E-05
    6.589200        -3.9854542E-05
    6.601200        -4.0200321E-05
    6.613200        -4.0419713E-05
    6.625200        -4.0516577E-05
    6.637200        -4.0498566E-05
    6.649200        -4.0376544E-05
    6.661200        -4.0163864E-05
    6.673200        -3.9875660E-05
    6.685200        -3.9528091E-05
    6.697200        -3.9137634E-05
    6.709200        -3.8720416E-05
    6.721200        -3.8291673E-05
    6.733200        -3.7865302E-05
    6.745200        -3.7453530E-05
    6.757200        -3.7066708E-05
    6.769200        -3.6713223E-05
    6.781200        -3.6399510E-05
    6.793200        -3.6130124E-05
    6.805200        -3.5907931E-05
    6.817200        -3.5734298E-05
    6.829200        -3.5609319E-05
    6.841200        -3.5532034E-05
    6.853200        -3.5500660E-05
    6.865200        -3.5512759E-05
    6.877200        -3.5565346E-05
    6.889200        -3.5654975E-05
    6.901200        -3.5777717E-05
    6.913200        -3.5929144E-05
    6.925200        -3.6104200E-05
    6.937200        -3.6297111E-05
    6.949200        -3.6501227E-05
    6.961200        -3.6708960E-05
    6.973200        -3.6911701E-05
    6.985200        -3.7099846E-05
    6.997200        -3.7262886E-05
    7.009200        -3.7389596E-05
    7.021200        -3.7468333E-05
    7.033200        -3.7487411E-05
    7.045200        -3.7435573E-05
    7.057200        -3.7302536E-05
    7.069200        -3.7079550E-05
    7.081200        -3.6759993E-05
    7.093200        -3.6339909E-05
    7.105200        -3.5818506E-05
    7.117200        -3.5198529E-05
    7.129200        -3.4486551E-05
    7.141200        -3.3693068E-05
    7.153200        -3.2832464E-05
    7.165200        -3.1922809E-05
    7.177200        -3.0985488E-05
    7.189200        -3.0044712E-05
    7.201200        -2.9126855E-05
    7.213200        -2.8259721E-05
    7.225200        -2.7471702E-05
    7.237200        -2.6790905E-05
    7.249200        -2.6244226E-05
    7.261200        -2.5856465E-05
    7.273200        -2.5649471E-05
    7.285200        -2.5641364E-05
    7.297200        -2.5845868E-05
    7.309200        -2.6271760E-05
    7.321200        -2.6922478E-05
    7.333200        -2.7795846E-05
    7.345200        -2.8884000E-05
    7.357200        -3.0173429E-05
    7.369200        -3.1645191E-05
    7.381200        -3.3275272E-05
    7.393200        -3.5035093E-05
    7.405200        -3.6892168E-05
    7.417200        -3.8810871E-05
    7.429200        -4.0753323E-05
    7.441200        -4.2680364E-05
    7.453200        -4.4552587E-05
    7.465200        -4.6331385E-05
    7.477200        -4.7979978E-05
    7.489200        -4.9464401E-05
    7.501200        -5.0754392E-05
    7.513200        -5.1824136E-05
    7.525200        -5.2652918E-05
    7.537200        -5.3225533E-05
    7.549200        -5.3532563E-05
    7.561200        -5.3570446E-05
    7.573200        -5.3341369E-05
    7.585200        -5.2852967E-05
    7.597200        -5.2117866E-05
    7.609200        -5.1153125E-05
    7.621200        -4.9979557E-05
    7.633200        -4.8620990E-05
    7.645200        -4.7103567E-05
    7.657200        -4.5455014E-05
    7.669200        -4.3704043E-05
    7.681200        -4.1879790E-05
    7.693200        -4.0011390E-05
    7.705200        -3.8127640E-05
    7.717200        -3.6256792E-05
    7.729200        -3.4426375E-05
    7.741200        -3.2663120E-05
    7.753200        -3.0992847E-05
    7.765200        -2.9440418E-05
    7.777200        -2.8029581E-05
    7.789200        -2.6782807E-05
    7.801200        -2.5721023E-05
    7.813200        -2.4863275E-05
    7.825200        -2.4226301E-05
    7.837200        -2.3824050E-05
    7.849200        -2.3667135E-05
    7.861200        -2.3762297E-05
    7.873200        -2.4111860E-05
    7.885200        -2.4713279E-05
    7.897200        -2.5558789E-05
    7.909200        -2.6635176E-05
    7.921200        -2.7923756E-05
    7.933200        -2.9400526E-05
    7.945200        -3.1036539E-05
    7.957200        -3.2798474E-05
    7.969200        -3.4649376E-05
    7.981200        -3.6549583E-05
    7.993200        -3.8457743E-05
    8.005200        -4.0331928E-05
    8.017200        -4.2130760E-05
    8.029200        -4.3814507E-05
    8.041200        -4.5346147E-05
    8.053200        -4.6692283E-05
    8.065200        -4.7823927E-05
    8.077200        -4.8717138E-05
    8.089200        -4.9353454E-05
    8.101200        -4.9720129E-05
    8.113200        -4.9810194E-05
    8.125200        -4.9622355E-05
    8.137200        -4.9160732E-05
    8.149200        -4.8434486E-05
    8.161200        -4.7457372E-05
    8.173200        -4.6247238E-05
    8.185200        -4.4825527E-05
    8.197200        -4.3216805E-05
    8.209200        -4.1448318E-05
    8.221200        -3.9549617E-05
    8.233200        -3.7552232E-05
    8.245200        -3.5489382E-05
    8.257200        -3.3395754E-05
    8.269200        -3.1307209E-05
    8.281200        -2.9260533E-05
    8.293200        -2.7293096E-05
    8.305200        -2.5442469E-05
    8.317200        -2.3745939E-05
    8.329200        -2.2239952E-05
    8.341200        -2.0959445E-05
    8.353200        -1.9937101E-05
    8.365200        -1.9202531E-05
    8.377200        -1.8781413E-05
    8.389200        -1.8694613E-05
    8.401200        -1.8957331E-05
    8.413200        -1.9578347E-05
    8.425200        -2.0559381E-05
    8.437200        -2.1894633E-05
    8.449200        -2.3570565E-05
    8.461200        -2.5565920E-05
    8.473200        -2.7852031E-05
    8.485200        -3.0393379E-05
    8.497200        -3.3148419E-05
    8.509200        -3.6070614E-05
    8.521200        -3.9109647E-05
    8.533200        -4.2212741E-05
    8.545200        -4.5326087E-05
    8.557200        -4.8396221E-05
    8.569200        -5.1371429E-05
    8.581200        -5.4203014E-05
    8.593200        -5.6846446E-05
    8.605200        -5.9262347E-05
    8.617200        -6.1417246E-05
    8.629200        -6.3284140E-05
    8.641200        -6.4842767E-05
    8.653200        -6.6079730E-05
    8.665200        -6.6988330E-05
    8.677200        -6.7568282E-05
    8.689200        -6.7825225E-05
    8.701200        -6.7770183E-05
    8.713200        -6.7418929E-05
    8.725200        -6.6791305E-05
    8.737200        -6.5910586E-05
    8.749200        -6.4802814E-05
    8.761200        -6.3496140E-05
    8.773200        -6.2020306E-05
    8.785200        -6.0406081E-05
    8.797200        -5.8684756E-05
    8.809200        -5.6887744E-05
    8.821200        -5.5046166E-05
    8.833200        -5.3190513E-05
    8.845200        -5.1350344E-05
    8.857200        -4.9553968E-05
    8.869200        -4.7828195E-05
    8.881200        -4.6198034E-05
    8.893200        -4.4686418E-05
    8.905200        -4.3313888E-05
    8.917200        -4.2098301E-05
    8.929200        -4.1054496E-05
    8.941200        -4.0193994E-05
    8.953200        -3.9524733E-05
    8.965200        -3.9050803E-05
    8.977200        -3.8772283E-05
    8.989200        -3.8685095E-05
    9.001200        -3.8780985E-05
    9.013200        -3.9047558E-05
    9.025200        -3.9468428E-05
    9.037200        -4.0023497E-05
    9.049200        -4.0689305E-05
    9.061200        -4.1439533E-05
    9.073200        -4.2245592E-05
    9.085200        -4.3077347E-05
    9.097200        -4.3903878E-05
    9.109200        -4.4694370E-05
    9.121200        -4.5419019E-05
    9.133200        -4.6049910E-05
    9.145200        -4.6561920E-05
    9.157200        -4.6933521E-05
    9.169200        -4.7147485E-05
    9.181200        -4.7191472E-05
    9.193200        -4.7058424E-05
    9.205200        -4.6746798E-05
    9.217200        -4.6260586E-05
    9.229200        -4.5609118E-05
    9.241200        -4.4806682E-05
    9.253200        -4.3871936E-05
    9.265200        -4.2827145E-05
    9.277200        -4.1697302E-05
    9.289200        -4.0509149E-05
    9.301200        -3.9290142E-05
    9.313200        -3.8067446E-05
    9.325200        -3.6866932E-05
    9.337200        -3.5712350E-05
    9.349200        -3.4624569E-05
    9.361200        -3.3621051E-05
    9.373200        -3.2715499E-05
    9.385200        -3.1917709E-05
    9.397200        -3.1233627E-05
    9.409200        -3.0665626E-05
    9.421200        -3.0212916E-05
    9.433200        -2.9872121E-05
    9.445200        -2.9637926E-05
