  -0.6228000         1.0000000E-24
  -0.6108000         1.0000000E-24
  -0.5988000         1.0000000E-24
  -0.5868000         1.0000000E-24
  -0.5748000         1.0000000E-24
  -0.5628000         9.9952690E-25
  -0.5508000         9.9409106E-25
  -0.5388000         9.5698570E-25
  -0.5268000         7.6796822E-25
  -0.5148000        -5.7509053E-28
  -0.5028000        -2.5780487E-24
  -0.4908000        -9.8687856E-24
  -0.4788000        -2.7544672E-23
  -0.4668000        -6.4665244E-23
  -0.4548000        -1.3254966E-22
  -0.4428000        -2.4068171E-22
  -0.4308000        -3.9015485E-22
  -0.4188000        -5.6914964E-22
  -0.4068000        -7.5990923E-22
  -0.3948000        -9.6822642E-22
  -0.3828000        -1.2776402E-21
  -0.3708000        -1.9063157E-21
  -0.3588000        -3.2099247E-21
  -0.3468000        -5.5515330E-21
  -0.3348000        -8.9885711E-21
  -0.3228000        -1.2842915E-20
  -0.3108000        -1.5416081E-20
  -0.2988000        -1.4297150E-20
  -0.2868000        -7.7067384E-21
  -0.2748000         3.0756819E-21
  -0.2628000         1.1010075E-20
  -0.2508000         2.1961363E-21
  -0.2388000        -4.1128929E-20
  -0.2268000        -1.3173637E-19
  -0.2148000        -2.6368869E-19
  -0.2028000        -3.9921504E-19
  -0.1908000        -4.6598144E-19
  -0.1788000        -3.7556546E-19
  -0.1668000        -6.8248611E-20
  -0.1548000         4.2441601E-19
  -0.1428000         9.2614812E-19
  -0.1308000         1.1127527E-18
  -0.1188000         5.9834440E-19
  -0.1068000        -8.7812667E-19
  -9.4800003E-02    -3.2094639E-18
  -8.2800001E-02    -5.7270689E-18
  -7.0799999E-02    -7.2053941E-18
  -5.8800001E-02    -6.1892168E-18
  -4.6799999E-02    -1.6597013E-18
  -3.4800000E-02     6.1288533E-18
  -2.2800000E-02     1.5005862E-17
  -1.0800000E-02     2.0902707E-17
   1.2000001E-03     1.8901965E-17
   1.3200000E-02     5.3327416E-18
   2.5200000E-02    -1.9624643E-17
   3.7200000E-02    -4.9914593E-17
   4.9199998E-02    -7.3513361E-17
   6.1200000E-02    -7.5304769E-17
   7.3200002E-02    -4.2962213E-17
   8.5199997E-02     2.5620821E-17
   9.7199999E-02     1.1626884E-16
   0.1092000         1.9742370E-16
   0.1212000         2.2681014E-16
   0.1332000         1.6618241E-16
   0.1452000         7.6765091E-19
   0.1572000        -2.4360739E-16
   0.1692000        -4.9453119E-16
   0.1812000        -6.4542910E-16
   0.1932000        -5.8817020E-16
   0.2052000        -2.5928774E-16
   0.2172000         3.1522196E-16
   0.2292000         9.9637841E-16
   0.2412000         1.5476471E-15
   0.2532000         1.6964390E-15
   0.2652000         1.2317733E-15
   0.2772000         1.0998939E-16
   0.2892000        -1.4716555E-15
   0.3012000        -3.0727183E-15
   0.3132000        -4.1007101E-15
   0.3252000        -3.9870599E-15
   0.3372000        -2.4041209E-15
   0.3492000         5.4737260E-16
   0.3612000         4.2568310E-15
   0.3732000         7.6828616E-15
   0.3852000         9.6004933E-15
   0.3972000         8.9655795E-15
   0.4092000         5.2949791E-15
   0.4212000        -1.0608575E-15
   0.4332000        -8.8579419E-15
   0.4452000        -1.6159684E-14
   0.4572000        -2.0768670E-14
   0.4692000        -2.0785928E-14
   0.4812000        -1.5152310E-14
   0.4932000        -4.0311513E-15
   0.5052000         1.1061017E-14
   0.5172000         2.7398724E-14
   0.5292000         4.1427257E-14
   0.5412000         4.9307800E-14
   0.5532000         4.7565450E-14
   0.5652000         3.3805014E-14
   0.5772000         7.4716302E-15
   0.5892000        -2.9403797E-14
   0.6012000        -7.1630690E-14
   0.6132000        -1.1073646E-13
   0.6252000        -1.3565581E-13
   0.6372000        -1.3453970E-13
   0.6492000        -9.7742886E-14
   0.6612000        -2.1609383E-14
   0.6732000         8.7852407E-14
   0.6852000         2.1273723E-13
   0.6972000         3.2387409E-13
   0.7092000         3.8531732E-13
   0.7212000         3.6271870E-13
   0.7332000         2.3424828E-13
   0.7452000         1.3800029E-15
   0.7572000        -3.0399771E-13
   0.7692000        -6.1957915E-13
   0.7812000        -8.6186950E-13
   0.7932000        -9.4438281E-13
   0.8052000        -8.0162000E-13
   0.8172000        -4.1302042E-13
   0.8292000         1.8028455E-13
   0.8412000         8.7249039E-13
   0.8532000         1.5077176E-12
   0.8652000         1.9115185E-12
   0.8772000         1.9335488E-12
   0.8892000         1.4914410E-12
   0.9012000         6.0399575E-13
   0.9132000        -5.9693499E-13
   0.9252000        -1.8820132E-12
   0.9372000        -2.9667987E-12
   0.9492000        -3.5730175E-12
   0.9612000        -3.4949767E-12
   0.9732000        -2.6548891E-12
   0.9852000        -1.1325851E-12
   0.9972000         8.3917053E-13
    1.009200         2.9142342E-12
    1.021200         4.6992701E-12
    1.033200         5.8316108E-12
    1.045200         6.0509514E-12
    1.057200         5.2488179E-12
    1.069200         3.4856610E-12
    1.081200         9.7384026E-13
    1.093200        -1.9667072E-12
    1.105200        -4.9669054E-12
    1.117200        -7.6654065E-12
    1.129200        -9.7501573E-12
    1.141200        -1.0976703E-11
    1.153200        -1.1163259E-11
    1.165200        -1.0170424E-11
    1.177200        -7.8790854E-12
    1.189200        -4.1817006E-12
    1.201200         1.0006888E-12
    1.213200         7.6705049E-12
    1.225200         1.5679317E-11
    1.237200         2.4642016E-11
    1.249200         3.3862576E-11
    1.261200         4.2298453E-11
    1.273200         4.8588550E-11
    1.285200         5.1161759E-11
    1.297200         4.8429760E-11
    1.309200         3.9052522E-11
    1.321200         2.2250729E-11
    1.333200        -1.8695932E-12
    1.345200        -3.2015560E-11
    1.357200        -6.5455752E-11
    1.369200        -9.7828058E-11
    1.381200        -1.2299521E-10
    1.393200        -1.3291575E-10
    1.405200        -1.1748513E-10
    1.417200        -6.4299510E-11
    1.429200         4.1692202E-11
    1.441200         2.1866026E-10
    1.453200         4.8847515E-10
    1.465200         8.7736263E-10
    1.477200         1.4165970E-09
    1.489200         2.1432238E-09
    1.501200         3.1008829E-09
    1.513200         4.3409161E-09
    1.525200         5.9241336E-09
    1.537200         7.9238323E-09
    1.549200         1.0430962E-08
    1.561200         1.3562667E-08
    1.573200         1.7475807E-08
    1.585200         2.2387487E-08
    1.597200         2.8604964E-08
    1.609200         3.6567780E-08
    1.621200         4.6905118E-08
    1.633200         6.0511439E-08
    1.645200         7.8643552E-08
    1.657200         1.0304149E-07
    1.669200         1.3607483E-07
    1.681200         1.8091468E-07
    1.693200         2.4173002E-07
    1.705200         3.2390409E-07
    1.717200         4.3426445E-07
    1.729200         5.8131729E-07
    1.741200         7.7547230E-07
    1.753200         1.0292428E-06
    1.765200         1.3574025E-06
    1.777200         1.7770762E-06
    1.789200         2.3077448E-06
    1.801200         2.9711380E-06
    1.813200         3.7909999E-06
    1.825200         4.7927015E-06
    1.837200         6.0026946E-06
    1.849200         7.4477957E-06
    1.861200         9.1543025E-06
    1.873200         1.1146957E-05
    1.885200         1.3447770E-05
    1.897200         1.6074748E-05
    1.909200         1.9040574E-05
    1.921200         2.2351252E-05
    1.933200         2.6004856E-05
    1.945200         2.9990360E-05
    1.957200         3.4286699E-05
    1.969200         3.8862072E-05
    1.981200         4.3673590E-05
    1.993200         4.8667316E-05
    2.005200         5.3778713E-05
    2.017200         5.8933601E-05
    2.029200         6.4049535E-05
    2.041200         6.9037669E-05
    2.053200         7.3805015E-05
    2.065200         7.8257108E-05
    2.077200         8.2300881E-05
    2.089200         8.5847729E-05
    2.101200         8.8816661E-05
    2.113200         9.1137270E-05
    2.125200         9.2752605E-05
    2.137200         9.3621507E-05
    2.149200         9.3720642E-05
    2.161200         9.3045790E-05
    2.173200         9.1612434E-05
    2.185200         8.9455745E-05
    2.197200         8.6629610E-05
    2.209200         8.3205035E-05
    2.221200         7.9267775E-05
    2.233200         7.4915384E-05
    2.245200         7.0253795E-05
    2.257200         6.5393506E-05
    2.269200         6.0445720E-05
    2.281200         5.5518380E-05
    2.293200         5.0712526E-05
    2.305200         4.6118992E-05
    2.317200         4.1815645E-05
    2.329200         3.7865295E-05
    2.341200         3.4314358E-05
    2.353200         3.1192281E-05
    2.365200         2.8511802E-05
    2.377200         2.6269921E-05
    2.389200         2.4449577E-05
    2.401200         2.3021825E-05
    2.413200         2.1948474E-05
    2.425200         2.1184931E-05
    2.437200         2.0683161E-05
    2.449200         2.0394542E-05
    2.461200         2.0272517E-05
    2.473200         2.0274880E-05
    2.485200         2.0365616E-05
    2.497200         2.0516214E-05
    2.509200         2.0706415E-05
    2.521200         2.0924404E-05
    2.533200         2.1166463E-05
    2.545200         2.1436144E-05
    2.557200         2.1743019E-05
    2.569200         2.2101123E-05
    2.581200         2.2527202E-05
    2.593200         2.3038818E-05
    2.605200         2.3652503E-05
    2.617200         2.4381978E-05
    2.629200         2.5236619E-05
    2.641200         2.6220172E-05
    2.653200         2.7329846E-05
    2.665200         2.8555807E-05
    2.677200         2.9881097E-05
    2.689200         3.1282019E-05
    2.701200         3.2728934E-05
    2.713200         3.4187491E-05
    2.725200         3.5620193E-05
    2.737200         3.6988207E-05
    2.749200         3.8253456E-05
    2.761200         3.9380691E-05
    2.773200         4.0339623E-05
    2.785200         4.1106880E-05
    2.797200         4.1667725E-05
    2.809200         4.2017462E-05
    2.821200         4.2162399E-05
    2.833200         4.2120351E-05
    2.845200         4.1920612E-05
    2.857200         4.1603424E-05
    2.869200         4.1218977E-05
    2.881200         4.0825944E-05
    2.893200         4.0489645E-05
    2.905200         4.0279967E-05
    2.917200         4.0269071E-05
    2.929200         4.0529078E-05
    2.941200         4.1129737E-05
    2.953200         4.2136253E-05
    2.965200         4.3607262E-05
    2.977200         4.5593122E-05
    2.989200         4.8134370E-05
    3.001200         5.1260562E-05
    3.013200         5.4989297E-05
    3.025200         5.9325550E-05
    3.037200         6.4261156E-05
    3.049200         6.9774542E-05
    3.061200         7.5830525E-05
    3.073200         8.2380371E-05
    3.085200         8.9361878E-05
    3.097200         9.6699710E-05
    3.109200         1.0430595E-04
    3.121200         1.1208078E-04
    3.133200         1.1991368E-04
    3.145200         1.2768483E-04
    3.157200         1.3526698E-04
    3.169200         1.4252780E-04
    3.181200         1.4933267E-04
    3.193200         1.5554788E-04
    3.205200         1.6104420E-04
    3.217200         1.6570065E-04
    3.229200         1.6940858E-04
    3.241200         1.7207538E-04
    3.253200         1.7362830E-04
    3.265200         1.7401758E-04
    3.277200         1.7321914E-04
    3.289200         1.7123642E-04
    3.301200         1.6810128E-04
    3.313200         1.6387398E-04
    3.325200         1.5864201E-04
    3.337200         1.5251791E-04
    3.349200         1.4563614E-04
    3.361200         1.3814894E-04
    3.373200         1.3022170E-04
    3.385200         1.2202772E-04
    3.397200         1.1374266E-04
    3.409200         1.0553900E-04
    3.421200         9.7580763E-05
    3.433200         9.0018613E-05
    3.445200         8.2985534E-05
    3.457200         7.6593489E-05
    3.469200         7.0930757E-05
    3.481200         6.6060449E-05
    3.493200         6.2019913E-05
    3.505200         5.8821188E-05
    3.517200         5.6452292E-05
    3.529200         5.4879412E-05
    3.541200         5.4049662E-05
    3.553200         5.3894411E-05
    3.565200         5.4332915E-05
    3.577200         5.5276098E-05
    3.589200         5.6630321E-05
    3.601200         5.8301015E-05
    3.613200         6.0195911E-05
    3.625200         6.2227897E-05
    3.637200         6.4317312E-05
    3.649200         6.6393703E-05
    3.661200         6.8396897E-05
    3.673200         7.0277507E-05
    3.685200         7.1996881E-05
    3.697200         7.3526477E-05
    3.709200         7.4846888E-05
    3.721200         7.5946547E-05
    3.733200         7.6820215E-05
    3.745200         7.7467368E-05
    3.757200         7.7890705E-05
    3.769200         7.8094803E-05
    3.781200         7.8084908E-05
    3.793200         7.7866214E-05
    3.805200         7.7443343E-05
    3.817200         7.6820244E-05
    3.829200         7.6000440E-05
    3.841200         7.4987540E-05
    3.853200         7.3785937E-05
    3.865200         7.2401665E-05
    3.877200         7.0843256E-05
    3.889200         6.9122500E-05
    3.901200         6.7255060E-05
    3.913200         6.5260800E-05
    3.925200         6.3163810E-05
    3.937200         6.0992075E-05
    3.949200         5.8776805E-05
    3.961200         5.6551449E-05
    3.973200         5.4350454E-05
    3.985200         5.2207804E-05
    3.997200         5.0155504E-05
    4.009200         4.8222068E-05
    4.021200         4.6431123E-05
    4.033200         4.4800279E-05
    4.045200         4.3340282E-05
    4.057200         4.2054551E-05
    4.069200         4.0939212E-05
    4.081200         3.9983464E-05
    4.093200         3.9170474E-05
    4.105200         3.8478589E-05
    4.117200         3.7882844E-05
    4.129200         3.7356691E-05
    4.141200         3.6873811E-05
    4.153200         3.6409903E-05
    4.165200         3.5944278E-05
    4.177200         3.5461242E-05
    4.189200         3.4951110E-05
    4.201200         3.4410805E-05
    4.213200         3.3843982E-05
    4.225200         3.3260720E-05
    4.237200         3.2676766E-05
    4.249200         3.2112428E-05
    4.261200         3.1591157E-05
    4.273200         3.1137970E-05
    4.285200         3.0777795E-05
    4.297200         3.0533887E-05
    4.309200         3.0426361E-05
    4.321200         3.0471056E-05
    4.333200         3.0678668E-05
    4.345200         3.1054267E-05
    4.357200         3.1597239E-05
    4.369200         3.2301527E-05
    4.381200         3.3156262E-05
    4.393200         3.4146622E-05
    4.405200         3.5254838E-05
    4.417200         3.6461293E-05
    4.429200         3.7745594E-05
    4.441200         3.9087514E-05
    4.453200         4.0467767E-05
    4.465200         4.1868538E-05
    4.477200         4.3273769E-05
    4.489200         4.4669199E-05
    4.501200         4.6042194E-05
    4.513200         4.7381414E-05
    4.525200         4.8676407E-05
    4.537200         4.9917198E-05
    4.549200         5.1093943E-05
    4.561200         5.2196709E-05
    4.573200         5.3215452E-05
    4.585200         5.4140233E-05
    4.597200         5.4961580E-05
    4.609200         5.5671102E-05
    4.621200         5.6262197E-05
    4.633200         5.6730853E-05
    4.645200         5.7076366E-05
    4.657200         5.7302012E-05
    4.669200         5.7415476E-05
    4.681200         5.7428984E-05
    4.693200         5.7359150E-05
    4.705200         5.7226425E-05
    4.717200         5.7054229E-05
    4.729200         5.6867775E-05
    4.741200         5.6692643E-05
    4.753200         5.6553275E-05
    4.765200         5.6471486E-05
    4.777200         5.6465047E-05
    4.789200         5.6546600E-05
    4.801200         5.6722893E-05
    4.813200         5.6994522E-05
    4.825200         5.7356112E-05
    4.837200         5.7797035E-05
    4.849200         5.8302547E-05
    4.861200         5.8855319E-05
    4.873200         5.9437185E-05
    4.885200         6.0030990E-05
    4.897200         6.0622362E-05
    4.909200         6.1201252E-05
    4.921200         6.1763116E-05
    4.933200         6.2309562E-05
    4.945200         6.2848463E-05
    4.957200         6.3393505E-05
    4.969200         6.3963074E-05
    4.981200         6.4578715E-05
    4.993200         6.5263222E-05
    5.005200         6.6038447E-05
    5.017200         6.6923094E-05
    5.029200         6.7930669E-05
    5.041200         6.9067661E-05
    5.053200         7.0332295E-05
    5.065200         7.1713759E-05
    5.077200         7.3192190E-05
    5.089200         7.4739219E-05
    5.101200         7.6319251E-05
    5.113200         7.7891258E-05
    5.125200         7.9411046E-05
    5.137200         8.0833765E-05
    5.149200         8.2116596E-05
    5.161200         8.3221283E-05
    5.173200         8.4116531E-05
    5.185200         8.4779873E-05
    5.197200         8.5199157E-05
    5.209200         8.5373285E-05
    5.221200         8.5312422E-05
    5.233200         8.5037413E-05
    5.245200         8.4578722E-05
    5.257200         8.3974708E-05
    5.269200         8.3269610E-05
    5.281200         8.2511113E-05
    5.293200         8.1747872E-05
    5.305200         8.1027043E-05
    5.317200         8.0391932E-05
    5.329200         7.9879988E-05
    5.341200         7.9521196E-05
    5.353200         7.9336969E-05
    5.365200         7.9339501E-05
    5.377200         7.9531783E-05
    5.389200         7.9908095E-05
    5.401200         8.0454913E-05
    5.413200         8.1152328E-05
    5.425200         8.1975675E-05
    5.437200         8.2897379E-05
    5.449200         8.3888837E-05
    5.461200         8.4922285E-05
    5.473200         8.5972439E-05
    5.485200         8.7017877E-05
    5.497200         8.8042063E-05
    5.509200         8.9033965E-05
    5.521200         8.9988229E-05
    5.533200         9.0904883E-05
    5.545200         9.1788635E-05
    5.557200         9.2647839E-05
    5.569200         9.3493087E-05
    5.581200         9.4335730E-05
    5.593200         9.5186195E-05
    5.605200         9.6052368E-05
    5.617200         9.6938144E-05
    5.629200         9.7842130E-05
    5.641200         9.8756740E-05
    5.653200         9.9667661E-05
    5.665200         1.0055376E-04
    5.677200         1.0138744E-04
    5.689200         1.0213551E-04
    5.701200         1.0276040E-04
    5.713200         1.0322186E-04
    5.725200         1.0347882E-04
    5.737200         1.0349159E-04
    5.749200         1.0322395E-04
    5.761200         1.0264538E-04
    5.773200         1.0173299E-04
    5.785200         1.0047322E-04
    5.797200         9.8863085E-05
    5.809200         9.6911099E-05
    5.821200         9.4637464E-05
    5.833200         9.2073824E-05
    5.845200         8.9262496E-05
    5.857200         8.6255000E-05
    5.869200         8.3110281E-05
    5.881200         7.9892467E-05
    5.893200         7.6668301E-05
    5.905200         7.3504540E-05
    5.917200         7.0465139E-05
    5.929200         6.7608737E-05
    5.941200         6.4986212E-05
    5.953200         6.2638726E-05
    5.965200         6.0596100E-05
    5.977200         5.8875870E-05
    5.989200         5.7482797E-05
    6.001200         5.6409066E-05
    6.013200         5.5635104E-05
    6.025200         5.5130917E-05
    6.037200         5.4857992E-05
    6.049200         5.4771583E-05
    6.061200         5.4823307E-05
    6.073200         5.4963915E-05
    6.085200         5.5146098E-05
    6.097200         5.5327164E-05
    6.109200         5.5471450E-05
    6.121200         5.5552340E-05
    6.133200         5.5553770E-05
    6.145200         5.5471126E-05
    6.157200         5.5311473E-05
    6.169200         5.5093107E-05
    6.181200         5.4844419E-05
    6.193200         5.4602177E-05
    6.205200         5.4409247E-05
    6.217200         5.4311949E-05
    6.229200         5.4357144E-05
    6.241200         5.4589273E-05
    6.253200         5.5047469E-05
    6.265200         5.5762994E-05
    6.277200         5.6757064E-05
    6.289200         5.8039266E-05
    6.301200         5.9606667E-05
    6.313200         6.1443614E-05
    6.325200         6.3522268E-05
    6.337200         6.5803826E-05
    6.349200         6.8240370E-05
    6.361200         7.0777161E-05
    6.373200         7.3355273E-05
    6.385200         7.5914417E-05
    6.397200         7.8395657E-05
    6.409200         8.0744067E-05
    6.421200         8.2910898E-05
    6.433200         8.4855441E-05
    6.445200         8.6546199E-05
    6.457200         8.7961547E-05
    6.469200         8.9089786E-05
    6.481200         8.9928602E-05
    6.493200         9.0484078E-05
    6.505200         9.0769317E-05
    6.517200         9.0802801E-05
    6.529200         9.0606642E-05
    6.541200         9.0204863E-05
    6.553200         8.9621783E-05
    6.565200         8.8880690E-05
    6.577200         8.8002846E-05
    6.589200         8.7006869E-05
    6.601200         8.5908432E-05
    6.613200         8.4720465E-05
    6.625200         8.3453604E-05
    6.637200         8.2116901E-05
    6.649200         8.0718753E-05
    6.661200         7.9267884E-05
    6.673200         7.7774283E-05
    6.685200         7.6250057E-05
    6.697200         7.4710086E-05
    6.709200         7.3172399E-05
    6.721200         7.1658273E-05
    6.733200         7.0192007E-05
    6.745200         6.8800386E-05
    6.757200         6.7511915E-05
    6.769200         6.6355802E-05
    6.781200         6.5360808E-05
    6.793200         6.4554028E-05
    6.805200         6.3959720E-05
    6.817200         6.3598178E-05
    6.829200         6.3484811E-05
    6.841200         6.3629443E-05
    6.853200         6.4035841E-05
    6.865200         6.4701562E-05
    6.877200         6.5618042E-05
    6.889200         6.6770997E-05
    6.901200         6.8141024E-05
    6.913200         6.9704372E-05
    6.925200         7.1433904E-05
    6.937200         7.3300012E-05
    6.949200         7.5271659E-05
    6.961200         7.7317323E-05
    6.973200         7.9405814E-05
    6.985200         8.1507023E-05
    6.997200         8.3592437E-05
    7.009200         8.5635504E-05
    7.021200         8.7611843E-05
    7.033200         8.9499255E-05
    7.045200         9.1277587E-05
    7.057200         9.2928487E-05
    7.069200         9.4435149E-05
    7.081200         9.5781885E-05
    7.093200         9.6953881E-05
    7.105200         9.7936900E-05
    7.117200         9.8717115E-05
    7.129200         9.9281053E-05
    7.141200         9.9615740E-05
    7.153200         9.9708901E-05
    7.165200         9.9549419E-05
    7.177200         9.9127865E-05
    7.189200         9.8437151E-05
    7.201200         9.7473254E-05
    7.213200         9.6235985E-05
    7.225200         9.4729730E-05
    7.237200         9.2964110E-05
    7.249200         9.0954527E-05
    7.261200         8.8722561E-05
    7.273200         8.6296131E-05
    7.285200         8.3709405E-05
    7.297200         8.1002501E-05
    7.309200         7.8220852E-05
    7.321200         7.5414340E-05
    7.333200         7.2636140E-05
    7.345200         6.9941387E-05
    7.357200         6.7385539E-05
    7.369200         6.5022708E-05
    7.381200         6.2903855E-05
    7.393200         6.1074934E-05
    7.405200         5.9575097E-05
    7.417200         5.8435078E-05
    7.429200         5.7675694E-05
    7.441200         5.7306668E-05
    7.453200         5.7325818E-05
    7.465200         5.7718622E-05
    7.477200         5.8458281E-05
    7.489200         5.9506274E-05
    7.501200         6.0813458E-05
    7.513200         6.2321633E-05
    7.525200         6.3965650E-05
    7.537200         6.5675878E-05
    7.549200         6.7380977E-05
    7.561200         6.9010908E-05
    7.573200         7.0500006E-05
    7.585200         7.1789887E-05
    7.597200         7.2832147E-05
    7.609200         7.3590672E-05
    7.621200         7.4043353E-05
    7.633200         7.4183146E-05
    7.645200         7.4018441E-05
    7.657200         7.3572584E-05
    7.669200         7.2882678E-05
    7.681200         7.1997645E-05
    7.693200         7.0975657E-05
    7.705200         6.9881120E-05
    7.717200         6.8781308E-05
    7.729200         6.7742862E-05
    7.741200         6.6828485E-05
    7.753200         6.6093759E-05
    7.765200         6.5584500E-05
    7.777200         6.5334738E-05
    7.789200         6.5365333E-05
    7.801200         6.5683380E-05
    7.813200         6.6282402E-05
    7.825200         6.7143264E-05
    7.837200         6.8235757E-05
    7.849200         6.9520662E-05
    7.861200         7.0952250E-05
    7.873200         7.2480972E-05
    7.885200         7.4056217E-05
    7.897200         7.5628945E-05
    7.909200         7.7154036E-05
    7.921200         7.8592348E-05
    7.933200         7.9912177E-05
    7.945200         8.1090322E-05
    7.957200         8.2112507E-05
    7.969200         8.2973347E-05
    7.981200         8.3675775E-05
    7.993200         8.4230065E-05
    8.005200         8.4652602E-05
    8.017200         8.4964318E-05
    8.029200         8.5189065E-05
    8.041200         8.5351974E-05
    8.053200         8.5477855E-05
    8.065200         8.5589767E-05
    8.077200         8.5707841E-05
    8.089200         8.5848274E-05
    8.101200         8.6022730E-05
    8.113200         8.6237997E-05
    8.125200         8.6495937E-05
    8.137200         8.6793698E-05
    8.149200         8.7124259E-05
    8.161200         8.7477005E-05
    8.173200         8.7838613E-05
    8.185200         8.8193876E-05
    8.197200         8.8526678E-05
    8.209200         8.8820845E-05
    8.221200         8.9061010E-05
    8.233200         8.9233370E-05
    8.245200         8.9326240E-05
    8.257200         8.9330577E-05
    8.269200         8.9240275E-05
    8.281200         8.9052359E-05
    8.293200         8.8766952E-05
    8.305200         8.8387242E-05
    8.317200         8.7919223E-05
    8.329200         8.7371402E-05
    8.341200         8.6754437E-05
    8.353200         8.6080719E-05
    8.365200         8.5363929E-05
    8.377200         8.4618645E-05
    8.389200         8.3859886E-05
    8.401200         8.3102706E-05
    8.413200         8.2361810E-05
    8.425200         8.1651175E-05
    8.437200         8.0983686E-05
    8.449200         8.0370824E-05
    8.461200         7.9822283E-05
    8.473200         7.9345693E-05
    8.485200         7.8946272E-05
    8.497200         7.8626581E-05
    8.509200         7.8386263E-05
    8.521200         7.8221819E-05
    8.533200         7.8126533E-05
    8.545200         7.8090423E-05
    8.557200         7.8100311E-05
    8.569200         7.8140045E-05
    8.581200         7.8190904E-05
    8.593200         7.8232064E-05
    8.605200         7.8241304E-05
    8.617200         7.8195779E-05
    8.629200         7.8072932E-05
    8.641200         7.7851488E-05
    8.653200         7.7512392E-05
    8.665200         7.7039818E-05
    8.677200         7.6422024E-05
    8.689200         7.5652060E-05
    8.701200         7.4728341E-05
    8.713200         7.3654941E-05
    8.725200         7.2441690E-05
    8.737200         7.1103939E-05
    8.749200         6.9662179E-05
    8.761200         6.8141329E-05
    8.773200         6.6569926E-05
    8.785200         6.4979096E-05
    8.797200         6.3401501E-05
    8.809200         6.1870240E-05
    8.821200         6.0417795E-05
    8.833200         5.9075002E-05
    8.845200         5.7870238E-05
    8.857200         5.6828649E-05
    8.869200         5.5971606E-05
    8.881200         5.5316304E-05
    8.893200         5.4875483E-05
    8.905200         5.4657314E-05
    8.917200         5.4665383E-05
    8.929200         5.4898763E-05
    8.941200         5.5352135E-05
    8.953200         5.6016015E-05
    8.965200         5.6876976E-05
    8.977200         5.7917940E-05
    8.989200         5.9118527E-05
    9.001200         6.0455473E-05
    9.013200         6.1903120E-05
    9.025200         6.3433981E-05
    9.037200         6.5019398E-05
    9.049200         6.6630324E-05
    9.061200         6.8238114E-05
    9.073200         6.9815353E-05
    9.085200         7.1336712E-05
    9.097200         7.2779723E-05
    9.109200         7.4125433E-05
    9.121200         7.5358934E-05
    9.133200         7.6469645E-05
    9.145200         7.7451376E-05
    9.157200         7.8302161E-05
    9.169200         7.9023863E-05
    9.181200         7.9621517E-05
    9.193200         8.0102567E-05
    9.205200         8.0475998E-05
    9.217200         8.0751430E-05
    9.229200         8.0938335E-05
    9.241200         8.1045255E-05
    9.253200         8.1079444E-05
    9.265200         8.1046514E-05
    9.277200         8.0950536E-05
    9.289200         8.0794387E-05
    9.301200         8.0580205E-05
    9.313200         8.0310230E-05
    9.325200         7.9987563E-05
    9.337200         7.9617079E-05
    9.349200         7.9206118E-05
    9.361200         7.8765108E-05
    9.373200         7.8307807E-05
    9.385200         7.7851306E-05
    9.397200         7.7415592E-05
    9.409200         7.7022756E-05
    9.421200         7.6695913E-05
    9.433200         7.6457742E-05
    9.445200         7.6328957E-05
