  -0.6228000         1.0000000E-24
  -0.6108000         1.0000000E-24
  -0.5988000         1.0000000E-24
  -0.5868000         1.0000000E-24
  -0.5748000         1.0000000E-24
  -0.5628000         1.0000000E-24
  -0.5508000         1.0000000E-24
  -0.5388000         1.0000000E-24
  -0.5268000         1.0000000E-24
  -0.5148000         1.0000001E-24
  -0.5028000         1.0000002E-24
  -0.4908000         1.0000002E-24
  -0.4788000         1.0000002E-24
  -0.4668000         1.0000002E-24
  -0.4548000         1.0000002E-24
  -0.4428000         1.0000002E-24
  -0.4308000         1.0000002E-24
  -0.4188000         1.0000000E-24
  -0.4068000         9.9999963E-25
  -0.3948000         9.9999884E-25
  -0.3828000         9.9999686E-25
  -0.3708000         9.9999331E-25
  -0.3588000         9.9998740E-25
  -0.3468000         9.9997882E-25
  -0.3348000         9.9996866E-25
  -0.3228000         9.9995929E-25
  -0.3108000         9.9995545E-25
  -0.2988000         9.9996324E-25
  -0.2868000         9.9999164E-25
  -0.2748000         1.0000522E-24
  -0.2628000         1.0001573E-24
  -0.2508000         1.0003098E-24
  -0.2388000         1.0004759E-24
  -0.2268000         1.0005381E-24
  -0.2148000         1.0002531E-24
  -0.2028000         9.9927082E-25
  -0.1908000         9.9730320E-25
  -0.1788000         9.9449831E-25
  -0.1668000         9.9194841E-25
  -0.1548000         9.9202296E-25
  -0.1428000         9.9799079E-25
  -0.1308000         1.0123847E-24
  -0.1188000         1.0340452E-24
  -0.1068000         1.0548449E-24
  -9.4800003E-02     1.0584349E-24
  -8.2800001E-02     1.0241257E-24
  -7.0799999E-02     9.3803302E-25
  -5.8800001E-02     8.1006381E-25
  -4.6799999E-02     6.8960623E-25
  -3.4800000E-02     6.6736844E-25
  -2.2800000E-02     8.4982674E-25
  -1.0800000E-02     1.3004429E-24
   1.2000001E-03     1.9595778E-24
   1.3200000E-02     2.5785274E-24
   2.5200000E-02     2.7213100E-24
   3.7200000E-02     1.8857318E-24
   4.9199998E-02    -2.3941554E-25
   6.1200000E-02    -3.4323559E-24
   7.3200002E-02    -6.6474334E-24
   8.5199997E-02    -7.9769228E-24
   9.7199999E-02    -5.0688305E-24
   0.1092000         3.8967958E-24
   0.1212000         1.8786803E-23
   0.1332000         3.6065288E-23
   0.1452000         4.8039240E-23
   0.1572000         4.3703983E-23
   0.1692000         1.1975848E-23
   0.1812000        -5.2485327E-23
   0.1932000        -1.4181156E-22
   0.2052000        -2.2838366E-22
   0.2172000        -2.6341424E-22
   0.2292000        -1.8565398E-22
   0.2412000         5.6050568E-23
   0.2532000         4.6708068E-22
   0.2652000         9.6688286E-22
   0.2772000         1.3626824E-21
   0.2892000         1.3628552E-21
   0.3012000         6.5454952E-22
   0.3132000        -9.4602068E-22
   0.3252000        -3.2960304E-21
   0.3372000        -5.7524878E-21
   0.3492000        -7.1347737E-21
   0.3612000        -5.9443982E-21
   0.3732000        -9.1192139E-22
   0.3852000         8.1849861E-21
   0.3972000         1.9672244E-20
   0.4092000         2.9520070E-20
   0.4212000         3.1774457E-20
   0.4332000         2.0248637E-20
   0.4452000        -8.5649035E-21
   0.4572000        -5.2048421E-20
   0.4692000        -9.8863160E-20
   0.4812000        -1.2901040E-19
   0.4932000        -1.1812456E-19
   0.5052000        -4.6424772E-20
   0.5172000         8.9269539E-20
   0.5292000         2.6443858E-19
   0.5412000         4.2244416E-19
   0.5532000         4.8256042E-19
   0.5652000         3.6348232E-19
   0.5772000         1.9738239E-20
   0.5892000        -5.1886884E-19
   0.6012000        -1.1211126E-18
   0.6132000        -1.5599894E-18
   0.6252000        -1.5634990E-18
   0.6372000        -9.1023410E-19
   0.6492000         4.5055080E-19
   0.6612000         2.2950449E-18
   0.6732000         4.0895425E-18
   0.6852000         5.0702280E-18
   0.6972000         4.4560778E-18
   0.7092000         1.7641616E-18
   0.7212000        -2.8598523E-18
   0.7332000        -8.4265385E-18
   0.7452000        -1.3139999E-17
   0.7572000        -1.4776879E-17
   0.7692000        -1.1392697E-17
   0.7812000        -2.2026897E-18
   0.7932000         1.1645212E-17
   0.8052000         2.6752431E-17
   0.8172000         3.7904039E-17
   0.8292000         3.9366654E-17
   0.8412000         2.6865326E-17
   0.8532000        -2.7304568E-19
   0.8652000        -3.7564161E-17
   0.8772000        -7.5187475E-17
   0.8892000        -9.9718151E-17
   0.9012000        -9.7765463E-17
   0.9132000        -6.0805418E-17
   0.9252000         1.0167900E-17
   0.9372000         1.0190628E-16
   0.9492000         1.8965348E-16
   0.9612000         2.4215701E-16
   0.9732000         2.3044270E-16
   0.9852000         1.3838234E-16
   0.9972000        -2.8083149E-17
    1.009200        -2.3658784E-16
    1.021200        -4.3163558E-16
    1.033200        -5.4645251E-16
    1.045200        -5.2165699E-16
    1.057200        -3.2631428E-16
    1.069200         2.4894583E-17
    1.081200         4.6484247E-16
    1.093200         8.8202817E-16
    1.105200         1.1443501E-15
    1.117200         1.1345884E-15
    1.129200         7.8912649E-16
    1.141200         1.2877331E-16
    1.153200        -7.2917154E-16
    1.165200        -1.5847955E-15
    1.177200        -2.1961256E-15
    1.189200        -2.3393633E-15
    1.201200        -1.8749608E-15
    1.213200        -8.0187084E-16
    1.225200         7.1697691E-16
    1.237200         2.3693358E-15
    1.249200         3.7503574E-15
    1.261200         4.4522487E-15
    1.273200         4.1680010E-15
    1.285200         2.7845681E-15
    1.297200         4.4095455E-16
    1.309200        -2.4671037E-15
    1.321200        -5.3430228E-15
    1.333200        -7.4994315E-15
    1.345200        -8.3031955E-15
    1.357200        -7.3269646E-15
    1.369200        -4.4752223E-15
    1.381200        -5.5547918E-17
    1.393200         5.2257494E-15
    1.405200         1.0351805E-14
    1.417200         1.4160592E-14
    1.429200         1.5566109E-14
    1.441200         1.3801002E-14
    1.453200         8.6369713E-15
    1.465200         5.3553224E-16
    1.477200        -9.3148688E-15
    1.489200        -1.9107081E-14
    1.501200        -2.6678619E-14
    1.513200        -2.9909780E-14
    1.525200        -2.7201162E-14
    1.537200        -1.7942546E-14
    1.549200        -2.8636081E-15
    1.561200         1.5844109E-14
    1.573200         3.4717831E-14
    1.585200         4.9555114E-14
    1.597200         5.6236665E-14
    1.609200         5.1705287E-14
    1.621200         3.4894451E-14
    1.633200         7.3659662E-15
    1.645200        -2.6562045E-14
    1.657200        -6.0330952E-14
    1.669200        -8.6296862E-14
    1.681200        -9.7355683E-14
    1.693200        -8.8715439E-14
    1.705200        -5.9397928E-14
    1.717200        -1.3049738E-14
    1.729200         4.2248740E-14
    1.741200         9.5278908E-14
    1.753200         1.3391943E-13
    1.765200         1.4789329E-13
    1.777200         1.3141048E-13
    1.789200         8.5038422E-14
    1.801200         1.6248284E-14
    1.813200        -6.1643216E-14
    1.825200        -1.3204318E-13
    1.837200        -1.7868176E-13
    1.849200        -1.8945873E-13
    1.861200        -1.5962454E-13
    1.873200        -9.3471516E-14
    1.885200        -4.0116476E-15
    1.897200         8.9434699E-14
    1.909200         1.6531987E-13
    1.921200         2.0478054E-13
    1.933200         1.9629699E-13
    1.945200         1.3901231E-13
    1.957200         4.3862205E-14
    1.969200        -6.7902749E-14
    1.981200        -1.6868803E-13
    1.993200        -2.3037851E-13
    2.005200        -2.3095133E-13
    2.017200        -1.6057118E-13
    2.029200        -2.5831481E-14
    2.041200         1.4899900E-13
    2.053200         3.2445837E-13
    2.065200         4.5224732E-13
    2.077200         4.8488074E-13
    2.089200         3.8727401E-13
    2.101200         1.4817985E-13
    2.113200        -2.1111560E-13
    2.125200        -6.3352340E-13
    2.137200        -1.0305068E-12
    2.149200        -1.2950923E-12
    2.161200        -1.3227695E-12
    2.173200        -1.0373653E-12
    2.185200        -4.1690504E-13
    2.197200         4.8689682E-13
    2.209200         1.5419701E-12
    2.221200         2.5469275E-12
    2.233200         3.2614070E-12
    2.245200         3.4527925E-12
    2.257200         2.9515539E-12
    2.269200         1.7035532E-12
    2.281200        -1.9400227E-13
    2.293200        -2.4847852E-12
    2.305200        -4.7807023E-12
    2.317200        -6.6237341E-12
    2.329200        -7.5728738E-12
    2.341200        -7.2990867E-12
    2.353200        -5.6667869E-12
    2.365200        -2.7809521E-12
    2.377200         1.0148158E-12
    2.389200         5.1930981E-12
    2.401200         9.1409120E-12
    2.413200         1.2279774E-11
    2.425200         1.4178244E-11
    2.437200         1.4627176E-11
    2.449200         1.3655763E-11
    2.461200         1.1481427E-11
    2.473200         8.4055055E-12
    2.485200         4.6845782E-12
    2.497200         4.1922610E-13
    2.509200        -4.4961860E-12
    2.521200        -1.0329142E-11
    2.533200        -1.7357286E-11
    2.545200        -2.5624301E-11
    2.557200        -3.4646546E-11
    2.569200        -4.3136293E-11
    2.581200        -4.8818914E-11
    2.593200        -4.8418738E-11
    2.605200        -3.7872590E-11
    2.617200        -1.2804671E-11
    2.629200         3.0733801E-11
    2.641200         9.5284072E-11
    2.653200         1.8080501E-10
    2.665200         2.8336344E-10
    2.677200         3.9375847E-10
    2.689200         4.9615112E-10
    2.701200         5.6677518E-10
    2.713200         5.7280558E-10
    2.725200         4.7145504E-10
    2.737200         2.0934439E-10
    2.749200        -2.7787223E-10
    2.761200        -1.0657755E-09
    2.773200        -2.2416879E-09
    2.785200        -3.9060635E-09
    2.797200        -6.1758141E-09
    2.809200        -9.1910914E-09
    2.821200        -1.3127559E-08
    2.833200        -1.8216747E-08
    2.845200        -2.4777515E-08
    2.857200        -3.3261923E-08
    2.869200        -4.4318991E-08
    2.881200        -5.8879458E-08
    2.893200        -7.8264200E-08
    2.905200        -1.0431804E-07
    2.917200        -1.3956877E-07
    2.929200        -1.8741005E-07
    2.941200        -2.5230358E-07
    2.953200        -3.3999447E-07
    2.965200        -4.5772913E-07
    2.977200        -6.1446423E-07
    2.989200        -8.2104975E-07
    3.001200        -1.0903701E-06
    3.013200        -1.4374202E-06
    3.025200        -1.8792999E-06
    3.037200        -2.4351027E-06
    3.049200        -3.1256823E-06
    3.061200        -3.9732818E-06
    3.073200        -5.0010135E-06
    3.085200        -6.2321888E-06
    3.097200        -7.6895003E-06
    3.109200        -9.3940716E-06
    3.121200        -1.1364398E-05
    3.133200        -1.3615211E-05
    3.145200        -1.6156311E-05
    3.157200        -1.8991406E-05
    3.169200        -2.2117052E-05
    3.181200        -2.5521698E-05
    3.193200        -2.9184936E-05
    3.205200        -3.3077020E-05
    3.217200        -3.7158687E-05
    3.229200        -4.1381303E-05
    3.241200        -4.5687440E-05
    3.253200        -5.0011826E-05
    3.265200        -5.4282664E-05
    3.277200        -5.8423368E-05
    3.289200        -6.2354600E-05
    3.301200        -6.5996566E-05
    3.313200        -6.9271526E-05
    3.325200        -7.2106326E-05
    3.337200        -7.4435033E-05
    3.349200        -7.6201293E-05
    3.361200        -7.7360564E-05
    3.373200        -7.7881974E-05
    3.385200        -7.7749712E-05
    3.397200        -7.6963930E-05
    3.409200        -7.5541073E-05
    3.421200        -7.3513598E-05
    3.433200        -7.0929091E-05
    3.445200        -6.7848807E-05
    3.457200        -6.4345681E-05
    3.469200        -6.0501890E-05
    3.481200        -5.6406130E-05
    3.493200        -5.2150583E-05
    3.505200        -4.7827900E-05
    3.517200        -4.3528162E-05
    3.529200        -3.9336086E-05
    3.541200        -3.5328518E-05
    3.553200        -3.1572363E-05
    3.565200        -2.8122993E-05
    3.577200        -2.5023239E-05
    3.589200        -2.2302936E-05
    3.601200        -1.9979056E-05
    3.613200        -1.8056333E-05
    3.625200        -1.6528391E-05
    3.637200        -1.5379206E-05
    3.649200        -1.4584840E-05
    3.661200        -1.4115327E-05
    3.673200        -1.3936590E-05
    3.685200        -1.4012267E-05
    3.697200        -1.4305378E-05
    3.709200        -1.4779741E-05
    3.721200        -1.5401074E-05
    3.733200        -1.6137781E-05
    3.745200        -1.6961398E-05
    3.757200        -1.7846740E-05
    3.769200        -1.8771794E-05
    3.781200        -1.9717401E-05
    3.793200        -2.0666808E-05
    3.805200        -2.1605183E-05
    3.817200        -2.2519118E-05
    3.829200        -2.3396236E-05
    3.841200        -2.4224906E-05
    3.853200        -2.4994109E-05
    3.865200        -2.5693493E-05
    3.877200        -2.6313563E-05
    3.889200        -2.6846017E-05
    3.901200        -2.7284195E-05
    3.913200        -2.7623546E-05
    3.925200        -2.7862117E-05
    3.937200        -2.8000975E-05
    3.949200        -2.8044518E-05
    3.961200        -2.8000646E-05
    3.973200        -2.7880738E-05
    3.985200        -2.7699449E-05
    3.997200        -2.7474289E-05
    4.009200        -2.7225020E-05
    4.021200        -2.6972912E-05
    4.033200        -2.6739866E-05
    4.045200        -2.6547459E-05
    4.057200        -2.6416008E-05
    4.069200        -2.6363665E-05
    4.081200        -2.6405609E-05
    4.093200        -2.6553429E-05
    4.105200        -2.6814674E-05
    4.117200        -2.7192647E-05
    4.129200        -2.7686452E-05
    4.141200        -2.8291264E-05
    4.153200        -2.8998855E-05
    4.165200        -2.9798292E-05
    4.177200        -3.0676805E-05
    4.189200        -3.1620770E-05
    4.201200        -3.2616696E-05
    4.213200        -3.3652250E-05
    4.225200        -3.4717123E-05
    4.237200        -3.5803838E-05
    4.249200        -3.6908303E-05
    4.261200        -3.8030143E-05
    4.273200        -3.9172770E-05
    4.285200        -4.0343210E-05
    4.297200        -4.1551612E-05
    4.309200        -4.2810556E-05
    4.321200        -4.4134165E-05
    4.333200        -4.5537057E-05
    4.345200        -4.7033227E-05
    4.357200        -4.8634931E-05
    4.369200        -5.0351649E-05
    4.381200        -5.2189156E-05
    4.393200        -5.4148841E-05
    4.405200        -5.6227225E-05
    4.417200        -5.8415801E-05
    4.429200        -6.0701128E-05
    4.441200        -6.3065250E-05
    4.453200        -6.5486340E-05
    4.465200        -6.7939596E-05
    4.477200        -7.0398266E-05
    4.489200        -7.2834780E-05
    4.501200        -7.5221913E-05
    4.513200        -7.7533885E-05
    4.525200        -7.9747333E-05
    4.537200        -8.1842147E-05
    4.549200        -8.3801999E-05
    4.561200        -8.5614687E-05
    4.573200        -8.7272208E-05
    4.585200        -8.8770495E-05
    4.597200        -9.0109002E-05
    4.609200        -9.1290036E-05
    4.621200        -9.2317947E-05
    4.633200        -9.3198272E-05
    4.645200        -9.3936833E-05
    4.657200        -9.4538918E-05
    4.669200        -9.5008509E-05
    4.681200        -9.5347859E-05
    4.693200        -9.5557058E-05
    4.705200        -9.5634066E-05
    4.717200        -9.5574840E-05
    4.729200        -9.5373820E-05
    4.741200        -9.5024552E-05
    4.753200        -9.4520547E-05
    4.765200        -9.3856223E-05
    4.777200        -9.3027949E-05
    4.789200        -9.2035029E-05
    4.801200        -9.0880676E-05
    4.813200        -8.9572794E-05
    4.825200        -8.8124601E-05
    4.837200        -8.6555010E-05
    4.849200        -8.4888707E-05
    4.861200        -8.3155908E-05
    4.873200        -8.1391881E-05
    4.885200        -7.9636055E-05
    4.897200        -7.7930919E-05
    4.909200        -7.6320583E-05
    4.921200        -7.4849180E-05
    4.933200        -7.3559080E-05
    4.945200        -7.2489049E-05
    4.957200        -7.1672308E-05
    4.969200        -7.1134818E-05
    4.981200        -7.0893562E-05
    4.993200        -7.0955226E-05
    5.005200        -7.1315168E-05
    5.017200        -7.1956783E-05
    5.029200        -7.2851399E-05
    5.041200        -7.3958690E-05
    5.053200        -7.5227683E-05
    5.065200        -7.6598248E-05
    5.077200        -7.8003213E-05
    5.089200        -7.9370911E-05
    5.101200        -8.0628102E-05
    5.113200        -8.1703176E-05
    5.125200        -8.2529485E-05
    5.137200        -8.3048639E-05
    5.149200        -8.3213585E-05
    5.161200        -8.2991333E-05
    5.173200        -8.2365106E-05
    5.185200        -8.1335900E-05
    5.197200        -7.9923186E-05
    5.209200        -7.8164790E-05
    5.221200        -7.6115866E-05
    5.233200        -7.3847004E-05
    5.245200        -7.1441544E-05
    5.257200        -6.8992122E-05
    5.269200        -6.6596724E-05
    5.281200        -6.4354303E-05
    5.293200        -6.2360195E-05
    5.305200        -6.0701645E-05
    5.317200        -5.9453487E-05
    5.329200        -5.8674294E-05
    5.341200        -5.8403184E-05
    5.353200        -5.8657348E-05
    5.365200        -5.9430495E-05
    5.377200        -6.0692211E-05
    5.389200        -6.2388288E-05
    5.401200        -6.4441971E-05
    5.413200        -6.6756082E-05
    5.425200        -6.9215821E-05
    5.437200        -7.1692237E-05
    5.449200        -7.4046111E-05
    5.461200        -7.6132113E-05
    5.473200        -7.7803081E-05
    5.485200        -7.8914163E-05
    5.497200        -7.9326877E-05
    5.509200        -7.8912752E-05
    5.521200        -7.7556622E-05
    5.533200        -7.5159405E-05
    5.545200        -7.1640337E-05
    5.557200        -6.6938774E-05
    5.569200        -6.1015413E-05
    5.581200        -5.3853077E-05
    5.593200        -4.5457062E-05
    5.605200        -3.5855108E-05
    5.617200        -2.5097037E-05
    5.629200        -1.3254142E-05
    5.641200        -4.1829782E-07
    5.653200         1.3299145E-05
    5.665200         2.7768680E-05
    5.677200         4.2844178E-05
    5.689200         5.8364687E-05
    5.701200         7.4156487E-05
    5.713200         9.0035428E-05
    5.725200         1.0580954E-04
    5.737200         1.2128200E-04
    5.749200         1.3625427E-04
    5.761200         1.5052955E-04
    5.773200         1.6391647E-04
    5.785200         1.7623264E-04
    5.797200         1.8730844E-04
    5.809200         1.9699059E-04
    5.821200         2.0514555E-04
    5.833200         2.1166244E-04
    5.845200         2.1645569E-04
    5.857200         2.1946702E-04
    5.869200         2.2066690E-04
    5.881200         2.2005528E-04
    5.893200         2.1766163E-04
    5.905200         2.1354426E-04
    5.917200         2.0778914E-04
    5.929200         2.0050781E-04
    5.941200         1.9183490E-04
    5.953200         1.8192516E-04
    5.965200         1.7095002E-04
    5.977200         1.5909389E-04
    5.989200         1.4655030E-04
    6.001200         1.3351779E-04
    6.013200         1.2019595E-04
    6.025200         1.0678139E-04
    6.037200         9.3464048E-05
    6.049200         8.0423510E-05
    6.061200         6.7825851E-05
    6.073200         5.5820696E-05
    6.085200         4.4538872E-05
    6.097200         3.4090470E-05
    6.109200         2.4563480E-05
    6.121200         1.6023061E-05
    6.133200         8.5113634E-06
    6.145200         2.0479652E-06
    6.157200        -3.3691053E-06
    6.169200        -7.7618288E-06
    6.181200        -1.1170189E-05
    6.193200        -1.3649796E-05
    6.205200        -1.5269216E-05
    6.217200        -1.6107148E-05
    6.229200        -1.6249534E-05
    6.241200        -1.5786711E-05
    6.253200        -1.4810707E-05
    6.265200        -1.3412803E-05
    6.277200        -1.1681374E-05
    6.289200        -9.7001139E-06
    6.301200        -7.5466605E-06
    6.313200        -5.2916221E-06
    6.325200        -2.9980115E-06
    6.337200        -7.2105428E-07
    6.349200         1.4916808E-06
    6.361200         3.5998776E-06
    6.373200         5.5698601E-06
    6.385200         7.3738397E-06
    6.397200         8.9890818E-06
    6.409200         1.0397068E-05
    6.421200         1.1582673E-05
    6.433200         1.2533451E-05
    6.445200         1.3239011E-05
    6.457200         1.3690557E-05
    6.469200         1.3880563E-05
    6.481200         1.3802625E-05
    6.493200         1.3451476E-05
    6.505200         1.2823130E-05
    6.517200         1.1915177E-05
    6.529200         1.0727175E-05
    6.541200         9.2611026E-06
    6.553200         7.5218563E-06
    6.565200         5.5177375E-06
    6.577200         3.2608853E-06
    6.589200         7.6761040E-07
    6.601200        -1.9413985E-06
    6.613200        -4.8410388E-06
    6.625200        -7.9019483E-06
    6.637200        -1.1090850E-05
    6.649200        -1.4371100E-05
    6.661200        -1.7703407E-05
    6.673200        -2.1046704E-05
    6.685200        -2.4359124E-05
    6.697200        -2.7599048E-05
    6.709200        -3.0726158E-05
    6.721200        -3.3702450E-05
    6.733200        -3.6493177E-05
    6.745200        -3.9067651E-05
    6.757200        -4.1399901E-05
    6.769200        -4.3469136E-05
    6.781200        -4.5260043E-05
    6.793200        -4.6762874E-05
    6.805200        -4.7973379E-05
    6.817200        -4.8892627E-05
    6.829200        -4.9526690E-05
    6.841200        -4.9886308E-05
    6.853200        -4.9986495E-05
    6.865200        -4.9846170E-05
    6.877200        -4.9487808E-05
    6.889200        -4.8937123E-05
    6.901200        -4.8222762E-05
    6.913200        -4.7375983E-05
    6.925200        -4.6430334E-05
    6.937200        -4.5421250E-05
    6.949200        -4.4385532E-05
    6.961200        -4.3360731E-05
    6.973200        -4.2384352E-05
    6.985200        -4.1492935E-05
    6.997200        -4.0720941E-05
    7.009200        -4.0099567E-05
    7.021200        -3.9655471E-05
    7.033200        -3.9409493E-05
    7.045200        -3.9375453E-05
    7.057200        -3.9559109E-05
    7.069200        -3.9957402E-05
    7.081200        -4.0558003E-05
    7.093200        -4.1339303E-05
    7.105200        -4.2270840E-05
    7.117200        -4.3314216E-05
    7.129200        -4.4424469E-05
    7.141200        -4.5551835E-05
    7.153200        -4.6643880E-05
    7.165200        -4.7647824E-05
    7.177200        -4.8513004E-05
    7.189200        -4.9193262E-05
    7.201200        -4.9649218E-05
    7.213200        -4.9850230E-05
    7.225200        -4.9775947E-05
    7.237200        -4.9417358E-05
    7.249200        -4.8777325E-05
    7.261200        -4.7870501E-05
    7.273200        -4.6722675E-05
    7.285200        -4.5369594E-05
    7.297200        -4.3855296E-05
    7.309200        -4.2230095E-05
    7.321200        -4.0548286E-05
    7.333200        -3.8865699E-05
    7.345200        -3.7237252E-05
    7.357200        -3.5714624E-05
    7.369200        -3.4344117E-05
    7.381200        -3.3164859E-05
    7.393200        -3.2207372E-05
    7.405200        -3.1492600E-05
    7.417200        -3.1031403E-05
    7.429200        -3.0824482E-05
    7.441200        -3.0862786E-05
    7.453200        -3.1128311E-05
    7.465200        -3.1595224E-05
    7.477200        -3.2231284E-05
    7.489200        -3.2999451E-05
    7.501200        -3.3859600E-05
    7.513200        -3.4770277E-05
    7.525200        -3.5690384E-05
    7.537200        -3.6580754E-05
    7.549200        -3.7405473E-05
    7.561200        -3.8132999E-05
    7.573200        -3.8736958E-05
    7.585200        -3.9196595E-05
    7.597200        -3.9496936E-05
    7.609200        -3.9628652E-05
    7.621200        -3.9587645E-05
    7.633200        -3.9374449E-05
    7.645200        -3.8993505E-05
    7.657200        -3.8452345E-05
    7.669200        -3.7760834E-05
    7.681200        -3.6930447E-05
    7.693200        -3.5973710E-05
    7.705200        -3.4903791E-05
    7.717200        -3.3734301E-05
    7.729200        -3.2479278E-05
    7.741200        -3.1153366E-05
    7.753200        -2.9772125E-05
    7.765200        -2.8352446E-05
    7.777200        -2.6912985E-05
    7.789200        -2.5474536E-05
    7.801200        -2.4060297E-05
    7.813200        -2.2695926E-05
    7.825200        -2.1409385E-05
    7.837200        -2.0230460E-05
    7.849200        -1.9190049E-05
    7.861200        -1.8319159E-05
    7.873200        -1.7647706E-05
    7.885200        -1.7203189E-05
    7.897200        -1.7009297E-05
    7.909200        -1.7084603E-05
    7.921200        -1.7441367E-05
    7.933200        -1.8084611E-05
    7.945200        -1.9011499E-05
    7.957200        -2.0211071E-05
    7.969200        -2.1664386E-05
    7.981200        -2.3345025E-05
    7.993200        -2.5219966E-05
    8.005200        -2.7250762E-05
    8.017200        -2.9394931E-05
    8.029200        -3.1607480E-05
    8.041200        -3.3842516E-05
    8.053200        -3.6054735E-05
    8.065200        -3.8200862E-05
    8.077200        -4.0240830E-05
    8.089200        -4.2138734E-05
    8.101200        -4.3863547E-05
    8.113200        -4.5389483E-05
    8.125200        -4.6696183E-05
    8.137200        -4.7768644E-05
    8.149200        -4.8597012E-05
    8.161200        -4.9176237E-05
    8.173200        -4.9505721E-05
    8.185200        -4.9588929E-05
    8.197200        -4.9433082E-05
    8.209200        -4.9048835E-05
    8.221200        -4.8450103E-05
    8.233200        -4.7653855E-05
    8.245200        -4.6679961E-05
    8.257200        -4.5551024E-05
    8.269200        -4.4292141E-05
    8.281200        -4.2930566E-05
    8.293200        -4.1495263E-05
    8.305200        -4.0016334E-05
    8.317200        -3.8524238E-05
    8.329200        -3.7048958E-05
    8.341200        -3.5618981E-05
    8.353200        -3.4260262E-05
    8.365200        -3.2995176E-05
    8.377200        -3.1841500E-05
    8.389200        -3.0811545E-05
    8.401200        -2.9911494E-05
    8.413200        -2.9140985E-05
    8.425200        -2.8493028E-05
    8.437200        -2.7954273E-05
    8.449200        -2.7505610E-05
    8.461200        -2.7123158E-05
    8.473200        -2.6779520E-05
    8.485200        -2.6445288E-05
    8.497200        -2.6090720E-05
    8.509200        -2.5687461E-05
    8.521200        -2.5210244E-05
    8.533200        -2.4638437E-05
    8.545200        -2.3957382E-05
    8.557200        -2.3159408E-05
    8.569200        -2.2244511E-05
    8.581200        -2.1220612E-05
    8.593200        -2.0103424E-05
    8.605200        -1.8915920E-05
    8.617200        -1.7687438E-05
    8.629200        -1.6452494E-05
    8.641200        -1.5249330E-05
    8.653200        -1.4118314E-05
    8.665200        -1.3100223E-05
    8.677200        -1.2234530E-05
    8.689200        -1.1557715E-05
    8.701200        -1.1101717E-05
    8.713200        -1.0892543E-05
    8.725200        -1.0949115E-05
    8.737200        -1.1282384E-05
    8.749200        -1.1894750E-05
    8.761200        -1.2779819E-05
    8.773200        -1.3922496E-05
    8.785200        -1.5299427E-05
    8.797200        -1.6879789E-05
    8.809200        -1.8626370E-05
    8.821200        -2.0496933E-05
    8.833200        -2.2445769E-05
    8.845200        -2.4425417E-05
    8.857200        -2.6388429E-05
    8.869200        -2.8289120E-05
    8.881200        -3.0085195E-05
    8.893200        -3.1739219E-05
    8.905200        -3.3219763E-05
    8.917200        -3.4502275E-05
    8.929200        -3.5569537E-05
    8.941200        -3.6411766E-05
    8.953200        -3.7026322E-05
    8.965200        -3.7417089E-05
    8.977200        -3.7593589E-05
    8.989200        -3.7569866E-05
    9.001200        -3.7363305E-05
    9.013200        -3.6993453E-05
    9.025200        -3.6480902E-05
    9.037200        -3.5846351E-05
    9.049200        -3.5109897E-05
    9.061200        -3.4290570E-05
    9.073200        -3.3406097E-05
    9.085200        -3.2472923E-05
    9.097200        -3.1506363E-05
    9.109200        -3.0520889E-05
    9.121200        -2.9530445E-05
    9.133200        -2.8548713E-05
    9.145200        -2.7589298E-05
    9.157200        -2.6665773E-05
    9.169200        -2.5791562E-05
    9.181200        -2.4979656E-05
    9.193200        -2.4242217E-05
    9.205200        -2.3590057E-05
    9.217200        -2.3032107E-05
    9.229200        -2.2574888E-05
    9.241200        -2.2222099E-05
    9.253200        -2.1974314E-05
    9.265200        -2.1828897E-05
    9.277200        -2.1780104E-05
    9.289200        -2.1819418E-05
    9.301200        -2.1936068E-05
    9.313200        -2.2117702E-05
    9.325200        -2.2351163E-05
    9.337200        -2.2623304E-05
    9.349200        -2.2921762E-05
    9.361200        -2.3235641E-05
    9.373200        -2.3556036E-05
    9.385200        -2.3876370E-05
    9.397200        -2.4192537E-05
    9.409200        -2.4502820E-05
    9.421200        -2.4807650E-05
    9.433200        -2.5109190E-05
    9.445200        -2.5410836E-05
