  -0.6228000         1.0000000E-24
  -0.6108000         1.0000000E-24
  -0.5988000         1.0000000E-24
  -0.5868000         1.0000000E-24
  -0.5748000         1.0000000E-24
  -0.5628000         1.0000001E-24
  -0.5508000         1.0000001E-24
  -0.5388000         1.0000001E-24
  -0.5268000         1.0000001E-24
  -0.5148000         1.0000001E-24
  -0.5028000         1.0000001E-24
  -0.4908000         1.0000001E-24
  -0.4788000         1.0000001E-24
  -0.4668000         1.0000001E-24
  -0.4548000         1.0000001E-24
  -0.4428000         1.0000001E-24
  -0.4308000         1.0000001E-24
  -0.4188000         1.0000001E-24
  -0.4068000         1.0000004E-24
  -0.3948000         1.0000010E-24
  -0.3828000         1.0000025E-24
  -0.3708000         1.0000053E-24
  -0.3588000         1.0000099E-24
  -0.3468000         1.0000162E-24
  -0.3348000         1.0000231E-24
  -0.3228000         1.0000266E-24
  -0.3108000         1.0000200E-24
  -0.2988000         9.9999400E-25
  -0.2868000         9.9994214E-25
  -0.2748000         9.9987015E-25
  -0.2628000         9.9980764E-25
  -0.2508000         9.9981454E-25
  -0.2388000         9.9997054E-25
  -0.2268000         1.0003342E-24
  -0.2148000         1.0008746E-24
  -0.2028000         1.0014018E-24
  -0.1908000         1.0015562E-24
  -0.1788000         1.0009237E-24
  -0.1668000         9.9930484E-25
  -0.1548000         9.9705846E-25
  -0.1428000         9.9529180E-25
  -0.1308000         9.9558555E-25
  -0.1188000         9.9904136E-25
  -0.1068000         1.0048349E-24
  -9.4800003E-02     1.0090844E-24
  -8.2800001E-02     1.0053967E-24
  -7.0799999E-02     9.8838838E-25
  -5.8800001E-02     9.6024952E-25
  -4.6799999E-02     9.3787969E-25
  -3.4800000E-02     9.5503643E-25
  -2.2800000E-02     1.0521480E-24
  -1.0800000E-02     1.2485667E-24
   1.2000001E-03     1.5002829E-24
   1.3200000E-02     1.6603447E-24
   2.5200000E-02     1.4751252E-24
   3.7200000E-02     6.5760264E-25
   4.9199998E-02    -9.3408093E-25
   6.1200000E-02    -3.0298307E-24
   7.3200002E-02    -4.6882686E-24
   8.5199997E-02    -4.2323259E-24
   9.7199999E-02     3.7625258E-25
   0.1092000         1.0530343E-23
   0.1212000         2.5375118E-23
   0.1332000         4.0076497E-23
   0.1452000         4.4968158E-23
   0.1572000         2.6987042E-23
   0.1692000        -2.5326318E-23
   0.1812000        -1.1307268E-22
   0.1932000        -2.1651193E-22
   0.2052000        -2.8783121E-22
   0.2172000        -2.5459361E-22
   0.2292000        -4.1248489E-23
   0.2412000         3.8859414E-22
   0.2532000         9.7675965E-22
   0.2652000         1.5239314E-21
   0.2772000         1.6866667E-21
   0.2892000         1.0551123E-21
   0.3012000        -6.6921744E-22
   0.3132000        -3.4190004E-21
   0.3252000        -6.5150066E-21
   0.3372000        -8.5720363E-21
   0.3492000        -7.7206777E-21
   0.3612000        -2.2515210E-21
   0.3732000         8.3675232E-21
   0.3852000         2.2385806E-20
   0.3972000         3.5100815E-20
   0.4092000         3.9265889E-20
   0.4212000         2.7067435E-20
   0.4332000        -6.3346315E-21
   0.4452000        -5.8513483E-20
   0.4572000        -1.1641576E-19
   0.4692000        -1.5616475E-19
   0.4812000        -1.4799669E-19
   0.4932000        -6.6916262E-20
   0.5052000         9.2788565E-20
   0.5172000         3.0391779E-19
   0.5292000         5.0051815E-19
   0.5412000         5.8674015E-19
   0.5532000         4.6406166E-19
   0.5652000         7.3948351E-20
   0.5772000        -5.5550881E-19
   0.5892000        -1.2778909E-18
   0.6012000        -1.8330488E-18
   0.6132000        -1.9034005E-18
   0.6252000        -1.2217576E-18
   0.6372000         2.9198819E-19
   0.6492000         2.4106090E-18
   0.6612000         4.5538973E-18
   0.6732000         5.8693461E-18
   0.6852000         5.4598201E-18
   0.6972000         2.7264247E-18
   0.7092000        -2.2655596E-18
   0.7212000        -8.5360663E-18
   0.7332000        -1.4201143E-17
   0.7452000        -1.6843298E-17
   0.7572000        -1.4233916E-17
   0.7692000        -5.2593794E-18
   0.7812000         9.2306201E-18
   0.7932000         2.6005046E-17
   0.8052000         3.9775840E-17
   0.8172000         4.4403939E-17
   0.8292000         3.4843448E-17
   0.8412000         9.3589258E-18
   0.8532000        -2.8701960E-17
   0.8652000        -7.0367342E-17
   0.8772000        -1.0232376E-16
   0.8892000        -1.1014791E-16
   0.9012000        -8.2961815E-17
   0.9132000        -1.8328716E-17
   0.9252000         7.4228501E-17
   0.9372000         1.7270438E-16
   0.9492000         2.4614828E-16
   0.9612000         2.6225884E-16
   0.9732000         1.9767413E-16
   0.9852000         4.8321952E-17
   0.9972000        -1.6354855E-16
    1.009200        -3.8886999E-16
    1.021200        -5.5976151E-16
    1.033200        -6.0579627E-16
    1.045200        -4.7559333E-16
    1.057200        -1.5833837E-16
    1.069200         3.0154934E-16
    1.081200         8.0299915E-16
    1.093200         1.2040416E-15
    1.105200         1.3543406E-15
    1.117200         1.1388495E-15
    1.129200         5.2208829E-16
    1.141200        -4.2028412E-16
    1.153200        -1.4953866E-15
    1.165200        -2.4207336E-15
    1.177200        -2.8855797E-15
    1.189200        -2.6358460E-15
    1.201200        -1.5629295E-15
    1.213200         2.2915264E-16
    1.225200         2.4033482E-15
    1.237200         4.4327707E-15
    1.249200         5.7092591E-15
    1.261200         5.6999473E-15
    1.273200         4.1163836E-15
    1.285200         1.0493953E-15
    1.297200        -2.9768651E-15
    1.309200        -7.0639130E-15
    1.321200        -1.0116306E-14
    1.333200        -1.1108956E-14
    1.345200        -9.3841450E-15
    1.357200        -4.8983526E-15
    1.369200         1.6604039E-15
    1.381200         8.9396433E-15
    1.393200         1.5184099E-14
    1.405200         1.8647271E-14
    1.417200         1.8058107E-14
    1.429200         1.3018940E-14
    1.441200         4.2143747E-15
    1.453200        -6.6493378E-15
    1.465200        -1.7186373E-14
    1.477200        -2.4886667E-14
    1.489200        -2.7748022E-14
    1.501200        -2.4814183E-14
    1.513200        -1.6461904E-14
    1.525200        -4.3426570E-15
    1.537200         9.0191492E-15
    1.549200         2.0866750E-14
    1.561200         2.8908594E-14
    1.573200         3.1866386E-14
    1.585200         2.9706889E-14
    1.597200         2.3487504E-14
    1.609200         1.4871276E-14
    1.621200         5.4822712E-15
    1.633200        -3.6632904E-15
    1.645200        -1.2427613E-14
    1.657200        -2.1394524E-14
    1.669200        -3.1306223E-14
    1.681200        -4.2275164E-14
    1.693200        -5.3069294E-14
    1.705200        -6.0795587E-14
    1.717200        -6.1222105E-14
    1.729200        -4.9796674E-14
    1.741200        -2.3186695E-14
    1.753200         1.9049710E-14
    1.765200         7.3176572E-14
    1.777200         1.3087650E-13
    1.789200         1.8006064E-13
    1.801200         2.0693015E-13
    1.813200         1.9898352E-13
    1.825200         1.4836059E-13
    1.837200         5.4737709E-14
    1.849200        -7.3003818E-14
    1.861200        -2.1690893E-13
    1.873200        -3.5209287E-13
    1.885200        -4.5067560E-13
    1.897200        -4.8687269E-13
    1.909200        -4.4231730E-13
    1.921200        -3.1058099E-13
    1.933200        -9.9958616E-14
    1.945200         1.6613478E-13
    1.957200         4.5140218E-13
    1.969200         7.1133285E-13
    1.981200         8.9967671E-13
    1.993200         9.7577968E-13
    2.005200         9.1165552E-13
    2.017200         6.9765672E-13
    2.029200         3.4576029E-13
    2.041200        -1.1020406E-13
    2.053200        -6.1762412E-13
    2.065200        -1.1112027E-12
    2.077200        -1.5213007E-12
    2.089200        -1.7833135E-12
    2.101200        -1.8466316E-12
    2.113200        -1.6817513E-12
    2.125200        -1.2844334E-12
    2.137200        -6.7639286E-13
    2.149200         9.7242947E-14
    2.161200         9.7276473E-13
    2.173200         1.8735913E-12
    2.185200         2.7154288E-12
    2.197200         3.4099438E-12
    2.209200         3.8669675E-12
    2.221200         3.9963957E-12
    2.233200         3.7119214E-12
    2.245200         2.9390899E-12
    2.257200         1.6295606E-12
    2.269200        -2.1823648E-13
    2.281200        -2.5344462E-12
    2.293200        -5.1544415E-12
    2.305200        -7.8045157E-12
    2.317200        -1.0105337E-11
    2.329200        -1.1600687E-11
    2.341200        -1.1815252E-11
    2.353200        -1.0339112E-11
    2.365200        -6.9292020E-12
    2.377200        -1.6106569E-12
    2.389200         5.2442976E-12
    2.401200         1.2883724E-11
    2.413200         2.0209954E-11
    2.425200         2.5891620E-11
    2.437200         2.8551824E-11
    2.449200         2.7014536E-11
    2.461200         2.0575623E-11
    2.473200         9.2523905E-12
    2.485200        -6.0405613E-12
    2.497200        -2.3439240E-11
    2.509200        -4.0240533E-11
    2.521200        -5.3193606E-11
    2.533200        -5.8964611E-11
    2.545200        -5.4737003E-11
    2.557200        -3.8879993E-11
    2.569200        -1.1592596E-11
    2.581200         2.4587143E-11
    2.593200         6.4524615E-11
    2.605200         1.0059342E-10
    2.617200         1.2323181E-10
    2.629200         1.2200496E-10
    2.641200         8.7176960E-11
    2.653200         1.1734856E-11
    2.665200        -1.0626181E-10
    2.677200        -2.6120353E-10
    2.689200        -4.3758425E-10
    2.701200        -6.0808547E-10
    2.713200        -7.3240419E-10
    2.725200        -7.5709489E-10
    2.737200        -6.1659505E-10
    2.749200        -2.3544797E-10
    2.761200         4.6852516E-10
    2.773200         1.5806453E-09
    2.785200         3.1863123E-09
    2.797200         5.3697877E-09
    2.809200         8.2165723E-09
    2.821200         1.1821494E-08
    2.833200         1.6304957E-08
    2.845200         2.1839998E-08
    2.857200         2.8692741E-08
    2.869200         3.7278816E-08
    2.881200         4.8237752E-08
    2.893200         6.2526702E-08
    2.905200         8.1533926E-08
    2.917200         1.0721111E-07
    2.929200         1.4222205E-07
    2.941200         1.9010355E-07
    2.953200         2.5543213E-07
    2.965200         3.4398829E-07
    2.977200         4.6290822E-07
    2.989200         6.2080989E-07
    3.001200         8.2788097E-07
    3.013200         1.0959124E-06
    3.025200         1.4382630E-06
    3.037200         1.8697411E-06
    3.049200         2.4063895E-06
    3.061200         3.0651631E-06
    3.073200         3.8634935E-06
    3.085200         4.8187385E-06
    3.097200         5.9475233E-06
    3.109200         7.2649764E-06
    3.121200         8.7838953E-06
    3.133200         1.0513850E-05
    3.145200         1.2460266E-05
    3.157200         1.4623534E-05
    3.169200         1.6998183E-05
    3.181200         1.9572153E-05
    3.193200         2.2326260E-05
    3.205200         2.5233840E-05
    3.217200         2.8260685E-05
    3.229200         3.1365234E-05
    3.241200         3.4499117E-05
    3.253200         3.7608002E-05
    3.265200         4.0632796E-05
    3.277200         4.3511103E-05
    3.289200         4.6179019E-05
    3.301200         4.8573067E-05
    3.313200         5.0632327E-05
    3.325200         5.2300580E-05
    3.337200         5.3528438E-05
    3.349200         5.4275311E-05
    3.361200         5.4511169E-05
    3.373200         5.4217940E-05
    3.385200         5.3390526E-05
    3.397200         5.2037307E-05
    3.409200         5.0180155E-05
    3.421200         4.7853904E-05
    3.433200         4.5105298E-05
    3.445200         4.1991425E-05
    3.457200         3.8577749E-05
    3.469200         3.4935805E-05
    3.481200         3.1140662E-05
    3.493200         2.7268261E-05
    3.505200         2.3392802E-05
    3.517200         1.9584262E-05
    3.529200         1.5906173E-05
    3.541200         1.2413785E-05
    3.553200         9.1526599E-06
    3.565200         6.1577857E-06
    3.577200         3.4532113E-06
    3.589200         1.0522092E-06
    3.601200        -1.0420816E-06
    3.613200        -2.8355869E-06
    3.625200        -4.3418995E-06
    3.637200        -5.5806454E-06
    3.649200        -6.5757395E-06
    3.661200        -7.3536316E-06
    3.673200        -7.9416595E-06
    3.685200        -8.3665982E-06
    3.697200        -8.6534865E-06
    3.709200        -8.8247616E-06
    3.721200        -8.8997522E-06
    3.733200        -8.8945053E-06
    3.745200        -8.8219258E-06
    3.757200        -8.6921764E-06
    3.769200        -8.5132679E-06
    3.781200        -8.2917704E-06
    3.793200        -8.0335431E-06
    3.805200        -7.7444238E-06
    3.817200        -7.4307914E-06
    3.829200        -7.0999554E-06
    3.841200        -6.7603328E-06
    3.853200        -6.4213918E-06
    3.865200        -6.0933789E-06
    3.877200        -5.7868469E-06
    3.889200        -5.5120399E-06
    3.901200        -5.2781893E-06
    3.913200        -5.0927902E-06
    3.925200        -4.9609343E-06
    3.937200        -4.8847587E-06
    3.949200        -4.8630764E-06
    3.961200        -4.8912307E-06
    3.973200        -4.9611963E-06
    3.985200        -5.0619369E-06
    3.997200        -5.1800025E-06
    4.009200        -5.3003364E-06
    4.021200        -5.4072257E-06
    4.033200        -5.4853499E-06
    4.045200        -5.5208366E-06
    4.057200        -5.5022479E-06
    4.069200        -5.4214333E-06
    4.081200        -5.2741716E-06
    4.093200        -5.0605540E-06
    4.105200        -4.7850722E-06
    4.117200        -4.4564013E-06
    4.129200        -4.0868758E-06
    4.141200        -3.6917036E-06
    4.153200        -3.2879509E-06
    4.165200        -2.8933782E-06
    4.177200        -2.5251954E-06
    4.189200        -2.1988260E-06
    4.201200        -1.9267627E-06
    4.213200        -1.7175945E-06
    4.225200        -1.5752740E-06
    4.237200        -1.4986781E-06
    4.249200        -1.4814902E-06
    4.261200        -1.5124216E-06
    4.273200        -1.5757527E-06
    4.285200        -1.6521610E-06
    4.297200        -1.7197835E-06
    4.309200        -1.7554395E-06
    4.321200        -1.7359368E-06
    4.333200        -1.6393777E-06
    4.345200        -1.4463786E-06
    4.357200        -1.1411350E-06
    4.369200        -7.1226242E-07
    4.381200        -1.5337457E-07
    4.393200         5.3662939E-07
    4.405200         1.3535749E-06
    4.417200         2.2883007E-06
    4.429200         3.3271947E-06
    4.441200         4.4529293E-06
    4.453200         5.6453305E-06
    4.465200         6.8823247E-06
    4.477200         8.1408816E-06
    4.489200         9.3979061E-06
    4.501200         1.0631018E-05
    4.513200         1.1819178E-05
    4.525200         1.2943142E-05
    4.537200         1.3985738E-05
    4.549200         1.4931968E-05
    4.561200         1.5768954E-05
    4.573200         1.6485792E-05
    4.585200         1.7073316E-05
    4.597200         1.7523853E-05
    4.609200         1.7830991E-05
    4.621200         1.7989432E-05
    4.633200         1.7994913E-05
    4.645200         1.7844281E-05
    4.657200         1.7535638E-05
    4.669200         1.7068638E-05
    4.681200         1.6444834E-05
    4.693200         1.5668060E-05
    4.705200         1.4744827E-05
    4.717200         1.3684612E-05
    4.729200         1.2500056E-05
    4.741200         1.1206965E-05
    4.753200         9.8241153E-06
    4.765200         8.3728219E-06
    4.777200         6.8762793E-06
    4.789200         5.3586859E-06
    4.801200         3.8442045E-06
    4.813200         2.3558046E-06
    4.825200         9.1407173E-07
    4.837200        -4.6393717E-07
    4.849200        -1.7657054E-06
    4.861200        -2.9840439E-06
    4.873200        -4.1175886E-06
    4.885200        -5.1709440E-06
    4.897200        -6.1544420E-06
    4.909200        -7.0835081E-06
    4.921200        -7.9776619E-06
    4.933200        -8.8591896E-06
    4.945200        -9.7515876E-06
    4.957200        -1.0677856E-05
    4.969200        -1.1658761E-05
    4.981200        -1.2711181E-05
    4.993200        -1.3846650E-05
    5.005200        -1.5070200E-05
    5.017200        -1.6379576E-05
    5.029200        -1.7764900E-05
    5.041200        -1.9208792E-05
    5.053200        -2.0686966E-05
    5.065200        -2.2169253E-05
    5.077200        -2.3621022E-05
    5.089200        -2.5004887E-05
    5.101200        -2.6282640E-05
    5.113200        -2.7417280E-05
    5.125200        -2.8375056E-05
    5.137200        -2.9127399E-05
    5.149200        -2.9652670E-05
    5.161200        -2.9937653E-05
    5.173200        -2.9978673E-05
    5.185200        -2.9782381E-05
    5.197200        -2.9366091E-05
    5.209200        -2.8757710E-05
    5.221200        -2.7995233E-05
    5.233200        -2.7125803E-05
    5.245200        -2.6204392E-05
    5.257200        -2.5292100E-05
    5.269200        -2.4454124E-05
    5.281200        -2.3757459E-05
    5.293200        -2.3268363E-05
    5.305200        -2.3049675E-05
    5.317200        -2.3158060E-05
    5.329200        -2.3641251E-05
    5.341200        -2.4535413E-05
    5.353200        -2.5862681E-05
    5.365200        -2.7629038E-05
    5.377200        -2.9822575E-05
    5.389200        -3.2412256E-05
    5.401200        -3.5347279E-05
    5.413200        -3.8557064E-05
    5.425200        -4.1951949E-05
    5.437200        -4.5424582E-05
    5.449200        -4.8852035E-05
    5.461200        -5.2098545E-05
    5.473200        -5.5018874E-05
    5.485200        -5.7462126E-05
    5.497200        -5.9275964E-05
    5.509200        -6.0311038E-05
    5.521200        -6.0425540E-05
    5.533200        -5.9489645E-05
    5.545200        -5.7389785E-05
    5.557200        -5.4032527E-05
    5.569200        -4.9347986E-05
    5.581200        -4.3292643E-05
    5.593200        -3.5851481E-05
    5.605200        -2.7039338E-05
    5.617200        -1.6901497E-05
    5.629200        -5.5134597E-06
    5.641200         7.0201058E-06
    5.653200         2.0567169E-05
    5.665200         3.4970850E-05
    5.677200         5.0052586E-05
    5.689200         6.5615866E-05
    5.701200         8.1450351E-05
    5.713200         9.7336371E-05
    5.725200         1.1304957E-04
    5.737200         1.2836563E-04
    5.749200         1.4306496E-04
    5.761200         1.5693708E-04
    5.773200         1.6978486E-04
    5.785200         1.8142817E-04
    5.797200         1.9170709E-04
    5.809200         2.0048465E-04
    5.821200         2.0764873E-04
    5.833200         2.1311348E-04
    5.845200         2.1682013E-04
    5.857200         2.1873695E-04
    5.869200         2.1885904E-04
    5.881200         2.1720711E-04
    5.893200         2.1382626E-04
    5.905200         2.0878411E-04
    5.917200         2.0216883E-04
    5.929200         1.9408674E-04
    5.941200         1.8466004E-04
    5.953200         1.7402417E-04
    5.965200         1.6232541E-04
    5.977200         1.4971824E-04
    5.989200         1.3636299E-04
    6.001200         1.2242325E-04
    6.013200         1.0806361E-04
    6.025200         9.3447299E-05
    6.037200         7.8733916E-05
    6.049200         6.4077321E-05
    6.061200         4.9623559E-05
    6.073200         3.5508878E-05
    6.085200         2.1857939E-05
    6.097200         8.7822027E-06
    6.109200        -3.6214917E-06
    6.121200        -1.5272031E-05
    6.133200        -2.6104841E-05
    6.145200        -3.6072310E-05
    6.157200        -4.5143821E-05
    6.169200        -5.3305346E-05
    6.181200        -6.0558617E-05
    6.193200        -6.6919827E-05
    6.205200        -7.2417948E-05
    6.217200        -7.7092736E-05
    6.229200        -8.0992388E-05
    6.241200        -8.4171013E-05
    6.253200        -8.6686079E-05
    6.265200        -8.8595785E-05
    6.277200        -8.9956651E-05
    6.289200        -9.0821377E-05
    6.301200        -9.1236987E-05
    6.313200        -9.1243499E-05
    6.325200        -9.0873065E-05
    6.337200        -9.0149690E-05
    6.349200        -8.9089495E-05
    6.361200        -8.7701512E-05
    6.373200        -8.5988970E-05
    6.385200        -8.3950930E-05
    6.397200        -8.1584229E-05
    6.409200        -7.8885598E-05
    6.421200        -7.5853721E-05
    6.433200        -7.2491224E-05
    6.445200        -6.8806345E-05
    6.457200        -6.4814281E-05
    6.469200        -6.0537965E-05
    6.481200        -5.6008379E-05
    6.493200        -5.1264222E-05
    6.505200        -4.6351070E-05
    6.517200        -4.1319978E-05
    6.529200        -3.6225683E-05
    6.541200        -3.1124480E-05
    6.553200        -2.6071897E-05
    6.565200        -2.1120364E-05
    6.577200        -1.6316966E-05
    6.589200        -1.1701468E-05
    6.601200        -7.3046826E-06
    6.613200        -3.1473492E-06
    6.625200         7.6046547E-07
    6.637200         4.4193675E-06
    6.649200         7.8400453E-06
    6.661200         1.1042126E-05
    6.673200         1.4052541E-05
    6.685200         1.6903496E-05
    6.697200         1.9630170E-05
    6.709200         2.2268285E-05
    6.721200         2.4851681E-05
    6.733200         2.7410049E-05
    6.745200         2.9966941E-05
    6.757200         3.2538173E-05
    6.769200         3.5130721E-05
    6.781200         3.7742127E-05
    6.793200         4.0360497E-05
    6.805200         4.2964992E-05
    6.817200         4.5526889E-05
    6.829200         4.8011032E-05
    6.841200         5.0377668E-05
    6.853200         5.2584503E-05
    6.865200         5.4588909E-05
    6.877200         5.6350105E-05
    6.889200         5.7831247E-05
    6.901200         5.9001275E-05
    6.913200         5.9836435E-05
    6.925200         6.0321436E-05
    6.937200         6.0450147E-05
    6.949200         6.0225873E-05
    6.961200         5.9661157E-05
    6.973200         5.8777230E-05
    6.985200         5.7603087E-05
    6.997200         5.6174318E-05
    7.009200         5.4531727E-05
    7.021200         5.2719912E-05
    7.033200         5.0785759E-05
    7.045200         4.8777081E-05
    7.057200         4.6741316E-05
    7.069200         4.4724409E-05
    7.081200         4.2769920E-05
    7.093200         4.0918287E-05
    7.105200         3.9206305E-05
    7.117200         3.7666752E-05
    7.129200         3.6328143E-05
    7.141200         3.5214536E-05
    7.153200         3.4345438E-05
    7.165200         3.3735629E-05
    7.177200         3.3395037E-05
    7.189200         3.3328524E-05
    7.201200         3.3535689E-05
    7.213200         3.4010605E-05
    7.225200         3.4741610E-05
    7.237200         3.5711160E-05
    7.249200         3.6895788E-05
    7.261200         3.8266215E-05
    7.273200         3.9787672E-05
    7.285200         4.1420477E-05
    7.297200         4.3120839E-05
    7.309200         4.4841956E-05
    7.321200         4.6535290E-05
    7.333200         4.8152084E-05
    7.345200         4.9644968E-05
    7.357200         5.0969596E-05
    7.369200         5.2086278E-05
    7.381200         5.2961437E-05
    7.393200         5.3568867E-05
    7.405200         5.3890708E-05
    7.417200         5.3918011E-05
    7.429200         5.3651005E-05
    7.441200         5.3098876E-05
    7.453200         5.2279236E-05
    7.465200         5.1217172E-05
    7.477200         4.9944036E-05
    7.489200         4.8496033E-05
    7.501200         4.6912657E-05
    7.513200         4.5235087E-05
    7.525200         4.3504642E-05
    7.537200         4.1761388E-05
    7.549200         4.0042916E-05
    7.561200         3.8383361E-05
    7.573200         3.6812729E-05
    7.585200         3.5356425E-05
    7.597200         3.4035111E-05
    7.609200         3.2864715E-05
    7.621200         3.1856682E-05
    7.633200         3.1018320E-05
    7.645200         3.0353256E-05
    7.657200         2.9861920E-05
    7.669200         2.9542045E-05
    7.681200         2.9389143E-05
    7.693200         2.9396919E-05
    7.705200         2.9557645E-05
    7.717200         2.9862476E-05
    7.729200         3.0301686E-05
    7.741200         3.0864900E-05
    7.753200         3.1541254E-05
    7.765200         3.2319571E-05
    7.777200         3.3188506E-05
    7.789200         3.4136701E-05
    7.801200         3.5152887E-05
    7.813200         3.6226018E-05
    7.825200         3.7345337E-05
    7.837200         3.8500402E-05
    7.849200         3.9681054E-05
    7.861200         4.0877349E-05
    7.873200         4.2079384E-05
    7.885200         4.3277178E-05
    7.897200         4.4460419E-05
    7.909200         4.5618315E-05
    7.921200         4.6739446E-05
    7.933200         4.7811707E-05
    7.945200         4.8822327E-05
    7.957200         4.9758070E-05
    7.969200         5.0605497E-05
    7.981200         5.1351446E-05
    7.993200         5.1983556E-05
    8.005200         5.2490956E-05
    8.017200         5.2864954E-05
    8.029200         5.3099760E-05
    8.041200         5.3193133E-05
    8.053200         5.3146901E-05
    8.065200         5.2967367E-05
    8.077200         5.2665440E-05
    8.089200         5.2256546E-05
    8.101200         5.1760300E-05
    8.113200         5.1199899E-05
    8.125200         5.0601273E-05
    8.137200         4.9992079E-05
    8.149200         4.9400493E-05
    8.161200         4.8853944E-05
    8.173200         4.8377817E-05
    8.185200         4.7994177E-05
    8.197200         4.7720641E-05
    8.209200         4.7569411E-05
    8.221200         4.7546517E-05
    8.233200         4.7651378E-05
    8.245200         4.7876634E-05
    8.257200         4.8208334E-05
    8.269200         4.8626393E-05
    8.281200         4.9105387E-05
    8.293200         4.9615606E-05
    8.305200         5.0124294E-05
    8.317200         5.0597089E-05
    8.329200         5.0999555E-05
    8.341200         5.1298721E-05
    8.353200         5.1464645E-05
    8.365200         5.1471816E-05
    8.377200         5.1300420E-05
    8.389200         5.0937400E-05
    8.401200         5.0377206E-05
    8.413200         4.9622227E-05
    8.425200         4.8682916E-05
    8.437200         4.7577516E-05
    8.449200         4.6331446E-05
    8.461200         4.4976412E-05
    8.473200         4.3549171E-05
    8.485200         4.2090101E-05
    8.497200         4.0641607E-05
    8.509200         3.9246414E-05
    8.521200         3.7945832E-05
    8.533200         3.6778092E-05
    8.545200         3.5776800E-05
    8.557200         3.4969544E-05
    8.569200         3.4376815E-05
    8.581200         3.4011187E-05
    8.593200         3.3876826E-05
    8.605200         3.3969398E-05
    8.617200         3.4276309E-05
    8.629200         3.4777277E-05
    8.641200         3.5445253E-05
    8.653200         3.6247598E-05
    8.665200         3.7147453E-05
    8.677200         3.8105289E-05
    8.689200         3.9080522E-05
    8.701200         4.0033148E-05
    8.713200         4.0925333E-05
    8.725200         4.1722862E-05
    8.737200         4.2396419E-05
    8.749200         4.2922667E-05
    8.761200         4.3284992E-05
    8.773200         4.3474010E-05
    8.785200         4.3487715E-05
    8.797200         4.3331322E-05
    8.809200         4.3016800E-05
    8.821200         4.2562140E-05
    8.833200         4.1990348E-05
    8.845200         4.1328276E-05
    8.857200         4.0605315E-05
    8.869200         3.9851977E-05
    8.881200         3.9098497E-05
    8.893200         3.8373466E-05
    8.905200         3.7702564E-05
    8.917200         3.7107493E-05
    8.929200         3.6605092E-05
    8.941200         3.6206740E-05
    8.953200         3.5918045E-05
    8.965200         3.5738813E-05
    8.977200         3.5663310E-05
    8.989200         3.5680820E-05
    9.001200         3.5776378E-05
    9.013200         3.5931709E-05
    9.025200         3.6126305E-05
    9.037200         3.6338530E-05
    9.049200         3.6546757E-05
    9.061200         3.6730438E-05
    9.073200         3.6871075E-05
    9.085200         3.6953057E-05
    9.097200         3.6964269E-05
    9.109200         3.6896552E-05
    9.121200         3.6745860E-05
    9.133200         3.6512261E-05
    9.145200         3.6199683E-05
    9.157200         3.5815498E-05
    9.169200         3.5369954E-05
    9.181200         3.4875549E-05
    9.193200         3.4346311E-05
    9.205200         3.3797114E-05
    9.217200         3.3243017E-05
    9.229200         3.2698652E-05
    9.241200         3.2177686E-05
    9.253200         3.1692376E-05
    9.265200         3.1253232E-05
    9.277200         3.0868719E-05
    9.289200         3.0545089E-05
    9.301200         3.0286288E-05
    9.313200         3.0093946E-05
    9.325200         2.9967443E-05
    9.337200         2.9904049E-05
    9.349200         2.9899102E-05
    9.361200         2.9946223E-05
    9.373200         3.0037578E-05
    9.385200         3.0164128E-05
    9.397200         3.0315903E-05
    9.409200         3.0482299E-05
    9.421200         3.0652373E-05
    9.433200         3.0815154E-05
    9.445200         3.0959978E-05
