  0.0000000E+00  0.0000000E+00
  6.9999998E-04  0.0000000E+00
  1.4000000E-03  0.0000000E+00
  2.0999999E-03  0.0000000E+00
  2.7999999E-03  0.0000000E+00
  3.5000001E-03  0.0000000E+00
  4.1999999E-03  0.0000000E+00
  4.9000001E-03  0.0000000E+00
  5.5999998E-03  0.0000000E+00
  6.3000000E-03  0.0000000E+00
  7.0000002E-03  0.0000000E+00
  7.7000000E-03  0.0000000E+00
  8.3999997E-03  0.0000000E+00
  9.1000004E-03  0.0000000E+00
  9.8000001E-03  0.0000000E+00
  1.0500000E-02  0.0000000E+00
  1.1200000E-02  0.0000000E+00
  1.1900000E-02  0.0000000E+00
  1.2600000E-02  0.0000000E+00
  1.3300000E-02  0.0000000E+00
  1.4000000E-02  0.0000000E+00
  1.4700000E-02  0.0000000E+00
  1.5400000E-02  0.0000000E+00
  1.6100001E-02  0.0000000E+00
  1.6799999E-02  0.0000000E+00
  1.7500000E-02  0.0000000E+00
  1.8200001E-02  0.0000000E+00
  1.8900000E-02  0.0000000E+00
  1.9600000E-02  0.0000000E+00
  2.0300001E-02  0.0000000E+00
  2.1000000E-02  0.0000000E+00
  2.1700000E-02  0.0000000E+00
  2.2399999E-02  0.0000000E+00
  2.3100000E-02  0.0000000E+00
  2.3800001E-02  0.0000000E+00
  2.4499999E-02  0.0000000E+00
  2.5200000E-02  0.0000000E+00
  2.5900001E-02  0.0000000E+00
  2.6600000E-02  0.0000000E+00
  2.7300000E-02  0.0000000E+00
  2.8000001E-02  0.0000000E+00
  2.8700000E-02  0.0000000E+00
  2.9400000E-02  0.0000000E+00
  3.0099999E-02  0.0000000E+00
  3.0800000E-02  0.0000000E+00
  3.1500001E-02  0.0000000E+00
  3.2200001E-02  0.0000000E+00
  3.2900002E-02  0.0000000E+00
  3.3599999E-02  0.0000000E+00
  3.4299999E-02  0.0000000E+00
  3.5000000E-02  0.0000000E+00
  3.5700001E-02  0.0000000E+00
  3.6400001E-02  0.0000000E+00
  3.7099998E-02  0.0000000E+00
  3.7799999E-02  0.0000000E+00
  3.8500000E-02  0.0000000E+00
  3.9200000E-02  0.0000000E+00
  3.9900001E-02  0.0000000E+00
  4.0600002E-02  0.0000000E+00
  4.1299999E-02  0.0000000E+00
  4.1999999E-02  0.0000000E+00
  4.2700000E-02  0.0000000E+00
  4.3400001E-02  0.0000000E+00
  4.4100001E-02  0.0000000E+00
  4.4799998E-02  0.0000000E+00
  4.5499999E-02  0.0000000E+00
  4.6200000E-02  0.0000000E+00
  4.6900000E-02  0.0000000E+00
  4.7600001E-02  0.0000000E+00
  4.8300002E-02  0.0000000E+00
  4.8999999E-02  0.0000000E+00
  4.9699999E-02  0.0000000E+00
  5.0400000E-02  0.0000000E+00
  5.1100001E-02  0.0000000E+00
  5.1800001E-02  0.0000000E+00
  5.2499998E-02  0.0000000E+00
  5.3199999E-02  0.0000000E+00
  5.3900000E-02  0.0000000E+00
  5.4600000E-02  0.0000000E+00
  5.5300001E-02  0.0000000E+00
  5.6000002E-02  0.0000000E+00
  5.6699999E-02  0.0000000E+00
  5.7399999E-02  0.0000000E+00
  5.8100000E-02  0.0000000E+00
  5.8800001E-02  0.0000000E+00
  5.9500001E-02  0.0000000E+00
  6.0199998E-02  0.0000000E+00
  6.0899999E-02  0.0000000E+00
  6.1600000E-02  0.0000000E+00
  6.2300000E-02  0.0000000E+00
  6.3000001E-02  0.0000000E+00
  6.3699998E-02  0.0000000E+00
  6.4400002E-02  0.0000000E+00
  6.5099999E-02  0.0000000E+00
  6.5800004E-02  0.0000000E+00
  6.6500001E-02  0.0000000E+00
  6.7199998E-02  0.0000000E+00
  6.7900002E-02  0.0000000E+00
  6.8599999E-02  0.0000000E+00
  6.9300003E-02  0.0000000E+00
  7.0000000E-02  0.0000000E+00
  7.0699997E-02  0.0000000E+00
  7.1400002E-02  0.0000000E+00
  7.2099999E-02  0.0000000E+00
  7.2800003E-02  0.0000000E+00
  7.3500000E-02  0.0000000E+00
  7.4199997E-02  0.0000000E+00
  7.4900001E-02  0.0000000E+00
  7.5599998E-02  0.0000000E+00
  7.6300003E-02  0.0000000E+00
  7.7000000E-02  0.0000000E+00
  7.7699997E-02  0.0000000E+00
  7.8400001E-02  0.0000000E+00
  7.9099998E-02  0.0000000E+00
  7.9800002E-02  0.0000000E+00
  8.0499999E-02  0.0000000E+00
  8.1200004E-02  0.0000000E+00
  8.1900001E-02  0.0000000E+00
  8.2599998E-02  0.0000000E+00
  8.3300002E-02  0.0000000E+00
  8.3999999E-02  0.0000000E+00
  8.4700003E-02  0.0000000E+00
  8.5400000E-02  0.0000000E+00
  8.6099997E-02  0.0000000E+00
  8.6800002E-02  0.0000000E+00
  8.7499999E-02  0.0000000E+00
  8.8200003E-02  0.0000000E+00
  8.8900000E-02  0.0000000E+00
  8.9599997E-02  0.0000000E+00
  9.0300001E-02  0.0000000E+00
  9.0999998E-02  0.0000000E+00
  9.1700003E-02  0.0000000E+00
  9.2399999E-02  0.0000000E+00
  9.3099996E-02  0.0000000E+00
  9.3800001E-02  0.0000000E+00
  9.4499998E-02  0.0000000E+00
  9.5200002E-02  0.0000000E+00
  9.5899999E-02  0.0000000E+00
  9.6600004E-02  0.0000000E+00
  9.7300000E-02  0.0000000E+00
  9.7999997E-02  0.0000000E+00
  9.8700002E-02  0.0000000E+00
  9.9399999E-02  0.0000000E+00
  0.1001000      0.0000000E+00
  0.1008000      0.0000000E+00
  0.1015000      0.0000000E+00
  0.1022000      0.0000000E+00
  0.1029000      0.0000000E+00
  0.1036000      0.0000000E+00
  0.1043000      0.0000000E+00
  0.1050000      0.0000000E+00
  0.1057000      0.0000000E+00
  0.1064000      0.0000000E+00
  0.1071000      0.0000000E+00
  0.1078000      0.0000000E+00
  0.1085000      0.0000000E+00
  0.1092000      0.0000000E+00
  0.1099000      0.0000000E+00
  0.1106000      0.0000000E+00
  0.1113000      0.0000000E+00
  0.1120000      0.0000000E+00
  0.1127000      0.0000000E+00
  0.1134000      0.0000000E+00
  0.1141000      0.0000000E+00
  0.1148000      0.0000000E+00
  0.1155000      0.0000000E+00
  0.1162000      0.0000000E+00
  0.1169000      0.0000000E+00
  0.1176000      0.0000000E+00
  0.1183000      0.0000000E+00
  0.1190000      0.0000000E+00
  0.1197000      0.0000000E+00
  0.1204000      0.0000000E+00
  0.1211000      0.0000000E+00
  0.1218000      0.0000000E+00
  0.1225000      0.0000000E+00
  0.1232000      0.0000000E+00
  0.1239000      0.0000000E+00
  0.1246000      0.0000000E+00
  0.1253000      0.0000000E+00
  0.1260000      0.0000000E+00
  0.1267000      0.0000000E+00
  0.1274000      0.0000000E+00
  0.1281000      0.0000000E+00
  0.1288000      0.0000000E+00
  0.1295000      0.0000000E+00
  0.1302000      0.0000000E+00
  0.1309000      0.0000000E+00
  0.1316000      0.0000000E+00
  0.1323000      0.0000000E+00
  0.1330000      0.0000000E+00
  0.1337000      0.0000000E+00
  0.1344000      0.0000000E+00
  0.1351000      0.0000000E+00
  0.1358000      0.0000000E+00
  0.1365000      0.0000000E+00
  0.1372000      0.0000000E+00
  0.1379000      0.0000000E+00
  0.1386000      0.0000000E+00
  0.1393000      0.0000000E+00
  0.1400000      0.0000000E+00
  0.1407000      0.0000000E+00
  0.1414000      0.0000000E+00
  0.1421000      0.0000000E+00
  0.1428000      0.0000000E+00
  0.1435000      0.0000000E+00
  0.1442000      0.0000000E+00
  0.1449000      0.0000000E+00
  0.1456000      0.0000000E+00
  0.1463000      0.0000000E+00
  0.1470000      0.0000000E+00
  0.1477000      0.0000000E+00
  0.1484000      0.0000000E+00
  0.1491000      0.0000000E+00
  0.1498000      0.0000000E+00
  0.1505000      0.0000000E+00
  0.1512000      0.0000000E+00
  0.1519000      0.0000000E+00
  0.1526000      0.0000000E+00
  0.1533000      0.0000000E+00
  0.1540000      0.0000000E+00
  0.1547000      0.0000000E+00
  0.1554000      0.0000000E+00
  0.1561000      0.0000000E+00
  0.1568000      0.0000000E+00
  0.1575000      0.0000000E+00
  0.1582000      0.0000000E+00
  0.1589000      0.0000000E+00
  0.1596000      0.0000000E+00
  0.1603000      0.0000000E+00
  0.1610000      0.0000000E+00
  0.1617000      0.0000000E+00
  0.1624000      0.0000000E+00
  0.1631000      0.0000000E+00
  0.1638000      0.0000000E+00
  0.1645000      0.0000000E+00
  0.1652000      0.0000000E+00
  0.1659000      0.0000000E+00
  0.1666000      0.0000000E+00
  0.1673000      0.0000000E+00
  0.1680000      0.0000000E+00
  0.1687000      0.0000000E+00
  0.1694000      0.0000000E+00
  0.1701000      0.0000000E+00
  0.1708000      0.0000000E+00
  0.1715000      0.0000000E+00
  0.1722000      0.0000000E+00
  0.1729000      0.0000000E+00
  0.1736000      0.0000000E+00
  0.1743000      0.0000000E+00
  0.1750000      0.0000000E+00
  0.1757000      0.0000000E+00
  0.1764000      0.0000000E+00
  0.1771000      0.0000000E+00
  0.1778000      0.0000000E+00
  0.1785000      0.0000000E+00
  0.1792000      0.0000000E+00
  0.1799000      0.0000000E+00
  0.1806000      0.0000000E+00
  0.1813000      0.0000000E+00
  0.1820000      0.0000000E+00
  0.1827000      0.0000000E+00
  0.1834000      0.0000000E+00
  0.1841000      0.0000000E+00
  0.1848000      0.0000000E+00
  0.1855000      0.0000000E+00
  0.1862000      0.0000000E+00
  0.1869000      0.0000000E+00
  0.1876000      0.0000000E+00
  0.1883000      0.0000000E+00
  0.1890000      0.0000000E+00
  0.1897000      0.0000000E+00
  0.1904000      0.0000000E+00
  0.1911000      0.0000000E+00
  0.1918000      0.0000000E+00
  0.1925000      0.0000000E+00
  0.1932000      0.0000000E+00
  0.1939000      0.0000000E+00
  0.1946000      0.0000000E+00
  0.1953000      0.0000000E+00
  0.1960000      0.0000000E+00
  0.1967000      0.0000000E+00
  0.1974000      0.0000000E+00
  0.1981000      0.0000000E+00
  0.1988000      0.0000000E+00
  0.1995000      0.0000000E+00
  0.2002000      0.0000000E+00
  0.2009000      0.0000000E+00
  0.2016000      0.0000000E+00
  0.2023000      0.0000000E+00
  0.2030000      0.0000000E+00
  0.2037000      0.0000000E+00
  0.2044000      0.0000000E+00
  0.2051000      0.0000000E+00
  0.2058000      0.0000000E+00
  0.2065000      0.0000000E+00
  0.2072000      0.0000000E+00
  0.2079000      0.0000000E+00
  0.2086000      0.0000000E+00
  0.2093000      0.0000000E+00
  0.2100000      0.0000000E+00
  0.2107000      0.0000000E+00
  0.2114000      0.0000000E+00
  0.2121000      0.0000000E+00
  0.2128000      0.0000000E+00
  0.2135000      0.0000000E+00
  0.2142000      0.0000000E+00
  0.2149000      0.0000000E+00
  0.2156000      0.0000000E+00
  0.2163000      0.0000000E+00
  0.2170000      0.0000000E+00
  0.2177000      0.0000000E+00
  0.2184000      0.0000000E+00
  0.2191000      0.0000000E+00
  0.2198000      0.0000000E+00
  0.2205000      0.0000000E+00
  0.2212000      0.0000000E+00
  0.2219000      0.0000000E+00
  0.2226000      0.0000000E+00
  0.2233000      0.0000000E+00
  0.2240000     -3.3836089E-36
  0.2247000     -3.7952314E-36
  0.2254000     -4.2129616E-36
  0.2261000     -5.4369408E-36
  0.2268000     -5.9214358E-36
  0.2275000     -6.4010776E-36
  0.2282000     -6.8309710E-36
  0.2289000     -2.8819442E-35
  0.2296000     -3.6171218E-35
  0.2303000     -4.3758555E-35
  0.2310000     -1.3283666E-36
  0.2317000     -1.6248788E-36
  0.2324000     -2.1623711E-36
  0.2331000     -1.2273689E-36
  0.2338000     -4.1361323E-36
  0.2345000     -6.1898940E-36
  0.2352000     -6.4651242E-36
  0.2359000     -5.9674218E-36
  0.2366000     -1.0330305E-35
  0.2373000     -1.6047099E-35
  0.2380000     -6.4936485E-36
  0.2387000     -1.9213673E-35
  0.2394000     -2.7858502E-35
  0.2401000     -2.4397405E-35
  0.2408000     -5.3532719E-35
  0.2415000     -1.0834794E-34
  0.2422000     -1.0861843E-34
  0.2429000     -9.6380492E-35
  0.2436000     -1.9747419E-34
  0.2443000     -1.0101228E-34
  0.2450000     -9.1653943E-35
  0.2457000     -3.7989622E-34
  0.2464000     -3.1369072E-34
  0.2471000     -3.4809917E-34
  0.2478000     -3.6773502E-34
  0.2485000     -3.7866266E-34
  0.2492000     -3.7027994E-34
  0.2499000     -3.4207806E-34
  0.2506000     -2.9363511E-34
  0.2513000     -2.3589038E-34
  0.2520000      1.4132658E-35
  0.2527000      1.3882383E-34
  0.2534000      3.5416919E-34
  0.2541000      7.6585615E-34
  0.2548000      1.0984646E-33
  0.2555000      1.4717890E-33
  0.2562000      1.9733828E-33
  0.2569000      2.4280545E-33
  0.2576000      3.0677376E-33
  0.2583000      3.5965590E-33
  0.2590000      4.2984419E-33
  0.2597000      4.4123176E-33
  0.2604000      4.9195474E-33
  0.2611000      5.5060159E-33
  0.2618000      5.9539274E-33
  0.2625000      6.7820955E-33
  0.2632000      6.9052168E-33
  0.2639000      7.2041677E-33
  0.2646000      7.4847538E-33
  0.2653000      7.5855547E-33
  0.2660000      5.4017852E-33
  0.2667000      4.7340408E-33
  0.2674000      2.9828549E-33
  0.2681000      1.6747255E-33
  0.2688000     -1.1124875E-33
  0.2695000     -3.5023086E-33
  0.2702000     -5.2152284E-33
  0.2709000     -7.8274090E-33
  0.2716000     -1.0429851E-32
  0.2723000     -1.4633494E-32
  0.2730000     -1.7842128E-32
  0.2737000     -2.1288782E-32
  0.2744000     -2.5704044E-32
  0.2751000     -2.9701336E-32
  0.2758000     -3.2067786E-32
  0.2765000     -3.7125482E-32
  0.2772000     -4.0954623E-32
  0.2779000     -4.5744210E-32
  0.2786000     -5.3121659E-32
  0.2793000     -5.4299281E-32
  0.2800000     -5.6804207E-32
  0.2807000     -5.7632642E-32
  0.2814000     -6.0133777E-32
  0.2821000     -5.9644960E-32
  0.2828000     -5.7545127E-32
  0.2835000     -6.1360100E-32
  0.2842000     -5.8627081E-32
  0.2849000     -5.6972115E-32
  0.2856000     -5.4094834E-32
  0.2863000     -4.9251803E-32
  0.2870000     -4.4126938E-32
  0.2877000     -3.3135061E-32
  0.2884000     -2.5454131E-32
  0.2891000     -1.4048236E-32
  0.2898000     -2.6393340E-33
  0.2905000      1.3641458E-32
  0.2912000      2.9475095E-32
  0.2919000      3.7244025E-32
  0.2926000      5.2738207E-32
  0.2933000      7.0259003E-32
  0.2940000      9.0825629E-32
  0.2947000      1.1319022E-31
  0.2954000      1.3642275E-31
  0.2961000      1.6289863E-31
  0.2968000      1.9057285E-31
  0.2975000      2.2070412E-31
  0.2982000      2.5669660E-31
  0.2989000      2.8986014E-31
  0.2996000      3.2638412E-31
  0.3003000      3.6271938E-31
  0.3010000      3.9615636E-31
  0.3017000      4.3084158E-31
  0.3024000      4.6736842E-31
  0.3031000      5.0368875E-31
  0.3038000      5.3597229E-31
  0.3045000      5.6727970E-31
  0.3052000      5.9428391E-31
  0.3059000      6.2706464E-31
  0.3066000      6.4969051E-31
  0.3073000      6.6680754E-31
  0.3080000      6.8319675E-31
  0.3087000      6.8557407E-31
  0.3094000      6.6638300E-31
  0.3101000      6.5130117E-31
  0.3108000      6.2236059E-31
  0.3115000      5.7780804E-31
  0.3122000      5.1912694E-31
  0.3129000      4.4454892E-31
  0.3136000      3.5281170E-31
  0.3143000      2.4263400E-31
  0.3150000      1.1339702E-31
  0.3157000     -3.6740952E-32
  0.3164000     -2.0778532E-31
  0.3171000     -4.0009916E-31
  0.3178000     -6.1459561E-31
  0.3185000     -8.5424726E-31
  0.3192000     -1.1116894E-30
  0.3199000     -1.3922390E-30
  0.3206000     -1.6913959E-30
  0.3213000     -2.0124130E-30
  0.3220000     -2.3505194E-30
  0.3227000     -2.7080864E-30
  0.3234000     -3.0766383E-30
  0.3241000     -3.4548765E-30
  0.3248000     -3.8399364E-30
  0.3255000     -4.2273673E-30
  0.3262000     -4.6134474E-30
  0.3269000     -4.9905852E-30
  0.3276000     -5.3508729E-30
  0.3283000     -5.6962681E-30
  0.3290000     -6.0125739E-30
  0.3297000     -6.2922377E-30
  0.3304000     -6.5281765E-30
  0.3311000     -6.7113332E-30
  0.3318000     -6.8324983E-30
  0.3325000     -6.8818292E-30
  0.3332000     -6.8446580E-30
  0.3339000     -6.7231453E-30
  0.3346000     -6.4966846E-30
  0.3353000     -6.1558277E-30
  0.3360000     -5.6914792E-30
  0.3367000     -5.0934813E-30
  0.3374000     -4.3520581E-30
  0.3381000     -3.4578214E-30
  0.3388000     -2.4032660E-30
  0.3395000     -1.1804741E-30
  0.3402000      2.1632225E-31
  0.3409000      1.7935507E-30
  0.3416000      3.5504330E-30
  0.3423000      5.4913529E-30
  0.3430000      7.6140865E-30
  0.3437000      9.9147114E-30
  0.3444000      1.2387050E-29
  0.3451000      1.5021962E-29
  0.3458000      1.7806577E-29
  0.3465000      2.0725194E-29
  0.3472000      2.3758103E-29
  0.3479000      2.6881086E-29
  0.3486000      3.0067056E-29
  0.3493000      3.3283909E-29
  0.3500000      3.6495006E-29
  0.3507000      3.9659857E-29
  0.3514000      4.2732952E-29
  0.3521000      4.5664678E-29
  0.3528000      4.8400961E-29
  0.3535000      5.0883117E-29
  0.3542000      5.3048982E-29
  0.3549000      5.4832279E-29
  0.3556000      5.6163710E-29
  0.3563000      5.6970284E-29
  0.3570000      5.7177706E-29
  0.3577000      5.6709549E-29
  0.3584000      5.5488178E-29
  0.3591000      5.3436232E-29
  0.3598000      5.0477098E-29
  0.3605000      4.6536179E-29
  0.3612000      4.1541987E-29
  0.3619000      3.5427370E-29
  0.3626000      2.8131014E-29
  0.3633000      1.9598856E-29
  0.3640000      9.7856553E-30
  0.3647000     -1.3436668E-30
  0.3654000     -1.3811600E-29
  0.3661000     -2.7627170E-29
  0.3668000     -4.2782843E-29
  0.3675000     -5.9256922E-29
  0.3682000     -7.7003638E-29
  0.3689000     -9.5959423E-29
  0.3696000     -1.1603724E-28
  0.3703000     -1.3712600E-28
  0.3710000     -1.5908857E-28
  0.3717000     -1.8176057E-28
  0.3724000     -2.0494954E-28
  0.3731000     -2.2843371E-28
  0.3738000     -2.5196080E-28
  0.3745000     -2.7524876E-28
  0.3752000     -2.9798453E-28
  0.3759000     -3.1982508E-28
  0.3766000     -3.4039796E-28
  0.3773000     -3.5930149E-28
  0.3780000     -3.7610870E-28
  0.3787000     -3.9036684E-28
  0.3794000     -4.0160185E-28
  0.3801000     -4.0932145E-28
  0.3808000     -4.1301847E-28
  0.3815000     -4.1217640E-28
  0.3822000     -4.0627367E-28
  0.3829000     -3.9479024E-28
  0.3836000     -3.7721444E-28
  0.3843000     -3.5304954E-28
  0.3850000     -3.2182239E-28
  0.3857000     -2.8309155E-28
  0.3864000     -2.3645687E-28
  0.3871000     -1.8156892E-28
  0.3878000     -1.1813901E-28
  0.3885000     -4.5950763E-29
  0.3892000      3.5130268E-29
  0.3899000      1.2514438E-28
  0.3906000      2.2402718E-28
  0.3913000      3.3159733E-28
  0.3920000      4.4754683E-28
  0.3927000      5.7143016E-28
  0.3934000      7.0265277E-28
  0.3941000      8.4046244E-28
  0.3948000      9.8394172E-28
  0.3955000      1.1319985E-27
  0.3962000      1.2833613E-27
  0.3969000      1.4365758E-27
  0.3976000      1.5899977E-27
  0.3983000      1.7417985E-27
  0.3990000      1.8899624E-27
  0.3997000      2.0322915E-27
  0.4004000      2.1664139E-27
  0.4011000      2.2897936E-27
  0.4018000      2.3997395E-27
  0.4025000      2.4934300E-27
  0.4032000      2.5679244E-27
  0.4039000      2.6201936E-27
  0.4046000      2.6471426E-27
  0.4053000      2.6456426E-27
  0.4060000      2.6125688E-27
  0.4067000      2.5448362E-27
  0.4074000      2.4394462E-27
  0.4081000      2.2935270E-27
  0.4088000      2.1043887E-27
  0.4095000      1.8695722E-27
  0.4102000      1.5869094E-27
  0.4109000      1.2545741E-27
  0.4116000      8.7115011E-28
  0.4123000      4.3568724E-28
  0.4130000     -5.2239008E-29
  0.4137000     -5.9245606E-28
  0.4144000     -1.1841475E-27
  0.4151000     -1.8257723E-27
  0.4158000     -2.5150413E-27
  0.4165000     -3.2488250E-27
  0.4172000     -4.0231409E-27
  0.4179000     -4.8330781E-27
  0.4186000     -5.6727981E-27
  0.4193000     -6.5354738E-27
  0.4200000     -7.4132895E-27
  0.4207000     -8.2974354E-27
  0.4214000     -9.1780954E-27
  0.4221000     -1.0044496E-26
  0.4228000     -1.0884892E-26
  0.4235000     -1.1686665E-26
  0.4242000     -1.2436337E-26
  0.4249000     -1.3119689E-26
  0.4256000     -1.3721849E-26
  0.4263000     -1.4227368E-26
  0.4270000     -1.4620432E-26
  0.4277000     -1.4884933E-26
  0.4284000     -1.5004689E-26
  0.4291000     -1.4963630E-26
  0.4298000     -1.4745989E-26
  0.4305000     -1.4336515E-26
  0.4312000     -1.3720761E-26
  0.4319000     -1.2885303E-26
  0.4326000     -1.1817971E-26
  0.4333000     -1.0508207E-26
  0.4340000     -8.9472758E-27
  0.4347000     -7.1285963E-27
  0.4354000     -5.0479880E-27
  0.4361000     -2.7039952E-27
  0.4368000     -9.8148231E-29
  0.4375000      2.7647385E-27
  0.4382000      5.8764063E-27
  0.4389000      9.2247907E-27
  0.4396000      1.2793883E-26
  0.4403000      1.6563586E-26
  0.4410000      2.0509490E-26
  0.4417000      2.4602789E-26
  0.4424000      2.8810282E-26
  0.4431000      3.3094283E-26
  0.4438000      3.7412770E-26
  0.4445000      4.1719322E-26
  0.4452000      4.5963520E-26
  0.4459000      5.0090985E-26
  0.4466000      5.4043788E-26
  0.4473000      5.7760796E-26
  0.4480000      6.1178185E-26
  0.4487000      6.4229868E-26
  0.4494000      6.6848246E-26
  0.4501000      6.8964723E-26
  0.4508000      7.0510668E-26
  0.4515000      7.1418024E-26
  0.4522000      7.1620380E-26
  0.4529000      7.1053854E-26
  0.4536000      6.9658020E-26
  0.4543000      6.7377128E-26
  0.4550000      6.4160960E-26
  0.4557000      5.9966223E-26
  0.4564000      5.4757344E-26
  0.4571000      4.8507717E-26
  0.4578000      4.1200954E-26
  0.4585000      3.2831605E-26
  0.4592000      2.3406441E-26
  0.4599000      1.2945254E-26
  0.4606000      1.4816194E-27
  0.4613000     -1.0936161E-26
  0.4620000     -2.4244660E-26
  0.4627000     -3.8364694E-26
  0.4634000     -5.3201346E-26
  0.4641000     -6.8643379E-26
  0.4648000     -8.4563868E-26
  0.4655000     -1.0082010E-25
  0.4662000     -1.1725444E-25
  0.4669000     -1.3369468E-25
  0.4676000     -1.4995569E-25
  0.4683000     -1.6584023E-25
  0.4690000     -1.8114103E-25
  0.4697000     -1.9564197E-25
  0.4704000     -2.0912059E-25
  0.4711000     -2.2135077E-25
  0.4718000     -2.3210462E-25
  0.4725000     -2.4115599E-25
  0.4732000     -2.4828312E-25
  0.4739000     -2.5327218E-25
  0.4746000     -2.5592043E-25
  0.4753000     -2.5604004E-25
  0.4760000     -2.5346108E-25
  0.4767000     -2.4803623E-25
  0.4774000     -2.3964354E-25
  0.4781000     -2.2819022E-25
  0.4788000     -2.1361624E-25
  0.4795000     -1.9589756E-25
  0.4802000     -1.7504904E-25
  0.4809000     -1.5112747E-25
  0.4816000     -1.2423349E-25
  0.4823000     -9.4513604E-26
  0.4830000     -6.2162042E-26
  0.4837000     -2.7420864E-26
  0.4844000      9.4195724E-27
  0.4851000      4.8020786E-26
  0.4858000      8.7997828E-26
  0.4865000      1.2892170E-25
  0.4872000      1.7032132E-25
  0.4879000      2.1168819E-25
  0.4886000      2.5248028E-25
  0.4893000      2.9212890E-25
  0.4900000      3.3004348E-25
  0.4907000      3.6562012E-25
  0.4914000      3.9824960E-25
  0.4921000      4.2732585E-25
  0.4928000      4.5225637E-25
  0.4935000      4.7247236E-25
  0.4942000      4.8743982E-25
  0.4949000      4.9667062E-25
  0.4956000      4.9973466E-25
  0.4963000      4.9627195E-25
  0.4970000      4.8600350E-25
  0.4977000      4.6874391E-25
  0.4984000      4.4441302E-25
  0.4991000      4.1304501E-25
  0.4998000      3.7480064E-25
  0.5005000      3.2997376E-25
  0.5012000      2.7900085E-25
  0.5019000      2.2246474E-25
  0.5026000      1.6110255E-25
  0.5033000      9.5803552E-26
  0.5040000      2.7612239E-26
  0.5047000     -4.2275786E-26
  0.5054000     -1.1251781E-25
  0.5061000     -1.8163333E-25
  0.5068000     -2.4801432E-25
  0.5075000     -3.0993837E-25
  0.5082000     -3.6558856E-25
  0.5089000     -4.1307254E-25
  0.5096000     -4.5044816E-25
  0.5103000     -4.7574850E-25
  0.5110000     -4.8701472E-25
  0.5117000     -4.8232903E-25
  0.5124000     -4.5985212E-25
  0.5131000     -4.1786011E-25
  0.5138000     -3.5478935E-25
  0.5145000     -2.6927799E-25
  0.5152000     -1.6021006E-25
  0.5159000     -2.6765277E-26
  0.5166000      1.3153940E-25
  0.5173000      3.1480276E-25
  0.5180000      5.2268873E-25
  0.5187000      7.5439271E-25
  0.5194000      1.0085920E-24
  0.5201000      1.2834179E-24
  0.5208000      1.5764143E-24
  0.5215000      1.8845108E-24
  0.5222000      2.2040111E-24
  0.5229000      2.5305654E-24
  0.5236000      2.8591768E-24
  0.5243000      3.1841966E-24
  0.5250000      3.4993385E-24
  0.5257000      3.7977038E-24
  0.5264000      4.0718152E-24
  0.5271000      4.3136677E-24
  0.5278000      4.5147851E-24
  0.5285000      4.6662925E-24
  0.5292000      4.7590054E-24
  0.5299000      4.7835314E-24
  0.5306000      4.7303827E-24
  0.5313000      4.5901067E-24
  0.5320000      4.3534149E-24
  0.5327000      4.0113545E-24
  0.5334000      3.5554553E-24
  0.5341000      2.9779221E-24
  0.5348000      2.2717960E-24
  0.5355000      1.4311705E-24
  0.5362000      4.5137364E-25
  0.5369000     -6.7082483E-25
  0.5376000     -1.9370164E-24
  0.5383000     -3.3469613E-24
  0.5390000     -4.8983663E-24
  0.5397000     -6.5867176E-24
  0.5404000     -8.4050968E-24
  0.5411000     -1.0344014E-23
  0.5418000     -1.2391272E-23
  0.5425000     -1.4531843E-23
  0.5432000     -1.6747727E-23
  0.5439000     -1.9017931E-23
  0.5446000     -2.1318420E-23
  0.5453000     -2.3622083E-23
  0.5460000     -2.5898815E-23
  0.5467000     -2.8115567E-23
  0.5474000     -3.0236448E-23
  0.5481000     -3.2222986E-23
  0.5488000     -3.4034252E-23
  0.5495000     -3.5627193E-23
  0.5502000     -3.6957010E-23
  0.5509000     -3.7977443E-23
  0.5516000     -3.8641275E-23
  0.5523000     -3.8900883E-23
  0.5530000     -3.8708729E-23
  0.5537000     -3.8017996E-23
  0.5544000     -3.6783240E-23
  0.5551000     -3.4961107E-23
  0.5558000     -3.2511078E-23
  0.5565000     -2.9396264E-23
  0.5572000     -2.5584245E-23
  0.5579000     -2.1047864E-23
  0.5586000     -1.5766083E-23
  0.5593000     -9.7249597E-24
  0.5600000     -2.9182894E-24
  0.5607000      4.6513286E-24
  0.5614000      1.2971843E-23
  0.5621000      2.2020943E-23
  0.5628000      3.1765144E-23
  0.5635000      4.2159485E-23
  0.5642000      5.3146689E-23
  0.5649000      6.4656801E-23
  0.5656000      7.6606743E-23
  0.5663000      8.8900150E-23
  0.5670000      1.0142722E-22
  0.5677000      1.1406477E-22
  0.5684000      1.2667641E-22
  0.5691000      1.3911313E-22
  0.5698000      1.5121359E-22
  0.5705000      1.6280496E-22
  0.5712000      1.7370423E-22
  0.5719000      1.8371875E-22
  0.5726000      1.9264849E-22
  0.5733000      2.0028696E-22
  0.5740000      2.0642330E-22
  0.5747000      2.1084450E-22
  0.5754000      2.1333765E-22
  0.5761000      2.1369209E-22
  0.5768000      2.1170256E-22
  0.5775000      2.0717176E-22
  0.5782000      1.9991350E-22
  0.5789000      1.8975583E-22
  0.5796000      1.7654427E-22
  0.5803000      1.6014511E-22
  0.5810000      1.4044893E-22
  0.5817000      1.1737396E-22
  0.5824000      9.0869689E-23
  0.5831000      6.0919865E-23
  0.5838000      2.7545802E-23
  0.5845000     -9.1901854E-24
  0.5852000     -4.9182600E-23
  0.5859000     -9.2279213E-23
  0.5866000     -1.3827971E-22
  0.5873000     -1.8693304E-22
  0.5880000     -2.3793590E-22
  0.5887000     -2.9093198E-22
  0.5894000     -3.4551156E-22
  0.5901000     -4.0121059E-22
  0.5908000     -4.5751231E-22
  0.5915000     -5.1384759E-22
  0.5922000     -5.6959776E-22
  0.5929000     -6.2409656E-22
  0.5936000     -6.7663384E-22
  0.5943000     -7.2645966E-22
  0.5950000     -7.7279036E-22
  0.5957000     -8.1481269E-22
  0.5964000     -8.5169109E-22
  0.5971000     -8.8257607E-22
  0.5978000     -9.0661116E-22
  0.5985000     -9.2294313E-22
  0.5992000     -9.3073076E-22
  0.5999000     -9.2915597E-22
  0.6006000     -9.1743408E-22
  0.6013000     -8.9482615E-22
  0.6020000     -8.6065083E-22
  0.6027000     -8.1429691E-22
  0.6034000     -7.5523483E-22
  0.6041000     -6.8303137E-22
  0.6048000     -5.9736041E-22
  0.6055000     -4.9801720E-22
  0.6062000     -3.8493057E-22
  0.6069000     -2.5817282E-22
  0.6076000     -1.1797339E-22
  0.6083000      3.5271448E-23
  0.6090000      2.0099058E-22
  0.6097000      3.7842619E-22
  0.6104000      5.6663286E-22
  0.6111000      7.6446473E-22
  0.6118000      9.7057690E-22
  0.6125000      1.1834227E-21
  0.6132000      1.4012538E-21
  0.6139000      1.6221213E-21
  0.6146000      1.8438823E-21
  0.6153000      2.0642084E-21
  0.6160000      2.2805921E-21
  0.6167000      2.4903619E-21
  0.6174000      2.6907004E-21
  0.6181000      2.8786566E-21
  0.6188000      3.0511742E-21
  0.6195000      3.2051124E-21
  0.6202000      3.3372705E-21
  0.6209000      3.4444249E-21
  0.6216000      3.5233556E-21
  0.6223000      3.5708866E-21
  0.6230000      3.5839171E-21
  0.6237000      3.5594680E-21
  0.6244000      3.4947226E-21
  0.6251000      3.3870643E-21
  0.6258000      3.2341312E-21
  0.6265000      3.0338471E-21
  0.6272000      2.7844889E-21
  0.6279000      2.4847110E-21
  0.6286000      2.1336052E-21
  0.6293000      1.7307361E-21
  0.6300000      1.2761973E-21
  0.6307000      7.7063587E-22
  0.6314000      2.1530574E-22
  0.6321000     -3.8790871E-22
  0.6328000     -1.0364572E-21
  0.6335000     -1.7270935E-21
  0.6342000     -2.4558597E-21
  0.6349000     -3.2180698E-21
  0.6356000     -4.0082959E-21
  0.6363000     -4.8203813E-21
  0.6370000     -5.6474250E-21
  0.6377000     -6.4818135E-21
  0.6384000     -7.3152380E-21
  0.6391000     -8.1387278E-21
  0.6398000     -8.9426851E-21
  0.6405000     -9.7169512E-21
  0.6412000     -1.0450858E-20
  0.6419000     -1.1133299E-20
  0.6426000     -1.1752808E-20
  0.6433000     -1.2297676E-20
  0.6440000     -1.2756031E-20
  0.6447000     -1.3115941E-20
  0.6454000     -1.3365556E-20
  0.6461000     -1.3493251E-20
  0.6468000     -1.3487722E-20
  0.6475000     -1.3338163E-20
  0.6482000     -1.3034425E-20
  0.6489000     -1.2567134E-20
  0.6496000     -1.1927892E-20
  0.6503000     -1.1109435E-20
  0.6510000     -1.0105756E-20
  0.6517000     -8.9123533E-21
  0.6524000     -7.5263015E-21
  0.6531000     -5.9464641E-21
  0.6538000     -4.1736456E-21
  0.6545000     -2.2107066E-21
  0.6552000     -6.2732314E-23
  0.6559000      2.2628871E-21
  0.6566000      4.7562845E-21
  0.6573000      7.4051074E-21
  0.6580000      1.0194352E-20
  0.6587000      1.3106430E-20
  0.6594000      1.6121013E-20
  0.6601000      1.9215108E-20
  0.6608000      2.2363075E-20
  0.6615000      2.5536668E-20
  0.6622000      2.8705119E-20
  0.6629000      3.1835254E-20
  0.6636000      3.4891632E-20
  0.6643000      3.7836795E-20
  0.6650000      4.0631399E-20
  0.6657000      4.3234508E-20
  0.6664000      4.5603921E-20
  0.6671000      4.7696443E-20
  0.6678000      4.9468286E-20
  0.6685000      5.0875433E-20
  0.6692000      5.1874134E-20
  0.6699000      5.2421272E-20
  0.6706000      5.2474962E-20
  0.6713000      5.1994961E-20
  0.6720000      5.0943259E-20
  0.6727000      4.9284678E-20
  0.6734000      4.6987319E-20
  0.6741000      4.4023318E-20
  0.6748000      4.0369267E-20
  0.6755000      3.6006920E-20
  0.6762000      3.0923685E-20