  0.0000000E+00  0.0000000E+00
  6.9999998E-04  0.0000000E+00
  1.4000000E-03  0.0000000E+00
  2.0999999E-03  0.0000000E+00
  2.7999999E-03  0.0000000E+00
  3.5000001E-03  0.0000000E+00
  4.1999999E-03  0.0000000E+00
  4.9000001E-03  0.0000000E+00
  5.5999998E-03  0.0000000E+00
  6.3000000E-03  0.0000000E+00
  7.0000002E-03  0.0000000E+00
  7.7000000E-03  0.0000000E+00
  8.3999997E-03  0.0000000E+00
  9.1000004E-03  0.0000000E+00
  9.8000001E-03  0.0000000E+00
  1.0500000E-02  0.0000000E+00
  1.1200000E-02  0.0000000E+00
  1.1900000E-02  0.0000000E+00
  1.2600000E-02  0.0000000E+00
  1.3300000E-02  0.0000000E+00
  1.4000000E-02  0.0000000E+00
  1.4700000E-02  0.0000000E+00
  1.5400000E-02  0.0000000E+00
  1.6100001E-02  0.0000000E+00
  1.6799999E-02  0.0000000E+00
  1.7500000E-02  0.0000000E+00
  1.8200001E-02  0.0000000E+00
  1.8900000E-02  0.0000000E+00
  1.9600000E-02  0.0000000E+00
  2.0300001E-02  0.0000000E+00
  2.1000000E-02  0.0000000E+00
  2.1700000E-02  0.0000000E+00
  2.2399999E-02  0.0000000E+00
  2.3100000E-02  0.0000000E+00
  2.3800001E-02  0.0000000E+00
  2.4499999E-02  0.0000000E+00
  2.5200000E-02  0.0000000E+00
  2.5900001E-02  0.0000000E+00
  2.6600000E-02  0.0000000E+00
  2.7300000E-02  0.0000000E+00
  2.8000001E-02  0.0000000E+00
  2.8700000E-02  0.0000000E+00
  2.9400000E-02  0.0000000E+00
  3.0099999E-02  0.0000000E+00
  3.0800000E-02  0.0000000E+00
  3.1500001E-02  0.0000000E+00
  3.2200001E-02  0.0000000E+00
  3.2900002E-02  0.0000000E+00
  3.3599999E-02  0.0000000E+00
  3.4299999E-02  0.0000000E+00
  3.5000000E-02  0.0000000E+00
  3.5700001E-02  0.0000000E+00
  3.6400001E-02  0.0000000E+00
  3.7099998E-02  0.0000000E+00
  3.7799999E-02  0.0000000E+00
  3.8500000E-02  0.0000000E+00
  3.9200000E-02  0.0000000E+00
  3.9900001E-02  0.0000000E+00
  4.0600002E-02  0.0000000E+00
  4.1299999E-02  0.0000000E+00
  4.1999999E-02  0.0000000E+00
  4.2700000E-02  0.0000000E+00
  4.3400001E-02  0.0000000E+00
  4.4100001E-02  0.0000000E+00
  4.4799998E-02  0.0000000E+00
  4.5499999E-02  0.0000000E+00
  4.6200000E-02  0.0000000E+00
  4.6900000E-02  0.0000000E+00
  4.7600001E-02  0.0000000E+00
  4.8300002E-02  0.0000000E+00
  4.8999999E-02  0.0000000E+00
  4.9699999E-02  0.0000000E+00
  5.0400000E-02  0.0000000E+00
  5.1100001E-02  0.0000000E+00
  5.1800001E-02  0.0000000E+00
  5.2499998E-02  0.0000000E+00
  5.3199999E-02  0.0000000E+00
  5.3900000E-02  0.0000000E+00
  5.4600000E-02  0.0000000E+00
  5.5300001E-02  0.0000000E+00
  5.6000002E-02  0.0000000E+00
  5.6699999E-02  0.0000000E+00
  5.7399999E-02  0.0000000E+00
  5.8100000E-02  0.0000000E+00
  5.8800001E-02  0.0000000E+00
  5.9500001E-02  0.0000000E+00
  6.0199998E-02  0.0000000E+00
  6.0899999E-02  0.0000000E+00
  6.1600000E-02  0.0000000E+00
  6.2300000E-02  0.0000000E+00
  6.3000001E-02  0.0000000E+00
  6.3699998E-02  0.0000000E+00
  6.4400002E-02  0.0000000E+00
  6.5099999E-02  0.0000000E+00
  6.5800004E-02  0.0000000E+00
  6.6500001E-02  0.0000000E+00
  6.7199998E-02  0.0000000E+00
  6.7900002E-02  0.0000000E+00
  6.8599999E-02  0.0000000E+00
  6.9300003E-02  0.0000000E+00
  7.0000000E-02  0.0000000E+00
  7.0699997E-02  0.0000000E+00
  7.1400002E-02  0.0000000E+00
  7.2099999E-02  0.0000000E+00
  7.2800003E-02  0.0000000E+00
  7.3500000E-02  0.0000000E+00
  7.4199997E-02  0.0000000E+00
  7.4900001E-02  0.0000000E+00
  7.5599998E-02  0.0000000E+00
  7.6300003E-02  0.0000000E+00
  7.7000000E-02  0.0000000E+00
  7.7699997E-02  0.0000000E+00
  7.8400001E-02  0.0000000E+00
  7.9099998E-02  0.0000000E+00
  7.9800002E-02  0.0000000E+00
  8.0499999E-02  0.0000000E+00
  8.1200004E-02  0.0000000E+00
  8.1900001E-02  0.0000000E+00
  8.2599998E-02  0.0000000E+00
  8.3300002E-02  0.0000000E+00
  8.3999999E-02  0.0000000E+00
  8.4700003E-02  0.0000000E+00
  8.5400000E-02  0.0000000E+00
  8.6099997E-02  0.0000000E+00
  8.6800002E-02  0.0000000E+00
  8.7499999E-02  0.0000000E+00
  8.8200003E-02  0.0000000E+00
  8.8900000E-02  0.0000000E+00
  8.9599997E-02  0.0000000E+00
  9.0300001E-02  0.0000000E+00
  9.0999998E-02  0.0000000E+00
  9.1700003E-02  0.0000000E+00
  9.2399999E-02  0.0000000E+00
  9.3099996E-02  0.0000000E+00
  9.3800001E-02  0.0000000E+00
  9.4499998E-02  0.0000000E+00
  9.5200002E-02  0.0000000E+00
  9.5899999E-02  0.0000000E+00
  9.6600004E-02  0.0000000E+00
  9.7300000E-02  0.0000000E+00
  9.7999997E-02  0.0000000E+00
  9.8700002E-02  0.0000000E+00
  9.9399999E-02  0.0000000E+00
  0.1001000      0.0000000E+00
  0.1008000      0.0000000E+00
  0.1015000      0.0000000E+00
  0.1022000      0.0000000E+00
  0.1029000      0.0000000E+00
  0.1036000      0.0000000E+00
  0.1043000      0.0000000E+00
  0.1050000      0.0000000E+00
  0.1057000      0.0000000E+00
  0.1064000      0.0000000E+00
  0.1071000      0.0000000E+00
  0.1078000      0.0000000E+00
  0.1085000      0.0000000E+00
  0.1092000      0.0000000E+00
  0.1099000      0.0000000E+00
  0.1106000      0.0000000E+00
  0.1113000      0.0000000E+00
  0.1120000      0.0000000E+00
  0.1127000      0.0000000E+00
  0.1134000      0.0000000E+00
  0.1141000      0.0000000E+00
  0.1148000      0.0000000E+00
  0.1155000      0.0000000E+00
  0.1162000      0.0000000E+00
  0.1169000      0.0000000E+00
  0.1176000      0.0000000E+00
  0.1183000      0.0000000E+00
  0.1190000      0.0000000E+00
  0.1197000      0.0000000E+00
  0.1204000      0.0000000E+00
  0.1211000      0.0000000E+00
  0.1218000      0.0000000E+00
  0.1225000      0.0000000E+00
  0.1232000      0.0000000E+00
  0.1239000      0.0000000E+00
  0.1246000      0.0000000E+00
  0.1253000      0.0000000E+00
  0.1260000      0.0000000E+00
  0.1267000      0.0000000E+00
  0.1274000      0.0000000E+00
  0.1281000      0.0000000E+00
  0.1288000      0.0000000E+00
  0.1295000      0.0000000E+00
  0.1302000      0.0000000E+00
  0.1309000      0.0000000E+00
  0.1316000      0.0000000E+00
  0.1323000      0.0000000E+00
  0.1330000      0.0000000E+00
  0.1337000      0.0000000E+00
  0.1344000      0.0000000E+00
  0.1351000      0.0000000E+00
  0.1358000      0.0000000E+00
  0.1365000      0.0000000E+00
  0.1372000      0.0000000E+00
  0.1379000      0.0000000E+00
  0.1386000      0.0000000E+00
  0.1393000      0.0000000E+00
  0.1400000      0.0000000E+00
  0.1407000      0.0000000E+00
  0.1414000      0.0000000E+00
  0.1421000      0.0000000E+00
  0.1428000      0.0000000E+00
  0.1435000      0.0000000E+00
  0.1442000      0.0000000E+00
  0.1449000      0.0000000E+00
  0.1456000      0.0000000E+00
  0.1463000      0.0000000E+00
  0.1470000      0.0000000E+00
  0.1477000      0.0000000E+00
  0.1484000      0.0000000E+00
  0.1491000      0.0000000E+00
  0.1498000      0.0000000E+00
  0.1505000      0.0000000E+00
  0.1512000      0.0000000E+00
  0.1519000      0.0000000E+00
  0.1526000      0.0000000E+00
  0.1533000      0.0000000E+00
  0.1540000      0.0000000E+00
  0.1547000      0.0000000E+00
  0.1554000      0.0000000E+00
  0.1561000      0.0000000E+00
  0.1568000      0.0000000E+00
  0.1575000      0.0000000E+00
  0.1582000      0.0000000E+00
  0.1589000      0.0000000E+00
  0.1596000      0.0000000E+00
  0.1603000      0.0000000E+00
  0.1610000      0.0000000E+00
  0.1617000      0.0000000E+00
  0.1624000      0.0000000E+00
  0.1631000      0.0000000E+00
  0.1638000      0.0000000E+00
  0.1645000      0.0000000E+00
  0.1652000      0.0000000E+00
  0.1659000      0.0000000E+00
  0.1666000      0.0000000E+00
  0.1673000      0.0000000E+00
  0.1680000      0.0000000E+00
  0.1687000      0.0000000E+00
  0.1694000      0.0000000E+00
  0.1701000      0.0000000E+00
  0.1708000      0.0000000E+00
  0.1715000      0.0000000E+00
  0.1722000      0.0000000E+00
  0.1729000      0.0000000E+00
  0.1736000      0.0000000E+00
  0.1743000      0.0000000E+00
  0.1750000      0.0000000E+00
  0.1757000      0.0000000E+00
  0.1764000      0.0000000E+00
  0.1771000      0.0000000E+00
  0.1778000      0.0000000E+00
  0.1785000      0.0000000E+00
  0.1792000      0.0000000E+00
  0.1799000      0.0000000E+00
  0.1806000      0.0000000E+00
  0.1813000      0.0000000E+00
  0.1820000      0.0000000E+00
  0.1827000      0.0000000E+00
  0.1834000      0.0000000E+00
  0.1841000      0.0000000E+00
  0.1848000      0.0000000E+00
  0.1855000      0.0000000E+00
  0.1862000      0.0000000E+00
  0.1869000      0.0000000E+00
  0.1876000      0.0000000E+00
  0.1883000      0.0000000E+00
  0.1890000      0.0000000E+00
  0.1897000      0.0000000E+00
  0.1904000      0.0000000E+00
  0.1911000      0.0000000E+00
  0.1918000      0.0000000E+00
  0.1925000      0.0000000E+00
  0.1932000      0.0000000E+00
  0.1939000      0.0000000E+00
  0.1946000      0.0000000E+00
  0.1953000      0.0000000E+00
  0.1960000      0.0000000E+00
  0.1967000      0.0000000E+00
  0.1974000      0.0000000E+00
  0.1981000      0.0000000E+00
  0.1988000      0.0000000E+00
  0.1995000      0.0000000E+00
  0.2002000      0.0000000E+00
  0.2009000      0.0000000E+00
  0.2016000      0.0000000E+00
  0.2023000      0.0000000E+00
  0.2030000      0.0000000E+00
  0.2037000      0.0000000E+00
  0.2044000      0.0000000E+00
  0.2051000      0.0000000E+00
  0.2058000      0.0000000E+00
  0.2065000      0.0000000E+00
  0.2072000      0.0000000E+00
  0.2079000      0.0000000E+00
  0.2086000      0.0000000E+00
  0.2093000      0.0000000E+00
  0.2100000      0.0000000E+00
  0.2107000      0.0000000E+00
  0.2114000      0.0000000E+00
  0.2121000      0.0000000E+00
  0.2128000      0.0000000E+00
  0.2135000      0.0000000E+00
  0.2142000      0.0000000E+00
  0.2149000      0.0000000E+00
  0.2156000      0.0000000E+00
  0.2163000      0.0000000E+00
  0.2170000      0.0000000E+00
  0.2177000      0.0000000E+00
  0.2184000      0.0000000E+00
  0.2191000      0.0000000E+00
  0.2198000      0.0000000E+00
  0.2205000      0.0000000E+00
  0.2212000      0.0000000E+00
  0.2219000      0.0000000E+00
  0.2226000      0.0000000E+00
  0.2233000      0.0000000E+00
  0.2240000      0.0000000E+00
  0.2247000      0.0000000E+00
  0.2254000      0.0000000E+00
  0.2261000      0.0000000E+00
  0.2268000      0.0000000E+00
  0.2275000      0.0000000E+00
  0.2282000      0.0000000E+00
  0.2289000      0.0000000E+00
  0.2296000      0.0000000E+00
  0.2303000      0.0000000E+00
  0.2310000      0.0000000E+00
  0.2317000      0.0000000E+00
  0.2324000      0.0000000E+00
  0.2331000      0.0000000E+00
  0.2338000      0.0000000E+00
  0.2345000      0.0000000E+00
  0.2352000      0.0000000E+00
  0.2359000      0.0000000E+00
  0.2366000      0.0000000E+00
  0.2373000      0.0000000E+00
  0.2380000      0.0000000E+00
  0.2387000      0.0000000E+00
  0.2394000      0.0000000E+00
  0.2401000      0.0000000E+00
  0.2408000      0.0000000E+00
  0.2415000      0.0000000E+00
  0.2422000      0.0000000E+00
  0.2429000      0.0000000E+00
  0.2436000      0.0000000E+00
  0.2443000      0.0000000E+00
  0.2450000      0.0000000E+00
  0.2457000      0.0000000E+00
  0.2464000      0.0000000E+00
  0.2471000      0.0000000E+00
  0.2478000      0.0000000E+00
  0.2485000      0.0000000E+00
  0.2492000      0.0000000E+00
  0.2499000      0.0000000E+00
  0.2506000      0.0000000E+00
  0.2513000      0.0000000E+00
  0.2520000      0.0000000E+00
  0.2527000      0.0000000E+00
  0.2534000      0.0000000E+00
  0.2541000      0.0000000E+00
  0.2548000      0.0000000E+00
  0.2555000      0.0000000E+00
  0.2562000      0.0000000E+00
  0.2569000      0.0000000E+00
  0.2576000      0.0000000E+00
  0.2583000      0.0000000E+00
  0.2590000      0.0000000E+00
  0.2597000      0.0000000E+00
  0.2604000      0.0000000E+00
  0.2611000      0.0000000E+00
  0.2618000      0.0000000E+00
  0.2625000      0.0000000E+00
  0.2632000      0.0000000E+00
  0.2639000      0.0000000E+00
  0.2646000      0.0000000E+00
  0.2653000      0.0000000E+00
  0.2660000      0.0000000E+00
  0.2667000      0.0000000E+00
  0.2674000      0.0000000E+00
  0.2681000      0.0000000E+00
  0.2688000      0.0000000E+00
  0.2695000      0.0000000E+00
  0.2702000      0.0000000E+00
  0.2709000      0.0000000E+00
  0.2716000      0.0000000E+00
  0.2723000      0.0000000E+00
  0.2730000      0.0000000E+00
  0.2737000      0.0000000E+00
  0.2744000      0.0000000E+00
  0.2751000      0.0000000E+00
  0.2758000      0.0000000E+00
  0.2765000      0.0000000E+00
  0.2772000      0.0000000E+00
  0.2779000      0.0000000E+00
  0.2786000      0.0000000E+00
  0.2793000      0.0000000E+00
  0.2800000      0.0000000E+00
  0.2807000      0.0000000E+00
  0.2814000      0.0000000E+00
  0.2821000      0.0000000E+00
  0.2828000      0.0000000E+00
  0.2835000      0.0000000E+00
  0.2842000      0.0000000E+00
  0.2849000      0.0000000E+00
  0.2856000      0.0000000E+00
  0.2863000      0.0000000E+00
  0.2870000      0.0000000E+00
  0.2877000      0.0000000E+00
  0.2884000      0.0000000E+00
  0.2891000      0.0000000E+00
  0.2898000      0.0000000E+00
  0.2905000      0.0000000E+00
  0.2912000      0.0000000E+00
  0.2919000      0.0000000E+00
  0.2926000      0.0000000E+00
  0.2933000      0.0000000E+00
  0.2940000      0.0000000E+00
  0.2947000      0.0000000E+00
  0.2954000      0.0000000E+00
  0.2961000      0.0000000E+00
  0.2968000      0.0000000E+00
  0.2975000      0.0000000E+00
  0.2982000      0.0000000E+00
  0.2989000      0.0000000E+00
  0.2996000      0.0000000E+00
  0.3003000      0.0000000E+00
  0.3010000      0.0000000E+00
  0.3017000      0.0000000E+00
  0.3024000      0.0000000E+00
  0.3031000      0.0000000E+00
  0.3038000      0.0000000E+00
  0.3045000      0.0000000E+00
  0.3052000      0.0000000E+00
  0.3059000      0.0000000E+00
  0.3066000      0.0000000E+00
  0.3073000      0.0000000E+00
  0.3080000      0.0000000E+00
  0.3087000      0.0000000E+00
  0.3094000      0.0000000E+00
  0.3101000      0.0000000E+00
  0.3108000      0.0000000E+00
  0.3115000      0.0000000E+00
  0.3122000      0.0000000E+00
  0.3129000      0.0000000E+00
  0.3136000      0.0000000E+00
  0.3143000      0.0000000E+00
  0.3150000      0.0000000E+00
  0.3157000      0.0000000E+00
  0.3164000      0.0000000E+00
  0.3171000      0.0000000E+00
  0.3178000      0.0000000E+00
  0.3185000      0.0000000E+00
  0.3192000      0.0000000E+00
  0.3199000      0.0000000E+00
  0.3206000      0.0000000E+00
  0.3213000      0.0000000E+00
  0.3220000      0.0000000E+00
  0.3227000      0.0000000E+00
  0.3234000      0.0000000E+00
  0.3241000      0.0000000E+00
  0.3248000      0.0000000E+00
  0.3255000      0.0000000E+00
  0.3262000      0.0000000E+00
  0.3269000      0.0000000E+00
  0.3276000      0.0000000E+00
  0.3283000      0.0000000E+00
  0.3290000      0.0000000E+00
  0.3297000      0.0000000E+00
  0.3304000      0.0000000E+00
  0.3311000      0.0000000E+00
  0.3318000      0.0000000E+00
  0.3325000      0.0000000E+00
  0.3332000      0.0000000E+00
  0.3339000      0.0000000E+00
  0.3346000      0.0000000E+00
  0.3353000      0.0000000E+00
  0.3360000      0.0000000E+00
  0.3367000      0.0000000E+00
  0.3374000      0.0000000E+00
  0.3381000      0.0000000E+00
  0.3388000      0.0000000E+00
  0.3395000      0.0000000E+00
  0.3402000      0.0000000E+00
  0.3409000      0.0000000E+00
  0.3416000      0.0000000E+00
  0.3423000      0.0000000E+00
  0.3430000      0.0000000E+00
  0.3437000      0.0000000E+00
  0.3444000      0.0000000E+00
  0.3451000      0.0000000E+00
  0.3458000      0.0000000E+00
  0.3465000      0.0000000E+00
  0.3472000      0.0000000E+00
  0.3479000      0.0000000E+00
  0.3486000      0.0000000E+00
  0.3493000      0.0000000E+00
  0.3500000      0.0000000E+00
  0.3507000      0.0000000E+00
  0.3514000      0.0000000E+00
  0.3521000      0.0000000E+00
  0.3528000      0.0000000E+00
  0.3535000      0.0000000E+00
  0.3542000      0.0000000E+00
  0.3549000      0.0000000E+00
  0.3556000      0.0000000E+00
  0.3563000      0.0000000E+00
  0.3570000      0.0000000E+00
  0.3577000      0.0000000E+00
  0.3584000      0.0000000E+00
  0.3591000      0.0000000E+00
  0.3598000      0.0000000E+00
  0.3605000      0.0000000E+00
  0.3612000      0.0000000E+00
  0.3619000      0.0000000E+00
  0.3626000      0.0000000E+00
  0.3633000      0.0000000E+00
  0.3640000      0.0000000E+00
  0.3647000      0.0000000E+00
  0.3654000      0.0000000E+00
  0.3661000      0.0000000E+00
  0.3668000      0.0000000E+00
  0.3675000      0.0000000E+00
  0.3682000      0.0000000E+00
  0.3689000      0.0000000E+00
  0.3696000      0.0000000E+00
  0.3703000      0.0000000E+00
  0.3710000      0.0000000E+00
  0.3717000      0.0000000E+00
  0.3724000      0.0000000E+00
  0.3731000      0.0000000E+00
  0.3738000      0.0000000E+00
  0.3745000      0.0000000E+00
  0.3752000      0.0000000E+00
  0.3759000      0.0000000E+00
  0.3766000      0.0000000E+00
  0.3773000      0.0000000E+00
  0.3780000      0.0000000E+00
  0.3787000      0.0000000E+00
  0.3794000      0.0000000E+00
  0.3801000      0.0000000E+00
  0.3808000      0.0000000E+00
  0.3815000      0.0000000E+00
  0.3822000      0.0000000E+00
  0.3829000      0.0000000E+00
  0.3836000      0.0000000E+00
  0.3843000      0.0000000E+00
  0.3850000      0.0000000E+00
  0.3857000      0.0000000E+00
  0.3864000      0.0000000E+00
  0.3871000      0.0000000E+00
  0.3878000      0.0000000E+00
  0.3885000      0.0000000E+00
  0.3892000      0.0000000E+00
  0.3899000      0.0000000E+00
  0.3906000      0.0000000E+00
  0.3913000      0.0000000E+00
  0.3920000      0.0000000E+00
  0.3927000      0.0000000E+00
  0.3934000      0.0000000E+00
  0.3941000      0.0000000E+00
  0.3948000      0.0000000E+00
  0.3955000      0.0000000E+00
  0.3962000      0.0000000E+00
  0.3969000      0.0000000E+00
  0.3976000      0.0000000E+00
  0.3983000      0.0000000E+00
  0.3990000      0.0000000E+00
  0.3997000      0.0000000E+00
  0.4004000      0.0000000E+00
  0.4011000      0.0000000E+00
  0.4018000      0.0000000E+00
  0.4025000      0.0000000E+00
  0.4032000      0.0000000E+00
  0.4039000      0.0000000E+00
  0.4046000      0.0000000E+00
  0.4053000      0.0000000E+00
  0.4060000      0.0000000E+00
  0.4067000      0.0000000E+00
  0.4074000      0.0000000E+00
  0.4081000      0.0000000E+00
  0.4088000      0.0000000E+00
  0.4095000      0.0000000E+00
  0.4102000      0.0000000E+00
  0.4109000      0.0000000E+00
  0.4116000      0.0000000E+00
  0.4123000      0.0000000E+00
  0.4130000      0.0000000E+00
  0.4137000      0.0000000E+00
  0.4144000      0.0000000E+00
  0.4151000      0.0000000E+00
  0.4158000      0.0000000E+00
  0.4165000      0.0000000E+00
  0.4172000      0.0000000E+00
  0.4179000      0.0000000E+00
  0.4186000      0.0000000E+00
  0.4193000      0.0000000E+00
  0.4200000      0.0000000E+00
  0.4207000      0.0000000E+00
  0.4214000      0.0000000E+00
  0.4221000      0.0000000E+00
  0.4228000      0.0000000E+00
  0.4235000      0.0000000E+00
  0.4242000      0.0000000E+00
  0.4249000      0.0000000E+00
  0.4256000      0.0000000E+00
  0.4263000      0.0000000E+00
  0.4270000      0.0000000E+00
  0.4277000      0.0000000E+00
  0.4284000      0.0000000E+00
  0.4291000      0.0000000E+00
  0.4298000      0.0000000E+00
  0.4305000      0.0000000E+00
  0.4312000      0.0000000E+00
  0.4319000      0.0000000E+00
  0.4326000      0.0000000E+00
  0.4333000      0.0000000E+00
  0.4340000      0.0000000E+00
  0.4347000      0.0000000E+00
  0.4354000      0.0000000E+00
  0.4361000      0.0000000E+00
  0.4368000      0.0000000E+00
  0.4375000      0.0000000E+00
  0.4382000      0.0000000E+00
  0.4389000      0.0000000E+00
  0.4396000      0.0000000E+00
  0.4403000      0.0000000E+00
  0.4410000      0.0000000E+00
  0.4417000      0.0000000E+00
  0.4424000      0.0000000E+00
  0.4431000      0.0000000E+00
  0.4438000      0.0000000E+00
  0.4445000      0.0000000E+00
  0.4452000      0.0000000E+00
  0.4459000      0.0000000E+00
  0.4466000      0.0000000E+00
  0.4473000      0.0000000E+00
  0.4480000      0.0000000E+00
  0.4487000      0.0000000E+00
  0.4494000      0.0000000E+00
  0.4501000      0.0000000E+00
  0.4508000      0.0000000E+00
  0.4515000      0.0000000E+00
  0.4522000      0.0000000E+00
  0.4529000      0.0000000E+00
  0.4536000      0.0000000E+00
  0.4543000      0.0000000E+00
  0.4550000      0.0000000E+00
  0.4557000      0.0000000E+00
  0.4564000      0.0000000E+00
  0.4571000      0.0000000E+00
  0.4578000      0.0000000E+00
  0.4585000      0.0000000E+00
  0.4592000      0.0000000E+00
  0.4599000      0.0000000E+00
  0.4606000      0.0000000E+00
  0.4613000      0.0000000E+00
  0.4620000      0.0000000E+00
  0.4627000      0.0000000E+00
  0.4634000      0.0000000E+00
  0.4641000      0.0000000E+00
  0.4648000      0.0000000E+00
  0.4655000      0.0000000E+00
  0.4662000      0.0000000E+00
  0.4669000      0.0000000E+00
  0.4676000      0.0000000E+00
  0.4683000      0.0000000E+00
  0.4690000      0.0000000E+00
  0.4697000      0.0000000E+00
  0.4704000      0.0000000E+00
  0.4711000      0.0000000E+00
  0.4718000      0.0000000E+00
  0.4725000      0.0000000E+00
  0.4732000      0.0000000E+00
  0.4739000      0.0000000E+00
  0.4746000      0.0000000E+00
  0.4753000      0.0000000E+00
  0.4760000      0.0000000E+00
  0.4767000      0.0000000E+00
  0.4774000      0.0000000E+00
  0.4781000      0.0000000E+00
  0.4788000      0.0000000E+00
  0.4795000      0.0000000E+00
  0.4802000      0.0000000E+00
  0.4809000      0.0000000E+00
  0.4816000      0.0000000E+00
  0.4823000      0.0000000E+00
  0.4830000      0.0000000E+00
  0.4837000      0.0000000E+00
  0.4844000      0.0000000E+00
  0.4851000      0.0000000E+00
  0.4858000      0.0000000E+00
  0.4865000      0.0000000E+00
  0.4872000      0.0000000E+00
  0.4879000      0.0000000E+00
  0.4886000      0.0000000E+00
  0.4893000      0.0000000E+00
  0.4900000      0.0000000E+00
  0.4907000      0.0000000E+00
  0.4914000      0.0000000E+00
  0.4921000      0.0000000E+00
  0.4928000      0.0000000E+00
  0.4935000      0.0000000E+00
  0.4942000      0.0000000E+00
  0.4949000      0.0000000E+00
  0.4956000      0.0000000E+00
  0.4963000      0.0000000E+00
  0.4970000      0.0000000E+00
  0.4977000      0.0000000E+00
  0.4984000      0.0000000E+00
  0.4991000      0.0000000E+00
  0.4998000      0.0000000E+00
  0.5005000      0.0000000E+00
  0.5012000      0.0000000E+00
  0.5019000      0.0000000E+00
  0.5026000      0.0000000E+00
  0.5033000      0.0000000E+00
  0.5040000      0.0000000E+00
  0.5047000      0.0000000E+00
  0.5054000      0.0000000E+00
  0.5061000      0.0000000E+00
  0.5068000      0.0000000E+00
  0.5075000      0.0000000E+00
  0.5082000      0.0000000E+00
  0.5089000      0.0000000E+00
  0.5096000      0.0000000E+00
  0.5103000      0.0000000E+00
  0.5110000      0.0000000E+00
  0.5117000      0.0000000E+00
  0.5124000      0.0000000E+00
  0.5131000      0.0000000E+00
  0.5138000      0.0000000E+00
  0.5145000      0.0000000E+00
  0.5152000      0.0000000E+00
  0.5159000      0.0000000E+00
  0.5166000      0.0000000E+00
  0.5173000      0.0000000E+00
  0.5180000      0.0000000E+00
  0.5187000      0.0000000E+00
  0.5194000      0.0000000E+00
  0.5201000      0.0000000E+00
  0.5208000      0.0000000E+00
  0.5215000      0.0000000E+00
  0.5222000      0.0000000E+00
  0.5229000      0.0000000E+00
  0.5236000      0.0000000E+00
  0.5243000      0.0000000E+00
  0.5250000      0.0000000E+00
  0.5257000      0.0000000E+00
  0.5264000      0.0000000E+00
  0.5271000      0.0000000E+00
  0.5278000      0.0000000E+00
  0.5285000      0.0000000E+00
  0.5292000      0.0000000E+00
  0.5299000      0.0000000E+00
  0.5306000      0.0000000E+00
  0.5313000      0.0000000E+00
  0.5320000      0.0000000E+00
  0.5327000      0.0000000E+00
  0.5334000      0.0000000E+00
  0.5341000      0.0000000E+00
  0.5348000      0.0000000E+00
  0.5355000      0.0000000E+00
  0.5362000      0.0000000E+00
  0.5369000      0.0000000E+00
  0.5376000      0.0000000E+00
  0.5383000      0.0000000E+00
  0.5390000      0.0000000E+00
  0.5397000      0.0000000E+00
  0.5404000      0.0000000E+00
  0.5411000      0.0000000E+00
  0.5418000      0.0000000E+00
  0.5425000      0.0000000E+00
  0.5432000      0.0000000E+00
  0.5439000      0.0000000E+00
  0.5446000      0.0000000E+00
  0.5453000      0.0000000E+00
  0.5460000      0.0000000E+00
  0.5467000      0.0000000E+00
  0.5474000      0.0000000E+00
  0.5481000      0.0000000E+00
  0.5488000      0.0000000E+00
  0.5495000      0.0000000E+00
  0.5502000      0.0000000E+00
  0.5509000      0.0000000E+00
  0.5516000      0.0000000E+00
  0.5523000      0.0000000E+00
  0.5530000      0.0000000E+00
  0.5537000      0.0000000E+00
  0.5544000      0.0000000E+00
  0.5551000      0.0000000E+00
  0.5558000      0.0000000E+00
  0.5565000      0.0000000E+00
  0.5572000      0.0000000E+00
  0.5579000      0.0000000E+00
  0.5586000      0.0000000E+00
  0.5593000      0.0000000E+00
  0.5600000      0.0000000E+00
  0.5607000      0.0000000E+00
  0.5614000      0.0000000E+00
  0.5621000      0.0000000E+00
  0.5628000      0.0000000E+00
  0.5635000      0.0000000E+00
  0.5642000      0.0000000E+00
  0.5649000      0.0000000E+00
  0.5656000      0.0000000E+00
  0.5663000      0.0000000E+00
  0.5670000      0.0000000E+00
  0.5677000      0.0000000E+00
  0.5684000      0.0000000E+00
  0.5691000      0.0000000E+00
  0.5698000      0.0000000E+00
  0.5705000      0.0000000E+00
  0.5712000      0.0000000E+00
  0.5719000      0.0000000E+00
  0.5726000      0.0000000E+00
  0.5733000      0.0000000E+00
  0.5740000      0.0000000E+00
  0.5747000      0.0000000E+00
  0.5754000      0.0000000E+00
  0.5761000      0.0000000E+00
  0.5768000      0.0000000E+00
  0.5775000      0.0000000E+00
  0.5782000      0.0000000E+00
  0.5789000      0.0000000E+00
  0.5796000      0.0000000E+00
  0.5803000      0.0000000E+00
  0.5810000      0.0000000E+00
  0.5817000      0.0000000E+00
  0.5824000      0.0000000E+00
  0.5831000      0.0000000E+00
  0.5838000      0.0000000E+00
  0.5845000      0.0000000E+00
  0.5852000      0.0000000E+00
  0.5859000      0.0000000E+00
  0.5866000      0.0000000E+00
  0.5873000      0.0000000E+00
  0.5880000      0.0000000E+00
  0.5887000      0.0000000E+00
  0.5894000      0.0000000E+00
  0.5901000      0.0000000E+00
  0.5908000      0.0000000E+00
  0.5915000      0.0000000E+00
  0.5922000      0.0000000E+00
  0.5929000      0.0000000E+00
  0.5936000      0.0000000E+00
  0.5943000      0.0000000E+00
  0.5950000      0.0000000E+00
  0.5957000      0.0000000E+00
  0.5964000      0.0000000E+00
  0.5971000      0.0000000E+00
  0.5978000      0.0000000E+00
  0.5985000      0.0000000E+00
  0.5992000      0.0000000E+00
  0.5999000      0.0000000E+00
  0.6006000      0.0000000E+00
  0.6013000      0.0000000E+00
  0.6020000      0.0000000E+00
  0.6027000      0.0000000E+00
  0.6034000      0.0000000E+00
  0.6041000      0.0000000E+00
  0.6048000      0.0000000E+00
  0.6055000      0.0000000E+00
  0.6062000      0.0000000E+00
  0.6069000      0.0000000E+00
  0.6076000      0.0000000E+00
  0.6083000      0.0000000E+00
  0.6090000      0.0000000E+00
  0.6097000      0.0000000E+00
  0.6104000      0.0000000E+00
  0.6111000      0.0000000E+00
  0.6118000      0.0000000E+00
  0.6125000      0.0000000E+00
  0.6132000      0.0000000E+00
  0.6139000      0.0000000E+00
  0.6146000      0.0000000E+00
  0.6153000      0.0000000E+00
  0.6160000      0.0000000E+00
  0.6167000      0.0000000E+00
  0.6174000      0.0000000E+00
  0.6181000      0.0000000E+00
  0.6188000      0.0000000E+00
  0.6195000      0.0000000E+00
  0.6202000      0.0000000E+00
  0.6209000      0.0000000E+00
  0.6216000      0.0000000E+00
  0.6223000      0.0000000E+00
  0.6230000      0.0000000E+00
  0.6237000      0.0000000E+00
  0.6244000      0.0000000E+00
  0.6251000      0.0000000E+00
  0.6258000      0.0000000E+00
  0.6265000      0.0000000E+00
  0.6272000      0.0000000E+00
  0.6279000      0.0000000E+00
  0.6286000      0.0000000E+00
  0.6293000      0.0000000E+00
  0.6300000      0.0000000E+00
  0.6307000      0.0000000E+00
  0.6314000      0.0000000E+00
  0.6321000      0.0000000E+00
  0.6328000      0.0000000E+00
  0.6335000      0.0000000E+00
  0.6342000      0.0000000E+00
  0.6349000      0.0000000E+00
  0.6356000      0.0000000E+00
  0.6363000      0.0000000E+00
  0.6370000      0.0000000E+00
  0.6377000      0.0000000E+00
  0.6384000      0.0000000E+00
  0.6391000      0.0000000E+00
  0.6398000      0.0000000E+00
  0.6405000      0.0000000E+00
  0.6412000      0.0000000E+00
  0.6419000      0.0000000E+00
  0.6426000      0.0000000E+00
  0.6433000      0.0000000E+00
  0.6440000      0.0000000E+00
  0.6447000      0.0000000E+00
  0.6454000      0.0000000E+00
  0.6461000      0.0000000E+00
  0.6468000      0.0000000E+00
  0.6475000      0.0000000E+00
  0.6482000      0.0000000E+00
  0.6489000      0.0000000E+00
  0.6496000      0.0000000E+00
  0.6503000      0.0000000E+00
  0.6510000      0.0000000E+00
  0.6517000      0.0000000E+00
  0.6524000      0.0000000E+00
  0.6531000      0.0000000E+00
  0.6538000      0.0000000E+00
  0.6545000      0.0000000E+00
  0.6552000      0.0000000E+00
  0.6559000      0.0000000E+00
  0.6566000      0.0000000E+00
  0.6573000      0.0000000E+00
  0.6580000      0.0000000E+00
  0.6587000      0.0000000E+00
  0.6594000      0.0000000E+00
  0.6601000      0.0000000E+00
  0.6608000      0.0000000E+00
  0.6615000      0.0000000E+00
  0.6622000      0.0000000E+00
  0.6629000      0.0000000E+00
  0.6636000      0.0000000E+00
  0.6643000      0.0000000E+00
  0.6650000      0.0000000E+00
  0.6657000      0.0000000E+00
  0.6664000      0.0000000E+00
  0.6671000      0.0000000E+00
  0.6678000      0.0000000E+00
  0.6685000      0.0000000E+00
  0.6692000      0.0000000E+00
  0.6699000      0.0000000E+00
  0.6706000      0.0000000E+00
  0.6713000      0.0000000E+00
  0.6720000      0.0000000E+00
  0.6727000      0.0000000E+00
  0.6734000      0.0000000E+00
  0.6741000      0.0000000E+00
  0.6748000      0.0000000E+00
  0.6755000      0.0000000E+00
  0.6762000      0.0000000E+00