# Aki and Richards - double-couple solution eq.(4.32) and (4.33)
#
# homogeneous elastic medium: rho/vp/vs   = 2300.0 / 2800.0 / 1500.0
# receiver station          : x/y/z       = 6000.0 / 1000.0 / 4000.0
#                           : r/theta/phi = 7280.1098892805185 / 0.9890997676289591 / 0.16514867741462683
#
# solution component        : cartesian Y / spherical THETA
#
# format:
#time 	#u_cartesian 	#u_spherical
-4.0 	4.780104516825259e-17 	1.1134940533126206e-17 	1.3074345928891173e-18 9.827505940237088e-18 0.0
-3.999 	4.0404232228980294e-17 	1.1219107022887915e-17 	1.3193400095608471e-18 9.899767013327068e-18 0.0
-3.998 	4.048277735905985e-17 	1.13033612815489e-17 	1.3313331951318547e-18 9.972028086417046e-18 0.0
-3.997 	4.803671375686263e-17 	1.1387745028998813e-17 	1.343455869491788e-18 1.0044289159507025e-17 0.0
-3.996 	5.562525404243237e-17 	1.1508388849883972e-17 	1.3557080807419782e-18 1.0152680769141993e-17 0.0
-3.995 	4.8263287816216996e-17 	1.1629120567938628e-17 	1.3680481891616675e-18 1.026107237877696e-17 0.0
-3.994 	4.834217897743821e-17 	1.1713809678685351e-17 	1.3804762268184124e-18 1.0333333451866939e-17 0.0
-3.993 	5.59309623434737e-17 	1.1834758975103768e-17 	1.3930339136018605e-18 1.0441725061501908e-17 0.0
-3.992 	4.85692724598894e-17 	1.1955837968750219e-17 	1.405721297613343e-18 1.0550116671136876e-17 0.0
-3.991 	4.117315183807626e-17 	1.2040874483358956e-17 	1.418496739132102e-18 1.0622377744226853e-17 0.0
-3.99 	4.8727677768526524e-17 	1.2125999087542528e-17 	1.4313602702256948e-18 1.0694638817316833e-17 0.0
-3.989 	5.631684097649699e-17 	1.2247425725557657e-17 	1.444395298605857e-18 1.08030304269518e-17 0.0
-3.988 	4.8955497902340566e-17 	1.2368940549350288e-17 	1.457518512763519e-18 1.0911422036586768e-17 0.0
-3.987 	5.651030067301471e-17 	1.2454413054442982e-17 	1.4707299447662345e-18 1.0983683109676746e-17 0.0
-3.986 	5.665895340504675e-17 	1.2612318258182445e-17 	1.484113002325742e-18 1.1128205255856704e-17 0.0
-3.985 	4.9263386565751726e-17 	1.2698050702879652e-17 	1.497584373932969e-18 1.1200466328946683e-17 0.0
-3.984 	5.685300046521766e-17 	1.2820043718059215e-17 	1.5111857794775649e-18 1.1308857938581651e-17 0.0
-3.983 	4.949214142127478e-17 	1.294216681527748e-17 	1.5249172670608611e-18 1.1417249548216618e-17 0.0
-3.982 	5.704742840078553e-17 	1.3028247818268697e-17 	1.5387371969620998e-18 1.1489510621306596e-17 0.0
-3.981 	5.719656552027727e-17 	1.318676174437957e-17 	1.5527289768930162e-18 1.1634032767486554e-17 0.0
-3.98 	4.980148324706496e-17 	1.3273103135921077e-17 	1.566809295344544e-18 1.1706293840576533e-17 0.0
-3.979 	5.739158189123669e-17 	1.3395705322417828e-17 	1.5810198722063277e-18 1.1814685450211501e-17 0.0
-3.978 	5.750649599835842e-17 	1.3518437815426167e-17 	1.5953607555796976e-18 1.1923077059846469e-17 0.0
-3.977 	5.762151383444227e-17 	1.3641300663047425e-17 	1.6098319935659897e-18 1.2031468669481436e-17 0.0
-3.976 	5.773663543776462e-17 	1.376429391338294e-17 	1.6244336342665364e-18 1.2139860279116404e-17 0.0
-3.975 	5.785186084660183e-17 	1.3887417614534045e-17 	1.6391657257826727e-18 1.2248251888751372e-17 0.0
-3.974 	5.796719009923029e-17 	1.4010671814602068e-17 	1.6540283162157297e-18 1.235664349838634e-17 0.0
-3.973 	5.808262323392635e-17 	1.4134056561688346e-17 	1.6690214536670392e-18 1.2465035108021309e-17 0.0
-3.972 	5.819816028896638e-17 	1.4257571903894215e-17 	1.6841451862379379e-18 1.2573426717656276e-17 0.0
-3.971 	5.831380130262676e-17 	1.4381217889321002e-17 	1.6993995620297573e-18 1.2681818327291244e-17 0.0
-3.97 	6.590483454091961e-17 	1.4504994566070042e-17 	1.7147846291438296e-18 1.2790209936926212e-17 0.0
-3.969 	5.857992934127099e-17 	1.4665074206609747e-17 	1.7303421235035779e-18 1.2934732083106169e-17 0.0
-3.968 	5.866138166370628e-17 	1.4752981889796083e-17 	1.745988733599937e-18 1.3006993156196147e-17 0.0
-3.967 	6.628726111746323e-17 	1.4913323169520744e-17 	1.76180786714464e-18 1.3151515302376104e-17 0.0
-3.966 	5.892816746900652e-17 	1.5037664812461778e-17 	1.7777579004507053e-18 1.3259906912011072e-17 0.0
-3.9650000000000003 	6.651975447705867e-17 	1.516213740326551e-17 	1.793838881619469e-18 1.336829852164604e-17 0.0
-3.964 	6.667069147904574e-17 	1.532291321440035e-17 	1.810092546574353e-18 1.3512820667825997e-17 0.0
-3.963 	5.931194373414282e-17 	1.5447689549089344e-17 	1.8264772716283787e-18 1.3621212277460965e-17 0.0
-3.962 	6.690387677333665e-17 	1.5572596991978816e-17 	1.842993104882881e-18 1.3729603887095934e-17 0.0
-3.9610000000000003 	6.70551599340533e-17 	1.573380781553717e-17 	1.8596817822612793e-18 1.387412603327589e-17 0.0
-3.96 	5.969675847546786e-17 	1.585901932298746e-17 	1.8765016800765988e-18 1.398251764291086e-17 0.0
-3.959 	6.728903792856706e-17 	1.5984362098975995e-17 	1.89345284643017e-18 1.4090909252545825e-17 0.0
-3.958 	7.491595585851274e-17 	1.61460084159712e-17 	1.910577017245416e-18 1.4235431398725784e-17 0.0
-3.9570000000000003 	6.75924350513654e-17 	1.6307827801563186e-17 	1.9278742566574478e-18 1.437995354490574e-17 0.0
-3.956 	6.023451803127478e-17 	1.6433648095519996e-17 	1.945302940979288e-18 1.448834515454071e-17 0.0
-3.955 	6.782728210149188e-17 	1.6559599882487945e-17 	1.962863118312269e-18 1.4596736764175675e-17 0.0
-3.954 	7.545468482717852e-17 	1.6721855434935452e-17 	1.9805965245798164e-18 1.4741258910355634e-17 0.0
-3.9530000000000003 	6.813164899439519e-17 	1.6884284280452622e-17 	1.9985032239170327e-18 1.488578105653559e-17 0.0
-3.952 	6.824953852788121e-17 	1.70107559466296e-17 	2.016583280459039e-18 1.499417266617056e-17 0.0
-3.951 	6.840203369708842e-17 	1.7173489882869363e-17 	2.0347950705188496e-18 1.5138694812350515e-17 0.0
-3.95 	6.852016609414073e-17 	1.7300266752005375e-17 	2.0531803300198913e-18 1.5247086421985484e-17 0.0
-3.9490000000000003 	7.614819244396153e-17 	1.7463306003440622e-17 	2.071697435275182e-18 1.539160856816544e-17 0.0
-3.948 	7.630106869270635e-17 	1.7626518836553545e-17 	2.090388122208146e-18 1.55361307143454e-17 0.0
-3.947 	7.645408311914613e-17 	1.778990531547925e-17 	2.1092524549538954e-18 1.5680652860525355e-17 0.0
-3.946 	7.660723577431597e-17 	1.7953465504352857e-17 	2.128290497647543e-18 1.5825175006705314e-17 0.0
-3.9450000000000003 	7.676052670925108e-17 	1.8117199467309466e-17 	2.1475023144241963e-18 1.596969715288527e-17 0.0
-3.944 	7.69139559749866e-17 	1.8281107268484192e-17 	2.166887969418966e-18 1.6114219299065226e-17 0.0
-3.943 	7.70675236225577e-17 	1.844518897201215e-17 	2.186447526766967e-18 1.6258741445245185e-17 0.0
-3.942 	7.722122970299953e-17 	1.8609444642028443e-17 	2.206181050603302e-18 1.640326359142514e-17 0.0
-3.9410000000000003 	7.737507426734725e-17 	1.877387434266819e-17 	2.2260886050630902e-18 1.65477857376051e-17 0.0
-3.94 	7.752905736663605e-17 	1.8938478138066494e-17 	2.2461702542814396e-18 1.6692307883785055e-17 0.0
-3.939 	7.768317905190104e-17 	1.9103256092358478e-17 	2.266426062393464e-18 1.6836830029965014e-17 0.0
-3.938 	7.783743937417741e-17 	1.926820826967924e-17 	2.2868560935342684e-18 1.698135217614497e-17 0.0
-3.9370000000000003 	7.799183838450031e-17 	1.9433334734163892e-17 	2.3074604118389674e-18 1.7125874322324926e-17 0.0
-3.936 	7.814637613390492e-17 	1.9598635549947557e-17 	2.3282390814426707e-18 1.7270396468504885e-17 0.0
-3.935 	7.830105267342635e-17 	1.976411078116533e-17 	2.3491921664804892e-18 1.741491861468484e-17 0.0
-3.934 	8.593118945468939e-17 	1.992980217977443e-17 	2.3703614189096276e-18 1.75594407608648e-17 0.0
-3.9330000000000003 	9.359596595040153e-17 	2.013179867466662e-17 	2.391705231076877e-18 1.7740093443589746e-17 0.0
-3.932 	8.631033811947707e-17 	2.0334011481254138e-17 	2.4132653549394465e-18 1.792074612631469e-17 0.0
-3.931 	7.899034849882456e-17 	2.050026845533878e-17 	2.435000182844131e-18 1.806526827249465e-17 0.0
-3.93 	7.914578617671805e-17 	2.0666700197600645e-17 	2.456909778926039e-18 1.8209790418674606e-17 0.0
-3.9290000000000003 	8.677668437704649e-17 	2.0833348459996938e-17 	2.4790358951423742e-18 1.8354312564854565e-17 0.0
-3.928 	9.44422225725174e-17 	2.103630217141945e-17 	2.5013369238399373e-18 1.853496524757951e-17 0.0
-3.927 	8.715735672204511e-17 	2.1239472547280382e-17 	2.5238546169759258e-18 1.8715617930304456e-17 0.0
-3.926 	8.731341759027391e-17 	2.1406687443381553e-17 	2.5465473668971382e-18 1.8860140076484415e-17 0.0
-3.9250000000000003 	9.497944002009904e-17 	2.161024968477014e-17 	2.56945692556078e-18 1.904079275920936e-17 0.0
-3.924 	8.769505858260398e-17 	2.181402881507004e-17 	2.5925833731357343e-18 1.9221445441934306e-17 0.0
-3.923 	8.785160404243309e-17 	2.1981852690083068e-17 	2.6158851019688028e-18 1.9365967588114265e-17 0.0
-3.922 	9.551811124248157e-17 	2.2186024134856394e-17 	2.6394038640171833e-18 1.954662027083921e-17 0.0
-3.9210000000000003 	8.823421475383296e-17 	2.2390412693013927e-17 	2.6631397394497715e-18 1.9727272953564156e-17 0.0
-3.92 	9.586653356886733e-17 	2.255884622035747e-17 	2.687051120613357e-18 1.9871795099744115e-17 0.0
-3.919 	9.609277182962953e-17 	2.2799799766301286e-17 	2.7112214472872356e-18 2.008857831901405e-17 0.0
-3.918 	8.877486002895219e-17 	2.29686679052239e-17 	2.7355674400298938e-18 2.0233100465194007e-17 0.0
-3.9170000000000003 	9.644223167529478e-17 	2.3173925686539577e-17 	2.760172538620624e-18 2.0413753147918952e-17 0.0
-3.916 	9.663445500679195e-17 	2.337935929426181e-17 	2.78495346361791e-18 2.05944058306439e-17 0.0
-3.915 	9.68268846479223e-17 	2.3585052168169887e-17 	2.8099936548010414e-18 2.0775058513368847e-17 0.0
-3.914 	1.0449474255726664e-16 	2.37909210288223e-17 	2.835209832728506e-18 2.0955711196093792e-17 0.0
-3.9130000000000003 	9.724673125786367e-17 	2.4033179852543325e-17 	2.860685437179598e-18 2.1172494415363727e-17 0.0
-3.912 	9.740514673525637e-17 	2.420335375025649e-17 	2.8863371887128044e-18 2.1317016561543686e-17 0.0
-3.911 	1.0510805862420006e-16 	2.4446048307921025e-17 	2.9122485271074043e-18 2.1533799780813622e-17 0.0
-3.91 	9.782606671667696e-17 	2.465283032428255e-17 	2.9383778607439826e-18 2.1714452463538567e-17 0.0
-3.9090000000000003 	1.054948247969272e-16 	2.4859830416054943e-17 	2.964725269791427e-18 2.1895105146263516e-17 0.0
-3.908 	1.0572300222789442e-16 	2.5103220887774168e-17 	2.9913325222407168e-18 2.211188836553345e-17 0.0
-3.907 	9.844156429427128e-17 	2.5310699074730834e-17 	3.0181580264724382e-18 2.2292541048258397e-17 0.0
-3.906 	1.0611087655256212e-16 	2.5518395593638806e-17 	3.0452018626554637e-18 2.2473193730983343e-17 0.0
-3.9050000000000002 	1.1381489659344632e-16 	2.576248274903406e-17 	3.072505798780779e-18 2.2689976950253278e-17 0.0
-3.904 	1.06568547228502e-16 	2.6006830100574268e-17 	3.100069931051051e-18 2.2906760169523216e-17 0.0
-3.903 	9.928790418025025e-17 	2.6215307207917108e-17 	3.127894355668947e-18 2.3087412852248162e-17 0.0
-3.902 	1.0695801161736464e-16 	2.642400301598815e-17 	3.1559374810150413e-18 2.3268065534973108e-17 0.0
-3.9010000000000002 	1.1466279395767075e-16 	2.666904814150126e-17 	3.1841993872582175e-18 2.3484848754243043e-17 0.0
-3.9 	1.1489249540057748e-16 	2.691435381590244e-17 	3.212721842389461e-18 2.3701631973512978e-17 0.0
-3.899 	1.1512240425037329e-16 	2.7159920135394357e-17 	3.2415049426114414e-18 2.3918415192782917e-17 0.0
-3.898 	1.1535252058361094e-16 	2.740574719617967e-17 	3.2705487841268174e-18 2.4135198412052852e-17 0.0
-3.8970000000000002 	1.1558284447684315e-16 	2.7651835094461045e-17 	3.299853463138259e-18 2.4351981631322787e-17 0.0
-3.896 	1.1581337600662267e-16 	2.789818392644115e-17 	3.329419075848428e-18 2.4568764850592723e-17 0.0
-3.895 	1.1604411524950227e-16 	2.814479378832266e-17 	3.3592457184599985e-18 2.4785548069862658e-17 0.0
-3.894 	1.1627506228203464e-16 	2.839166477630823e-17 	3.389333487175635e-18 2.5002331289132593e-17 0.0
-3.8930000000000002 	1.1650621718077253e-16 	2.863879698660053e-17 	3.4196824781979997e-18 2.521911450840253e-17 0.0
-3.892 	1.1673758002226872e-16 	2.8886190515402225e-17 	3.450292787729758e-18 2.5435897727672467e-17 0.0
-3.891 	1.1696915088307588e-16 	2.913384545891598e-17 	3.481164511973582e-18 2.5652680946942403e-17 0.0
-3.89 	1.172009298397468e-16 	2.9381761913344476e-17 	3.512297747132139e-18 2.5869464166212338e-17 0.0
-3.8890000000000002 	1.2490820519656998e-16 	2.9629939974890365e-17 	3.54369258940809e-18 2.6086247385482273e-17 0.0
-3.888 	1.2517493455698357e-16 	2.991455196412339e-17 	3.57539082282619e-18 2.6339161141297198e-17 0.0
-3.887 	1.2540740461902862e-16 	3.0163336920190023e-17 	3.607392559622887e-18 2.6555944360567134e-17 0.0
-3.886 	1.256745839181691e-16 	3.04485143405946e-17 	3.639656224212541e-18 2.680885811638206e-17 0.0
-3.8850000000000002 	1.1843218268421567e-16 	3.06978232484498e-17 	3.6721819127978055e-18 2.7025641335651994e-17 0.0
-3.884 	1.3361588788702112e-16 	3.094743596432538e-17 	3.705011409403447e-18 2.724242455492193e-17 0.0
-3.883 	1.3391826009622445e-16 	3.126961367354775e-17 	3.738144826265907e-18 2.7531468847281844e-17 0.0
-3.882 	1.192012629902708e-16 	3.1519792654351316e-17 	3.771540587799537e-18 2.774825206655178e-17 0.0
-3.8810000000000002 	1.3438566080398755e-16 	3.177027576385081e-17 	3.805240478029095e-18 2.796503528582172e-17 0.0
-3.88 	1.34688725879278e-16 	3.209332418737265e-17 	3.839244609191021e-18 2.825407957818163e-17 0.0
-3.879 	1.349229983500588e-16 	3.234437420315125e-17 	3.8735114056996814e-18 2.847086279745157e-17 0.0
-3.878 	1.3522654787660285e-16 	3.2668031429213395e-17 	3.908124339401914e-18 2.875990708981148e-17 0.0
-3.8770000000000002 	1.3546130497726037e-16 	3.291969047200518e-17 	3.943000162923759e-18 2.897669030908142e-17 0.0
-3.876 	1.357653393123041e-16 	3.324395694955339e-17 	3.9782223481120626e-18 2.926573460144133e-17 0.0
-3.875 	1.3600058140008442e-16 	3.349622546830414e-17 	4.0137076475928716e-18 2.948251782071127e-17 0.0
-3.874 	1.437803891286098e-16 	3.382110164628421e-17 	4.049539533213026e-18 2.977156211307118e-17 0.0
-3.873 	1.3657536231538016e-16 	3.411015231430677e-17 	4.0856764454206665e-18 3.0024475868886105e-17 0.0
-3.872 	1.4432115477015326e-16 	3.4399508121153266e-17 	4.122118496452235e-18 3.027738962470103e-17 0.0
-3.871 	1.4462643588139014e-16 	3.472534140342721e-17 	4.15890748636626e-18 3.056643391706095e-17 0.0
-3.87 	1.3742217095930116e-16 	3.501534952848674e-17 	4.19600185561087e-18 3.0819347672875873e-17 0.0
-3.869 	1.4516872558590823e-16 	3.530566314511332e-17 	4.23340171642252e-18 3.10722614286908e-17 0.0
-3.868 	1.5295005737740827e-16 	3.563245458991045e-17 	4.271148868859738e-18 3.136130572105071e-17 0.0
-3.867 	1.45781089170897e-16 	3.5959593454603375e-17 	4.309243441192748e-18 3.165035001341063e-17 0.0
-3.866 	1.460531849421489e-16 	3.625094933091732e-17 	4.347685561691767e-18 3.1903263769225553e-17 0.0
-3.865 	1.463600250116509e-16 	3.65787417323904e-17 	4.386433670804939e-18 3.2192308061585465e-17 0.0
-3.864 	1.4663264102256218e-16 	3.6870751385991185e-17 	4.4255295685907935e-18 3.244522181740039e-17 0.0
-3.863 	1.5441532292369498e-16 	3.7199239493079856e-17 	4.464973383319554e-18 3.27342661097603e-17 0.0
-3.862 	1.5472299355214504e-16 	3.752807564538164e-17 	4.504765243261417e-18 3.302331040212022e-17 0.0
-3.861 	1.550309412377184e-16 	3.785725997116677e-17 	4.5449052766866395e-18 3.331235469448013e-17 0.0
-3.86 	1.5533916608248541e-16 	3.818679259870547e-17 	4.5853936118654225e-18 3.360139898684005e-17 0.0
-3.859 	1.6312295641625215e-16 	3.8516673656267957e-17 	4.626230377067995e-18 3.389044327919996e-17 0.0
-3.858 	1.6346623669512054e-16 	3.8883033808669446e-17 	4.6674157005645776e-18 3.4215618108104866e-17 0.0
-3.857 	1.6377532680274419e-16 	3.9213653798912256e-17 	4.7089913984474755e-18 3.450466240046478e-17 0.0
-3.856 	1.6411919530010467e-16 	3.9580753156568285e-17 	4.750915927198603e-18 3.482983722936968e-17 0.0
-3.855 	1.5695355244253032e-16 	3.9912070936817797e-17 	4.793189415088199e-18 3.51188815217296e-17 0.0
-3.854 	1.6473879699765565e-16 	4.024377949229807e-17 	4.835853678208555e-18 3.540792581408951e-17 0.0
-3.853 	1.7255885343434132e-16 	4.0612009503858097e-17 	4.87890886086368e-18 3.5733100642994416e-17 0.0
-3.852 	1.6542861142958812e-16 	4.098058889143479e-17 	4.92231341953547e-18 3.605827547189932e-17 0.0
-3.851 	1.657394349591704e-16 	4.1313387246753395e-17 	4.966067482494162e-18 3.634731976425923e-17 0.0
-3.85 	1.7356039208987233e-16 	4.1682749146818284e-17 	5.010254553654146e-18 3.667249459316414e-17 0.0
-3.849 	1.7390633933859968e-16 	4.205246083977808e-17 	5.054791417709042e-18 3.699766942206904e-17 0.0
-3.848 	1.742526313808661e-16 	4.2422605829547165e-17 	5.09976157857322e-18 3.7322844250973946e-17 0.0
-3.847 	1.7459920199855175e-16 	4.279310090081915e-17 	5.1450818209403e-18 3.764801907987885e-17 0.0
-3.846 	1.7494611763943474e-16 	4.316402955750842e-17 	5.190835648724667e-18 3.7973193908783755e-17 0.0
-3.845 	1.82768600313131e-16 	4.353530858430859e-17 	5.2369398466199345e-18 3.8298368737688654e-17 0.0
-3.844 	1.8315064082145017e-16 	4.394315202167905e-17 	5.283477918540503e-18 3.865967410313855e-17 0.0
-3.843 	1.7602320450011998e-16 	4.431525726904551e-17 	5.3304083370020525e-18 3.8984848932043456e-17 0.0
-3.842 	1.8384665695668e-16 	4.468775500725694e-17 	5.3777312463085855e-18 3.9310023760948354e-17 0.0
-3.841 	1.917049558328448e-16 	4.5096817604984446e-17 	5.425488478586193e-18 3.967132912639825e-17 0.0
-3.84 	1.846130239912275e-16 	4.5506314686020784e-17 	5.473680194172639e-18 4.003263449184814e-17 0.0
-3.839 	1.7748693720538455e-16 	4.5880115874158774e-17 	5.5223065534057255e-18 4.035780932075305e-17 0.0
-3.838 	1.853117396950246e-16 	4.625431017845907e-17 	5.57132602880112e-18 4.068298414965795e-17 0.0
-3.837 	1.931713891018622e-16 	4.6665069967592746e-17 	5.620780452484906e-18 4.104428951510784e-17 0.0
-3.8360000000000003 	1.9355609651624632e-16 	4.707626486535262e-17 	5.670669984794887e-18 4.1405594880557734e-17 0.0
-3.835 	1.9394115029350067e-16 	4.748789503207646e-17 	5.720994786068829e-18 4.176690024600763e-17 0.0
-3.834 	1.9432655056121317e-16 	4.7899960628102023e-17 	5.771755016644503e-18 4.212820561145752e-17 0.0
-3.833 	2.0218758567470739e-16 	4.83124618137671e-17 	5.822950836859682e-18 4.2489510976907414e-17 0.0
-3.8320000000000003 	2.100835015161925e-16 	4.876157097377654e-17 	5.874624094874242e-18 4.28869468789023e-17 0.0
-3.831 	2.0302918778818668e-16 	4.921111606013484e-17 	5.9267332792376624e-18 4.328438278089718e-17 0.0
-3.83 	1.959407202642463e-16 	4.9624966696634776e-17 	5.979278550287703e-18 4.3645688146347073e-17 0.0
-3.829 	2.0380317633693373e-16 	5.00392535801591e-17 	6.0322600683621315e-18 4.4006993511796964e-17 0.0
-3.8280000000000003 	2.1170051366072247e-16 	5.049014909541268e-17 	6.0857196816208356e-18 4.440442941379185e-17 0.0
-3.827 	2.0464765511098443e-16 	5.0941522882222095e-17 	6.139657566435366e-18 4.480186531578673e-17 0.0
-3.826 	2.050359315289168e-16 	5.13572028925918e-17 	6.194032211355174e-18 4.5163170681236624e-17 0.0
-3.825 	2.129344110068212e-16 	5.180953373559374e-17 	6.248927152362228e-18 4.556060658323151e-17 0.0
-3.8240000000000003 	2.1335795008712092e-16 	5.226230169144407e-17 	6.304259206217682e-18 4.5958042485226386e-17 0.0
-3.823 	2.1378190347084724e-16 	5.2715590296124766e-17 	6.360111908903495e-18 4.635547838722127e-17 0.0
-3.822 	2.2168152636598758e-16 	5.3169358054219056e-17 	6.416443765002902e-18 4.6752914289216154e-17 0.0
-3.821 	2.221407432669202e-16 	5.365973567864348e-17 	6.4732549508874595e-18 4.7186480727756024e-17 0.0
-3.8200000000000003 	2.1509058586783937e-16 	5.411450396050173e-17 	6.530587330750822e-18 4.758391662975091e-17 0.0
-3.819 	2.229913866417072e-16 	5.4569751940922024e-17 	6.5883994091762374e-18 4.7981352531745786e-17 0.0
-3.818 	2.3092707008290196e-16 	5.5061610332820885e-17 	6.6466913625352285e-18 4.8414918970285657e-17 0.0
-3.817 	2.3138788046738523e-16 	5.555399046384699e-17 	6.705505055021462e-18 4.8848485408825534e-17 0.0
-3.8160000000000003 	2.243738179482626e-16 	5.604689252640568e-17 	6.764840679040271e-18 4.9282051847365404e-17 0.0
-3.815 	2.248009583246078e-16 	5.650418617635727e-17 	6.824698426996988e-18 4.967948774936028e-17 0.0
-3.814 	2.327383033685326e-16 	5.69981326791971e-17 	6.885078491296946e-18 5.011305418790016e-17 0.0
-3.813 	2.4067606419590364e-16 	5.74926016907855e-17 	6.945981064345466e-18 5.054662062644003e-17 0.0
-3.8120000000000003 	2.411734535415938e-16 	5.802372394007278e-17 	7.0074063385479e-18 5.101631760152489e-17 0.0
-3.811 	2.341614699397022e-16 	5.851923854637433e-17 	7.069354506309573e-18 5.144988404006476e-17 0.0
-3.81 	2.3462519080830904e-16 	5.901527623864044e-17 	7.131825760035804e-18 5.1883450478604635e-17 0.0
-3.809 	2.4256464947337356e-16 	5.951187889709855e-17 	7.194861979954038e-18 5.2317016917144505e-17 0.0
-3.8080000000000003 	2.505390586825275e-16 	6.004517726673274e-17 	7.25846337450337e-18 5.278671389222936e-17 0.0
-3.807 	2.4356330816380654e-16 	6.057899933161506e-17 	7.322588464300838e-18 5.3256410867314226e-17 0.0
-3.806 	2.5150408334461e-16 	6.107725643542794e-17 	7.387279129573844e-18 5.36899773058541e-17 0.0
-3.805 	2.520390221361041e-16 	6.164834039624545e-17 	7.452535578761506e-18 5.419580481748395e-17 0.0
-3.8040000000000003 	2.525054096938766e-16 	6.214772927632676e-17 	7.518358020302946e-18 5.462937125602382e-17 0.0
-3.803 	2.6051653764953985e-16 	6.271994543029092e-17 	7.584746662637252e-18 5.513519876765367e-17 0.0
-3.802 	2.535430722300952e-16 	6.325663914476416e-17 	7.651743402025637e-18 5.560489574273853e-17 0.0
-3.801 	2.615206009889045e-16 	6.379385780512021e-17 	7.71926508729682e-18 5.60745927178234e-17 0.0
-3.8000000000000003 	2.6205782655107647e-16 	6.436781551595354e-17 	7.787395286500292e-18 5.658042022945325e-17 0.0
-3.799 	2.625610357039638e-16 	6.490625142864706e-17 	7.856134224108953e-18 5.70501172045381e-17 0.0
-3.798 	2.6309923024519583e-16 	6.548142684076365e-17 	7.925482124595697e-18 5.755594471616795e-17 0.0
-3.797 	2.6360337556153547e-16 	6.602103921586413e-17 	7.99539752461132e-18 5.802564169125281e-17 0.0
-3.7960000000000003 	2.7161779483844283e-16 	6.659739152329967e-17 	8.065922320417006e-18 5.853146920288266e-17 0.0
-3.795 	2.796326992173021e-16 	6.717435345099817e-17 	8.137056736485659e-18 5.903729671451251e-17 0.0
-3.794 	2.8020733463135747e-16 	6.778809744779962e-17 	8.208842685112267e-18 5.957925476268735e-17 0.0
-3.793 	2.8074795470786666e-16 	6.836632099329857e-17 	8.281238718981372e-18 6.00850822743172e-17 0.0
-3.7920000000000003 	2.8132356124445875e-16 	6.898128538505794e-17 	8.354245062565887e-18 6.062704032249205e-17 0.0
-3.791 	2.7438986457301497e-16 	6.95607297744606e-17 	8.427861940338693e-18 6.11328678341219e-17 0.0
-3.79 	2.8988255176545825e-16 	7.014082661034652e-17 	8.502131264594778e-18 6.163869534575175e-17 0.0
-3.789 	2.904941834934979e-16 	7.079383720631237e-17 	8.577053275840808e-18 6.221678393047157e-17 0.0
-3.7880000000000003 	2.910373331659747e-16 	7.137523965668486e-17 	8.652628214583437e-18 6.272261144210142e-17 0.0
-3.787 	2.916500042122833e-16 	7.20295563481506e-17 	8.728856321329341e-18 6.330070002682126e-17 0.0
-3.786 	2.921941935857927e-16 	7.261226537503629e-17 	8.805737836585189e-18 6.380652753845111e-17 0.0
-3.785 	3.002831929436333e-16 	7.326788912402855e-17 	8.883273000857622e-18 6.438461612317093e-17 0.0
-3.7840000000000003 	2.9338766853832387e-16 	7.388807791382119e-17 	8.96150374247542e-18 6.492657417134577e-17 0.0
-3.783 	3.0144327429445136e-16 	7.450896253749963e-17 	9.040430317979031e-18 6.54685322195206e-17 0.0
-3.782 	3.095339015973342e-16 	7.516663210032721e-17 	9.120011296086769e-18 6.604662080424044e-17 0.0
-3.781 	3.1014979477396907e-16 	7.582499799408771e-17 	9.200288605127446e-18 6.662470938896026e-17 0.0
-3.7800000000000002 	3.1076624225623247e-16 	7.648406047532156e-17 	9.281262501641461e-18 6.72027979736801e-17 0.0
-3.779 	3.1138324424826496e-16 	7.714381980056918e-17 	9.362933242169264e-18 6.778088655839992e-17 0.0
-3.778 	3.1947608918194294e-16 	7.780427622637109e-17 	9.44530108325133e-18 6.835897514311976e-17 0.0
-3.777 	3.2760402301602834e-16 	7.850160223363476e-17 	9.528407969250183e-18 6.897319426438457e-17 0.0
-3.7760000000000002 	3.207819355295919e-16 	7.919962587056731e-17 	9.612212484917927e-18 6.958741338564939e-17 0.0
-3.775 	3.13925902572743e-16 	7.986221685716425e-17 	9.696714886795034e-18 7.016550197036921e-17 0.0
-3.774 	3.2949635618804005e-16 	8.052558936215513e-17 	9.781998807066079e-18 7.074359055508905e-17 0.0
-3.773 	3.3018579073976113e-16 	8.126192137159381e-17 	9.867981158694953e-18 7.139394021289886e-17 0.0
-3.7720000000000002 	3.308068459952136e-16 	8.192677437148493e-17 	9.954745573866247e-18 7.197202879761868e-17 0.0
-3.771 	3.389727473040962e-16 	8.266458742097227e-17 	1.004220896554377e-17 7.262237845542849e-17 0.0
-3.77 	3.3215419410454073e-16 	8.336705254260545e-17 	1.0130454965912145e-17 7.323659757669331e-17 0.0
-3.769 	3.402868403466513e-16 	8.407030056153751e-17 	1.0219483863579384e-17 7.385081669795812e-17 0.0
-3.7680000000000002 	3.4845457744126416e-16 	8.481042061509934e-17 	1.0309254259331412e-17 7.450116635576793e-17 0.0
-3.767 	3.491476497408936e-16 	8.555132412714225e-17 	1.0399808113564504e-17 7.515151601357774e-17 0.0
-3.766 	3.4984134570293353e-16 	8.629301138627424e-17 	1.0491145714886689e-17 7.580186567138755e-17 0.0
-3.765 	3.505356655570423e-16 	8.70354826811033e-17 	1.0583267351905938e-17 7.645221532919736e-17 0.0
-3.7640000000000002 	3.587058977606137e-16 	8.777873830023742e-17 	1.067617331323027e-17 7.710256498700716e-17 0.0
-3.763 	3.669112882979274e-16 	8.855895075665173e-17 	1.0769905575289773e-17 7.778904518136196e-17 0.0
-3.762 	3.6016672697357166e-16 	8.933994813062089e-17 	1.0864422754904131e-17 7.847552537571676e-17 0.0
-3.761 	3.608636110637628e-16 	9.008564186202999e-17 	1.0959766828503426e-17 7.912587503352656e-17 0.0
-3.7600000000000002 	3.6907094242992413e-16 	9.08682933286108e-17 	1.1055938100729445e-17 7.981235522788136e-17 0.0
-3.759 	3.698036108766441e-16 	9.165173061063803e-17 	1.1152895188401868e-17 8.049883542223616e-17 0.0
-3.758 	3.7053697120702444e-16 	9.243603737236382e-17 	1.125072175577287e-17 8.118531561659095e-17 0.0
-3.757 	3.787463119039766e-16 	9.32212139344638e-17 	1.1349418123518044e-17 8.187179581094575e-17 0.0
-3.7560000000000002 	3.869908126315899e-16 	9.404334946633635e-17 	1.1448942924490807e-17 8.259440654184554e-17 0.0
-3.755 	3.8776068459504253e-16 	9.486631373607826e-17 	1.1549296463332942e-17 8.331701727274532e-17 0.0
-3.754 	3.885312494373412e-16 	9.569014873615345e-17 	1.165052073250834e-17 8.403962800364511e-17 0.0
-3.753 	3.8930250741366137e-16 	9.651485478723743e-17 	1.1752616052692533e-17 8.47622387345449e-17 0.0
-3.7520000000000002 	3.900744587791792e-16 	9.734043221000575e-17 	1.1855582744561071e-17 8.548484946544468e-17 0.0
-3.751 	3.908471369619242e-16 	9.81669230129561e-17 	1.1959462816611644e-17 8.620746019634446e-17 0.0
-3.75 	4.065711186853023e-16 	9.899432753279782e-17 	1.2064256605553564e-17 8.693007092724426e-17 0.0
-3.749 	4.074142197524576e-16 	9.989486549150804e-17 	1.2169922760274025e-17 8.772494273123401e-17 0.0
-3.748 	4.0818904680887887e-16 	1.007240567514045e-16 	1.2276503289270697e-17 8.84475534621338e-17 0.0
-3.747 	4.0903360336051295e-16 	1.0162642379537651e-16 	1.2383998529252951e-17 8.924242526612356e-17 0.0
-3.746 	4.0980991961013593e-16 	1.0245748650177553e-16 	1.2492450504752183e-17 8.996503599702336e-17 0.0
-3.745 	4.256065423590714e-16 	1.0336172568170254e-16 	1.2601817880689419e-17 9.075990780101311e-17 0.0
-3.744 	4.2645331734530453e-16 	1.0426688059877684e-16 	1.2712100993773969e-17 9.155477960500288e-17 0.0
-3.743 	4.2730085446509527e-16 	1.0517299327752995e-16 	1.2823341868537294e-17 9.234965140899265e-17 0.0
-3.742 	4.2814915399913713e-16 	1.0608006407070491e-16 	1.2935540857722491e-17 9.314452321298242e-17 0.0
-3.741 	4.289982162281233e-16 	1.069880933310448e-16 	1.304869831407263e-17 9.393939501697217e-17 0.0
-3.74 	4.2984804143274725e-16 	1.078970814112928e-16 	1.3162814590330859e-17 9.473426682096194e-17 0.0
-3.739 	4.3817395129429203e-16 	1.0880707035201406e-16 	1.3277931727062358e-17 9.552913862495171e-17 0.0
-3.738 	4.465351586879771e-16 	1.0975419105853048e-16 	1.3394050093044034e-17 9.636014096548646e-17 0.0
-3.737 	4.474218748700156e-16 	1.10702313363074e-16 	1.3511170057052786e-17 9.719114330602122e-17 0.0
-3.736 	4.4830938836159555e-16 	1.1165143763442144e-16 	1.3629291987865481e-17 9.802214564655597e-17 0.0
-3.735 	4.566729876839051e-16 	1.1260156424134972e-16 	1.3748416254259006e-17 9.885314798709071e-17 0.0
-3.734 	4.650718857121634e-16 	1.135888240891807e-16 	1.3868543225010234e-17 9.972028086417047e-17 0.0
-3.733 	4.659963268754379e-16 	1.1457712869796842e-16 	1.3989714956718206e-17 1.0058741374125021e-16 0.0
-3.732 	4.669215997076751e-16 	1.1556647845252345e-16 	1.4111931834193492e-17 1.0145454661832995e-16 0.0
-3.731 	4.67847704515086e-16 	1.1655687373765653e-16 	1.4235194242246848e-17 1.0232167949540969e-16 0.0
-3.73 	4.687746416038817e-16 	1.1754831493817832e-16 	1.435950256568887e-17 1.0318881237248943e-16 0.0
-3.729 	4.771777326808624e-16 	1.1854084412672153e-16 	1.4484898877152347e-17 1.0405594524956918e-16 0.0
-3.728 	4.856161906467656e-16 	1.1957059224067566e-16 	1.4611383577481746e-17 1.0495920866319391e-16 0.0
-3.727 	4.865802267833219e-16 	1.2060142914434014e-16 	1.4738957067521492e-17 1.0586247207681864e-16 0.0
-3.726 	4.87545129637237e-16 	1.2163335523855936e-16 	1.4867619748115985e-17 1.0676573549044338e-16 0.0
-3.725 	4.9598622092807e-16 	1.226664126119999e-16 	1.4997413707931783e-17 1.0766899890406811e-16 0.0
-3.724 	5.044626803964632e-16 	1.2373669053026288e-16 	1.5128297676025048e-17 1.0860839285423783e-16 0.0
-3.723 	5.054647193241472e-16 	1.248080588576478e-16 	1.526027205324023e-17 1.0954778680440755e-16 0.0
-3.722 	5.064676594306818e-16 	1.2588055968282105e-16 	1.5393378928243797e-17 1.1048718075457727e-16 0.0
-3.721 	5.074715342206488e-16 	1.2695423511048312e-16 	1.552766040573612e-17 1.11426574704747e-16 0.0