  -2.50000004E-02   0.00000000    
  -2.25000009E-02   0.00000000    
  -1.99999996E-02   0.00000000    
  -1.75000001E-02   0.00000000    
  -1.49999997E-02   2.89491025E-30
  -1.25000002E-02   1.11963283E-29
  -9.99999978E-03   3.21382277E-29
  -7.49999983E-03   9.15390952E-29
  -4.99999989E-03   2.14761893E-28
  -2.49999994E-03   3.61800457E-28
   0.00000000       5.56755917E-28
   2.49999994E-03   1.09975992E-27
   4.99999989E-03   2.23835160E-27
   7.49999983E-03   4.31735908E-27
   9.99999978E-03   7.63654026E-27
   1.25000002E-02   1.25070877E-26
   1.49999997E-02   1.89862334E-26
   1.75000001E-02   2.74341849E-26
   1.99999996E-02   3.81431535E-26
   2.25000009E-02   5.09660259E-26
   2.50000004E-02   6.71339304E-26
   2.74999999E-02   8.82775844E-26
   2.99999993E-02   1.16182892E-25
   3.24999988E-02   1.54643990E-25
   3.50000001E-02   2.08871312E-25
   3.75000015E-02   2.85748001E-25
   3.99999991E-02   3.94626238E-25
   4.25000004E-02   5.53004954E-25
   4.50000018E-02   7.89525619E-25
   4.74999994E-02   1.14879605E-24
   5.00000007E-02   1.68918588E-24
   5.24999984E-02   2.48938390E-24
   5.49999997E-02   3.65551202E-24
   5.75000010E-02   5.32525879E-24
   5.99999987E-02   7.68089566E-24
   6.25000000E-02   1.09554297E-23
   6.49999976E-02   1.54384465E-23
   6.75000027E-02   2.14947873E-23
   7.00000003E-02   2.95714166E-23
   7.24999979E-02   4.01957858E-23
   7.50000030E-02   5.39988984E-23
   7.75000006E-02   7.17227349E-23
   7.99999982E-02   9.42233704E-23
   8.25000033E-02   1.22463032E-22
   8.50000009E-02   1.57522699E-22
   8.74999985E-02   2.00588926E-22
   9.00000036E-02   2.52941396E-22
   9.25000012E-02   3.15920440E-22
   9.49999988E-02   3.90911350E-22
   9.74999964E-02   4.79322135E-22
  0.100000001       5.82511402E-22
  0.102499999       7.01776669E-22
  0.104999997       8.38279141E-22
  0.107500002       9.92984281E-22
  0.109999999       1.16656579E-21
  0.112499997       1.35937925E-21
  0.115000002       1.57135407E-21
  0.117500000       1.80191886E-21
  0.119999997       2.04990401E-21
  0.122500002       2.31347655E-21
  0.125000000       2.58996874E-21
  0.127499998       2.87579296E-21
  0.129999995       3.16632925E-21
  0.132499993       3.45581924E-21
  0.135000005       3.73728642E-21
  0.137500003       4.00242366E-21
  0.140000001       4.24153217E-21
  0.142499998       4.44338484E-21
  0.144999996       4.59515269E-21
  0.147499993       4.68241499E-21
  0.150000006       4.68906192E-21
  0.152500004       4.59721216E-21
  0.155000001       4.38727873E-21
  0.157499999       4.03790680E-21
  0.159999996       3.52611343E-21
  0.162499994       2.82732656E-21
  0.165000007       1.91543768E-21
  0.167500004       7.62892563E-22
  0.170000002      -6.59098815E-22
  0.172499999      -2.38043294E-21
  0.174999997      -4.43186489E-21
  0.177499995      -6.84476286E-21
  0.180000007      -9.65081476E-21
  0.182500005      -1.28816918E-20
  0.185000002      -1.65687007E-20
  0.187500000      -2.07423083E-20
  0.189999998      -2.54317083E-20
  0.192499995      -3.06643802E-20
  0.194999993      -3.64655723E-20
  0.197500005      -4.28575588E-20
  0.200000003      -4.98592000E-20
  0.202500001      -5.74853303E-20
  0.204999998      -6.57461698E-20
  0.207499996      -7.46466073E-20
  0.209999993      -8.41854150E-20
  0.212500006      -9.43547412E-20
  0.215000004      -1.05139212E-19
  0.217500001      -1.16515601E-19
  0.219999999      -1.28451727E-19
  0.222499996      -1.40906159E-19
  0.224999994      -1.53827560E-19
  0.227500007      -1.67154241E-19
  0.230000004      -1.80813449E-19
  0.232500002      -1.94721444E-19
  0.234999999      -2.08782584E-19
  0.237499997      -2.22889322E-19
  0.239999995      -2.36921769E-19
  0.242500007      -2.50747731E-19
  0.245000005      -2.64222813E-19
  0.247500002      -2.77190731E-19
  0.250000000      -2.89483772E-19
  0.252499998      -3.00922853E-19
  0.254999995      -3.11318497E-19
  0.257499993      -3.20471328E-19
  0.259999990      -3.28173000E-19
  0.262499988      -3.34207928E-19
  0.264999986      -3.38353809E-19
  0.267500013      -3.40384021E-19
  0.270000011      -3.40068296E-19
  0.272500008      -3.37175697E-19
  0.275000006      -3.31475441E-19
  0.277500004      -3.22739690E-19
  0.280000001      -3.10746708E-19
  0.282499999      -2.95282567E-19
  0.284999996      -2.76144063E-19
  0.287499994      -2.53142057E-19
  0.289999992      -2.26104211E-19
  0.292499989      -1.94878091E-19
  0.294999987      -1.59334567E-19
  0.297500014      -1.19370809E-19
  0.300000012      -7.49144070E-20
  0.302500010      -2.59254528E-20
  0.305000007       2.75990395E-20
  0.307500005       8.56222471E-20
  0.310000002       1.48063998E-19
  0.312500000       2.14797376E-19
  0.314999998       2.85646559E-19
  0.317499995       3.60383335E-19
  0.319999993       4.38725275E-19
  0.322499990       5.20332743E-19
  0.324999988       6.04807632E-19
  0.327499986       6.91690134E-19
  0.330000013       7.80457109E-19
  0.332500011       8.70523532E-19
  0.335000008       9.61240223E-19
  0.337500006       1.05189529E-18
  0.340000004       1.14171356E-18
  0.342500001       1.22985896E-18
  0.344999999       1.31543441E-18
  0.347499996       1.39748556E-18
  0.349999994       1.47500427E-18
  0.352499992       1.54693176E-18
  0.354999989       1.61216395E-18
  0.357499987       1.66955591E-18
  0.360000014       1.71792809E-18
  0.362500012       1.75607321E-18
  0.365000010       1.78276385E-18
  0.367500007       1.79675871E-18
  0.370000005       1.79681475E-18
  0.372500002       1.78169431E-18
  0.375000000       1.75017562E-18
  0.377499998       1.70106612E-18
  0.379999995       1.63321270E-18
  0.382499993       1.54551284E-18
  0.384999990       1.43692594E-18
  0.387499988       1.30648887E-18
  0.389999986       1.15332842E-18
  0.392500013       9.76673346E-19
  0.395000011       7.75869152E-19
  0.397500008       5.50395330E-19
  0.400000006       2.99876676E-19
  0.402500004       2.40961461E-20
  0.405000001      -2.76990165E-19
  0.407499999      -6.03239815E-19
  0.409999996      -9.54309587E-19
  0.412499994      -1.32964362E-18
  0.414999992      -1.72846234E-18
  0.417499989      -2.14975039E-18
  0.419999987      -2.59225066E-18
  0.422500014      -3.05445147E-18
  0.425000012      -3.53458081E-18
  0.427500010      -4.03059883E-18
  0.430000007      -4.54019338E-18
  0.432500005      -5.06077826E-18
  0.435000002      -5.58949018E-18
  0.437500000      -6.12319290E-18
  0.439999998      -6.65847513E-18
  0.442499995      -7.19165548E-18
  0.444999993      -7.71878874E-18
  0.447499990      -8.23568067E-18
  0.449999988      -8.73789428E-18
  0.452499986      -9.22076344E-18
  0.455000013      -9.67941441E-18
  0.457500011      -1.01087807E-17
  0.460000008      -1.05036230E-17
  0.462500006      -1.08585571E-17
  0.465000004      -1.11680806E-17
  0.467500001      -1.14266027E-17
  0.469999999      -1.16284761E-17
  0.472499996      -1.17680248E-17
  0.474999994      -1.18395941E-17
  0.477499992      -1.18375799E-17
  0.479999989      -1.17564699E-17
  0.482499987      -1.15908915E-17
  0.485000014      -1.13356558E-17
  0.487500012      -1.09857998E-17
  0.490000010      -1.05366399E-17
  0.492500007      -9.98381605E-18
  0.495000005      -9.32334294E-18
  0.497500002      -8.55165704E-18
  0.500000000      -7.66567547E-18
  0.502499998      -6.66283975E-18
  0.504999995      -5.54115678E-18
  0.507499993      -4.29926710E-18
  0.509999990      -2.93647608E-18
  0.512499988      -1.45280967E-18
  0.514999986       1.50949385E-19
  0.517499983       1.87322101E-18
  0.519999981       3.71158422E-18
  0.522499979       5.66274778E-18
  0.524999976       7.72251767E-18
  0.527499974       9.88578357E-18
  0.529999971       1.21464723E-17
  0.532500029       1.44975496E-17
  0.535000026       1.69310140E-17
  0.537500024       1.94378841E-17
  0.540000021       2.20082056E-17
  0.542500019       2.46310696E-17
  0.545000017       2.72946143E-17
  0.547500014       2.99860582E-17
  0.550000012       3.26917263E-17
  0.552500010       3.53971164E-17
  0.555000007       3.80868894E-17
  0.557500005       4.07449979E-17
  0.560000002       4.33547097E-17
  0.562500000       4.58986839E-17
  0.564999998       4.83590664E-17
  0.567499995       5.07175701E-17
  0.569999993       5.29555966E-17
  0.572499990       5.50543159E-17
  0.574999988       5.69947956E-17
  0.577499986       5.87581329E-17
  0.579999983       6.03255674E-17
  0.582499981       6.16786297E-17
  0.584999979       6.27992808E-17
  0.587499976       6.36700571E-17
  0.589999974       6.42742298E-17
  0.592499971       6.45959568E-17
  0.595000029       6.46204347E-17
  0.597500026       6.43340714E-17
  0.600000024       6.37246510E-17
  0.602500021       6.27815130E-17
  0.605000019       6.14956706E-17
  0.607500017       5.98600037E-17
  0.610000014       5.78694299E-17
  0.612500012       5.55210046E-17
  0.615000010       5.28141322E-17
  0.617500007       4.97506721E-17
  0.620000005       4.63350779E-17
  0.622500002       4.25745692E-17
  0.625000000       3.84792079E-17
  0.627499998       3.40619907E-17
  0.629999995       2.93390375E-17
  0.632499993       2.43295772E-17
  0.634999990       1.90560807E-17
  0.637499988       1.35442951E-17
  0.639999986       7.82328977E-18
  0.642499983       1.92550338E-18
  0.644999981      -4.11322136E-18
  0.647499979      -1.02536448E-17
  0.649999976      -1.64531931E-17
  0.652499974      -2.26659465E-17
  0.654999971      -2.88427126E-17
  0.657500029      -3.49310531E-17
  0.660000026      -4.08753947E-17
  0.662500024      -4.66171068E-17
  0.665000021      -5.20946108E-17
  0.667500019      -5.72434924E-17
  0.670000017      -6.19967303E-17
  0.672500014      -6.62846559E-17
  0.675000012      -7.00352384E-17
  0.677500010      -7.31742433E-17
  0.680000007      -7.56253316E-17
  0.682500005      -7.73103250E-17
  0.685000002      -7.81492913E-17
  0.687500000      -7.80607565E-17
  0.689999998      -7.69619165E-17
  0.692499995      -7.47687695E-17
  0.694999993      -7.13962549E-17
  0.697499990      -6.67584187E-17
  0.699999988      -6.07686053E-17
  0.702499986      -5.33395176E-17
  0.704999983      -4.43833221E-17
  0.707499981      -3.38117785E-17
  0.709999979      -2.15362511E-17
  0.712499976      -7.46772536E-18
  0.714999974       8.48312844E-18
  0.717499971       2.64059428E-17
  0.720000029       4.63908960E-17
  0.722500026       6.85287109E-17
  0.725000024       9.29107330E-17
  0.727500021       1.19629282E-16
  0.730000019       1.48777751E-16
  0.732500017       1.80450999E-16
  0.735000014       2.14745576E-16
  0.737500012       2.51760215E-16
  0.740000010       2.91596148E-16
  0.742500007       3.34357627E-16
  0.745000005       3.80152516E-16
  0.747500002       4.29092836E-16
  0.750000000       4.81295397E-16
  0.752499998       5.36882463E-16
  0.754999995       5.95982493E-16
  0.757499993       6.58730853E-16
  0.759999990       7.25270743E-16
  0.762499988       7.95753784E-16
  0.764999986       8.70341229E-16
  0.767499983       9.49204708E-16
  0.769999981       1.03252692E-15
  0.772499979       1.12050304E-15
  0.774999976       1.21334145E-15
  0.777499974       1.31126449E-15
  0.779999971       1.41450976E-15
  0.782500029       1.52333073E-15
  0.785000026       1.63799792E-15
  0.787500024       1.75879975E-15
  0.790000021       1.88604295E-15
  0.792500019       2.02005415E-15
  0.795000017       2.16117979E-15
  0.797500014       2.30978791E-15
  0.800000012       2.46626708E-15
  0.802500010       2.63102875E-15
  0.805000007       2.80450576E-15
  0.807500005       2.98715423E-15
  0.810000002       3.17945336E-15
  0.812500000       3.38190440E-15
  0.814999998       3.59503187E-15
  0.817499995       3.81938252E-15
  0.819999993       4.05552599E-15
  0.822499990       4.30405223E-15
  0.824999988       4.56557281E-15
  0.827499986       4.84071833E-15
  0.829999983       5.13013805E-15
  0.832499981       5.43449944E-15
  0.834999979       5.75448519E-15
  0.837499976       6.09079158E-15
  0.839999974       6.44412756E-15
  0.842499971       6.81521142E-15
  0.845000029       7.20476992E-15
  0.847500026       7.61353447E-15
  0.850000024       8.04223902E-15
  0.852500021       8.49161626E-15
  0.855000019       8.96239632E-15
  0.857500017       9.45530174E-15
  0.860000014       9.97104485E-15
  0.862500012       1.05103228E-14
  0.865000010       1.10738182E-14
  0.867500007       1.16621902E-14
  0.870000005       1.22760722E-14
  0.872500002       1.29160700E-14
  0.875000000       1.35827561E-14
  0.877499998       1.42766624E-14
  0.879999995       1.49982853E-14
  0.882499993       1.57480704E-14
  0.884999990       1.65264175E-14
  0.887499988       1.73336721E-14
  0.889999986       1.81701222E-14
  0.892499983       1.90359982E-14
  0.894999981       1.99314645E-14
  0.897499979       2.08566193E-14
  0.899999976       2.18114931E-14
  0.902499974       2.27960419E-14
  0.904999971       2.38101470E-14
  0.907500029       2.48536136E-14
  0.910000026       2.59261708E-14
  0.912500024       2.70274695E-14
  0.915000021       2.81570794E-14
  0.917500019       2.93144923E-14
  0.920000017       3.04991187E-14
  0.922500014       3.17102911E-14
  0.925000012       3.29472743E-14
  0.927500010       3.42092518E-14
  0.930000007       3.54953358E-14
  0.932500005       3.68045709E-14
  0.935000002       3.81359441E-14
  0.937500000       3.94883745E-14
  0.939999998       4.08607372E-14
  0.942499995       4.22518601E-14
  0.944999993       4.36605199E-14
  0.947499990       4.50854733E-14
  0.949999988       4.65254463E-14
  0.952499986       4.79791479E-14
  0.954999983       4.94452874E-14
  0.957499981       5.09225705E-14
  0.959999979       5.24097198E-14
  0.962499976       5.39054715E-14
  0.964999974       5.54086162E-14
  0.967499971       5.69179713E-14
  0.970000029       5.84324256E-14
  0.972500026       5.99509388E-14
  0.975000024       6.14725285E-14
  0.977500021       6.29963340E-14
  0.980000019       6.45215963E-14
  0.982500017       6.60476516E-14
  0.985000014       6.75739914E-14
  0.987500012       6.91002363E-14
  0.990000010       7.06261492E-14
  0.992500007       7.21516691E-14
  0.995000005       7.36768841E-14
  0.997500002       7.52020719E-14
   1.00000000       7.67276935E-14
   1.00250006       7.82543924E-14
   1.00500000       7.97830294E-14
   1.00750005       8.13146276E-14
   1.00999999       8.28504542E-14
   1.01250005       8.43919322E-14
   1.01499999       8.59407218E-14
   1.01750004       8.74986525E-14
   1.01999998       8.90677641E-14
   1.02250004       9.06502724E-14
   1.02499998       9.22485558E-14
   1.02750003       9.38651826E-14
   1.02999997       9.55028361E-14
   1.03250003       9.71643623E-14
   1.03499997       9.88526955E-14
   1.03750002       1.00570885E-13
   1.03999996       1.02322034E-13
   1.04250002       1.04109287E-13
   1.04499996       1.05935802E-13
   1.04750001       1.07804736E-13
   1.04999995       1.09719173E-13
   1.05250001       1.11682114E-13
   1.05499995       1.13696446E-13
   1.05750000       1.15764874E-13
   1.05999994       1.17889910E-13
   1.06250000       1.20073819E-13
   1.06500006       1.22318537E-13
   1.06750000       1.24625692E-13
   1.07000005       1.26996517E-13
   1.07249999       1.29431784E-13
   1.07500005       1.31931792E-13
   1.07749999       1.34496282E-13
   1.08000004       1.37124429E-13
   1.08249998       1.39814755E-13
   1.08500004       1.42565132E-13
   1.08749998       1.45372619E-13
   1.09000003       1.48233585E-13
   1.09249997       1.51143502E-13
   1.09500003       1.54097045E-13
   1.09749997       1.57087952E-13
   1.10000002       1.60109000E-13
   1.10249996       1.63152071E-13
   1.10500002       1.66208030E-13
   1.10749996       1.69266673E-13
   1.11000001       1.72316846E-13
   1.11249995       1.75346337E-13
   1.11500001       1.78341865E-13
   1.11749995       1.81289188E-13
   1.12000000       1.84172949E-13
   1.12249994       1.86976872E-13
   1.12500000       1.89683677E-13
   1.12750006       1.92275178E-13
   1.13000000       1.94732251E-13
   1.13250005       1.97035015E-13
   1.13499999       1.99162789E-13
   1.13750005       2.01094214E-13
   1.13999999       2.02807335E-13
   1.14250004       2.04279749E-13
   1.14499998       2.05488607E-13
   1.14750004       2.06410857E-13
   1.14999998       2.07023268E-13
   1.15250003       2.07302708E-13
   1.15499997       2.07226136E-13
   1.15750003       2.06770907E-13
   1.15999997       2.05914875E-13
   1.16250002       2.04636614E-13
   1.16499996       2.02915592E-13
   1.16750002       2.00732402E-13
   1.16999996       1.98068951E-13
   1.17250001       1.94908746E-13
   1.17499995       1.91237027E-13
   1.17750001       1.87041097E-13
   1.17999995       1.82310533E-13
   1.18250000       1.77037408E-13
   1.18499994       1.71216611E-13
   1.18750000       1.64846029E-13
   1.19000006       1.57926840E-13
   1.19250000       1.50463802E-13
   1.19500005       1.42465467E-13
   1.19749999       1.33944369E-13
   1.20000005       1.24917424E-13
   1.20249999       1.15406084E-13
   1.20500004       1.05436506E-13
   1.20749998       9.50398953E-14
   1.21000004       8.42525919E-14
   1.21249998       7.31163990E-14
   1.21500003       6.16786217E-14
   1.21749997       4.99923284E-14
   1.22000003       3.81164318E-14
   1.22249997       2.61158215E-14
   1.22500002       1.40614677E-14
   1.22749996       2.03046969E-15
   1.23000002      -9.89392419E-15
   1.23249996      -2.16222931E-14
   1.23500001      -3.30590793E-14
   1.23749995      -4.41026542E-14
   1.24000001      -5.46454090E-14
   1.24249995      -6.45739091E-14
   1.24500000      -7.37690752E-14
   1.24749994      -8.21064001E-14
   1.25000000      -8.94562270E-14
   1.25250006      -9.56840401E-14
   1.25500000      -1.00650845E-13
   1.25750005      -1.04213560E-13
   1.25999999      -1.06225467E-13
   1.26250005      -1.06536721E-13
   1.26499999      -1.04994911E-13
   1.26750004      -1.01445633E-13
   1.26999998      -9.57331477E-14
   1.27250004      -8.77010934E-14
   1.27499998      -7.71932228E-14
   1.27750003      -6.40541765E-14
   1.27999997      -4.81303670E-14
   1.28250003      -2.92707922E-14
   1.28499997      -7.32804794E-15
   1.28750002       1.78407585E-14
   1.28999996       4.63730074E-14
   1.29250002       7.83995332E-14
   1.29499996       1.14043432E-13
   1.29750001       1.53419161E-13
   1.29999995       1.96631258E-13
   1.30250001       2.43773155E-13
   1.30499995       2.94926193E-13
   1.30750000       3.50158270E-13
   1.30999994       4.09522758E-13
   1.31250000       4.73057303E-13
   1.31500006       5.40782425E-13
   1.31750000       6.12700700E-13
   1.32000005       6.88795483E-13
   1.32249999       7.69029534E-13
   1.32500005       8.53344197E-13
   1.32749999       9.41658101E-13
   1.33000004       1.03386635E-12
   1.33249998       1.12983960E-12
   1.33500004       1.22942249E-12
   1.33749998       1.33243395E-12
   1.34000003       1.43866516E-12
   1.34249997       1.54787999E-12
   1.34500003       1.65981345E-12
   1.34749997       1.77417185E-12
   1.35000002       1.89063175E-12
   1.35249996       2.00884058E-12
   1.35500002       2.12841572E-12
   1.35749996       2.24894474E-12
   1.36000001       2.36998550E-12
   1.36249995       2.49106660E-12
   1.36500001       2.61168669E-12
   1.36749995       2.73131669E-12
   1.37000000       2.84939975E-12
   1.37249994       2.96535171E-12
   1.37500000       3.07856236E-12
   1.37750006       3.18839703E-12
   1.38000000       3.29419781E-12
   1.38250005       3.39528557E-12
   1.38499999       3.49096099E-12
   1.38750005       3.58050655E-12
   1.38999999       3.66318954E-12
   1.39250004       3.73826360E-12
   1.39499998       3.80497153E-12
   1.39750004       3.86254917E-12
   1.39999998       3.91022588E-12
   1.40250003       3.94722926E-12
   1.40499997       3.97278955E-12
   1.40750003       3.98613998E-12
   1.40999997       3.98652378E-12
   1.41250002       3.97319547E-12
   1.41499996       3.94542645E-12
   1.41750002       3.90250722E-12
   1.41999996       3.84375387E-12
   1.42250001       3.76851111E-12
   1.42499995       3.67615660E-12
   1.42750001       3.56610661E-12
   1.42999995       3.43781861E-12
   1.43250000       3.29079819E-12
   1.43499994       3.12460236E-12
   1.43750000       2.93884426E-12
   1.44000006       2.73319865E-12
   1.44250000       2.50740596E-12
   1.44500005       2.26127754E-12
   1.44749999       1.99469954E-12
   1.45000005       1.70763750E-12
   1.45249999       1.40014150E-12
   1.45500004       1.07234946E-12
   1.45749998       7.24491539E-13
   1.46000004       3.56894066E-13
   1.46249998      -3.00169198E-14
   1.46500003      -4.35712311E-13
   1.46749997      -8.59556567E-13
   1.47000003      -1.30080549E-12
   1.47249997      -1.75860335E-12
   1.47500002      -2.23198109E-12
   1.47749996      -2.71985386E-12
   1.48000002      -3.22102154E-12
   1.48249996      -3.73416575E-12
   1.48500001      -4.25785102E-12
   1.48749995      -4.79052475E-12
   1.49000001      -5.33051728E-12
   1.49249995      -5.87604444E-12
   1.49500000      -6.42520759E-12
   1.49749994      -6.97599834E-12
   1.50000000      -7.52629903E-12
   1.50250006      -8.07388965E-12
   1.50500000      -8.61644957E-12
   1.50750005      -9.15156319E-12
   1.50999999      -9.67672643E-12
   1.51250005      -1.01893546E-11
   1.51499999      -1.06867857E-11
   1.51750004      -1.11662918E-11
   1.51999998      -1.16250872E-11
   1.52250004      -1.20603345E-11
   1.52499998      -1.24691611E-11
   1.52750003      -1.28486640E-11
   1.52999997      -1.31959270E-11
   1.53250003      -1.35080254E-11
   1.53499997      -1.37820467E-11
   1.53750002      -1.40150998E-11
   1.53999996      -1.42043304E-11
   1.54250002      -1.43469377E-11
   1.54499996      -1.44401869E-11
   1.54750001      -1.44814273E-11
   1.54999995      -1.44681081E-11
   1.55250001      -1.43977972E-11
   1.55499995      -1.42681969E-11
   1.55750000      -1.40771613E-11
   1.55999994      -1.38227199E-11
   1.56250000      -1.35030884E-11
   1.56500006      -1.31166935E-11
   1.56750000      -1.26621890E-11
   1.57000005      -1.21384786E-11
   1.57249999      -1.15447313E-11
   1.57500005      -1.08803990E-11
   1.57749999      -1.01452423E-11
   1.58000004      -9.33934267E-12
   1.58249998      -8.46312517E-12
   1.58500004      -7.51737214E-12
   1.58749998      -6.50324542E-12
   1.59000003      -5.42230063E-12
   1.59249997      -4.27650190E-12
   1.59500003      -3.06824206E-12
   1.59749997      -1.80035088E-12
   1.60000002      -4.76111988E-13
   1.60249996       9.00724645E-13
   1.60500002       2.32593307E-12
   1.60749996       3.79480735E-12
   1.61000001       5.30213980E-12
   1.61249995       6.84222904E-12
   1.61500001       8.40887082E-12
   1.61749995       9.99535697E-12
   1.62000000       1.15944684E-11
   1.62249994       1.31984883E-11
   1.62500000       1.47992018E-11
   1.62750006       1.63878980E-11
   1.63000000       1.79553854E-11
   1.63250005       1.94920070E-11
   1.63499999       2.09876456E-11
   1.63750005       2.24317544E-11
   1.63999999       2.38133714E-11
   1.64250004       2.51211343E-11
   1.64499998       2.63433338E-11
   1.64750004       2.74679203E-11
   1.64999998       2.84825479E-11
   1.65250003       2.93746139E-11
   1.65499997       3.01312968E-11
   1.65750003       3.07396088E-11
   1.65999997       3.11864388E-11
   1.66250002       3.14585996E-11
   1.66499996       3.15428933E-11
   1.66750002       3.14261672E-11
   1.66999996       3.10953832E-11
   1.67250001       3.05376696E-11
   1.67499995       2.97404046E-11
   1.67750001       2.86912820E-11
   1.67999995       2.73783982E-11
   1.68250000       2.57903143E-11
   1.68499994       2.39161503E-11
   1.68750000       2.17456678E-11
   1.69000006       1.92693500E-11
   1.69250000       1.64784974E-11
   1.69500005       1.33653158E-11
   1.69749999       9.92300860E-12
   1.70000005       6.14586290E-12
   1.70249999       2.02934869E-12
   1.70500004      -2.42979270E-12
   1.70749998      -7.23345299E-12
   1.71000004      -1.23820693E-11
   1.71249998      -1.78745335E-11
   1.71500003      -2.37081032E-11
   1.71749997      -2.98783151E-11
   1.72000003      -3.63789138E-11
   1.72249997      -4.32017512E-11
   1.72500002      -5.03367452E-11
   1.72749996      -5.77717874E-11
   1.73000002      -6.54926877E-11
   1.73249996      -7.34831085E-11
   1.73500001      -8.17245369E-11
   1.73749995      -9.01962463E-11
   1.74000001      -9.88752205E-11
   1.74249995      -1.07736202E-10
   1.74500000      -1.16751595E-10
   1.74749994      -1.25891547E-10
   1.75000000      -1.35123926E-10
   1.75250006      -1.44414286E-10
   1.75500000      -1.53726004E-10
   1.75750005      -1.63020278E-10
   1.75999999      -1.72256126E-10
   1.76250005      -1.81390597E-10
   1.76499999      -1.90378754E-10
   1.76750004      -1.99173802E-10
   1.76999998      -2.07727238E-10
   1.77250004      -2.15988963E-10
   1.77499998      -2.23907434E-10
   1.77750003      -2.31429861E-10
   1.77999997      -2.38502301E-10
   1.78250003      -2.45070020E-10
   1.78499997      -2.51077548E-10
   1.78750002      -2.56468957E-10
   1.78999996      -2.61188210E-10
   1.79250002      -2.65179184E-10
   1.79499996      -2.68386230E-10
   1.79750001      -2.70754225E-10
   1.79999995      -2.72228934E-10
   1.80250001      -2.72757483E-10
   1.80499995      -2.72288414E-10
   1.80750000      -2.70772127E-10
   1.80999994      -2.68161299E-10
   1.81250000      -2.64411049E-10
   1.81500006      -2.59479438E-10
   1.81750000      -2.53327692E-10
   1.82000005      -2.45920589E-10
   1.82249999      -2.37226905E-10
   1.82500005      -2.27219535E-10
   1.82749999      -2.15876012E-10
   1.83000004      -2.03178793E-10
   1.83249998      -1.89115487E-10
   1.83500004      -1.73679252E-10
   1.83749998      -1.56869018E-10
   1.84000003      -1.38689837E-10
   1.84249997      -1.19153007E-10
   1.84500003      -9.82764009E-11
   1.84749997      -7.60846178E-11
   1.85000002      -5.26091774E-11
   1.85249996      -2.78886376E-11
   1.85500002      -1.96872596E-12
   1.85749996       2.50976011E-11
   1.86000001       5.32501231E-11
   1.86249995       8.24213475E-11
   1.86500001       1.12536570E-10
   1.86749995       1.43513951E-10
   1.87000000       1.75264650E-10
   1.87249994       2.07693002E-10
   1.87500000       2.40696768E-10
   1.87750006       2.74167383E-10
   1.88000000       3.07990300E-10
   1.88250005       3.42045364E-10
   1.88499999       3.76207232E-10
   1.88750005       4.10345841E-10
   1.88999999       4.44326992E-10
   1.89250004       4.78012852E-10
   1.89499998       5.11262643E-10
   1.89750004       5.43933232E-10
   1.89999998       5.75880010E-10
   1.90250003       6.06957429E-10
   1.90499997       6.37019937E-10
   1.90750003       6.65922928E-10
   1.90999997       6.93523350E-10
   1.91250002       7.19680704E-10
   1.91499996       7.44258211E-10
   1.91750002       7.67123365E-10
   1.91999996       7.88149324E-10
   1.92250001       8.07215350E-10
   1.92499995       8.24208368E-10
   1.92750001       8.39023517E-10
   1.92999995       8.51565429E-10
   1.93250000       8.61748894E-10
   1.93499994       8.69499972E-10
   1.93750000       8.74757045E-10
   1.94000006       8.77471262E-10
   1.94250000       8.77607875E-10
   1.94500005       8.75146511E-10
   1.94749999       8.70082340E-10
   1.95000005       8.62426464E-10
   1.95249999       8.52206639E-10
   1.95500004       8.39467440E-10
   1.95749998       8.24270985E-10
   1.96000004       8.06697376E-10
   1.96249998       7.86844534E-10
   1.96500003       7.64828090E-10
   1.96749997       7.40782158E-10
   1.97000003       7.14858173E-10
   1.97249997       6.87225443E-10
   1.97500002       6.58070098E-10
   1.97749996       6.27594698E-10
   1.98000002       5.96017735E-10
   1.98249996       5.63572133E-10
   1.98500001       5.30505029E-10
   1.98749995       4.97075769E-10
   1.99000001       4.63554944E-10
   1.99249995       4.30222913E-10
   1.99500000       3.97367972E-10
   1.99749994       3.65284442E-10
   2.00000000       3.34270805E-10
   2.00250006       3.04627656E-10
   2.00500011       2.76655088E-10
   2.00749993       2.50650556E-10
   2.00999999       2.26906161E-10
   2.01250005       2.05705980E-10
   2.01500010       1.87323462E-10
   2.01749992       1.72018219E-10
   2.01999998       1.60033320E-10
   2.02250004       1.51592128E-10
   2.02500010       1.46895135E-10
   2.02749991       1.46116882E-10
   2.02999997       1.49402837E-10
   2.03250003       1.56866145E-10
   2.03500009       1.68584494E-10
   2.03749990       1.84597046E-10
   2.03999996       2.04901346E-10
   2.04250002       2.29450334E-10
   2.04500008       2.58149530E-10
   2.04749990       2.90854313E-10
   2.04999995       3.27367328E-10
   2.05250001       3.67436220E-10
   2.05500007       4.10751294E-10
   2.05749989       4.56943788E-10
   2.05999994       5.05584130E-10
   2.06250000       5.56180602E-10
   2.06500006       6.08178397E-10
   2.06750011       6.60958677E-10
   2.06999993       7.13838710E-10
   2.07249999       7.66071762E-10
   2.07500005       8.16847423E-10
   2.07750010       8.65292948E-10
   2.07999992       9.10474474E-10
   2.08249998       9.51399293E-10
   2.08500004       9.87017690E-10
   2.08750010       1.01622677E-09
   2.08999991       1.03787334E-09
   2.09249997       1.05075859E-09
   2.09500003       1.05364228E-09
   2.09750009       1.04524800E-09
   2.09999990       1.02426989E-09
   2.10249996       9.89378246E-10
   2.10500002       9.39226252E-10
   2.10750008       8.72458550E-10
   2.10999990       7.87719057E-10
   2.11249995       6.83659018E-10
   2.11500001       5.58947499E-10