  -2.50000004E-02   0.00000000    
  -2.25000009E-02   3.19484251E-17
  -1.99999996E-02   7.57275513E-17
  -1.75000001E-02   2.45612714E-16
  -1.49999997E-02   5.39722512E-16
  -1.25000002E-02   7.72983951E-16
  -9.99999978E-03   1.18834678E-15
  -7.49999983E-03   1.75974324E-15
  -4.99999989E-03   1.87200931E-15
  -2.49999994E-03   2.15981818E-15
   0.00000000       2.83208663E-15
   2.49999994E-03   3.19497482E-15
   4.99999989E-03   3.03632534E-15
   7.49999983E-03   3.37140141E-15
   9.99999978E-03   4.06697237E-15
   1.25000002E-02   4.52112518E-15
   1.49999997E-02   4.13686953E-15
   1.75000001E-02   2.74219780E-15
   1.99999996E-02   1.45553729E-15
   2.25000009E-02   2.05541057E-15
   2.50000004E-02   3.27208595E-15
   2.74999999E-02   3.57479075E-15
   2.99999993E-02   3.76147003E-15
   3.24999988E-02   4.45690992E-15
   3.50000001E-02   4.56923368E-15
   3.75000015E-02   2.61491607E-15
   3.99999991E-02   6.01838561E-16
   4.25000004E-02  -8.85745582E-16
   4.50000018E-02  -1.49290849E-15
   4.74999994E-02  -9.46356878E-16
   5.00000007E-02  -3.25083495E-15
   5.24999984E-02  -6.05364579E-15
   5.49999997E-02  -9.46125722E-15
   5.75000010E-02  -1.42611786E-14
   5.99999987E-02  -1.30425117E-14
   6.25000000E-02  -6.86672754E-15
   6.49999976E-02  -2.99382567E-15
   6.75000027E-02  -3.11946458E-15
   7.00000003E-02  -2.49305937E-15
   7.24999979E-02  -1.33858840E-15
   7.50000030E-02  -3.75939612E-16
   7.75000006E-02   7.12364450E-16
   7.99999982E-02  -2.08507451E-15
   8.25000033E-02  -4.34945362E-15
   8.50000009E-02  -2.62614243E-15
   8.74999985E-02  -4.76723399E-15
   9.00000036E-02  -8.51967846E-15
   9.25000012E-02  -1.00480418E-14
   9.49999988E-02  -9.56021862E-15
   9.74999964E-02  -9.74164885E-15
  0.100000001      -1.29925283E-14
  0.102499999      -1.21013988E-14
  0.104999997      -1.08737677E-14
  0.107500002      -1.05868302E-14
  0.109999999      -9.76170405E-15
  0.112499997      -1.08395145E-14
  0.115000002      -1.09953720E-14
  0.117500000      -7.10701724E-15
  0.119999997      -2.88802088E-15
  0.122500002       3.93336478E-16
  0.125000000       3.43532232E-15
  0.127499998       2.87173836E-15
  0.129999995       4.69040344E-15
  0.132499993       1.11296436E-14
  0.135000005       1.25095899E-14
  0.137500003       1.18915049E-14
  0.140000001       1.51265770E-14
  0.142499998       1.86545505E-14
  0.144999996       2.41786927E-14
  0.147499993       2.58520690E-14
  0.150000006       2.56025449E-14
  0.152500004       3.17475911E-14
  0.155000001       3.92165887E-14
  0.157499999       4.42207238E-14
  0.159999996       4.95652578E-14
  0.162499994       5.89118462E-14
  0.165000007       7.24497773E-14
  0.167500004       8.41018742E-14
  0.170000002       9.23602490E-14
  0.172499999       1.01682843E-13
  0.174999997       1.13325907E-13
  0.177499995       1.27254869E-13
  0.180000007       1.43431030E-13
  0.182500005       1.56041277E-13
  0.185000002       1.64545406E-13
  0.187500000       1.73475627E-13
  0.189999998       1.84216073E-13
  0.192499995       1.96111085E-13
  0.194999993       2.09584086E-13
  0.197500005       2.20014233E-13
  0.200000003       2.25086592E-13
  0.202500001       2.34111179E-13
  0.204999998       2.48363125E-13
  0.207499996       2.59152780E-13
  0.209999993       2.66584687E-13
  0.212500006       2.70635483E-13
  0.215000004       2.76688638E-13
  0.217500001       2.82844982E-13
  0.219999999       2.90082899E-13
  0.222499996       3.06760964E-13
  0.224999994       3.26666916E-13
  0.227500007       3.40992290E-13
  0.230000004       3.50976870E-13
  0.232500002       3.50681371E-13
  0.234999999       3.51213037E-13
  0.237499997       3.61363148E-13
  0.239999995       3.65496560E-13
  0.242500007       3.61184661E-13
  0.245000005       3.54824243E-13
  0.247500002       3.51498588E-13
  0.250000000       3.55107572E-13
  0.252499998       3.68102169E-13
  0.254999995       3.76447029E-13
  0.257499993       3.76561168E-13
  0.259999990       3.73392967E-13
  0.262499988       3.71237031E-13
  0.264999986       3.69560285E-13
  0.267500013       3.62649011E-13
  0.270000011       3.55485498E-13
  0.272500008       3.52215381E-13
  0.275000006       3.44741786E-13
  0.277500004       3.34587149E-13
  0.280000001       3.23912609E-13
  0.282499999       3.12008964E-13
  0.284999996       3.03660011E-13
  0.287499994       2.97635262E-13
  0.289999992       2.84019851E-13
  0.292499989       2.73441995E-13
  0.294999987       2.68849504E-13
  0.297500014       2.60801472E-13
  0.300000012       2.53700788E-13
  0.302500010       2.41065333E-13
  0.305000007       2.32973688E-13
  0.307500005       2.26823605E-13
  0.310000002       2.09053532E-13
  0.312500000       1.89541606E-13
  0.314999998       1.70784949E-13
  0.317499995       1.54403617E-13
  0.319999993       1.44311429E-13
  0.322499990       1.33343030E-13
  0.324999988       1.26227533E-13
  0.327499986       1.15618520E-13
  0.330000013       1.04674848E-13
  0.332500011       9.94139124E-14
  0.335000008       9.97974828E-14
  0.337500006       1.11896651E-13
  0.340000004       1.23827882E-13
  0.342500001       1.33480697E-13
  0.344999999       1.32223131E-13
  0.347499996       1.33649995E-13
  0.349999994       1.40057060E-13
  0.352499992       1.45970150E-13
  0.354999989       1.59160784E-13
  0.357499987       1.71517883E-13
  0.360000014       1.87270812E-13
  0.362500012       2.06059101E-13
  0.365000010       2.21843960E-13
  0.367500007       2.31476866E-13
  0.370000005       2.39389997E-13
  0.372500002       2.48952551E-13
  0.375000000       2.55379648E-13
  0.377499998       2.67207182E-13
  0.379999995       2.83961250E-13
  0.382499993       2.97947132E-13
  0.384999990       3.05036324E-13
  0.387499988       3.02265889E-13
  0.389999986       2.98370324E-13
  0.392500013       3.03696738E-13
  0.395000011       3.03971583E-13
  0.397500008       2.93099963E-13
  0.400000006       2.96106726E-13
  0.402500004       3.00578518E-13
  0.405000001       2.92732662E-13
  0.407499999       2.82501371E-13
  0.409999996       2.78874417E-13
  0.412499994       2.72489361E-13
  0.414999992       2.58613796E-13
  0.417499989       2.44553997E-13
  0.419999987       2.29335214E-13
  0.422500014       2.13298197E-13
  0.425000012       1.92648943E-13
  0.427500010       1.80562745E-13
  0.430000007       1.67478566E-13
  0.432500005       1.58563782E-13
  0.435000002       1.50825709E-13
  0.437500000       1.44909394E-13
  0.439999998       1.49895585E-13
  0.442499995       1.41561567E-13
  0.444999993       1.25571469E-13
  0.447499990       1.09728192E-13
  0.449999988       1.03500745E-13
  0.452499986       1.10748731E-13
  0.455000013       1.14243725E-13
  0.457500011       1.14165052E-13
  0.460000008       1.23796250E-13
  0.462500006       1.30138481E-13
  0.465000004       1.35491594E-13
  0.467500001       1.47013315E-13
  0.469999999       1.57840185E-13
  0.472499996       1.54757758E-13
  0.474999994       1.38738969E-13
  0.477499992       1.27137436E-13
  0.479999989       1.27304254E-13
  0.482499987       1.38722787E-13
  0.485000014       1.59836974E-13
  0.487500012       1.73221829E-13
  0.490000010       1.78772294E-13
  0.492500007       1.95570882E-13
  0.495000005       2.03964328E-13
  0.497500002       2.06236151E-13
  0.500000000       2.07203937E-13
  0.502499998       2.07433503E-13
  0.504999995       2.19817965E-13
  0.507499993       2.36867682E-13
  0.509999990       2.46925690E-13
  0.512499988       2.42261696E-13
  0.514999986       2.23124809E-13
  0.517499983       2.02506685E-13
  0.519999981       1.96905006E-13
  0.522499979       1.92259091E-13
  0.524999976       1.88218852E-13
  0.527499974       1.86635443E-13
  0.529999971       1.79659320E-13
  0.532500029       1.77425091E-13
  0.535000026       1.63028662E-13
  0.537500024       1.35638205E-13
  0.540000021       1.09224573E-13
  0.542500019       8.64915304E-14
  0.545000017       5.37087803E-14
  0.547500014       1.17523052E-14
  0.550000012      -4.77014228E-14
  0.552500010      -1.28056094E-13
  0.555000007      -1.96028659E-13
  0.557500005      -2.45913505E-13
  0.560000002      -2.98696614E-13
  0.562500000      -3.52968929E-13
  0.564999998      -3.96495499E-13
  0.567499995      -4.33448823E-13
  0.569999993      -4.78408003E-13
  0.572499990      -5.44247807E-13
  0.574999988      -6.18686851E-13
  0.577499986      -6.96567749E-13
  0.579999983      -7.63630207E-13
  0.582499981      -8.27022045E-13
  0.584999979      -8.95168542E-13
  0.587499976      -9.48719293E-13
  0.589999974      -9.84231793E-13
  0.592499971      -1.01278350E-12
  0.595000029      -1.03770128E-12
  0.597500026      -1.05972479E-12
  0.600000024      -1.08662081E-12
  0.602500021      -1.10907941E-12
  0.605000019      -1.12031738E-12
  0.607500017      -1.12510034E-12
  0.610000014      -1.12195767E-12
  0.612500012      -1.10626471E-12
  0.615000010      -1.10451188E-12
  0.617500007      -1.09347535E-12
  0.620000005      -1.03847291E-12
  0.622500002      -9.88871636E-13
  0.625000000      -9.62598382E-13
  0.627499998      -9.45681033E-13
  0.629999995      -9.20816591E-13
  0.632499993      -8.86820944E-13
  0.634999990      -8.59914245E-13
  0.637499988      -8.28368569E-13
  0.639999986      -7.74451087E-13
  0.642499983      -7.20852739E-13
  0.644999981      -6.92431084E-13
  0.647499979      -6.57209476E-13
  0.649999976      -6.00722597E-13
  0.652499974      -5.26267452E-13
  0.654999971      -4.80921780E-13
  0.657500029      -4.47657428E-13
  0.660000026      -3.66633373E-13
  0.662500024      -2.71558790E-13
  0.665000021      -1.71152873E-13
  0.667500019      -7.48318847E-14
  0.670000017       1.78102873E-14
  0.672500014       1.39222035E-13
  0.675000012       2.47677963E-13
  0.677500010       3.45977343E-13
  0.680000007       4.58335030E-13
  0.682500005       5.84671038E-13
  0.685000002       7.19784692E-13
  0.687500000       8.44829469E-13
  0.689999998       9.63934228E-13
  0.692499995       1.07829555E-12
  0.694999993       1.18632697E-12
  0.697499990       1.29820872E-12
  0.699999988       1.39800400E-12
  0.702499986       1.47726471E-12
  0.704999983       1.56722140E-12
  0.707499981       1.64824155E-12
  0.709999979       1.67334712E-12
  0.712499976       1.67416385E-12
  0.714999974       1.71557039E-12
  0.717499971       1.76109995E-12
  0.720000029       1.75620152E-12
  0.722500026       1.70933634E-12
  0.725000024       1.66033723E-12
  0.727500021       1.60562156E-12
  0.730000019       1.54559308E-12
  0.732500017       1.48029679E-12
  0.735000014       1.39021065E-12
  0.737500012       1.29927959E-12
  0.740000010       1.21308475E-12
  0.742500007       1.11531845E-12
  0.745000005       1.00276959E-12
  0.747500002       8.75944282E-13
  0.750000000       7.26514281E-13
  0.752499998       5.49847657E-13
  0.754999995       3.82139253E-13
  0.757499993       2.26285692E-13
  0.759999990       5.21786729E-14
  0.762499988      -1.60634350E-13
  0.764999986      -4.11232788E-13
  0.767499983      -6.67615377E-13
  0.769999981      -9.86123726E-13
  0.772499979      -1.37989674E-12
  0.774999976      -1.80126649E-12
  0.777499974      -2.28476309E-12
  0.779999971      -2.80672751E-12
  0.782500029      -3.37292000E-12
  0.785000026      -4.00094281E-12
  0.787500024      -4.67160078E-12
  0.790000021      -5.37757729E-12
  0.792500019      -6.10785944E-12
  0.795000017      -6.92435475E-12
  0.797500014      -7.80581589E-12
  0.800000012      -8.70683387E-12
  0.802500010      -9.64689092E-12
  0.805000007      -1.06265136E-11
  0.807500005      -1.16398557E-11
  0.810000002      -1.27019497E-11
  0.812500000      -1.38297394E-11
  0.814999998      -1.50137489E-11
  0.817499995      -1.62646441E-11
  0.819999993      -1.75982874E-11
  0.822499990      -1.90286242E-11
  0.824999988      -2.05251979E-11
  0.827499986      -2.20357656E-11
  0.829999983      -2.36163901E-11
  0.832499981      -2.52870294E-11
  0.834999979      -2.70042530E-11
  0.837499976      -2.88201477E-11
  0.839999974      -3.07216648E-11
  0.842499971      -3.26610024E-11
  0.845000029      -3.46788848E-11
  0.847500026      -3.68113734E-11
  0.850000024      -3.90426164E-11
  0.852500021      -4.13400356E-11
  0.855000019      -4.36895346E-11
  0.857500017      -4.60666887E-11
  0.860000014      -4.85135716E-11
  0.862500012      -5.10130826E-11
  0.865000010      -5.35678481E-11
  0.867500007      -5.62068656E-11
  0.870000005      -5.88322169E-11
  0.872500002      -6.14909651E-11
  0.875000000      -6.42120870E-11
  0.877499998      -6.69517150E-11
  0.879999995      -6.97085514E-11
  0.882499993      -7.24792795E-11
  0.884999990      -7.52741827E-11
  0.887499988      -7.80948639E-11
  0.889999986      -8.08994469E-11
  0.892499983      -8.36671843E-11
  0.894999981      -8.64173039E-11
  0.897499979      -8.91970733E-11
  0.899999976      -9.20049939E-11
  0.902499974      -9.47796772E-11
  0.904999971      -9.75248007E-11
  0.907500029      -1.00231774E-10
  0.910000026      -1.02874841E-10
  0.912500024      -1.05440066E-10
  0.915000021      -1.07963874E-10
  0.917500019      -1.10377013E-10
  0.920000017      -1.12695547E-10
  0.922500014      -1.14948336E-10
  0.925000012      -1.17050647E-10
  0.927500010      -1.19026330E-10
  0.930000007      -1.20900304E-10
  0.932500005      -1.22608299E-10
  0.935000002      -1.24129262E-10
  0.937500000      -1.25464944E-10
  0.939999998      -1.26532312E-10
  0.942499995      -1.27349548E-10
  0.944999993      -1.27933081E-10
  0.947499990      -1.28263969E-10
  0.949999988      -1.28371702E-10
  0.952499986      -1.28224417E-10
  0.954999983      -1.27789584E-10
  0.957499981      -1.27062486E-10
  0.959999979      -1.26012464E-10
  0.962499976      -1.24618232E-10
  0.964999974      -1.22865218E-10
  0.967499971      -1.20707971E-10
  0.970000029      -1.18151905E-10
  0.972500026      -1.15261002E-10
  0.975000024      -1.12039607E-10
  0.977500021      -1.08426407E-10
  0.980000019      -1.04348245E-10
  0.982500017      -9.98581148E-11
  0.985000014      -9.49443232E-11
  0.987500012      -8.95447466E-11
  0.990000010      -8.36867589E-11
  0.992500007      -7.73734410E-11
  0.995000005      -7.05791259E-11
  0.997500002      -6.33032377E-11
   1.00000000      -5.55338414E-11
   1.00250006      -4.72515048E-11
   1.00500000      -3.84261407E-11
   1.00750005      -2.89973462E-11
   1.00999999      -1.90361771E-11
   1.01250005      -8.58489235E-12
   1.01499999       2.32588471E-12
   1.01750004       1.36943928E-11
   1.01999998       2.55191372E-11
   1.02250004       3.77829781E-11
   1.02499998       5.04597371E-11
   1.02750003       6.35071370E-11
   1.02999997       7.69684663E-11
   1.03250003       9.08316478E-11
   1.03499997       1.05065186E-10
   1.03750002       1.19663696E-10
   1.03999996       1.34636205E-10
   1.04250002       1.50004828E-10
   1.04499996       1.65676001E-10
   1.04750001       1.81578627E-10
   1.04999995       1.97721992E-10
   1.05250001       2.14076493E-10
   1.05499995       2.30514413E-10
   1.05750000       2.46984100E-10
   1.05999994       2.63460032E-10
   1.06250000       2.79902823E-10
   1.06500006       2.96357522E-10
   1.06750000       3.12657011E-10
   1.07000005       3.28696875E-10
   1.07249999       3.44449774E-10
   1.07500005       3.59892283E-10
   1.07749999       3.75005554E-10
   1.08000004       3.89645149E-10
   1.08249998       4.03755668E-10
   1.08500004       4.17245960E-10
   1.08749998       4.30044167E-10
   1.09000003       4.42116593E-10
   1.09249997       4.53333815E-10
   1.09500003       4.63627942E-10
   1.09749997       4.72908157E-10
   1.10000002       4.81066686E-10
   1.10249996       4.88100116E-10
   1.10500002       4.93897034E-10
   1.10749996       4.98330210E-10
   1.11000001       5.01418684E-10
   1.11249995       5.02999198E-10
   1.11500001       5.03004527E-10
   1.11749995       5.01481134E-10
   1.12000000       4.98348030E-10
   1.12249994       4.93567909E-10
   1.12500000       4.87079377E-10
   1.12750006       4.78772966E-10
   1.13000000       4.68610262E-10
   1.13250005       4.56563565E-10
   1.13499999       4.42592019E-10
   1.13750005       4.26685021E-10
   1.13999999       4.08713313E-10
   1.14250004       3.88578614E-10
   1.14499998       3.66339709E-10
   1.14750004       3.42023215E-10
   1.14999998       3.15671878E-10
   1.15250003       2.87289498E-10
   1.15499997       2.56726973E-10
   1.15750003       2.24005356E-10
   1.15999997       1.89269683E-10
   1.16250002       1.52461418E-10
   1.16499996       1.13647869E-10
   1.16750002       7.29151600E-11
   1.16999996       3.03451118E-11
   1.17250001      -1.39009837E-11
   1.17499995      -5.97917549E-11
   1.17750001      -1.07283758E-10
   1.17999995      -1.56276089E-10
   1.18250000      -2.06612977E-10
   1.18499994      -2.58149002E-10
   1.18750000      -3.10787202E-10
   1.19000006      -3.64369201E-10
   1.19250000      -4.18782453E-10
   1.19500005      -4.73897810E-10
   1.19749999      -5.29453037E-10
   1.20000005      -5.85267501E-10
   1.20249999      -6.41173337E-10
   1.20500004      -6.96981028E-10
   1.20749998      -7.52491625E-10
   1.21000004      -8.07459155E-10
   1.21249998      -8.61662020E-10
   1.21500003      -9.14847420E-10
   1.21749997      -9.66689062E-10
   1.22000003      -1.01692532E-09
   1.22249997      -1.06539211E-09
   1.22500002      -1.11179344E-09
   1.22749996      -1.15583865E-09
   1.23000002      -1.19727217E-09
   1.23249996      -1.23577426E-09
   1.23500001      -1.27104616E-09
   1.23749995      -1.30280775E-09
   1.24000001      -1.33072864E-09
   1.24249995      -1.35449285E-09
   1.24500000      -1.37387690E-09
   1.24749994      -1.38865253E-09
   1.25000000      -1.39853185E-09
   1.25250006      -1.40314627E-09
   1.25500000      -1.40218503E-09
   1.25750005      -1.39535083E-09
   1.25999999      -1.38231671E-09
   1.26250005      -1.36276579E-09
   1.26499999      -1.33649414E-09
   1.26750004      -1.30340394E-09
   1.26999998      -1.26315747E-09
   1.27250004      -1.21542310E-09
   1.27499998      -1.16007715E-09
   1.27750003      -1.09686527E-09
   1.27999997      -1.02562359E-09
   1.28250003      -9.46188461E-10
   1.28499997      -8.58333571E-10
   1.28750002      -7.61862406E-10
   1.28999996      -6.56669552E-10
   1.29250002      -5.42731193E-10
   1.29499996      -4.19969920E-10
   1.29750001      -2.88230800E-10
   1.29999995      -1.47517956E-10
   1.30250001       2.12221191E-12
   1.30499995       1.60743821E-10
   1.30750000       3.28304162E-10
   1.30999994       5.04727482E-10
   1.31250000       6.89862834E-10
   1.31500006       8.83546902E-10
   1.31750000       1.08559739E-09
   1.32000005       1.29582278E-09
   1.32249999       1.51393764E-09
   1.32500005       1.73957704E-09
   1.32749999       1.97243821E-09
   1.33000004       2.21218666E-09
   1.33249998       2.45844234E-09
   1.33500004       2.71075717E-09
   1.33749998       2.96852365E-09
   1.34000003       3.23122906E-09
   1.34249997       3.49846307E-09
   1.34500003       3.76967124E-09
   1.34749997       4.04424361E-09
   1.35000002       4.32145875E-09
   1.35249996       4.60069138E-09
   1.35500002       4.88125851E-09
   1.35749996       5.16239851E-09
   1.36000001       5.44340706E-09
   1.36249995       5.72339331E-09
   1.36500001       6.00160721E-09
   1.36749995       6.27728713E-09
   1.37000000       6.54956445E-09
   1.37249994       6.81753454E-09
   1.37500000       7.08022974E-09
   1.37750006       7.33678984E-09
   1.38000000       7.58634577E-09
   1.38250005       7.82803866E-09
   1.38499999       8.06090661E-09
   1.38750005       8.28402680E-09
   1.38999999       8.49647108E-09
   1.39250004       8.69726158E-09
   1.39499998       8.88540175E-09
   1.39750004       9.06000697E-09
   1.39999998       9.22038801E-09
   1.40250003       9.36577926E-09
   1.40499997       9.49525347E-09
   1.40750003       9.60795798E-09
   1.40999997       9.70313963E-09
   1.41250002       9.78010828E-09
   1.41499996       9.83813653E-09
   1.41750002       9.87653248E-09
   1.41999996       9.89468507E-09
   1.42250001       9.89198501E-09
   1.42499995       9.86799886E-09
   1.42750001       9.82235182E-09
   1.42999995       9.75464776E-09
   1.43250000       9.66446834E-09
   1.43499994       9.55170343E-09
   1.43750000       9.41619582E-09
   1.44000006       9.25784338E-09
   1.44250000       9.07663900E-09
   1.44500005       8.87263329E-09
   1.44749999       8.64614247E-09
   1.45000005       8.39739389E-09
   1.45249999       8.12681833E-09
   1.45500004       7.83490339E-09
   1.45749998       7.52229212E-09
   1.46000004       7.18964932E-09
   1.46249998       6.83766599E-09
   1.46500003       6.46744747E-09
   1.46749997       6.08001471E-09
   1.47000003       5.67644198E-09
   1.47249997       5.25795318E-09
   1.47500002       4.82581708E-09
   1.47749996       4.38158398E-09
   1.48000002       3.92693078E-09
   1.48249996       3.46355966E-09
   1.48500001       2.99321723E-09
   1.48749995       2.51784393E-09
   1.49000001       2.03956652E-09
   1.49249995       1.56051316E-09
   1.49500000       1.08296927E-09
   1.49749994       6.09361117E-10
   1.50000000       1.42365508E-10
   1.50250006      -3.15403953E-10
   1.50500000      -7.61366359E-10
   1.50750005      -1.19277577E-09
   1.50999999      -1.60671598E-09
   1.51250005      -2.00007455E-09
   1.51499999      -2.36976505E-09
   1.51750004      -2.71265499E-09
   1.51999998      -3.02536463E-09
   1.52250004      -3.30450800E-09
   1.52499998      -3.54685858E-09
   1.52750003      -3.74884435E-09
   1.52999997      -3.90688371E-09
   1.53250003      -4.01732692E-09
   1.53499997      -4.07636147E-09
   1.53750002      -4.08027034E-09
   1.53999996      -4.02531874E-09
   1.54250002      -3.90761867E-09
   1.54499996      -3.72317466E-09
   1.54750001      -3.46803697E-09
   1.54999995      -3.13821036E-09
   1.55250001      -2.72962564E-09
   1.55499995      -2.23833574E-09
   1.55750000      -1.66022207E-09
   1.55999994      -9.91102533E-10
   1.56250000      -2.26837771E-10
   1.56500006       6.36753761E-10
   1.56750000       1.60385583E-09
   1.57000005       2.67872413E-09
   1.57249999       3.86559629E-09
   1.57500005       5.16864063E-09
   1.57749999       6.59198740E-09
   1.58000004       8.13983991E-09
   1.58249998       9.81640724E-09
   1.58500004       1.16258372E-08
   1.58749998       1.35721967E-08
   1.59000003       1.56596336E-08
   1.59249997       1.78921820E-08
   1.59500003       2.02737880E-08
   1.59749997       2.28084094E-08
   1.60000002       2.54998564E-08
   1.60249996       2.83518151E-08
   1.60500002       3.13679536E-08
   1.60749996       3.45518067E-08
   1.61000001       3.79067373E-08
   1.61249995       4.14359000E-08
   1.61500001       4.51422828E-08
   1.61749995       4.90287029E-08
   1.62000000       5.30976507E-08
   1.62249994       5.73513077E-08
   1.62500000       6.17916314E-08
   1.62750006       6.64202489E-08
   1.63000000       7.12384178E-08
   1.63250005       7.62468773E-08
   1.63499999       8.14459256E-08
   1.63750005       8.68353069E-08
   1.63999999       9.24141403E-08
   1.64250004       9.81810828E-08
   1.64499998       1.04133989E-07
   1.64750004       1.10269902E-07
   1.64999998       1.16585156E-07
   1.65250003       1.23075168E-07
   1.65499997       1.29734218E-07
   1.65750003       1.36555599E-07
   1.65999997       1.43531736E-07
   1.66250002       1.50653776E-07
   1.66499996       1.57911458E-07
   1.66750002       1.65293116E-07
   1.66999996       1.72785704E-07
   1.67250001       1.80374585E-07
   1.67499995       1.88043430E-07
   1.67750001       1.95774277E-07
   1.67999995       2.03547344E-07
   1.68250000       2.11340890E-07
   1.68499994       2.19131081E-07
   1.68750000       2.26892155E-07
   1.69000006       2.34596101E-07
   1.69250000       2.42212536E-07
   1.69500005       2.49708791E-07
   1.69749999       2.57049862E-07
   1.70000005       2.64198292E-07
   1.70249999       2.71113919E-07
   1.70500004       2.77753998E-07
   1.70749998       2.84073053E-07
   1.71000004       2.90022854E-07
   1.71249998       2.95552610E-07
   1.71500003       3.00608889E-07
   1.71749997       3.05135217E-07
   1.72000003       3.09072561E-07
   1.72249997       3.12359191E-07
   1.72500002       3.14930617E-07
   1.72749996       3.16719763E-07
   1.73000002       3.17657054E-07
   1.73249996       3.17670441E-07
   1.73500001       3.16685544E-07
   1.73749995       3.14625822E-07
   1.74000001       3.11412691E-07
   1.74249995       3.06965546E-07
   1.74500000       3.01202220E-07
   1.74749994       2.94039182E-07
   1.75000000       2.85391849E-07
   1.75250006       2.75174813E-07
   1.75500000       2.63302013E-07
   1.75750005       2.49686934E-07
   1.75999999       2.34243529E-07
   1.76250005       2.16886406E-07
   1.76499999       1.97530937E-07
   1.76750004       1.76094218E-07
   1.76999998       1.52495232E-07
   1.77250004       1.26655294E-07
   1.77499998       9.84990578E-08
   1.77750003       6.79545593E-08
   1.77999997       3.49540556E-08
   1.78250003      -5.65113067E-10
   1.78499997      -3.86602039E-08
   1.78750002      -7.93820902E-08
   1.78999996      -1.22774907E-07
   1.79250002      -1.68875289E-07
   1.79499996      -2.17711218E-07
   1.79750001      -2.69301552E-07
   1.79999995      -3.23655399E-07
   1.80250001      -3.80771382E-07
   1.80499995      -4.40636484E-07
   1.80750000      -5.03225465E-07
   1.80999994      -5.68500184E-07
   1.81250000      -6.36408856E-07
   1.81500006      -7.06885203E-07
   1.81750000      -7.79847824E-07
   1.82000005      -8.55199232E-07
   1.82249999      -9.32825287E-07
   1.82500005      -1.01259502E-06
   1.82749999      -1.09435950E-06
   1.83000004      -1.17795128E-06
   1.83249998      -1.26318434E-06
   1.83500004      -1.34985316E-06
   1.83749998      -1.43773241E-06
   1.84000003      -1.52657708E-06
   1.84249997      -1.61612206E-06
   1.84500003      -1.70608155E-06
   1.84749997      -1.79614926E-06
   1.85000002      -1.88599859E-06
   1.85249996      -1.97528288E-06
   1.85500002      -2.06363552E-06
   1.85749996      -2.15066939E-06
   1.86000001      -2.23597863E-06
   1.86249995      -2.31913873E-06
   1.86500001      -2.39970677E-06
   1.86749995      -2.47722323E-06
   1.87000000      -2.55121222E-06
   1.87249994      -2.62118192E-06
   1.87500000      -2.68662711E-06
   1.87750006      -2.74702961E-06
   1.88000000      -2.80185986E-06
   1.88250005      -2.85057922E-06
   1.88499999      -2.89264062E-06
   1.88750005      -2.92749110E-06
   1.88999999      -2.95457357E-06
   1.89250004      -2.97332940E-06
   1.89499998      -2.98319901E-06
   1.89750004      -2.98362647E-06
   1.89999998      -2.97406086E-06
   1.90250003      -2.95395921E-06
   1.90499997      -2.92278810E-06
   1.90750003      -2.88002775E-06
   1.90999997      -2.82517499E-06
   1.91250002      -2.75774528E-06
   1.91499996      -2.67727569E-06
   1.91750002      -2.58332830E-06
   1.91999996      -2.47549406E-06
   1.92250001      -2.35339485E-06
   1.92499995      -2.21668711E-06
   1.92750001      -2.06506502E-06
   1.92999995      -1.89826426E-06
   1.93250000      -1.71606439E-06
   1.93499994      -1.51829181E-06
   1.93750000      -1.30482329E-06
   1.94000006      -1.07558947E-06
   1.94250000      -8.30577164E-07
   1.94500005      -5.69831911E-07
   1.94749999      -2.93461198E-07
   1.95000005      -1.63718983E-09
   1.95249999       3.05401130E-07
   1.95500004       6.27345912E-07
   1.95749998       9.63818252E-07
   1.96000004       1.31436627E-06
   1.96249998       1.67846304E-06
   1.96500003       2.05550600E-06
   1.96749997       2.44481498E-06
   1.97000003       2.84563271E-06
   1.97249997       3.25712267E-06
   1.97500002       3.67836992E-06
   1.97749996       4.10837993E-06
   1.98000002       4.54608062E-06
   1.98249996       4.99032240E-06
   1.98500001       5.43987835E-06
   1.98749995       5.89344700E-06
   1.99000001       6.34965363E-06
   1.99249995       6.80705307E-06
   1.99500000       7.26413100E-06
   1.99749994       7.71930718E-06
   2.00000000       8.17094133E-06
   2.00250006       8.61733497E-06
   2.00500011       9.05673369E-06
   2.00749993       9.48733486E-06
   2.00999999       9.90729222E-06
   2.01250005       1.03147195E-05
   2.01500010       1.07076976E-05
   2.01749992       1.10842775E-05
   2.01999998       1.14424938E-05
   2.02250004       1.17803611E-05
   2.02500010       1.20958921E-05
   2.02749991       1.23870959E-05
   2.02999997       1.26519908E-05
   2.03250003       1.28886086E-05
   2.03500009       1.30950029E-05
   2.03749990       1.32692603E-05
   2.03999996       1.34095071E-05
   2.04250002       1.35139171E-05
   2.04500008       1.35807159E-05
   2.04749990       1.36081962E-05
   2.04999995       1.35947239E-05
   2.05250001       1.35387445E-05
   2.05500007       1.34387947E-05
   2.05749989       1.32935083E-05
   2.05999994       1.31016232E-05
   2.06250000       1.28619913E-05
   2.06500006       1.25735869E-05
   2.06750011       1.22355123E-05
   2.06999993       1.18470061E-05
   2.07249999       1.14074501E-05
   2.07500005       1.09163739E-05
   2.07750010       1.03734628E-05
   2.07999992       9.77856416E-06
   2.08249998       9.13169151E-06
   2.08500004       8.43302678E-06
   2.08750010       7.68293012E-06
   2.08999991       6.88193677E-06
   2.09249997       6.03076705E-06
   2.09500003       5.13032410E-06
   2.09750009       4.18169657E-06
   2.09999990       3.18616208E-06
   2.10249996       2.14518536E-06
   2.10500002       1.06041966E-06
   2.10750008      -6.62958897E-08
   2.10999990      -1.23293535E-06
   2.11249995      -2.43728823E-06
   2.11500001      -3.67696293E-06