  -2.50000004E-02   0.00000000    
  -2.25000009E-02   0.00000000    
  -1.99999996E-02   0.00000000    
  -1.75000001E-02  -9.53777131E-28
  -1.49999997E-02  -5.93135039E-27
  -1.25000002E-02  -2.10153577E-26
  -9.99999978E-03  -5.19158236E-26
  -7.49999983E-03  -1.09544110E-25
  -4.99999989E-03  -2.05297981E-25
  -2.49999994E-03  -3.72172126E-25
   0.00000000      -6.43328986E-25
   2.49999994E-03  -1.08915964E-24
   4.99999989E-03  -1.83046180E-24
   7.49999983E-03  -2.92992702E-24
   9.99999978E-03  -4.41797290E-24
   1.25000002E-02  -6.75339246E-24
   1.49999997E-02  -1.01365668E-23
   1.75000001E-02  -1.49793279E-23
   1.99999996E-02  -2.05639425E-23
   2.25000009E-02  -2.63914520E-23
   2.50000004E-02  -3.06158811E-23
   2.74999999E-02  -3.11771051E-23
   2.99999993E-02  -2.62777125E-23
   3.24999988E-02  -1.19408652E-23
   3.50000001E-02   1.73045285E-23
   3.75000015E-02   6.69840664E-23
   3.99999991E-02   1.43304548E-22
   4.25000004E-02   2.55794472E-22
   4.50000018E-02   4.17658203E-22
   4.74999994E-02   6.33534976E-22
   5.00000007E-02   9.15490322E-22
   5.24999984E-02   1.28293098E-21
   5.49999997E-02   1.74104273E-21
   5.75000010E-02   2.29061316E-21
   5.99999987E-02   2.93680359E-21
   6.25000000E-02   3.67452046E-21
   6.49999976E-02   4.49254715E-21
   6.75000027E-02   5.37846405E-21
   7.00000003E-02   6.30852768E-21
   7.24999979E-02   7.26567662E-21
   7.50000030E-02   8.20655822E-21
   7.75000006E-02   9.08849754E-21
   7.99999982E-02   9.85142302E-21
   8.25000033E-02   1.03928531E-20
   8.50000009E-02   1.07056631E-20
   8.74999985E-02   1.07126691E-20
   9.00000036E-02   1.02884910E-20
   9.25000012E-02   9.37090298E-21
   9.49999988E-02   7.79514734E-21
   9.74999964E-02   5.57440084E-21
  0.100000001       2.67156780E-21
  0.102499999      -1.07427719E-21
  0.104999997      -5.68632307E-21
  0.107500002      -1.12168704E-20
  0.109999999      -1.77425928E-20
  0.112499997      -2.52706908E-20
  0.115000002      -3.37197204E-20
  0.117500000      -4.30007515E-20
  0.119999997      -5.32184063E-20
  0.122500002      -6.42329592E-20
  0.125000000      -7.58062952E-20
  0.127499998      -8.78055645E-20
  0.129999995      -1.00262323E-19
  0.132499993      -1.12896673E-19
  0.135000005      -1.25287890E-19
  0.137500003      -1.37267495E-19
  0.140000001      -1.48569703E-19
  0.142499998      -1.59097153E-19
  0.144999996      -1.68348755E-19
  0.147499993      -1.75603206E-19
  0.150000006      -1.80667348E-19
  0.152500004      -1.83429472E-19
  0.155000001      -1.83399267E-19
  0.157499999      -1.80261797E-19
  0.159999996      -1.73551695E-19
  0.162499994      -1.62928253E-19
  0.165000007      -1.48281482E-19
  0.167500004      -1.29093529E-19
  0.170000002      -1.05391198E-19
  0.172499999      -7.70603979E-20
  0.174999997      -4.36259999E-20
  0.177499995      -5.42989667E-21
  0.180000007       3.74742253E-20
  0.182500005       8.44665078E-20
  0.185000002       1.35092553E-19
  0.187500000       1.89334482E-19
  0.189999998       2.46539682E-19
  0.192499995       3.06026324E-19
  0.194999993       3.66685211E-19
  0.197500005       4.27547609E-19
  0.200000003       4.88091104E-19
  0.202500001       5.46970647E-19
  0.204999998       6.02525596E-19
  0.207499996       6.52911649E-19
  0.209999993       6.96265374E-19
  0.212500006       7.30182881E-19
  0.215000004       7.52330125E-19
  0.217500001       7.60626488E-19
  0.219999999       7.52516964E-19
  0.222499996       7.26211638E-19
  0.224999994       6.78464137E-19
  0.227500007       6.06585864E-19
  0.230000004       5.08103860E-19
  0.232500002       3.78613491E-19
  0.234999999       2.15978112E-19
  0.237499997       1.80440032E-20
  0.239999995      -2.19650936E-19
  0.242500007      -5.00987521E-19
  0.245000005      -8.27297555E-19
  0.247500002      -1.20084550E-18
  0.250000000      -1.62538312E-18
  0.252499998      -2.10295554E-18
  0.254999995      -2.63554819E-18
  0.257499993      -3.22456323E-18
  0.259999990      -3.87098027E-18
  0.262499988      -4.57477159E-18
  0.264999986      -5.33633941E-18
  0.267500013      -6.15548397E-18
  0.270000011      -7.03062079E-18
  0.272500008      -7.95977871E-18
  0.275000006      -8.94040877E-18
  0.277500004      -9.96905915E-18
  0.280000001      -1.10407039E-17
  0.282499999      -1.21498224E-17
  0.284999996      -1.32900884E-17
  0.287499994      -1.44539836E-17
  0.289999992      -1.56326680E-17
  0.292499989      -1.68166232E-17
  0.294999987      -1.79946210E-17
  0.297500014      -1.91541264E-17
  0.300000012      -2.02823743E-17
  0.302500010      -2.13647699E-17
  0.305000007      -2.23856630E-17
  0.307500005      -2.33290294E-17
  0.310000002      -2.41778077E-17
  0.312500000      -2.49131431E-17
  0.314999998      -2.55154613E-17
  0.317499995      -2.59651018E-17
  0.319999993      -2.62406704E-17
  0.322499990      -2.63201244E-17
  0.324999988      -2.61825676E-17
  0.327499986      -2.58054841E-17
  0.330000013      -2.51669337E-17
  0.332500011      -2.42447117E-17
  0.335000008      -2.30154221E-17
  0.337500006      -2.14576474E-17
  0.340000004      -1.95521806E-17
  0.342500001      -1.72794854E-17
  0.344999999      -1.46194975E-17
  0.347499996      -1.15574047E-17
  0.349999994      -8.07889603E-18
  0.352499992      -4.16987454E-18
  0.354999989       1.81643382E-19
  0.357499987       4.98531870E-18
  0.360000014       1.02432662E-17
  0.362500012       1.59560344E-17
  0.365000010       2.21277828E-17
  0.367500007       2.87505945E-17
  0.370000005       3.58143298E-17
  0.372500002       4.33074182E-17
  0.375000000       5.12112183E-17
  0.377499998       5.95017948E-17
  0.379999995       6.81497100E-17
  0.382499993       7.71301121E-17
  0.384999990       8.64015296E-17
  0.387499988       9.59188381E-17
  0.389999986       1.05635067E-16
  0.392500013       1.15489872E-16
  0.395000011       1.25424007E-16
  0.397500008       1.35374659E-16
  0.400000006       1.45268586E-16
  0.402500004       1.55028046E-16
  0.405000001       1.64572519E-16
  0.407499999       1.73813742E-16
  0.409999996       1.82656818E-16
  0.412499994       1.91006446E-16
  0.414999992       1.98757155E-16
  0.417499989       2.05810014E-16
  0.419999987       2.12055585E-16
  0.422500014       2.17365926E-16
  0.425000012       2.21633900E-16
  0.427500010       2.24752807E-16
  0.430000007       2.26606830E-16
  0.432500005       2.27078972E-16
  0.435000002       2.26038948E-16
  0.437500000       2.23375214E-16
  0.439999998       2.18985241E-16
  0.442499995       2.12751793E-16
  0.444999993       2.04564135E-16
  0.447499990       1.94325836E-16
  0.449999988       1.81942492E-16
  0.452499986       1.67320016E-16
  0.455000013       1.50384096E-16
  0.457500011       1.31067708E-16
  0.460000008       1.09310998E-16
  0.462500006       8.50763730E-17
  0.465000004       5.83188802E-17
  0.467500001       2.90085789E-17
  0.469999999      -2.85006528E-18
  0.472499996      -3.72470331E-17
  0.474999994      -7.41507267E-17
  0.477499992      -1.13514340E-16
  0.479999989      -1.55279073E-16
  0.482499987      -1.99356047E-16
  0.485000014      -2.45634817E-16
  0.487500012      -2.93999736E-16
  0.490000010      -3.44291259E-16
  0.492500007      -3.96327351E-16
  0.495000005      -4.49913991E-16
  0.497500002      -5.04835342E-16
  0.500000000      -5.60847937E-16
  0.502499998      -6.17672889E-16
  0.504999995      -6.75029249E-16
  0.507499993      -7.32612507E-16
  0.509999990      -7.90081099E-16
  0.512499988      -8.47071328E-16
  0.514999986      -9.03213255E-16
  0.517499983      -9.58105542E-16
  0.519999981      -1.01130821E-15
  0.522499979      -1.06237985E-15
  0.524999976      -1.11087016E-15
  0.527499974      -1.15631496E-15
  0.529999971      -1.19823292E-15
  0.532500029      -1.23612166E-15
  0.535000026      -1.26946892E-15
  0.537500024      -1.29775135E-15
  0.540000021      -1.32044337E-15
  0.542500019      -1.33702615E-15
  0.545000017      -1.34697117E-15
  0.547500014      -1.34975219E-15
  0.550000012      -1.34485899E-15
  0.552500010      -1.33178937E-15
  0.555000007      -1.31005663E-15
  0.557500005      -1.27919509E-15
  0.560000002      -1.23875445E-15
  0.562500000      -1.18830400E-15
  0.564999998      -1.12744627E-15
  0.567499995      -1.05580571E-15
  0.569999993      -9.73051756E-16
  0.572499990      -8.78890650E-16
  0.574999988      -7.73063572E-16
  0.577499986      -6.55383167E-16
  0.579999983      -5.25699193E-16
  0.582499981      -3.83914216E-16
  0.584999979      -2.29986333E-16
  0.587499976      -6.39287728E-17
  0.589999974       1.14174866E-16
  0.592499971       3.04170828E-16
  0.595000029       5.05841723E-16
  0.597500026       7.18914026E-16
  0.600000024       9.43012262E-16
  0.602500021       1.17771048E-15
  0.605000019       1.42252375E-15
  0.607500017       1.67685757E-15
  0.610000014       1.94005104E-15
  0.612500012       2.21136226E-15
  0.615000010       2.49000179E-15
  0.617500007       2.77509254E-15
  0.620000005       3.06567820E-15
  0.622500002       3.36075907E-15
  0.625000000       3.65925518E-15
  0.627499998       3.96001540E-15
  0.629999995       4.26185644E-15
  0.632499993       4.56353273E-15
  0.634999990       4.86373391E-15
  0.637499988       5.16114539E-15
  0.639999986       5.45441107E-15
  0.642499983       5.74214519E-15
  0.644999981       6.02297981E-15
  0.647499979       6.29553808E-15
  0.649999976       6.55841179E-15
  0.652499974       6.81019191E-15
  0.654999971       7.04954605E-15
  0.657500029       7.27519817E-15
  0.660000026       7.48588068E-15
  0.662500024       7.68039671E-15
  0.665000021       7.85768155E-15
  0.667500019       8.01675858E-15
  0.670000017       8.15672230E-15
  0.672500014       8.27673925E-15
  0.675000012       8.37623766E-15
  0.677500010       8.45479150E-15
  0.680000007       8.51202467E-15
  0.682500005       8.54785670E-15
  0.685000002       8.56237315E-15
  0.687500000       8.55593316E-15
  0.689999998       8.52911187E-15
  0.692499995       8.48268345E-15
  0.694999993       8.41777701E-15
  0.697499990       8.33579692E-15
  0.699999988       8.23837628E-15
  0.702499986       8.12748526E-15
  0.704999983       8.00548796E-15
  0.707499981       7.87512535E-15
  0.709999979       7.73949759E-15
  0.712499976       7.60195638E-15
  0.714999974       7.46625831E-15
  0.717499971       7.33668090E-15
  0.720000029       7.21787098E-15
  0.722500026       7.11481502E-15
  0.725000024       7.03293404E-15
  0.727500021       6.97814583E-15
  0.730000019       6.95675105E-15
  0.732500017       6.97547260E-15
  0.735000014       7.04144630E-15
  0.737500012       7.16222685E-15
  0.740000010       7.34576364E-15
  0.742500007       7.60048762E-15
  0.745000005       7.93523504E-15
  0.747500002       8.35921061E-15
  0.750000000       8.88218061E-15
  0.752499998       9.51409175E-15
  0.754999995       1.02651779E-14
  0.757499993       1.11460989E-14
  0.759999990       1.21678316E-14
  0.762499988       1.33417142E-14
  0.764999986       1.46793266E-14
  0.767499983       1.61923477E-14
  0.769999981       1.78926782E-14
  0.772499979       1.97923766E-14
  0.774999976       2.19036605E-14
  0.777499974       2.42388303E-14
  0.779999971       2.68101649E-14
  0.782500029       2.96299714E-14
  0.785000026       3.27105083E-14
  0.787500024       3.60640303E-14
  0.790000021       3.97025417E-14
  0.792500019       4.36377957E-14
  0.795000017       4.78813156E-14
  0.797500014       5.24442042E-14
  0.800000012       5.73372797E-14
  0.802500010       6.25708998E-14
  0.805000007       6.81547917E-14
  0.807500005       7.40981576E-14
  0.810000002       8.04095356E-14
  0.812500000       8.70967523E-14
  0.814999998       9.41669092E-14
  0.817499995       1.01626180E-13
  0.819999993       1.09479659E-13
  0.822499990       1.17731440E-13
  0.824999988       1.26384688E-13
  0.827499986       1.35441422E-13
  0.829999983       1.44902238E-13
  0.832499981       1.54766431E-13
  0.834999979       1.65032010E-13
  0.837499976       1.75695599E-13
  0.839999974       1.86752117E-13
  0.842499971       1.98194935E-13
  0.845000029       2.10015707E-13
  0.847500026       2.22204511E-13
  0.850000024       2.34749611E-13
  0.852500021       2.47637143E-13
  0.855000019       2.60851562E-13
  0.857500017       2.74375385E-13
  0.860000014       2.88189042E-13
  0.862500012       3.02270822E-13
  0.865000010       3.16596955E-13
  0.867500007       3.31141635E-13
  0.870000005       3.45876729E-13
  0.872500002       3.60771932E-13
  0.875000000       3.75794854E-13
  0.877499998       3.90910692E-13
  0.879999995       4.06082503E-13
  0.882499993       4.21271091E-13
  0.884999990       4.36434824E-13
  0.887499988       4.51530198E-13
  0.889999986       4.66511487E-13
  0.892499983       4.81330416E-13
  0.894999981       4.95937059E-13
  0.897499979       5.10279319E-13
  0.899999976       5.24303040E-13
  0.902499974       5.37951953E-13
  0.904999971       5.51168215E-13
  0.907500029       5.63892303E-13
  0.910000026       5.76062744E-13
  0.912500024       5.87616544E-13
  0.915000021       5.98489737E-13
  0.917500019       6.08617106E-13
  0.920000017       6.17932138E-13
  0.922500014       6.26367339E-13
  0.925000012       6.33854785E-13
  0.927500010       6.40325683E-13
  0.930000007       6.45711186E-13
  0.932500005       6.49942556E-13
  0.935000002       6.52951163E-13
  0.937500000       6.54668377E-13
  0.939999998       6.55027031E-13
  0.942499995       6.53960230E-13
  0.944999993       6.51402380E-13
  0.947499990       6.47290327E-13
  0.949999988       6.41562324E-13
  0.952499986       6.34159121E-13
  0.954999983       6.25023796E-13
  0.957499981       6.14102573E-13
  0.959999979       6.01345362E-13
  0.962499976       5.86705706E-13
  0.964999974       5.70141102E-13
  0.967499971       5.51614147E-13
  0.970000029       5.31092423E-13
  0.972500026       5.08548878E-13
  0.975000024       4.83962371E-13
  0.977500021       4.57318103E-13
  0.980000019       4.28608321E-13
  0.982500017       3.97832754E-13
  0.985000014       3.64998505E-13
  0.987500012       3.30120832E-13
  0.990000010       2.93224592E-13
  0.992500007       2.54343448E-13
  0.995000005       2.13519862E-13
  0.997500002       1.70807148E-13
   1.00000000       1.26268652E-13
   1.00250006       7.99787957E-14
   1.00500000       3.20239813E-14
   1.00750005      -1.74985521E-14
   1.00999999      -6.84795916E-14
   1.01250005      -1.20796900E-13
   1.01499999      -1.74316169E-13
   1.01750004      -2.28889634E-13
   1.01999998      -2.84356523E-13
   1.02250004      -3.40543051E-13
   1.02499998      -3.97260892E-13
   1.02750003      -4.54308412E-13
   1.02999997      -5.11470749E-13
   1.03250003      -5.68518811E-13
   1.03499997      -6.25209520E-13
   1.03750002      -6.81286462E-13
   1.03999996      -7.36479671E-13
   1.04250002      -7.90505356E-13
   1.04499996      -8.43067315E-13
   1.04750001      -8.93856820E-13
   1.04999995      -9.42553219E-13
   1.05250001      -9.88823715E-13
   1.05499995      -1.03232516E-12
   1.05750000      -1.07270312E-12
   1.05999994      -1.10959473E-12
   1.06250000      -1.14262874E-12
   1.06500006      -1.17142656E-12
   1.06750000      -1.19560297E-12
   1.07000005      -1.21476624E-12
   1.07249999      -1.22852217E-12
   1.07500005      -1.23647446E-12
   1.07749999      -1.23822556E-12
   1.08000004      -1.23337820E-12
   1.08249998      -1.22153871E-12
   1.08500004      -1.20231711E-12
   1.08749998      -1.17532980E-12
   1.09000003      -1.14020187E-12
   1.09249997      -1.09656923E-12
   1.09500003      -1.04408073E-12
   1.09749997      -9.82400142E-13
   1.10000002      -9.11209476E-13
   1.10249996      -8.30210629E-13
   1.10500002      -7.39128268E-13
   1.10749996      -6.37713298E-13
   1.11000001      -5.25744921E-13
   1.11249995      -4.03033699E-13
   1.11500001      -2.69424809E-13
   1.11749995      -1.24799883E-13
   1.12000000       3.09188066E-14
   1.12249994       1.97765578E-13
   1.12500000       3.75729558E-13
   1.12750006       5.64750178E-13
   1.13000000       7.64714789E-13
   1.13250005       9.75456152E-13
   1.13499999       1.19674865E-12
   1.13750005       1.42830647E-12
   1.13999999       1.66978042E-12
   1.14250004       1.92075414E-12
   1.14499998       2.18074343E-12
   1.14750004       2.44919428E-12
   1.14999998       2.72547913E-12
   1.15250003       3.00889543E-12
   1.15499997       3.29866429E-12
   1.15750003       3.59392832E-12
   1.15999997       3.89375121E-12
   1.16250002       4.19711618E-12
   1.16499996       4.50292408E-12
   1.16750002       4.80999702E-12
   1.16999996       5.11707387E-12
   1.17250001       5.42281281E-12
   1.17499995       5.72579267E-12
   1.17750001       6.02451162E-12
   1.17999995       6.31739279E-12
   1.18250000       6.60278429E-12
   1.18499994       6.87896094E-12
   1.18750000       7.14412687E-12
   1.19000006       7.39642202E-12
   1.19250000       7.63392474E-12
   1.19500005       7.85465790E-12
   1.19749999       8.05659012E-12
   1.20000005       8.23764668E-12
   1.20249999       8.39571555E-12
   1.20500004       8.52865001E-12
   1.20749998       8.63428079E-12
   1.21000004       8.71042214E-12
   1.21249998       8.75488137E-12
   1.21500003       8.76547099E-12
   1.21749997       8.74001479E-12
   1.22000003       8.67636085E-12
   1.22249997       8.57239106E-12
   1.22500002       8.42603765E-12
   1.22749996       8.23528832E-12
   1.23000002       7.99820540E-12
   1.23249996       7.71293793E-12
   1.23500001       7.37773211E-12
   1.23749995       6.99095252E-12
   1.24000001       6.55108823E-12
   1.24249995       6.05677357E-12
   1.24500000       5.50680205E-12
   1.24749994       4.90014323E-12
   1.25000000       4.23595404E-12
   1.25250006       3.51359892E-12
   1.25500000       2.73266392E-12
   1.25750005       1.89297276E-12
   1.25999999       9.94603813E-13
   1.26250005       3.79043619E-14
   1.26499999      -9.76495902E-13
   1.26750004      -2.04766846E-12
   1.26999998      -3.17437244E-12
   1.27250004      -4.35503586E-12
   1.27499998      -5.58775205E-12
   1.27750003      -6.87026174E-12
   1.27999997      -8.19993552E-12
   1.28250003      -9.57377580E-12
   1.28499997      -1.09884003E-11
   1.28750002      -1.24400342E-11
   1.28999996      -1.39245030E-11
   1.29250002      -1.54372314E-11
   1.29499996      -1.69732318E-11
   1.29750001      -1.85271087E-11
   1.29999995      -2.00930557E-11
   1.30250001      -2.16648539E-11
   1.30499995      -2.32358768E-11
   1.30750000      -2.47991020E-11
   1.30999994      -2.63471103E-11
   1.31250000      -2.78720953E-11
   1.31500006      -2.93658813E-11
   1.31750000      -3.08199334E-11
   1.32000005      -3.22253786E-11
   1.32249999      -3.35730159E-11
   1.32500005      -3.48533459E-11
   1.32749999      -3.60566021E-11
   1.33000004      -3.71727579E-11
   1.33249998      -3.81915749E-11
   1.33500004      -3.91026343E-11
   1.33749998      -3.98953613E-11
   1.34000003      -4.05590735E-11
   1.34249997      -4.10830120E-11
   1.34500003      -4.14564078E-11
   1.34749997      -4.16684950E-11
   1.35000002      -4.17085845E-11
   1.35249996      -4.15661082E-11
   1.35500002      -4.12306682E-11
   1.35749996      -4.06921025E-11
   1.36000001      -3.99405335E-11
   1.36249995      -3.89664342E-11
   1.36500001      -3.77606869E-11
   1.36749995      -3.63146596E-11
   1.37000000      -3.46202546E-11
   1.37249994      -3.26699778E-11
   1.37500000      -3.04570223E-11
   1.37750006      -2.79753130E-11
   1.38000000      -2.52195955E-11
   1.38250005      -2.21854982E-11
   1.38499999      -1.88696038E-11
   1.38750005      -1.52695200E-11
   1.38999999      -1.13839389E-11
   1.39250004      -7.21271610E-12
   1.39499998      -2.75693119E-12
   1.39750004       1.98104879E-12
   1.39999998       6.99750240E-12
   1.40250003       1.22872918E-11
   1.40499997       1.78438150E-11
   1.40750003       2.36589394E-11
   1.40999997       2.97229671E-11
   1.41250002       3.60245618E-11
   1.41499996       4.25507372E-11
   1.41750002       4.92868003E-11
   1.41999996       5.62163198E-11
   1.42250001       6.33211122E-11
   1.42499995       7.05812145E-11
   1.42750001       7.79748696E-11
   1.42999995       8.54785201E-11
   1.43250000       9.30667904E-11
   1.43499994       1.00712542E-10
   1.43750000       1.08386820E-10
   1.44000006       1.16058947E-10
   1.44250000       1.23696525E-10
   1.44500005       1.31265443E-10
   1.44749999       1.38730000E-10
   1.45000005       1.46052920E-10
   1.45249999       1.53195401E-10
   1.45500004       1.60117211E-10
   1.45749998       1.66776842E-10
   1.46000004       1.73131509E-10
   1.46249998       1.79137302E-10
   1.46500003       1.84749327E-10
   1.46749997       1.89921787E-10
   1.47000003       1.94608177E-10
   1.47249997       1.98761368E-10
   1.47500002       2.02333816E-10
   1.47749996       2.05277725E-10
   1.48000002       2.07545203E-10
   1.48249996       2.09088483E-10
   1.48500001       2.09860060E-10
   1.48749995       2.09812945E-10
   1.49000001       2.08900827E-10
   1.49249995       2.07078354E-10
   1.49500000       2.04301326E-10
   1.49749994       2.00526915E-10
   1.50000000       1.95713903E-10
   1.50250006       1.89822949E-10
   1.50500000       1.82816776E-10
   1.50750005       1.74660494E-10
   1.50999999       1.65321798E-10
   1.51250005       1.54771224E-10
   1.51499999       1.42982404E-10
   1.51750004       1.29932315E-10
   1.51999998       1.15601521E-10
   1.52250004       9.99744176E-11
   1.52499998       8.30394989E-11
   1.52750003       6.47895348E-11
   1.52999997       4.52218644E-11
   1.53250003       2.43385433E-11
   1.53499997       2.14661969E-12
   1.53750002      -2.13416958E-11
   1.53999996      -4.61088424E-11
   1.54250002      -7.21317450E-11
   1.54499996      -9.93816210E-11
   1.54750001      -1.27823849E-10
   1.54999995      -1.57417857E-10
   1.55250001      -1.88116994E-10
   1.55499995      -2.19868401E-10
   1.55750000      -2.52613042E-10
   1.55999994      -2.86285468E-10
   1.56250000      -3.20814042E-10
   1.56500006      -3.56120744E-10
   1.56750000      -3.92121197E-10
   1.57000005      -4.28724778E-10
   1.57249999      -4.65834649E-10
   1.57500005      -5.03347919E-10
   1.57749999      -5.41155620E-10
   1.58000004      -5.79142900E-10
   1.58249998      -6.17189466E-10
   1.58500004      -6.55169308E-10
   1.58749998      -6.92951196E-10
   1.59000003      -7.30399019E-10
   1.59249997      -7.67371944E-10
   1.59500003      -8.03724809E-10
   1.59749997      -8.39308234E-10
   1.60000002      -8.73969230E-10
   1.60249996      -9.07551700E-10
   1.60500002      -9.39896494E-10
   1.60749996      -9.70841851E-10
   1.61000001      -1.00022457E-09
   1.61249995      -1.02787956E-09
   1.61500001      -1.05364084E-09
   1.61749995      -1.07734210E-09
   1.62000000      -1.09881704E-09
   1.62249994      -1.11790011E-09
   1.62500000      -1.13442666E-09
   1.62750006      -1.14823440E-09
   1.63000000      -1.15916310E-09
   1.63250005      -1.16705556E-09
   1.63499999      -1.17175836E-09
   1.63750005      -1.17312204E-09
   1.63999999      -1.17100241E-09
   1.64250004      -1.16526033E-09
   1.64499998      -1.15576304E-09
   1.64750004      -1.14238408E-09
   1.64999998      -1.12500464E-09
   1.65250003      -1.10351339E-09
   1.65499997      -1.07780773E-09
   1.65750003      -1.04779374E-09
   1.65999997      -1.01338693E-09
   1.66250002      -9.74513137E-10
   1.66499996      -9.31108191E-10
   1.66750002      -8.83119244E-10
   1.66999996      -8.30504443E-10
   1.67250001      -7.73233810E-10
   1.67499995      -7.11289472E-10
   1.67750001      -6.44666043E-10
   1.67999995      -5.73370684E-10
   1.68250000      -4.97423491E-10
   1.68499994      -4.16857937E-10
   1.68750000      -3.31720734E-10
   1.69000006      -2.42072029E-10
   1.69250000      -1.47985596E-10
   1.69500005      -4.95489066E-11
   1.69749999       5.31370364E-11
   1.70000005       1.59957519E-10
   1.70249999       2.70784478E-10
   1.70500004       3.85476207E-10
   1.70749998       5.03877939E-10
   1.71000004       6.25821783E-10
   1.71249998       7.51126994E-10
   1.71500003       8.79600226E-10
   1.71749997       1.01103603E-09
   1.72000003       1.14521681E-09
   1.72249997       1.28191369E-09
   1.72500002       1.42088652E-09
   1.72749996       1.56188440E-09
   1.73000002       1.70464587E-09
   1.73249996       1.84890014E-09
   1.73500001       1.99436689E-09
   1.73749995       2.14075668E-09
   1.74000001       2.28777197E-09
   1.74249995       2.43510789E-09
   1.74500000       2.58245092E-09
   1.74749994       2.72948153E-09
   1.75000000       2.87587354E-09
   1.75250006       3.02129499E-09
   1.75500000       3.16540905E-09
   1.75750005       3.30787264E-09
   1.75999999       3.44833917E-09
   1.76250005       3.58645758E-09
   1.76499999       3.72187348E-09
   1.76750004       3.85422805E-09
   1.76999998       3.98316047E-09
   1.77250004       4.10830658E-09
   1.77499998       4.22929913E-09
   1.77750003       4.34576908E-09
   1.77999997       4.45734516E-09
   1.78250003       4.56365390E-09
   1.78499997       4.66432004E-09
   1.78750002       4.75896522E-09
   1.78999996       4.84721063E-09
   1.79250002       4.92867436E-09
   1.79499996       5.00297226E-09
   1.79750001       5.06971798E-09
   1.79999995       5.12852383E-09
   1.80250001       5.17899768E-09
   1.80499995       5.22074606E-09
   1.80750000       5.25337152E-09
   1.80999994       5.27647392E-09
   1.81250000       5.28964872E-09
   1.81500006       5.29248867E-09
   1.81750000       5.28458166E-09
   1.82000005       5.26551247E-09
   1.82249999       5.23486055E-09
   1.82500005       5.19220000E-09
   1.82749999       5.13710141E-09
   1.83000004       5.06913000E-09
   1.83249998       4.98784480E-09
   1.83500004       4.89280172E-09
   1.83749998       4.78355133E-09
   1.84000003       4.65963845E-09
   1.84249997       4.52060478E-09
   1.84500003       4.36598668E-09
   1.84749997       4.19531698E-09
   1.85000002       4.00812628E-09
   1.85249996       3.80394161E-09
   1.85500002       3.58228958E-09
   1.85749996       3.34269479E-09
   1.86000001       3.08468362E-09
   1.86249995       2.80778334E-09
   1.86500001       2.51152543E-09
   1.86749995       2.19544538E-09
   1.87000000       1.85908611E-09
   1.87249994       1.50199908E-09
   1.87500000       1.12374599E-09
   1.87750006       7.23902716E-10
   1.88000000       3.02060821E-10
   1.88250005      -1.42169096E-10
   1.88499999      -6.09155393E-10
   1.88750005      -1.09924125E-09
   1.88999999      -1.61274205E-09
   1.89250004      -2.14993978E-09
   1.89499998      -2.71108069E-09
   1.89750004      -3.29637184E-09
   1.89999998      -3.90597510E-09
   1.90250003      -4.54000437E-09
   1.90499997      -5.19852028E-09
   1.90750003      -5.88152371E-09
   1.90999997      -6.58895161E-09
   1.91250002      -7.32067340E-09
   1.91499996      -8.07648348E-09
   1.91750002      -8.85609541E-09
   1.91999996      -9.65913838E-09
   1.92250001      -1.04851470E-08
   1.92499995      -1.13335599E-08
   1.92750001      -1.22037074E-08
   1.92999995      -1.30948115E-08
   1.93250000      -1.40059759E-08
   1.93499994      -1.49361821E-08
   1.93750000      -1.58842752E-08
   1.94000006      -1.68489649E-08
   1.94250000      -1.78288175E-08
   1.94500005      -1.88222451E-08
   1.94749999      -1.98274996E-08
   1.95000005      -2.08426716E-08
   1.95249999      -2.18656755E-08
   1.95500004      -2.28942483E-08
   1.95749998      -2.39259439E-08
   1.96000004      -2.49581174E-08
   1.96249998      -2.59879318E-08
   1.96500003      -2.70123426E-08
   1.96749997      -2.80280990E-08
   1.97000003      -2.90317299E-08
   1.97249997      -3.00195495E-08
   1.97500002      -3.09876462E-08
   1.97749996      -3.19318758E-08
   1.98000002      -3.28478649E-08
   1.98249996      -3.37310126E-08
   1.98500001      -3.45764697E-08
   1.98749995      -3.53791556E-08
   1.99000001      -3.61337484E-08
   1.99249995      -3.68346917E-08
   1.99500000      -3.74761875E-08
   1.99749994      -3.80522138E-08
   2.00000000      -3.85565073E-08
   2.00250006      -3.89825807E-08
   2.00500011      -3.93237301E-08
   2.00749993      -3.95730417E-08
   2.00999999      -3.97233890E-08
   2.01250005      -3.97674640E-08
   2.01500010      -3.96977775E-08
   2.01749992      -3.95066593E-08
   2.01999998      -3.91863111E-08
   2.02250004      -3.87287820E-08
   2.02500010      -3.81260215E-08
   2.02749991      -3.73698867E-08
   2.02999997      -3.64521640E-08
   2.03250003      -3.53646001E-08
   2.03500009      -3.40989317E-08
   2.03749990      -3.26469163E-08
   2.03999996      -3.10003578E-08
   2.04250002      -2.91511615E-08
   2.04500008      -2.70913549E-08
   2.04749990      -2.48131347E-08
   2.04999995      -2.23089121E-08
   2.05250001      -1.95713650E-08
   2.05500007      -1.65934804E-08
   2.05749989      -1.33686058E-08
   2.05999994      -9.89051241E-09
   2.06250000      -6.15344442E-09
   2.06500006      -2.15218510E-09
   2.06750011       2.11788298E-09
   2.06999993       6.66070576E-09
   2.07249999       1.14794965E-08
   2.07500005       1.65766654E-08
   2.07750010       2.19537455E-08
   2.07999992       2.76113177E-08
   2.08249998       3.35489396E-08
   2.08500004       3.97650517E-08
   2.08750010       4.62569218E-08
   2.08999991       5.30205497E-08
   2.09249997       6.00506027E-08
   2.09500003       6.73403022E-08
   2.09750009       7.48813846E-08
   2.09999990       8.26639948E-08
   2.10249996       9.06766076E-08
   2.10500002       9.89059785E-08
   2.10750008       1.07337009E-07
   2.10999990       1.15952759E-07
   2.11249995       1.24734299E-07
   2.11500001       1.33660691E-07