  -2.50000004E-02   0.00000000    
  -2.25000009E-02   0.00000000    
  -1.99999996E-02   0.00000000    
  -1.75000001E-02   0.00000000    
  -1.49999997E-02  -4.76888541E-30
  -1.25000002E-02  -2.91117341E-29
  -9.99999978E-03  -1.04406059E-28
  -7.49999983E-03  -2.70248151E-28
  -4.99999989E-03  -5.90377454E-28
  -2.49999994E-03  -1.18362666E-27
   0.00000000      -2.25309383E-27
   2.49999994E-03  -4.03177680E-27
   4.99999989E-03  -7.02411611E-27
   7.49999983E-03  -1.18955048E-26
   9.99999978E-03  -1.95733909E-26
   1.25000002E-02  -3.12318383E-26
   1.49999997E-02  -4.84253791E-26
   1.75000001E-02  -7.34929875E-26
   1.99999996E-02  -1.11753992E-25
   2.25000009E-02  -1.69524853E-25
   2.50000004E-02  -2.56839306E-25
   2.74999999E-02  -3.81741625E-25
   2.99999993E-02  -5.65275045E-25
   3.24999988E-02  -8.41308224E-25
   3.50000001E-02  -1.24486856E-24
   3.75000015E-02  -1.82761066E-24
   3.99999991E-02  -2.66380282E-24
   4.25000004E-02  -3.84277221E-24
   4.50000018E-02  -5.48594542E-24
   4.74999994E-02  -7.73211483E-24
   5.00000007E-02  -1.07449008E-23
   5.24999984E-02  -1.46883708E-23
   5.49999997E-02  -1.98059229E-23
   5.75000010E-02  -2.63279961E-23
   5.99999987E-02  -3.44607323E-23
   6.25000000E-02  -4.44550762E-23
   6.49999976E-02  -5.64873822E-23
   6.75000027E-02  -7.07283915E-23
   7.00000003E-02  -8.73424775E-23
   7.24999979E-02  -1.06412540E-22
   7.50000030E-02  -1.27956912E-22
   7.75000006E-02  -1.51871009E-22
   7.99999982E-02  -1.77842418E-22
   8.25000033E-02  -2.05461461E-22
   8.50000009E-02  -2.34074721E-22
   8.74999985E-02  -2.62933903E-22
   9.00000036E-02  -2.90962043E-22
   9.25000012E-02  -3.17006317E-22
   9.49999988E-02  -3.39629055E-22
   9.74999964E-02  -3.56987959E-22
  0.100000001      -3.67282783E-22
  0.102499999      -3.68551852E-22
  0.104999997      -3.58551266E-22
  0.107500002      -3.34849543E-22
  0.109999999      -2.95274550E-22
  0.112499997      -2.36875745E-22
  0.115000002      -1.57312610E-22
  0.117500000      -5.40063705E-23
  0.119999997       7.50850747E-23
  0.122500002       2.31880299E-22
  0.125000000       4.18016737E-22
  0.127499998       6.35074277E-22
  0.129999995       8.84332007E-22
  0.132499993       1.16718264E-21
  0.135000005       1.48399302E-21
  0.137500003       1.83298801E-21
  0.140000001       2.21290504E-21
  0.142499998       2.62268135E-21
  0.144999996       3.05912454E-21
  0.147499993       3.51889862E-21
  0.150000006       3.99724691E-21
  0.152500004       4.48793506E-21
  0.155000001       4.98494863E-21
  0.157499999       5.48133050E-21
  0.159999996       5.96952135E-21
  0.162499994       6.43969800E-21
  0.165000007       6.88387380E-21
  0.167500004       7.29095813E-21
  0.170000002       7.65066296E-21
  0.172499999       7.95078169E-21
  0.174999997       8.17925802E-21
  0.177499995       8.32507607E-21
  0.180000007       8.37824262E-21
  0.182500005       8.32577562E-21
  0.185000002       8.15895171E-21
  0.187500000       7.86694726E-21
  0.189999998       7.44341786E-21
  0.192499995       6.88195367E-21
  0.194999993       6.17716429E-21
  0.197500005       5.32612266E-21
  0.200000003       4.32868704E-21
  0.202500001       3.18854094E-21
  0.204999998       1.91339356E-21
  0.207499996       5.12729751E-22
  0.209999993      -1.00029532E-21
  0.212500006      -2.60457526E-21
  0.215000004      -4.27389682E-21
  0.217500001      -5.97449454E-21
  0.219999999      -7.67007666E-21
  0.222499996      -9.31668710E-21
  0.224999994      -1.08632959E-20
  0.227500007      -1.22504092E-20
  0.230000004      -1.34170626E-20
  0.232500002      -1.42909458E-20
  0.234999999      -1.47901978E-20
  0.237499997      -1.48318056E-20
  0.239999995      -1.43210555E-20
  0.242500007      -1.31569636E-20
  0.245000005      -1.12283782E-20
  0.247500002      -8.42002736E-21
  0.250000000      -4.60911984E-21
  0.252499998       3.34201339E-22
  0.254999995       6.54100380E-21
  0.257499993       1.41466512E-20
  0.259999990       2.32888291E-20
  0.262499988       3.41099073E-20
  0.264999986       4.67523581E-20
  0.267500013       6.13576471E-20
  0.270000011       7.80611055E-20
  0.272500008       9.69992958E-20
  0.275000006       1.18295099E-19
  0.277500004       1.42067676E-19
  0.280000001       1.68423046E-19
  0.282499999       1.97460123E-19
  0.284999996       2.29259905E-19
  0.287499994       2.63884186E-19
  0.289999992       3.01374881E-19
  0.292499989       3.41750859E-19
  0.294999987       3.85003875E-19
  0.297500014       4.31096860E-19
  0.300000012       4.79963020E-19
  0.302500010       5.31501284E-19
  0.305000007       5.85570306E-19
  0.307500005       6.41991469E-19
  0.310000002       7.00540243E-19
  0.312500000       7.60949347E-19
  0.314999998       8.22904451E-19
  0.317499995       8.86042578E-19
  0.319999993       9.49947347E-19
  0.322499990       1.01415218E-18
  0.324999988       1.07813098E-18
  0.327499986       1.14131010E-18
  0.330000013       1.20305779E-18
  0.332500011       1.26268841E-18
  0.335000008       1.31945637E-18
  0.337500006       1.37256891E-18
  0.340000004       1.42118273E-18
  0.342500001       1.46439878E-18
  0.344999999       1.50127026E-18
  0.347499996       1.53081498E-18
  0.349999994       1.55200920E-18
  0.352499992       1.56379074E-18
  0.354999989       1.56507411E-18
  0.357499987       1.55474211E-18
  0.360000014       1.53168445E-18
  0.362500012       1.49476913E-18
  0.365000010       1.44285972E-18
  0.367500007       1.37483601E-18
  0.370000005       1.28958037E-18
  0.372500002       1.18603452E-18
  0.375000000       1.06314939E-18
  0.377499998       9.19947884E-19
  0.379999995       7.55497709E-19
  0.382499993       5.68957056E-19
  0.384999990       3.59556956E-19
  0.387499988       1.26650399E-19
  0.389999986      -1.30284992E-19
  0.392500013      -4.11645139E-19
  0.395000011      -7.17708015E-19
  0.397500008      -1.04856206E-18
  0.400000006      -1.40414136E-18
  0.402500004      -1.78417730E-18
  0.405000001      -2.18821677E-18
  0.407499999      -2.61554427E-18
  0.409999996      -3.06527947E-18
  0.412499994      -3.53626743E-18
  0.414999992      -4.02711930E-18
  0.417499989      -4.53617163E-18
  0.419999987      -5.06150121E-18
  0.422500014      -5.60087922E-18
  0.425000012      -6.15184396E-18
  0.427500010      -6.71161941E-18
  0.430000007      -7.27713550E-18
  0.432500005      -7.84499003E-18
  0.435000002      -8.41156077E-18
  0.437500000      -8.97291449E-18
  0.439999998      -9.52480608E-18
  0.442499995      -1.00627192E-17
  0.444999993      -1.05818742E-17
  0.447499990      -1.10772603E-17
  0.449999988      -1.15435842E-17
  0.452499986      -1.19753195E-17
  0.455000013      -1.23667704E-17
  0.457500011      -1.27120695E-17
  0.460000008      -1.30051354E-17
  0.462500006      -1.32397710E-17
  0.465000004      -1.34097136E-17
  0.467500001      -1.35086055E-17
  0.469999999      -1.35300502E-17
  0.472499996      -1.34676684E-17
  0.474999994      -1.33151271E-17
  0.477499992      -1.30661979E-17
  0.479999989      -1.27147785E-17
  0.482499987      -1.22549984E-17
  0.485000014      -1.16811832E-17
  0.487500012      -1.09879794E-17
  0.490000010      -1.01703618E-17
  0.492500007      -9.22378182E-18
  0.495000005      -8.14412914E-18
  0.497500002      -6.92778611E-18
  0.500000000      -5.57173475E-18
  0.502499998      -4.07363456E-18
  0.504999995      -2.43183593E-18
  0.507499993      -6.45412481E-19
  0.509999990       1.28571268E-18
  0.512499988       3.36076142E-18
  0.514999986       5.57799775E-18
  0.517499983       7.93470025E-18
  0.519999981       1.04271327E-17
  0.522499979       1.30504302E-17
  0.524999976       1.57986137E-17
  0.527499974       1.86645033E-17
  0.529999971       2.16397330E-17
  0.532500029       2.47147174E-17
  0.535000026       2.78785972E-17
  0.537500024       3.11191997E-17
  0.540000021       3.44230683E-17
  0.542500019       3.77754030E-17
  0.545000017       4.11601135E-17
  0.547500014       4.45597630E-17
  0.550000012       4.79556637E-17
  0.552500010       5.13278441E-17
  0.555000007       5.46550789E-17
  0.557500005       5.79149116E-17
  0.560000002       6.10837678E-17
  0.562500000       6.41369576E-17
  0.564999998       6.70487326E-17
  0.567499995       6.97923385E-17
  0.569999993       7.23402731E-17
  0.572499990       7.46641345E-17
  0.574999988       7.67349382E-17
  0.577499986       7.85230578E-17
  0.579999983       7.99984635E-17
  0.582499981       8.11307877E-17
  0.584999979       8.18895241E-17
  0.587499976       8.22440934E-17
  0.589999974       8.21640951E-17
  0.592499971       8.16193801E-17
  0.595000029       8.05802427E-17
  0.597500026       7.90176655E-17
  0.600000024       7.69033720E-17
  0.602500021       7.42101248E-17
  0.605000019       7.09118712E-17
  0.607500017       6.69839015E-17
  0.610000014       6.24030877E-17
  0.612500012       5.71480556E-17
  0.615000010       5.11993631E-17
  0.617500007       4.45396956E-17
  0.620000005       3.71539686E-17
  0.622500002       2.90296951E-17
  0.625000000       2.01568596E-17
  0.627499998       1.05283267E-17
  0.629999995       1.39765231E-19
  0.632499993      -1.10098972E-17
  0.634999990      -2.29186237E-17
  0.637499988      -3.55810417E-17
  0.639999986      -4.89884152E-17
  0.642499983      -6.31284921E-17
  0.644999981      -7.79857146E-17
  0.647499979      -9.35409056E-17
  0.649999976      -1.09771294E-16
  0.652499974      -1.26650656E-16
  0.654999971      -1.44149338E-16
  0.657500029      -1.62234378E-16
  0.660000026      -1.80869553E-16
  0.662500024      -2.00015607E-16
  0.665000021      -2.19630363E-16
  0.667500019      -2.39668978E-16
  0.670000017      -2.60084166E-16
  0.672500014      -2.80826442E-16
  0.675000012      -3.01844823E-16
  0.677500010      -3.23086715E-16
  0.680000007      -3.44498596E-16
  0.682500005      -3.66026203E-16
  0.685000002      -3.87615591E-16
  0.687500000      -4.09212761E-16
  0.689999998      -4.30765329E-16
  0.692499995      -4.52222473E-16
  0.694999993      -4.73535463E-16
  0.697499990      -4.94659089E-16
  0.699999988      -5.15551791E-16
  0.702499986      -5.36176250E-16
  0.704999983      -5.56501017E-16
  0.707499981      -5.76500788E-16
  0.709999979      -5.96157458E-16
  0.712499976      -6.15460916E-16
  0.714999974      -6.34410366E-16
  0.717499971      -6.53014545E-16
  0.720000029      -6.71293304E-16
  0.722500026      -6.89278619E-16
  0.725000024      -7.07015701E-16
  0.727500021      -7.24563947E-16
  0.730000019      -7.41997950E-16
  0.732500017      -7.59408554E-16
  0.735000014      -7.76903648E-16
  0.737500012      -7.94609708E-16
  0.740000010      -8.12673003E-16
  0.742500007      -8.31260029E-16
  0.745000005      -8.50558775E-16
  0.747500002      -8.70780257E-16
  0.750000000      -8.92158310E-16
  0.752499998      -9.14952072E-16
  0.754999995      -9.39445936E-16
  0.757499993      -9.65950338E-16
  0.759999990      -9.94803033E-16
  0.762499988      -1.02636930E-15
  0.764999986      -1.06104302E-15
  0.767499983      -1.09924781E-15
  0.769999981      -1.14143598E-15
  0.772499979      -1.18809108E-15
  0.774999976      -1.23972663E-15
  0.777499974      -1.29688632E-15
  0.779999971      -1.36014518E-15
  0.782500029      -1.43010904E-15
  0.785000026      -1.50741488E-15
  0.787500024      -1.59273015E-15
  0.790000021      -1.68675251E-15
  0.792500019      -1.79020964E-15
  0.795000017      -1.90385838E-15
  0.797500014      -2.02848403E-15
  0.800000012      -2.16489911E-15
  0.802500010      -2.31394366E-15
  0.805000007      -2.47648187E-15
  0.807500005      -2.65340228E-15
  0.810000002      -2.84561587E-15
  0.812500000      -3.05405437E-15
  0.814999998      -3.27966753E-15
  0.817499995      -3.52342243E-15
  0.819999993      -3.78630038E-15
  0.822499990      -4.06929409E-15
  0.824999988      -4.37340475E-15
  0.827499986      -4.69964118E-15
  0.829999983      -5.04901517E-15
  0.832499981      -5.42253764E-15
  0.834999979      -5.82121868E-15
  0.837499976      -6.24605907E-15
  0.839999974      -6.69805110E-15
  0.842499971      -7.17817224E-15
  0.845000029      -7.68737880E-15
  0.847500026      -8.22660845E-15
  0.850000024      -8.79676750E-15
  0.852500021      -9.39873433E-15
  0.855000019      -1.00333492E-14
  0.857500017      -1.07014092E-14
  0.860000014      -1.14036664E-14
  0.862500012      -1.21408231E-14
  0.865000010      -1.29135221E-14
  0.867500007      -1.37223471E-14
  0.870000005      -1.45678113E-14
  0.872500002      -1.54503553E-14
  0.875000000      -1.63703432E-14
  0.877499998      -1.73280545E-14
  0.879999995      -1.83236774E-14
  0.882499993      -1.93573100E-14
  0.884999990      -2.04289422E-14
  0.887499988      -2.15384639E-14
  0.889999986      -2.26856447E-14
  0.892499983      -2.38701474E-14
  0.894999981      -2.50915045E-14
  0.897499979      -2.63491248E-14
  0.899999976      -2.76422782E-14
  0.902499974      -2.89701091E-14
  0.904999971      -3.03316027E-14
  0.907500029      -3.17256055E-14
  0.910000026      -3.31508197E-14
  0.912500024      -3.46057818E-14
  0.915000021      -3.60888687E-14
  0.917500019      -3.75983051E-14
  0.920000017      -3.91321429E-14
  0.922500014      -4.06882610E-14
  0.925000012      -4.22643894E-14
  0.927500010      -4.38580650E-14
  0.930000007      -4.54666686E-14
  0.932500005      -4.70873950E-14
  0.935000002      -4.87172761E-14
  0.937500000      -5.03531746E-14
  0.939999998      -5.19917734E-14
  0.942499995      -5.36295997E-14
  0.944999993      -5.52630011E-14
  0.947499990      -5.68881761E-14
  0.949999988      -5.85011572E-14
  0.952499986      -6.00978346E-14
  0.954999983      -6.16739529E-14
  0.957499981      -6.32251006E-14
  0.959999979      -6.47467580E-14
  0.962499976      -6.62342766E-14
  0.964999974      -6.76828995E-14
  0.967499971      -6.90877612E-14
  0.970000029      -7.04439152E-14
  0.972500026      -7.17463334E-14
  0.975000024      -7.29899404E-14
  0.977500021      -7.41696065E-14
  0.980000019      -7.52801752E-14
  0.982500017      -7.63164827E-14
  0.985000014      -7.72733589E-14
  0.987500012      -7.81456876E-14
  0.990000010      -7.89283799E-14
  0.992500007      -7.96164214E-14
  0.995000005      -8.02049128E-14
  0.997500002      -8.06890430E-14
   1.00000000      -8.10641701E-14
   1.00250006      -8.13258152E-14
   1.00500000      -8.14697024E-14
   1.00750005      -8.14917862E-14
   1.00999999      -8.13882720E-14
   1.01250005      -8.11556632E-14
   1.01499999      -8.07907818E-14
   1.01750004      -8.02907884E-14
   1.01999998      -7.96532504E-14
   1.02250004      -7.88761417E-14
   1.02499998      -7.79578835E-14
   1.02750003      -7.68973914E-14
   1.02999997      -7.56941100E-14
   1.03250003      -7.43480188E-14
   1.03499997      -7.28596938E-14
   1.03750002      -7.12303412E-14
   1.03999996      -6.94618245E-14
   1.04250002      -6.75566916E-14
   1.04499996      -6.55182221E-14
   1.04750001      -6.33504547E-14
   1.04999995      -6.10581938E-14
   1.05250001      -5.86470840E-14
   1.05499995      -5.61236069E-14
   1.05750000      -5.34951112E-14
   1.05999994      -5.07698437E-14
   1.06250000      -4.79569692E-14
   1.06500006      -4.50665980E-14
   1.06750000      -4.21097788E-14
   1.07000005      -3.90985428E-14
   1.07249999      -3.60459038E-14
   1.07500005      -3.29658582E-14
   1.07749999      -2.98733952E-14
   1.08000004      -2.67844930E-14
   1.08249998      -2.37161348E-14
   1.08500004      -2.06862674E-14
   1.08749998      -1.77138188E-14
   1.09000003      -1.48186551E-14
   1.09249997      -1.20215719E-14
   1.09500003      -9.34425741E-15
   1.09749997      -6.80925593E-15
   1.10000002      -4.43994003E-15
   1.10249996      -2.26044316E-15
   1.10500002      -2.95624001E-16
   1.10749996       1.42900610E-15
   1.11000001       2.88734749E-15
   1.11249995       4.05279007E-15
   1.11500001       4.89827888E-15
   1.11749995       5.39643124E-15
   1.12000000       5.51961227E-15
   1.12249994       5.24004185E-15
   1.12500000       4.52991314E-15
   1.12750006       3.36150446E-15
   1.13000000       1.70730947E-15
   1.13250005      -4.59829094E-16
   1.13499999      -3.16657889E-15
   1.13750005      -6.43897463E-15
   1.13999999      -1.03022517E-14
   1.14250004      -1.47806961E-14
   1.14499998      -1.98974714E-14
   1.14750004      -2.56744445E-14
   1.14999998      -3.21320085E-14
   1.15250003      -3.92888948E-14
   1.15499997      -4.71619847E-14
   1.15750003      -5.57661149E-14
   1.15999997      -6.51138892E-14
   1.16250002      -7.52154618E-14
   1.16499996      -8.60783545E-14
   1.16750002      -9.77072427E-14
   1.16999996      -1.10103739E-13
   1.17250001      -1.23266225E-13
   1.17499995      -1.37189617E-13
   1.17750001      -1.51865188E-13
   1.17999995      -1.67280347E-13
   1.18250000      -1.83418507E-13
   1.18499994      -2.00258809E-13
   1.18750000      -2.17776047E-13
   1.19000006      -2.35940390E-13
   1.19250000      -2.54717308E-13
   1.19500005      -2.74067417E-13
   1.19749999      -2.93946264E-13
   1.20000005      -3.14304328E-13
   1.20249999      -3.35086830E-13
   1.20500004      -3.56233624E-13
   1.20749998      -3.77679252E-13
   1.21000004      -3.99352724E-13
   1.21249998      -4.21177660E-13
   1.21500003      -4.43072093E-13
   1.21749997      -4.64948718E-13
   1.22000003      -4.86714727E-13
   1.22249997      -5.08272027E-13
   1.22500002      -5.29517240E-13
   1.22749996      -5.50341944E-13
   1.23000002      -5.70632734E-13
   1.23249996      -5.90271430E-13
   1.23500001      -6.09135355E-13
   1.23749995      -6.27097712E-13
   1.24000001      -6.44027583E-13
   1.24249995      -6.59790582E-13
   1.24500000      -6.74248960E-13
   1.24749994      -6.87262367E-13
   1.25000000      -6.98687961E-13
   1.25250006      -7.08380999E-13
   1.25500000      -7.16195603E-13
   1.25750005      -7.21984972E-13
   1.25999999      -7.25602250E-13
   1.26250005      -7.26901124E-13
   1.26499999      -7.25736528E-13
   1.26750004      -7.21965185E-13
   1.26999998      -7.15446691E-13
   1.27250004      -7.06044056E-13
   1.27499998      -6.93624574E-13
   1.27750003      -6.78061014E-13
   1.27999997      -6.59231892E-13
   1.28250003      -6.37022932E-13
   1.28499997      -6.11327883E-13
   1.28750002      -5.82049274E-13
   1.28999996      -5.49099774E-13
   1.29250002      -5.12402837E-13
   1.29499996      -4.71893791E-13
   1.29750001      -4.27521191E-13
   1.29999995      -3.79247361E-13
   1.30250001      -3.27049856E-13
   1.30499995      -2.70922092E-13
   1.30750000      -2.10874653E-13
   1.30999994      -1.46936188E-13
   1.31250000      -7.91543548E-14
   1.31500006      -7.59679879E-15
   1.31750000       6.76479543E-14
   1.32000005       1.46469547E-13
   1.32249999       2.28735108E-13
   1.32500005       3.14288363E-13
   1.32749999       4.02948860E-13
   1.33000004       4.94511496E-13
   1.33249998       5.88745849E-13
   1.33500004       6.85395480E-13
   1.33749998       7.84177790E-13
   1.34000003       8.84783674E-13
   1.34249997       9.86877138E-13
   1.34500003       1.09009524E-12
   1.34749997       1.19404812E-12
   1.35000002       1.29831898E-12
   1.35249996       1.40246462E-12
   1.35500002       1.50601536E-12
   1.35749996       1.60847594E-12
   1.36000001       1.70932615E-12
   1.36249995       1.80802129E-12
   1.36500001       1.90399346E-12
   1.36749995       1.99665219E-12
   1.37000000       2.08538677E-12
   1.37249994       2.16956618E-12
   1.37500000       2.24854206E-12
   1.37750006       2.32164960E-12
   1.38000000       2.38821029E-12
   1.38250005       2.44753284E-12
   1.38499999       2.49891666E-12
   1.38750005       2.54165374E-12
   1.38999999       2.57503133E-12
   1.39250004       2.59833518E-12
   1.39499998       2.61085164E-12
   1.39750004       2.61187187E-12
   1.39999998       2.60069440E-12
   1.40250003       2.57662880E-12
   1.40499997       2.53899918E-12
   1.40750003       2.48714829E-12
   1.40999997       2.42044123E-12
   1.41250002       2.33826868E-12
   1.41499996       2.24005254E-12
   1.41750002       2.12524898E-12
   1.41999996       1.99335297E-12
   1.42250001       1.84390307E-12
   1.42499995       1.67648523E-12
   1.42750001       1.49073744E-12
   1.42999995       1.28635470E-12
   1.43250000       1.06309319E-12
   1.43499994       8.20774546E-13
   1.43750000       5.59290299E-13
   1.44000006       2.78607080E-13
   1.44250000      -2.12298051E-14
   1.44500005      -3.40092022E-13
   1.44749999      -6.77763889E-13
   1.45000005      -1.03393834E-12
   1.45249999      -1.40821285E-12
   1.45500004      -1.80008666E-12
   1.45749998      -2.20895654E-12
   1.46000004      -2.63411363E-12
   1.46249998      -3.07474120E-12
   1.46500003      -3.52991052E-12
   1.46749997      -3.99858098E-12
   1.47000003      -4.47959421E-12
   1.47249997      -4.97167672E-12
   1.47500002      -5.47343507E-12
   1.47749996      -5.98335877E-12
   1.48000002      -6.49981501E-12
   1.48249996      -7.02105258E-12
   1.48500001      -7.54520144E-12
   1.48749995      -8.07027275E-12
   1.49000001      -8.59416184E-12
   1.49249995      -9.11464654E-12
   1.49500000      -9.62939624E-12
   1.49749994      -1.01359693E-11
   1.50000000      -1.06318192E-11
   1.50250006      -1.11142996E-11
   1.50500000      -1.15806670E-11
   1.50750005      -1.20280877E-11
   1.50999999      -1.24536449E-11
   1.51250005      -1.28543435E-11
   1.51499999      -1.32271191E-11
   1.51750004      -1.35688457E-11
   1.51999998      -1.38763437E-11
   1.52250004      -1.41463881E-11
   1.52499998      -1.43757220E-11
   1.52750003      -1.45610642E-11
   1.52999997      -1.46991221E-11
   1.53250003      -1.47866008E-11
   1.53499997      -1.48202180E-11
   1.53750002      -1.47967125E-11
   1.53999996      -1.47128646E-11
   1.54250002      -1.45655033E-11
   1.54499996      -1.43515200E-11
   1.54750001      -1.40678901E-11
   1.54999995      -1.37116785E-11
   1.55250001      -1.32800619E-11
   1.55499995      -1.27703412E-11
   1.55750000      -1.21799558E-11
   1.55999994      -1.15065023E-11
   1.56250000      -1.07477456E-11
   1.56500006      -9.90164287E-12
   1.56750000      -8.96634936E-12
   1.57000005      -7.94024221E-12
   1.57249999      -6.82193147E-12
   1.57500005      -5.61027787E-12
   1.57749999      -4.30440622E-12
   1.58000004      -2.90372153E-12
   1.58249998      -1.40792380E-12
   1.58500004       1.82979879E-13
   1.58749998       1.86866083E-12
   1.59000003       3.64845524E-12
   1.59249997       5.52135421E-12
   1.59500003       7.48598926E-12
   1.59749997       9.54062610E-12
   1.60000002       1.16831484E-11
   1.60249996       1.39110581E-11
   1.60500002       1.62214582E-11
   1.60749996       1.86110537E-11
   1.61000001       2.10761408E-11
   1.61249995       2.36126067E-11
   1.61500001       2.62159235E-11
   1.61749995       2.88811492E-11
   1.62000000       3.16029182E-11
   1.62249994       3.43754678E-11
   1.62500000       3.71926032E-11
   1.62750006       4.00477256E-11
   1.63000000       4.29338405E-11
   1.63250005       4.58435512E-11
   1.63499999       4.87690686E-11
   1.63750005       5.17022293E-11
   1.63999999       5.46345053E-11
   1.64250004       5.75570043E-11
   1.64499998       6.04605047E-11
   1.64750004       6.33354549E-11
   1.64999998       6.61719984E-11
   1.65250003       6.89599905E-11
   1.65499997       7.16890089E-11
   1.65750003       7.43484024E-11
   1.65999997       7.69272979E-11
   1.66250002       7.94145999E-11
   1.66499996       8.17990536E-11
   1.66750002       8.40692793E-11
   1.66999996       8.62137375E-11
   1.67250001       8.82208195E-11
   1.67499995       9.00788680E-11
   1.67750001       9.17761839E-11
   1.67999995       9.33010683E-11
   1.68250000       9.46418569E-11
   1.68499994       9.57869617E-11
   1.68750000       9.67248850E-11
   1.69000006       9.74442679E-11
   1.69250000       9.79339179E-11
   1.69500005       9.81828438E-11
   1.69749999       9.81802764E-11
   1.70000005       9.79157519E-11
   1.70249999       9.73790770E-11
   1.70500004       9.65603986E-11
   1.70749998       9.54502519E-11
   1.71000004       9.40395609E-11
   1.71249998       9.23196936E-11
   1.71500003       9.02824898E-11
   1.71749997       8.79202683E-11
   1.72000003       8.52258958E-11
   1.72249997       8.21927942E-11
   1.72500002       7.88149684E-11
   1.72749996       7.50870408E-11
   1.73000002       7.10042650E-11
   1.73249996       6.65625680E-11
   1.73500001       6.17585705E-11
   1.73749995       5.65895907E-11
   1.74000001       5.10536995E-11
   1.74249995       4.51497069E-11
   1.74500000       3.88772070E-11
   1.74749994       3.22365711E-11
   1.75000000       2.52289942E-11
   1.75250006       1.78564767E-11
   1.75500000       1.01218738E-11
   1.75750005       2.02887815E-12
   1.75999999      -6.41795341E-12
   1.76250005      -1.52131849E-11
   1.76499999      -2.43505129E-11
   1.76750004      -3.38227293E-11
   1.76999998      -4.36217173E-11
   1.77250004      -5.37384824E-11
   1.77499998      -6.41631054E-11
   1.77750003      -7.48847234E-11
   1.77999997      -8.58915924E-11
   1.78250003      -9.71710004E-11
   1.78499997      -1.08709292E-10
   1.78750002      -1.20491908E-10
   1.78999996      -1.32503328E-10
   1.79250002      -1.44727078E-10
   1.79499996      -1.57145713E-10
   1.79750001      -1.69740846E-10
   1.79999995      -1.82493104E-10
   1.80250001      -1.95382183E-10
   1.80499995      -2.08386725E-10
   1.80750000      -2.21484428E-10
   1.80999994      -2.34651992E-10
   1.81250000      -2.47865117E-10
   1.81500006      -2.61098504E-10
   1.81750000      -2.74325729E-10
   1.82000005      -2.87519508E-10
   1.82249999      -3.00651337E-10
   1.82500005      -3.13691795E-10
   1.82749999      -3.26610294E-10
   1.83000004      -3.39375222E-10
   1.83249998      -3.51953799E-10
   1.83500004      -3.64312275E-10
   1.83749998      -3.76415649E-10
   1.84000003      -3.88227867E-10
   1.84249997      -3.99711653E-10
   1.84500003      -4.10828677E-10
   1.84749997      -4.21539414E-10
   1.85000002      -4.31803093E-10
   1.85249996      -4.41577913E-10
   1.85500002      -4.50820742E-10
   1.85749996      -4.59487309E-10
   1.86000001      -4.67532235E-10
   1.86249995      -4.74908779E-10
   1.86500001      -4.81569229E-10
   1.86749995      -4.87464624E-10
   1.87000000      -4.92544727E-10
   1.87249994      -4.96758412E-10
   1.87500000      -5.00053221E-10
   1.87750006      -5.02375697E-10
   1.88000000      -5.03671382E-10
   1.88250005      -5.03884767E-10
   1.88499999      -5.02959452E-10
   1.88750005      -5.00838038E-10
   1.88999999      -4.97462405E-10
   1.89250004      -4.92773600E-10
   1.89499998      -4.86712171E-10
   1.89750004      -4.79217888E-10
   1.89999998      -4.70230133E-10
   1.90250003      -4.59687927E-10
   1.90499997      -4.47530152E-10
   1.90750003      -4.33695552E-10
   1.90999997      -4.18122925E-10
   1.91250002      -4.00751349E-10
   1.91499996      -3.81520315E-10
   1.91750002      -3.60369873E-10
   1.91999996      -3.37240930E-10
   1.92250001      -3.12075477E-10
   1.92499995      -2.84816670E-10
   1.92750001      -2.55409277E-10
   1.92999995      -2.23799895E-10
   1.93250000      -1.89937149E-10
   1.93499994      -1.53772106E-10
   1.93750000      -1.15258483E-10
   1.94000006      -7.43531070E-11
   1.94250000      -3.10161827E-11
   1.94500005       1.47883077E-11
   1.94749999       6.30922467E-11
   1.95000005       1.13922899E-10
   1.95249999       1.67302588E-10
   1.95500004       2.23248170E-10
   1.95749998       2.81770579E-10
   1.96000004       3.42874507E-10
   1.96249998       4.06557704E-10
   1.96500003       4.72810679E-10
   1.96749997       5.41615808E-10
   1.97000003       6.12947471E-10
   1.97249997       6.86770807E-10
   1.97500002       7.63041519E-10
   1.97749996       8.41705261E-10
   1.98000002       9.22697196E-10
   1.98249996       1.00594089E-09
   1.98500001       1.09134846E-09
   1.98749995       1.17881960E-09
   1.99000001       1.26824062E-09
   1.99249995       1.35948475E-09
   1.99500000       1.45241041E-09
   1.99749994       1.54686208E-09
   2.00000000       1.64266811E-09
   2.00250006       1.73964132E-09
   2.00500011       1.83757787E-09
   2.00749993       1.93625671E-09
   2.00999999       2.03543982E-09
   2.01250005       2.13487072E-09
   2.01500010       2.23427432E-09
   2.01749992       2.33335684E-09
   2.01999998       2.43180520E-09
   2.02250004       2.52928611E-09
   2.02500010       2.62544719E-09
   2.02749991       2.71991429E-09
   2.02999997       2.81229462E-09
   2.03250003       2.90217339E-09
   2.03500009       2.98911629E-09
   2.03749990       3.07266679E-09
   2.03999996       3.15234949E-09
   2.04250002       3.22766769E-09
   2.04500008       3.29810446E-09
   2.04749990       3.36312400E-09
   2.04999995       3.42217010E-09
   2.05250001       3.47466855E-09
   2.05500007       3.52002716E-09
   2.05749989       3.55763641E-09
   2.05999994       3.58687102E-09
   2.06250000       3.60709018E-09
   2.06500006       3.61763974E-09
   2.06750011       3.61785268E-09
   2.06999993       3.60705199E-09
   2.07249999       3.58455110E-09
   2.07500005       3.54965657E-09
   2.07750010       3.50167007E-09
   2.07999992       3.43989037E-09
   2.08249998       3.36361627E-09
   2.08500004       3.27214877E-09
   2.08750010       3.16479398E-09
   2.08999991       3.04086734E-09
   2.09249997       2.89969493E-09
   2.09500003       2.74061840E-09
   2.09750009       2.56299759E-09
   2.09999990       2.36621567E-09
   2.10249996       2.14968199E-09
   2.10500002       1.91283722E-09
   2.10750008       1.65515712E-09
   2.10999990       1.37615719E-09
   2.11249995       1.07539855E-09
   2.11500001       7.52491180E-10