  -2.50000004E-02   0.00000000    
  -2.25000009E-02   0.00000000    
  -1.99999996E-02   0.00000000    
  -1.75000001E-02   5.02173075E-23
  -1.49999997E-02   3.42528227E-22
  -1.25000002E-02   1.34247849E-21
  -9.99999978E-03   3.96057349E-21
  -7.49999983E-03   9.76145663E-21
  -4.99999989E-03   2.12091339E-20
  -2.49999994E-03   4.19461027E-20
   0.00000000       7.71038120E-20
   2.49999994E-03   1.33641885E-19
   4.99999989E-03   2.20712906E-19
   7.49999983E-03   3.50049161E-19
   9.99999978E-03   5.36368208E-19
   1.25000002E-02   7.97792643E-19
   1.49999997E-02   1.15628135E-18
   1.75000001E-02   1.63806577E-18
   1.99999996E-02   2.27408825E-18
   2.25000009E-02   3.10043879E-18
   2.50000004E-02   4.15878081E-18
   2.74999999E-02   5.49676572E-18
   2.99999993E-02   7.16842991E-18
   3.24999988E-02   9.23456826E-18
   3.50000001E-02   1.17630758E-17
   3.75000015E-02   1.48292573E-17
   3.99999991E-02   1.85160989E-17
   4.25000004E-02   2.29144994E-17
   4.50000018E-02   2.81234394E-17
   4.74999994E-02   3.42500982E-17
   5.00000007E-02   4.14099055E-17
   5.24999984E-02   4.97265680E-17
   5.49999997E-02   5.93319448E-17
   5.75000010E-02   7.03659254E-17
   5.99999987E-02   8.29762012E-17
   6.25000000E-02   9.73179314E-17
   6.49999976E-02   1.13553316E-16
   6.75000027E-02   1.31851134E-16
   7.00000003E-02   1.52386124E-16
   7.24999979E-02   1.75338282E-16
   7.50000030E-02   2.00892128E-16
   7.75000006E-02   2.29235756E-16
   7.99999982E-02   2.60559802E-16
   8.25000033E-02   2.95056304E-16
   8.50000009E-02   3.32917618E-16
   8.74999985E-02   3.74334935E-16
   9.00000036E-02   4.19496852E-16
   9.25000012E-02   4.68587785E-16
   9.49999988E-02   5.21786589E-16
   9.74999964E-02   5.79264339E-16
  0.100000001       6.41182712E-16
  0.102499999       7.07691898E-16
  0.104999997       7.78928534E-16
  0.107500002       8.55013586E-16
  0.109999999       9.36049863E-16
  0.112499997       1.02212016E-15
  0.115000002       1.11328388E-15
  0.117500000       1.20957522E-15
  0.119999997       1.31100033E-15
  0.122500002       1.41753484E-15
  0.125000000       1.52912073E-15
  0.127499998       1.64566400E-15
  0.129999995       1.76703111E-15
  0.132499993       1.89304727E-15
  0.135000005       2.02349225E-15
  0.137500003       2.15809850E-15
  0.140000001       2.29654772E-15
  0.142499998       2.43846852E-15
  0.144999996       2.58343270E-15
  0.147499993       2.73095365E-15
  0.150000006       2.88048165E-15
  0.152500004       3.03140323E-15
  0.155000001       3.18303758E-15
  0.157499999       3.33463425E-15
  0.159999996       3.48536969E-15
  0.162499994       3.63434648E-15
  0.165000007       3.78059053E-15
  0.167500004       3.92304877E-15
  0.170000002       4.06058743E-15
  0.172499999       4.19199147E-15
  0.174999997       4.31595940E-15
  0.177499995       4.43110675E-15
  0.180000007       4.53596435E-15
  0.182500005       4.62897280E-15
  0.185000002       4.70848717E-15
  0.187500000       4.77277443E-15
  0.189999998       4.82001515E-15
  0.192499995       4.84830055E-15
  0.194999993       4.85563585E-15
  0.197500005       4.83994330E-15
  0.200000003       4.79905829E-15
  0.202500001       4.73073449E-15
  0.204999998       4.63264469E-15
  0.207499996       4.50238500E-15
  0.209999993       4.33747700E-15
  0.212500006       4.13536986E-15
  0.215000004       3.89344708E-15
  0.217500001       3.60902612E-15
  0.219999999       3.27936662E-15
  0.222499996       2.90167505E-15
  0.224999994       2.47310920E-15
  0.227500007       1.99078831E-15
  0.230000004       1.45179340E-15
  0.232500002       8.53178383E-16
  0.234999999       1.91978284E-16
  0.237499997      -5.34789127E-16
  0.239999995      -1.33010547E-15
  0.242500007      -2.19694533E-15
  0.245000005      -3.13827295E-15
  0.247500002      -4.15702722E-15
  0.250000000      -5.25610879E-15
  0.252499998      -6.43837070E-15
  0.254999995      -7.70661323E-15
  0.257499993      -9.06356340E-15
  0.259999990      -1.05118635E-14
  0.262499988      -1.20540657E-14
  0.264999986      -1.36926069E-14
  0.267500013      -1.54298046E-14
  0.270000011      -1.72678373E-14
  0.272500008      -1.92087354E-14
  0.275000006      -2.12543657E-14
  0.277500004      -2.34064087E-14
  0.280000001      -2.56663468E-14
  0.282499999      -2.80354539E-14
  0.284999996      -3.05147719E-14
  0.287499994      -3.31050935E-14
  0.289999992      -3.58069558E-14
  0.292499989      -3.86206163E-14
  0.294999987      -4.15460377E-14
  0.297500014      -4.45828609E-14
  0.300000012      -4.77304082E-14
  0.302500010      -5.09876463E-14
  0.305000007      -5.43531827E-14
  0.307500005      -5.78252385E-14
  0.310000002      -6.14016352E-14
  0.312500000      -6.50797978E-14
  0.314999998      -6.88566974E-14
  0.317499995      -7.27288645E-14
  0.319999993      -7.66923756E-14
  0.322499990      -8.07428058E-14
  0.324999988      -8.48752492E-14
  0.327499986      -8.90842779E-14
  0.330000013      -9.33639491E-14
  0.332500011      -9.77077848E-14
  0.335000008      -1.02108744E-13
  0.337500006      -1.06559218E-13
  0.340000004      -1.11051034E-13
  0.342500001      -1.15575409E-13
  0.344999999      -1.20123001E-13
  0.347499996      -1.24683805E-13
  0.349999994      -1.29247226E-13
  0.352499992      -1.33802068E-13
  0.354999989      -1.38336445E-13
  0.357499987      -1.42837876E-13
  0.360000014      -1.47293229E-13
  0.362500012      -1.51688747E-13
  0.365000010      -1.56009971E-13
  0.367500007      -1.60241842E-13
  0.370000005      -1.64368654E-13
  0.372500002      -1.68374022E-13
  0.375000000      -1.72240951E-13
  0.377499998      -1.75951796E-13
  0.379999995      -1.79488274E-13
  0.382499993      -1.82831506E-13
  0.384999990      -1.85962004E-13
  0.387499988      -1.88859670E-13
  0.389999986      -1.91503809E-13
  0.392500013      -1.93873211E-13
  0.395000011      -1.95946029E-13
  0.397500008      -1.97699970E-13
  0.400000006      -1.99112184E-13
  0.402500004      -2.00159347E-13
  0.405000001      -2.00817675E-13
  0.407499999      -2.01062921E-13
  0.409999996      -2.00870502E-13
  0.412499994      -2.00215387E-13
  0.414999992      -1.99072258E-13
  0.417499989      -1.97415475E-13
  0.419999987      -1.95219126E-13
  0.422500014      -1.92457080E-13
  0.425000012      -1.89103060E-13
  0.427500010      -1.85130584E-13
  0.430000007      -1.80513129E-13
  0.432500005      -1.75224107E-13
  0.435000002      -1.69236925E-13
  0.437500000      -1.62525090E-13
  0.439999998      -1.55062202E-13
  0.442499995      -1.46822035E-13
  0.444999993      -1.37778623E-13
  0.447499990      -1.27906258E-13
  0.449999988      -1.17179595E-13
  0.452499986      -1.05573726E-13
  0.455000013      -9.30642214E-14
  0.457500011      -7.96272567E-14
  0.460000008      -6.52396092E-14
  0.462500006      -4.98787582E-14
  0.465000004      -3.35228976E-14
  0.467500001      -1.61511548E-14
  0.469999999       2.25641234E-15
  0.472499996       2.17187582E-14
  0.474999994       4.22537100E-14
  0.477499992       6.38779665E-14
  0.479999989       8.66069233E-14
  0.482499987       1.10454689E-13
  0.485000014       1.35433928E-13
  0.487500012       1.61555746E-13
  0.490000010       1.88829719E-13
  0.492500007       2.17263680E-13
  0.495000005       2.46863700E-13
  0.497500002       2.77634008E-13
  0.500000000       3.09576935E-13
  0.502499998       3.42692698E-13
  0.504999995       3.76979291E-13
  0.507499993       4.12432621E-13
  0.509999990       4.49046345E-13
  0.512499988       4.86811600E-13
  0.514999986       5.25717111E-13
  0.517499983       5.65748999E-13
  0.519999981       6.06890785E-13
  0.522499979       6.49123225E-13
  0.524999976       6.92424200E-13
  0.527499974       7.36768827E-13
  0.529999971       7.82129082E-13
  0.532500029       8.28474117E-13
  0.535000026       8.75769672E-13
  0.537500024       9.23978559E-13
  0.540000021       9.73060174E-13
  0.542500019       1.02297055E-12
  0.545000017       1.07366243E-12
  0.547500014       1.12508516E-12
  0.550000012       1.17718444E-12
  0.552500010       1.22990236E-12
  0.555000007       1.28317745E-12
  0.557500005       1.33694466E-12
  0.560000002       1.39113515E-12
  0.562500000       1.44567615E-12
  0.564999998       1.50049168E-12
  0.567499995       1.55550139E-12
  0.569999993       1.61062136E-12
  0.572499990       1.66576388E-12
  0.574999988       1.72083723E-12
  0.577499986       1.77574611E-12
  0.579999983       1.83039109E-12
  0.582499981       1.88466885E-12
  0.584999979       1.93847260E-12
  0.587499976       1.99169175E-12
  0.589999974       2.04421137E-12
  0.592499971       2.09591307E-12
  0.595000029       2.14667542E-12
  0.597500026       2.19637221E-12
  0.600000024       2.24487464E-12
  0.602500021       2.29204980E-12
  0.605000019       2.33776149E-12
  0.607500017       2.38187031E-12
  0.610000014       2.42423334E-12
  0.612500012       2.46470422E-12
  0.615000010       2.50313420E-12
  0.617500007       2.53937106E-12
  0.620000005       2.57326018E-12
  0.622500002       2.60464371E-12
  0.625000000       2.63336141E-12
  0.627499998       2.65925107E-12
  0.629999995       2.68214769E-12
  0.632499993       2.70188429E-12
  0.634999990       2.71829195E-12
  0.637499988       2.73120047E-12
  0.639999986       2.74043765E-12
  0.642499983       2.74583026E-12
  0.644999981       2.74720372E-12
  0.647499979       2.74438263E-12
  0.649999976       2.73719112E-12
  0.652499974       2.72545311E-12
  0.654999971       2.70899167E-12
  0.657500029       2.68763050E-12
  0.660000026       2.66119396E-12
  0.662500024       2.62950599E-12
  0.665000021       2.59239266E-12
  0.667500019       2.54968074E-12
  0.670000017       2.50119847E-12
  0.672500014       2.44677629E-12
  0.675000012       2.38624637E-12
  0.677500010       2.31944347E-12
  0.680000007       2.24620539E-12
  0.682500005       2.16637298E-12
  0.685000002       2.07979077E-12
  0.687500000       1.98630630E-12
  0.689999998       1.88577257E-12
  0.692499995       1.77804646E-12
  0.694999993       1.66298995E-12
  0.697499990       1.54047044E-12
  0.699999988       1.41036076E-12
  0.702499986       1.27253991E-12
  0.704999983       1.12689339E-12
  0.707499981       9.73313769E-13
  0.709999979       8.11700479E-13
  0.712499976       6.41960931E-13
  0.714999974       4.64010449E-13
  0.717499971       2.77772705E-13
  0.720000029       8.31802617E-14
  0.722500026      -1.19825021E-13
  0.725000024      -3.31291472E-13
  0.727500021      -5.51257878E-13
  0.730000019      -7.79752510E-13
  0.732500017      -1.01679255E-12
  0.735000014      -1.26238429E-12
  0.737500012      -1.51652204E-12
  0.740000010      -1.77918823E-12
  0.742500007      -2.05035316E-12
  0.745000005      -2.32997475E-12
  0.747500002      -2.61799762E-12
  0.750000000      -2.91435235E-12
  0.752499998      -3.21895570E-12
  0.754999995      -3.53171138E-12
  0.757499993      -3.85250816E-12
  0.759999990      -4.18121917E-12
  0.762499988      -4.51770349E-12
  0.764999986      -4.86180410E-12
  0.767499983      -5.21334972E-12
  0.769999981      -5.57215125E-12
  0.772499979      -5.93800399E-12
  0.774999976      -6.31068635E-12
  0.777499974      -6.68996109E-12
  0.779999971      -7.07557363E-12
  0.782500029      -7.46725078E-12
  0.785000026      -7.86470281E-12
  0.787500024      -8.26762270E-12
  0.790000021      -8.67568604E-12
  0.792500019      -9.08854936E-12
  0.795000017      -9.50585183E-12
  0.797500014      -9.92721530E-12
  0.800000012      -1.03522416E-11
  0.802500010      -1.07805154E-11
  0.805000007      -1.12116020E-11
  0.807500005      -1.16450486E-11
  0.810000002      -1.20803853E-11
  0.812500000      -1.25171228E-11
  0.814999998      -1.29547519E-11
  0.817499995      -1.33927478E-11
  0.819999993      -1.38305669E-11
  0.822499990      -1.42676444E-11
  0.824999988      -1.47034017E-11
  0.827499986      -1.51372387E-11
  0.829999983      -1.55685412E-11
  0.832499981      -1.59966762E-11
  0.834999979      -1.64209878E-11
  0.837499976      -1.68408117E-11
  0.839999974      -1.72554609E-11
  0.842499971      -1.76642364E-11
  0.845000029      -1.80664199E-11
  0.847500026      -1.84612759E-11
  0.850000024      -1.88480585E-11
  0.852500021      -1.92260010E-11
  0.855000019      -1.95943244E-11
  0.857500017      -1.99522378E-11
  0.860000014      -2.02989344E-11
  0.862500012      -2.06335938E-11
  0.865000010      -2.09553850E-11
  0.867500007      -2.12634615E-11
  0.870000005      -2.15569663E-11
  0.872500002      -2.18350355E-11
  0.875000000      -2.20967897E-11
  0.877499998      -2.23413441E-11
  0.879999995      -2.25678018E-11
  0.882499993      -2.27752591E-11
  0.884999990      -2.29628053E-11
  0.887499988      -2.31295261E-11
  0.889999986      -2.32744969E-11
  0.892499983      -2.33967880E-11
  0.894999981      -2.34954712E-11
  0.897499979      -2.35696098E-11
  0.899999976      -2.36182653E-11
  0.902499974      -2.36405045E-11
  0.904999971      -2.36353853E-11
  0.907500029      -2.36019711E-11
  0.910000026      -2.35393302E-11
  0.912500024      -2.34465277E-11
  0.915000021      -2.33226355E-11
  0.917500019      -2.31667342E-11
  0.920000017      -2.29779078E-11
  0.922500014      -2.27552473E-11
  0.925000012      -2.24978577E-11
  0.927500010      -2.22048473E-11
  0.930000007      -2.18753418E-11
  0.932500005      -2.15084790E-11
  0.935000002      -2.11034090E-11
  0.937500000      -2.06593007E-11
  0.939999998      -2.01753388E-11
  0.942499995      -1.96507238E-11
  0.944999993      -1.90846852E-11
  0.947499990      -1.84764634E-11
  0.949999988      -1.78253332E-11
  0.952499986      -1.71305851E-11
  0.954999983      -1.63915426E-11
  0.957499981      -1.56075552E-11
  0.959999979      -1.47780017E-11
  0.962499976      -1.39022934E-11
  0.964999974      -1.29798750E-11
  0.967499971      -1.20102279E-11
  0.970000029      -1.09928689E-11
  0.972500026      -9.92735321E-12
  0.975000024      -8.81327563E-12
  0.977500021      -7.65027538E-12
  0.980000019      -6.43803760E-12
  0.982500017      -5.17628908E-12
  0.985000014      -3.86480735E-12
  0.987500012      -2.50342021E-12
  0.990000010      -1.09200756E-12
  0.992500007       3.69500790E-13
  0.995000005       1.88111462E-12
  0.997500002       3.44278837E-12
   1.00000000       5.05441956E-12
   1.00250006       6.71584316E-12
   1.00500000       8.42682781E-12
   1.00750005       1.01870821E-11
   1.00999999       1.19962399E-11
   1.01250005       1.38538746E-11
   1.01499999       1.57594892E-11
   1.01750004       1.77125103E-11
   1.01999998       1.97122891E-11
   1.02250004       2.17581075E-11
   1.02499998       2.38491674E-11
   1.02750003       2.59845877E-11
   1.02999997       2.81634178E-11
   1.03250003       3.03846150E-11
   1.03499997       3.26470517E-11
   1.03750002       3.49495259E-11
   1.03999996       3.72907434E-11
   1.04250002       3.96693269E-11
   1.04499996       4.20838087E-11
   1.04750001       4.45326241E-11
   1.04999995       4.70141322E-11
   1.05250001       4.95265808E-11
   1.05499995       5.20681519E-11
   1.05750000       5.46369165E-11
   1.05999994       5.72308589E-11
   1.06250000       5.98478628E-11
   1.06500006       6.24857319E-11
   1.06750000       6.51421694E-11
   1.07000005       6.78147816E-11
   1.07249999       7.05010772E-11
   1.07500005       7.31984820E-11
   1.07749999       7.59043245E-11
   1.08000004       7.86158430E-11
   1.08249998       8.13301787E-11
   1.08500004       8.40443756E-11
   1.08749998       8.67554084E-11
   1.09000003       8.94601476E-11
   1.09249997       9.21553736E-11
   1.09500003       9.48377904E-11
   1.09749997       9.75040118E-11
   1.10000002       1.00150568E-10
   1.10249996       1.02773914E-10
   1.10500002       1.05370428E-10
   1.10749996       1.07936396E-10
   1.11000001       1.10468051E-10
   1.11249995       1.12961550E-10
   1.11500001       1.15412978E-10
   1.11749995       1.17818366E-10
   1.12000000       1.20173663E-10
   1.12249994       1.22474766E-10
   1.12500000       1.24717528E-10
   1.12750006       1.26897756E-10
   1.13000000       1.29011191E-10
   1.13250005       1.31053543E-10
   1.13499999       1.33020484E-10
   1.13750005       1.34907641E-10
   1.13999999       1.36710601E-10
   1.14250004       1.38424980E-10
   1.14499998       1.40046294E-10
   1.14750004       1.41570117E-10
   1.14999998       1.42991952E-10
   1.15250003       1.44307344E-10
   1.15499997       1.45511811E-10
   1.15750003       1.46600870E-10
   1.15999997       1.47570081E-10
   1.16250002       1.48414989E-10
   1.16499996       1.49131152E-10
   1.16750002       1.49714213E-10
   1.16999996       1.50159774E-10
   1.17250001       1.50463503E-10
   1.17499995       1.50621141E-10
   1.17750001       1.50628426E-10
   1.17999995       1.50481211E-10
   1.18250000       1.50175358E-10
   1.18499994       1.49706816E-10
   1.18750000       1.49071630E-10
   1.19000006       1.48265913E-10
   1.19250000       1.47285850E-10
   1.19500005       1.46127707E-10
   1.19749999       1.44787890E-10
   1.20000005       1.43262888E-10
   1.20249999       1.41549300E-10
   1.20500004       1.39643838E-10
   1.20749998       1.37543366E-10
   1.21000004       1.35244829E-10
   1.21249998       1.32745342E-10
   1.21500003       1.30042171E-10
   1.21749997       1.27132693E-10
   1.22000003       1.24014465E-10
   1.22249997       1.20685198E-10
   1.22500002       1.17142782E-10
   1.22749996       1.13385273E-10
   1.23000002       1.09410897E-10
   1.23249996       1.05218070E-10
   1.23500001       1.00805399E-10
   1.23749995       9.61716956E-11
   1.24000001       9.13159617E-11
   1.24249995       8.62374269E-11
   1.24500000       8.09355083E-11
   1.24749994       7.54098797E-11
   1.25000000       6.96604024E-11
   1.25250006       6.36871944E-11
   1.25500000       5.74906164E-11
   1.25750005       5.10712514E-11
   1.25999999       4.44299389E-11
   1.26250005       3.75677753E-11
   1.26499999       3.04861206E-11
   1.26750004       2.31865898E-11
   1.26999998       1.56710703E-11
   1.27250004       7.94172540E-12
   1.27499998       9.87728508E-16
   1.27750003      -8.14842725E-12
   1.27999997      -1.65035069E-11
   1.28250003      -2.50609585E-11
   1.28499997      -3.38171956E-11
   1.28750002      -4.27683410E-11
   1.28999996      -5.19102053E-11
   1.29250002      -6.12383200E-11
   1.29499996      -7.07478798E-11
   1.29750001      -8.04338054E-11
   1.29999995      -9.02906916E-11
   1.30250001      -1.00312848E-10
   1.30499995      -1.10494253E-10
   1.30750000      -1.20828583E-10
   1.30999994      -1.31309255E-10
   1.31250000      -1.41929343E-10
   1.31500006      -1.52681590E-10
   1.31750000      -1.63558500E-10
   1.32000005      -1.74552262E-10
   1.32249999      -1.85654797E-10
   1.32500005      -1.96857683E-10
   1.32749999      -2.08152273E-10
   1.33000004      -2.19529644E-10
   1.33249998      -2.30980610E-10
   1.33500004      -2.42495746E-10
   1.33749998      -2.54065380E-10
   1.34000003      -2.65679534E-10
   1.34249997      -2.77328105E-10
   1.34500003      -2.89000768E-10
   1.34749997      -3.00686975E-10
   1.35000002      -3.12376042E-10
   1.35249996      -3.24057031E-10
   1.35500002      -3.35719008E-10
   1.35749996      -3.47350787E-10
   1.36000001      -3.58941099E-10
   1.36249995      -3.70478676E-10
   1.36500001      -3.81952081E-10
   1.36749995      -3.93349908E-10
   1.37000000      -4.04660722E-10
   1.37249994      -4.15873030E-10
   1.37500000      -4.26975399E-10
   1.37750006      -4.37956560E-10
   1.38000000      -4.48805160E-10
   1.38250005      -4.59510069E-10
   1.38499999      -4.70060213E-10
   1.38750005      -4.80444795E-10
   1.38999999      -4.90653074E-10
   1.39250004      -5.00674668E-10
   1.39499998      -5.10499421E-10
   1.39750004      -5.20117338E-10
   1.39999998      -5.29518873E-10
   1.40250003      -5.38694755E-10
   1.40499997      -5.47636159E-10
   1.40750003      -5.56334590E-10
   1.40999997      -5.64781943E-10
   1.41250002      -5.72970671E-10
   1.41499996      -5.80893722E-10
   1.41750002      -5.88544269E-10
   1.41999996      -5.95916427E-10
   1.42250001      -6.03004591E-10
   1.42499995      -6.09803708E-10
   1.42750001      -6.16309559E-10
   1.42999995      -6.22518315E-10
   1.43250000      -6.28426755E-10
   1.43499994      -6.34032382E-10
   1.43750000      -6.39333364E-10
   1.44000006      -6.44328424E-10
   1.44250000      -6.49016951E-10
   1.44500005      -6.53399113E-10
   1.44749999      -6.57475518E-10
   1.45000005      -6.61247612E-10
   1.45249999      -6.64717337E-10
   1.45500004      -6.67887190E-10
   1.45749998      -6.70760447E-10
   1.46000004      -6.73340939E-10
   1.46249998      -6.75632883E-10
   1.46500003      -6.77641110E-10
   1.46749997      -6.79371004E-10
   1.47000003      -6.80828227E-10
   1.47249997      -6.82018886E-10
   1.47500002      -6.82949475E-10
   1.47749996      -6.83626822E-10
   1.48000002      -6.84057755E-10
   1.48249996      -6.84249435E-10
   1.48500001      -6.84209023E-10
   1.48749995      -6.83943846E-10
   1.49000001      -6.83460954E-10
   1.49249995      -6.82767287E-10
   1.49500000      -6.81869672E-10
   1.49749994      -6.80774437E-10
   1.50000000      -6.79487522E-10
   1.50250006      -6.78014200E-10
   1.50500000      -6.76359357E-10
   1.50750005      -6.74526823E-10
   1.50999999      -6.72519762E-10
   1.51250005      -6.70340172E-10
   1.51499999      -6.67988997E-10
   1.51750004      -6.65465905E-10
   1.51999998      -6.62769284E-10
   1.52250004      -6.59895916E-10
   1.52499998      -6.56840971E-10
   1.52750003      -6.53597843E-10
   1.52999997      -6.50158039E-10
   1.53250003      -6.46511178E-10
   1.53499997      -6.42644604E-10
   1.53750002      -6.38543440E-10
   1.53999996      -6.34190367E-10
   1.54250002      -6.29565677E-10
   1.54499996      -6.24646945E-10
   1.54750001      -6.19409024E-10
   1.54999995      -6.13823992E-10
   1.55250001      -6.07860928E-10
   1.55499995      -6.01485972E-10
   1.55750000      -5.94662042E-10
   1.55999994      -5.87349058E-10
   1.56250000      -5.79503501E-10
   1.56500006      -5.71078795E-10
   1.56750000      -5.62024927E-10
   1.57000005      -5.52288493E-10
   1.57249999      -5.41812928E-10
   1.57500005      -5.30538058E-10
   1.57749999      -5.18400711E-10
   1.58000004      -5.05334163E-10
   1.58249998      -4.91268470E-10
   1.58500004      -4.76130635E-10
   1.58749998      -4.59844524E-10
   1.59000003      -4.42331033E-10
   1.59249997      -4.23508173E-10
   1.59500003      -4.03291345E-10
   1.59749997      -3.81593424E-10
   1.60000002      -3.58324814E-10
   1.60249996      -3.33393951E-10
   1.60500002      -3.06707243E-10
   1.60749996      -2.78169598E-10
   1.61000001      -2.47684373E-10
   1.61249995      -2.15153992E-10
   1.61500001      -1.80480061E-10
   1.61749995      -1.43563772E-10
   1.62000000      -1.04306230E-10
   1.62249994      -6.26089042E-11
   1.62500000      -1.83739430E-11
   1.62750006       2.84954126E-11
   1.63000000       7.80943296E-11
   1.63250005       1.30515987E-10
   1.63499999       1.85851071E-10
   1.63750005       2.44187365E-10
   1.63999999       3.05609232E-10
   1.64250004       3.70196984E-10
   1.64499998       4.38026559E-10
   1.64750004       5.09168818E-10
   1.64999998       5.83689264E-10
   1.65250003       6.61647181E-10
   1.65499997       7.43095252E-10
   1.65750003       8.28078994E-10
   1.65999997       9.16636267E-10
   1.66250002       1.00879660E-09
   1.66499996       1.10458065E-09
   1.66750002       1.20399968E-09
   1.66999996       1.30705513E-09
   1.67250001       1.41373779E-09
   1.67499995       1.52402757E-09
   1.67750001       1.63789282E-09
   1.67999995       1.75528969E-09
   1.68250000       1.87616189E-09
   1.68499994       2.00044004E-09
   1.68750000       2.12804108E-09
   1.69000006       2.25886798E-09
   1.69250000       2.39280951E-09
   1.69500005       2.52973886E-09
   1.69749999       2.66951461E-09
   1.70000005       2.81197954E-09
   1.70249999       2.95696023E-09
   1.70500004       3.10426640E-09
   1.70749998       3.25369198E-09
   1.71000004       3.40501316E-09
   1.71249998       3.55798857E-09
   1.71500003       3.71235997E-09
   1.71749997       3.86785137E-09
   1.72000003       4.02416811E-09
   1.72249997       4.18099866E-09
   1.72500002       4.33801173E-09
   1.72749996       4.49485960E-09
   1.73000002       4.65117456E-09
   1.73249996       4.80657159E-09
   1.73500001       4.96064700E-09
   1.73749995       5.11298026E-09
   1.74000001       5.26312993E-09
   1.74249995       5.41063905E-09
   1.74500000       5.55503199E-09
   1.74749994       5.69581671E-09
   1.75000000       5.83248383E-09
   1.75250006       5.96450711E-09
   1.75500000       6.09134387E-09
   1.75750005       6.21243723E-09
   1.75999999       6.32721386E-09
   1.76250005       6.43508669E-09
   1.76499999       6.53545529E-09
   1.76750004       6.62770727E-09
   1.76999998       6.71121736E-09
   1.77250004       6.78535050E-09
   1.77499998       6.84946144E-09
   1.77750003       6.90289736E-09
   1.77999997       6.94499835E-09
   1.78250003       6.97509961E-09
   1.78499997       6.99253189E-09
   1.78750002       6.99662417E-09
   1.78999996       6.98670544E-09
   1.79250002       6.96210645E-09
   1.79499996       6.92216195E-09
   1.79750001       6.86621338E-09
   1.79999995       6.79361012E-09
   1.80250001       6.70371447E-09
   1.80499995       6.59590071E-09
   1.80750000       6.46956133E-09
   1.80999994       6.32410924E-09
   1.81250000       6.15897910E-09
   1.81500006       5.97363359E-09
   1.81750000       5.76756465E-09
   1.82000005       5.54029889E-09
   1.82249999       5.29139887E-09
   1.82500005       5.02047026E-09
   1.82749999       4.72716266E-09
   1.83000004       4.41117587E-09
   1.83249998       4.07226342E-09
   1.83500004       3.71023745E-09
   1.83749998       3.32497141E-09
   1.84000003       2.91640689E-09
   1.84249997       2.48455589E-09
   1.84500003       2.02950634E-09
   1.84749997       1.55142676E-09
   1.85000002       1.05056985E-09
   1.85249996       5.27277666E-10
   1.85500002      -1.80150426E-11
   1.85749996      -5.84775894E-10
   1.86000001      -1.17237176E-09
   1.86249995      -1.78006387E-09
   1.86500001      -2.40700571E-09
   1.86749995      -3.05223913E-09
   1.87000000      -3.71469144E-09
   1.87249994      -4.39317249E-09
   1.87500000      -5.08637310E-09
   1.87750006      -5.79286263E-09
   1.88000000      -6.51108811E-09
   1.88250005      -7.23937355E-09
   1.88499999      -7.97591948E-09
   1.88750005      -8.71880346E-09
   1.88999999      -9.46598000E-09
   1.89250004      -1.02152837E-08
   1.89499998      -1.09644285E-08
   1.89750004      -1.17110144E-08
   1.89999998      -1.24525306E-08
   1.90250003      -1.31863569E-08
   1.90499997      -1.39097702E-08
   1.90750003      -1.46199515E-08
   1.90999997      -1.53139901E-08
   1.91250002      -1.59888991E-08
   1.91499996      -1.66416125E-08
   1.91750002      -1.72690022E-08
   1.91999996      -1.78678832E-08
   1.92250001      -1.84350260E-08
   1.92499995      -1.89671727E-08
   1.92750001      -1.94610461E-08
   1.92999995      -1.99133581E-08
   1.93250000      -2.03208277E-08
   1.93499994      -2.06801989E-08
   1.93750000      -2.09882494E-08
   1.94000006      -2.12418101E-08
   1.94250000      -2.14377778E-08
   1.94500005      -2.15731362E-08
   1.94749999      -2.16449667E-08
   1.95000005      -2.16504699E-08
   1.95249999      -2.15869793E-08
   1.95500004      -2.14519851E-08
   1.95749998      -2.12431388E-08
   1.96000004      -2.09582858E-08
   1.96249998      -2.05954649E-08
   1.96500003      -2.01529406E-08
   1.96749997      -1.96292120E-08
   1.97000003      -1.90230232E-08
   1.97249997      -1.83333881E-08
   1.97500002      -1.75595911E-08
   1.97749996      -1.67012164E-08
   1.98000002      -1.57581415E-08
   1.98249996      -1.47305608E-08
   1.98500001      -1.36189913E-08
   1.98749995      -1.24242767E-08
   1.99000001      -1.11475975E-08
   1.99249995      -9.79047154E-09
   1.99500000      -8.35476310E-09
   1.99749994      -6.84267754E-09
   2.00000000      -5.25676302E-09
   2.00250006      -3.59990882E-09
   2.00500011      -1.87533811E-09
   2.00749993      -8.66018021E-11
   2.00999999       1.76243065E-09
   2.01250005       3.66758157E-09
   2.01500010       5.62437963E-09
   2.01749992       7.62807506E-09
   2.01999998       9.67365477E-09
   2.02250004       1.17558674E-08
   2.02500010       1.38692400E-08
   2.02749991       1.60081015E-08
   2.02999997       1.81666131E-08
   2.03250003       2.03387884E-08
   2.03500009       2.25185257E-08
   2.03749990       2.46996397E-08
   2.03999996       2.68758846E-08
   2.04250002       2.90410007E-08
   2.04500008       3.11887334E-08
   2.04749990       3.33128654E-08
   2.04999995       3.54072753E-08
   2.05250001       3.74659450E-08
   2.05500007       3.94829947E-08
   2.05749989       4.14527328E-08
   2.05999994       4.33696812E-08
   2.06250000       4.52285960E-08
   2.06500006       4.70245247E-08
   2.06750011       4.87527991E-08
   2.06999993       5.04090920E-08
   2.07249999       5.19894350E-08
   2.07500005       5.34902256E-08
   2.07750010       5.49082628E-08
   2.07999992       5.62407472E-08
   2.08249998       5.74853125E-08
   2.08500004       5.86400120E-08
   2.08750010       5.97033534E-08
   2.08999991       6.06742461E-08
   2.09249997       6.15520648E-08
   2.09500003       6.23365679E-08
   2.09750009       6.30279402E-08
   2.09999990       6.36267430E-08
   2.10249996       6.41339000E-08
   2.10500002       6.45506475E-08
   2.10750008       6.48785345E-08
   2.10999990       6.51193304E-08
   2.11249995       6.52750245E-08
   2.11500001       6.53477485E-08