  -2.50000004E-02   0.00000000    
  -2.25000009E-02   0.00000000    
  -1.99999996E-02   0.00000000    
  -1.75000001E-02   0.00000000    
  -1.49999997E-02  -2.89491025E-30
  -1.25000002E-02  -1.13509323E-29
  -9.99999978E-03  -2.61674446E-29
  -7.49999983E-03  -1.64479052E-29
  -4.99999989E-03   2.95835930E-29
  -2.49999994E-03   1.60309798E-28
   0.00000000       4.97750094E-28
   2.49999994E-03   1.09674623E-27
   4.99999989E-03   1.98522008E-27
   7.49999983E-03   2.84354716E-27
   9.99999978E-03   3.29237493E-27
   1.25000002E-02   3.53842442E-27
   1.49999997E-02   3.79488318E-27
   1.75000001E-02   3.71818802E-27
   1.99999996E-02   2.63767026E-27
   2.25000009E-02   5.06786750E-28
   2.50000004E-02  -3.05338532E-27
   2.74999999E-02  -7.37330955E-27
   2.99999993E-02  -1.26258590E-26
   3.24999988E-02  -1.93163979E-26
   3.50000001E-02  -3.02801054E-26
   3.75000015E-02  -5.20570113E-26
   3.99999991E-02  -9.52916918E-26
   4.25000004E-02  -1.77423520E-25
   4.50000018E-02  -3.26438383E-25
   4.74999994E-02  -5.82338944E-25
   5.00000007E-02  -9.97970576E-25
   5.24999984E-02  -1.64621880E-24
   5.49999997E-02  -2.62990508E-24
   5.75000010E-02  -4.08317323E-24
   5.99999987E-02  -6.18854320E-24
   6.25000000E-02  -9.17692541E-24
   6.49999976E-02  -1.33389185E-23
   6.75000027E-02  -1.90381608E-23
   7.00000003E-02  -2.67311702E-23
   7.24999979E-02  -3.69561076E-23
   7.50000030E-02  -5.03448158E-23
   7.75000006E-02  -6.76376787E-23
   7.99999982E-02  -8.96838166E-23
   8.25000033E-02  -1.17449979E-22
   8.50000009E-02  -1.52017409E-22
   8.74999985E-02  -1.94565184E-22
   9.00000036E-02  -2.46378098E-22
   9.25000012E-02  -3.08816401E-22
   9.49999988E-02  -3.83284366E-22
   9.74999964E-02  -4.71195025E-22
  0.100000001      -5.73915973E-22
  0.102499999      -6.92734682E-22
  0.104999997      -8.28806651E-22
  0.107500002      -9.83076491E-22
  0.109999999      -1.15620826E-21
  0.112499997      -1.34852503E-21
  0.115000002      -1.55990461E-21
  0.117500000      -1.78969674E-21
  0.119999997      -2.03661096E-21
  0.122500002      -2.29864808E-21
  0.125000000      -2.57296408E-21
  0.127499998      -2.85580471E-21
  0.129999995      -3.14244541E-21
  0.132499993      -3.42703432E-21
  0.135000005      -3.70251979E-21
  0.137500003      -3.96054683E-21
  0.140000001      -4.19140010E-21
  0.142499998      -4.38387549E-21
  0.144999996      -4.52525714E-21
  0.147499993      -4.60127172E-21
  0.150000006      -4.59607559E-21
  0.152500004      -4.49212549E-21
  0.155000001      -4.27021409E-21
  0.157499999      -3.90946116E-21
  0.159999996      -3.38738256E-21
  0.162499994      -2.67995835E-21
  0.165000007      -1.76171820E-21
  0.167500004      -6.05828212E-22
  0.170000002       8.15759371E-22
  0.172499999       2.53210406E-21
  0.174999997       4.57312577E-21
  0.177499995       6.96929554E-21
  0.180000007       9.75138425E-21
  0.182500005       1.29500376E-20
  0.185000002       1.65954791E-20
  0.187500000       2.07170567E-20
  0.189999998       2.53428139E-20
  0.192499995       3.04990830E-20
  0.194999993       3.62099799E-20
  0.197500005       4.24968176E-20
  0.200000003       4.93775418E-20
  0.202500001       5.68660563E-20
  0.204999998       6.49716832E-20
  0.207499996       7.36985679E-20
  0.209999993       8.30449527E-20
  0.212500006       9.30023009E-20
  0.215000004       1.03554909E-19
  0.217500001       1.14679118E-19
  0.219999999       1.26342597E-19
  0.222499996       1.38503936E-19
  0.224999994       1.51111952E-19
  0.227500007       1.64105150E-19
  0.230000004       1.77411268E-19
  0.232500002       1.90947006E-19
  0.234999999       2.04617458E-19
  0.237499997       2.18316021E-19
  0.239999995       2.31924125E-19
  0.242500007       2.45311035E-19
  0.245000005       2.58334115E-19
  0.247500002       2.70839095E-19
  0.250000000       2.82660282E-19
  0.252499998       2.93621252E-19
  0.254999995       3.03535296E-19
  0.257499993       3.12206372E-19
  0.259999990       3.19430011E-19
  0.262499988       3.24994687E-19
  0.264999986       3.28682775E-19
  0.267500013       3.30272487E-19
  0.270000011       3.29539192E-19
  0.272500008       3.26257740E-19
  0.275000006       3.20204045E-19
  0.277500004       3.11157429E-19
  0.280000001       2.98903808E-19
  0.282499999       2.83236697E-19
  0.284999996       2.63961269E-19
  0.287499994       2.40896527E-19
  0.289999992       2.13879141E-19
  0.292499989       1.82765091E-19
  0.294999987       1.47434553E-19
  0.297500014       1.07794074E-19
  0.300000012       6.37797676E-20
  0.302500010       1.53607149E-20
  0.305000007      -3.74577981E-20
  0.307500005      -9.46303022E-20
  0.310000002      -1.56068121E-19
  0.312500000      -2.21637100E-19
  0.314999998      -2.91154263E-19
  0.317499995      -3.64384666E-19
  0.319999993      -4.41040192E-19
  0.322499990      -5.20776215E-19
  0.324999988      -6.03190184E-19
  0.327499986      -6.87820428E-19
  0.330000013      -7.74143498E-19
  0.332500011      -8.61575041E-19
  0.335000008      -9.49468616E-19
  0.337500006      -1.03711605E-18
  0.340000004      -1.12374771E-18
  0.342500001      -1.20853486E-18
  0.344999999      -1.29059025E-18
  0.347499996      -1.36897171E-18
  0.349999994      -1.44268529E-18
  0.352499992      -1.51068833E-18
  0.354999989      -1.57189463E-18
  0.357499987      -1.62518088E-18
  0.360000014      -1.66939120E-18
  0.362500012      -1.70334231E-18
  0.365000010      -1.72583501E-18
  0.367500007      -1.73565881E-18
  0.370000005      -1.73160139E-18
  0.372500002      -1.71246084E-18
  0.375000000      -1.67705410E-18
  0.377499998      -1.62422621E-18
  0.379999995      -1.55286389E-18
  0.382499993      -1.46190887E-18
  0.384999990      -1.35036511E-18
  0.387499988      -1.21731559E-18
  0.389999986      -1.06193364E-18
  0.392500013      -8.83498274E-19
  0.395000011      -6.81406315E-19
  0.397500008      -4.55186583E-19
  0.400000006      -2.04513634E-19
  0.402500004       7.07772761E-20
  0.405000001       3.70681630E-19
  0.407499999       6.95008059E-19
  0.409999996       1.04336706E-18
  0.412499994       1.41515858E-18
  0.414999992       1.80955954E-18
  0.417499989       2.22551414E-18
  0.419999987       2.66172680E-18
  0.422500014       3.11664987E-18
  0.425000012       3.58847907E-18
  0.427500010       4.07514541E-18
  0.430000007       4.57431127E-18
  0.432500005       5.08337104E-18
  0.435000002       5.59944778E-18
  0.437500000       6.11939325E-18
  0.439999998       6.63979077E-18
  0.442499995       7.15696105E-18
  0.444999993       7.66696753E-18
  0.447499990       8.16563170E-18
  0.449999988       8.64853975E-18
  0.452499986       9.11105613E-18
  0.455000013       9.54834268E-18
  0.457500011       9.95538254E-18
  0.460000008       1.03269943E-17
  0.462500006       1.06578599E-17
  0.465000004       1.09425539E-17
  0.467500001       1.11755691E-17
  0.469999999       1.13513507E-17
  0.472499996       1.14643362E-17
  0.474999994       1.15089832E-17
  0.477499992       1.14798152E-17
  0.479999989       1.13714545E-17
  0.482499987       1.11786768E-17
  0.485000014       1.08964469E-17
  0.487500012       1.05199639E-17
  0.490000010       1.00447131E-17
  0.492500007       9.46651384E-18
  0.495000005       8.78156941E-18
  0.497500002       7.98651236E-18
  0.500000000       7.07845499E-18
  0.502499998       6.05504397E-18
  0.504999995       4.91450501E-18
  0.507499993       3.65568956E-18
  0.509999990       2.27812903E-18
  0.512499988       7.82073730E-19
  0.514999986      -8.31464426E-19
  0.517499983      -2.56067469E-18
  0.519999981      -4.40291159E-18
  0.522499979      -6.35465293E-18
  0.524999976      -8.41147805E-18
  0.527499974      -1.05680454E-17
  0.529999971      -1.28180669E-17
  0.532500029      -1.51542962E-17
  0.535000026      -1.75685221E-17
  0.537500024      -2.00515744E-17
  0.540000021      -2.25933102E-17
  0.542500019      -2.51826336E-17
  0.545000017      -2.78075292E-17
  0.547500014      -3.04550531E-17
  0.550000012      -3.31114080E-17
  0.552500010      -3.57619560E-17
  0.555000007      -3.83912786E-17
  0.557500005      -4.09832491E-17
  0.560000002      -4.35210822E-17
  0.562500000      -4.59874039E-17
  0.564999998      -4.83643670E-17
  0.567499995      -5.06336940E-17
  0.569999993      -5.27768429E-17
  0.572499990      -5.47750465E-17
  0.574999988      -5.66095015E-17
  0.577499986      -5.82614474E-17
  0.579999983      -5.97122824E-17
  0.582499981      -6.09437691E-17
  0.584999979      -6.19380865E-17
  0.587499976      -6.26780691E-17
  0.589999974      -6.31472856E-17
  0.592499971      -6.33302447E-17
  0.595000029      -6.32125204E-17
  0.597500026      -6.27809438E-17
  0.600000024      -6.20237692E-17
  0.602500021      -6.09308055E-17
  0.605000019      -5.94936222E-17
  0.607500017      -5.77056812E-17
  0.610000014      -5.55624761E-17
  0.612500012      -5.30617272E-17
  0.615000010      -5.02034906E-17
  0.617500007      -4.69903770E-17
  0.620000005      -4.34276108E-17
  0.622500002      -3.95231694E-17
  0.625000000      -3.52879286E-17
  0.627499998      -3.07357585E-17
  0.629999995      -2.58836179E-17
  0.632499993      -2.07516355E-17
  0.634999990      -1.53632024E-17
  0.637499988      -9.74500652E-18
  0.639999986      -3.92704823E-18
  0.642499983       2.05724120E-18
  0.644999981       8.17109192E-18
  0.647499979       1.43743278E-17
  0.649999976       2.06233795E-17
  0.652499974       2.68714006E-17
  0.654999971       3.30682324E-17
  0.657500029       3.91605169E-17
  0.660000026       4.50917758E-17
  0.662500024       5.08025215E-17
  0.665000021       5.62303351E-17
  0.667500019       6.13100050E-17
  0.670000017       6.59736691E-17
  0.672500014       7.01509775E-17
  0.675000012       7.37692243E-17
  0.677500010       7.67535332E-17
  0.680000007       7.90270292E-17
  0.682500005       8.05110706E-17
  0.685000002       8.11252952E-17
  0.687500000       8.07879312E-17
  0.689999998       7.94158967E-17
  0.692499995       7.69250507E-17
  0.694999993       7.32303129E-17
  0.697499990       6.82457423E-17
  0.699999988       6.18847962E-17
  0.702499986       5.40604551E-17
  0.704999983       4.46852728E-17
  0.707499981       3.36714688E-17
  0.709999979       2.09310345E-17
  0.712499976       6.37571047E-18
  0.714999974      -1.00829876E-17
  0.717499971      -2.85337673E-17
  0.720000029      -4.90656673E-17
  0.722500026      -7.17681355E-17
  0.725000024      -9.67312354E-17
  0.727500021      -1.24045765E-16
  0.730000019      -1.53803528E-16
  0.732500017      -1.86097599E-16
  0.735000014      -2.21022646E-16
  0.737500012      -2.58675392E-16
  0.740000010      -2.99154964E-16
  0.742500007      -3.42563391E-16
  0.745000005      -3.89006260E-16
  0.747500002      -4.38593051E-16
  0.750000000      -4.91437981E-16
  0.752499998      -5.47660693E-16
  0.754999995      -6.07386892E-16
  0.757499993      -6.70748980E-16
  0.759999990      -7.37887140E-16
  0.762499988      -8.08950134E-16
  0.764999986      -8.84096039E-16
  0.767499983      -9.63493201E-16
  0.769999981      -1.04732151E-15
  0.772499979      -1.13577261E-15
  0.774999976      -1.22905158E-15
  0.777499974      -1.32737760E-15
  0.779999971      -1.43098519E-15
  0.782500029      -1.54012443E-15
  0.785000026      -1.65506278E-15
  0.787500024      -1.77608547E-15
  0.790000021      -1.90349606E-15
  0.792500019      -2.03761843E-15
  0.795000017      -2.17879596E-15
  0.797500014      -2.32739328E-15
  0.800000012      -2.48379727E-15
  0.802500010      -2.64841580E-15
  0.805000007      -2.82167978E-15
  0.807500005      -3.00404322E-15
  0.810000002      -3.19598258E-15
  0.812500000      -3.39799803E-15
  0.814999998      -3.61061219E-15
  0.817499995      -3.83437034E-15
  0.819999993      -4.06984042E-15
  0.822499990      -4.31761238E-15
  0.824999988      -4.57829567E-15
  0.827499986      -4.85252216E-15
  0.829999983      -5.14094027E-15
  0.832499981      -5.44421745E-15
  0.834999979      -5.76303684E-15
  0.837499976      -6.09809597E-15
  0.839999974      -6.45010507E-15
  0.842499971      -6.81978413E-15
  0.845000029      -7.20786159E-15
  0.847500026      -7.61507099E-15
  0.850000024      -8.04214924E-15
  0.852500021      -8.48983241E-15
  0.855000019      -8.95885318E-15
  0.857500017      -9.44993832E-15
  0.860000014      -9.96380526E-15
  0.862500012      -1.05011570E-14
  0.865000010      -1.10626780E-14
  0.867500007      -1.16490349E-14
  0.870000005      -1.22608671E-14
  0.872500002      -1.28987863E-14
  0.875000000      -1.35633692E-14
  0.877499998      -1.42551596E-14
  0.879999995      -1.49746548E-14
  0.882499993      -1.57223139E-14
  0.884999990      -1.64985433E-14
  0.887499988      -1.73036939E-14
  0.889999986      -1.81380654E-14
  0.892499983      -1.90018967E-14
  0.894999981      -1.98953589E-14
  0.897499979      -2.08185604E-14
  0.899999976      -2.17715403E-14
  0.902499974      -2.27542645E-14
  0.904999971      -2.37666230E-14
  0.907500029      -2.48084329E-14
  0.910000026      -2.58794315E-14
  0.912500024      -2.69792801E-14
  0.915000021      -2.81075534E-14
  0.917500019      -2.92637550E-14
  0.920000017      -3.04473074E-14
  0.922500014      -3.16575515E-14
  0.925000012      -3.28937554E-14
  0.927500010      -3.41551196E-14
  0.930000007      -3.54407564E-14
  0.932500005      -3.67497238E-14
  0.935000002      -3.80810123E-14
  0.937500000      -3.94335511E-14
  0.939999998      -4.08062222E-14
  0.942499995      -4.21978567E-14
  0.944999993      -4.36072416E-14
  0.947499990      -4.50331368E-14
  0.949999988      -4.64742719E-14
  0.952499986      -4.79293627E-14
  0.954999983      -4.93971183E-14
  0.957499981      -5.08762445E-14
  0.959999979      -5.23654640E-14
  0.962499976      -5.38635298E-14
  0.964999974      -5.53692122E-14
  0.967499971      -5.68813456E-14
  0.970000029      -5.83988017E-14
  0.972500026      -5.99205405E-14
  0.975000024      -6.14455793E-14
  0.977500021      -6.29730643E-14
  0.980000019      -6.45022027E-14
  0.982500017      -6.60323508E-14
  0.985000014      -6.75629800E-14
  0.987500012      -6.90936972E-14
  0.990000010      -7.06242722E-14
  0.992500007      -7.21546168E-14
  0.995000005      -7.36848191E-14
  0.997500002      -7.52151434E-14
   1.00000000      -7.67460233E-14
   1.00250006      -7.82781094E-14
   1.00500000      -7.98122216E-14
   1.00750005      -8.13493898E-14
   1.00999999      -8.28908407E-14
   1.01250005      -8.44379972E-14
   1.01499999      -8.59924856E-14
   1.01750004      -8.75561356E-14
   1.01999998      -8.91309460E-14
   1.02250004      -9.07191192E-14
   1.02499998      -9.23230202E-14
   1.02750003      -9.39451696E-14
   1.02999997      -9.55882576E-14
   1.03250003      -9.72550829E-14
   1.03499997      -9.89485729E-14
   1.03750002      -1.00671743E-13
   1.03999996      -1.02427662E-13
   1.04250002      -1.04219476E-13
   1.04499996      -1.06050300E-13
   1.04750001      -1.07923260E-13
   1.04999995      -1.09841437E-13
   1.05250001      -1.11807793E-13
   1.05499995      -1.13825195E-13
   1.05750000      -1.15896347E-13
   1.05999994      -1.18023701E-13
   1.06250000      -1.20209520E-13
   1.06500006      -1.22455729E-13
   1.06750000      -1.24763928E-13
   1.07000005      -1.27135322E-13
   1.07249999      -1.29570657E-13
   1.07500005      -1.32070231E-13
   1.07749999      -1.34633786E-13
   1.08000004      -1.37260469E-13
   1.08249998      -1.39948789E-13
   1.08500004      -1.42696605E-13
   1.08749998      -1.45500975E-13
   1.09000003      -1.48358254E-13
   1.09249997      -1.51263930E-13
   1.09500003      -1.54212648E-13
   1.09749997      -1.57198148E-13
   1.10000002      -1.60213246E-13
   1.10249996      -1.63249798E-13
   1.10500002      -1.66298656E-13
   1.10749996      -1.69349682E-13
   1.11000001      -1.72391696E-13
   1.11249995      -1.75412500E-13
   1.11500001      -1.78398854E-13
   1.11749995      -1.81336486E-13
   1.12000000      -1.84210123E-13
   1.12249994      -1.87003475E-13
   1.12500000      -1.89699303E-13
   1.12750006      -1.92279447E-13
   1.13000000      -1.94724811E-13
   1.13250005      -1.97015527E-13
   1.13499999      -1.99130954E-13
   1.13750005      -2.01049816E-13
   1.13999999      -2.02750170E-13
   1.14250004      -2.04209628E-13
   1.14499998      -2.05405422E-13
   1.14750004      -2.06314525E-13
   1.14999998      -2.06913778E-13
   1.15250003      -2.07180058E-13
   1.15499997      -2.07090408E-13
   1.15750003      -2.06622195E-13
   1.15999997      -2.05753356E-13
   1.16250002      -2.04462518E-13
   1.16499996      -2.02729204E-13
   1.16750002      -2.00534047E-13
   1.16999996      -1.97859036E-13
   1.17250001      -1.94687704E-13
   1.17499995      -1.91005360E-13
   1.17750001      -1.86799374E-13
   1.17999995      -1.82059351E-13
   1.18250000      -1.76777416E-13
   1.18499994      -1.70948515E-13
   1.18750000      -1.64570601E-13
   1.19000006      -1.57644893E-13
   1.19250000      -1.50176177E-13
   1.19500005      -1.42173030E-13
   1.19749999      -1.33648097E-13
   1.20000005      -1.24618306E-13
   1.20249999      -1.15105110E-13
   1.20500004      -1.05134719E-13
   1.20749998      -9.47383651E-14
   1.21000004      -8.39524305E-14
   1.21249998      -7.28187313E-14
   1.21500003      -6.13845997E-14
   1.21749997      -4.97031242E-14
   1.22000003      -3.78332314E-14
   1.22249997      -2.58398124E-14
   1.22500002      -1.37938358E-14
   1.22749996      -1.77239177E-15
   1.23000002       1.01412629E-14
   1.23249996       2.18577225E-14
   1.23500001       3.32814458E-14
   1.23749995       4.43108142E-14
   1.24000001       5.48382581E-14
   1.24249995       6.47503766E-14
   1.24500000       7.39281141E-14
   1.24749994       8.22470076E-14
   1.25000000       8.95774543E-14
   1.25250006       9.57849658E-14
   1.25500000       1.00730622E-13
   1.25750005       1.04271396E-13
   1.25999999       1.06260642E-13
   1.26250005       1.06548586E-13
   1.26499999       1.04982869E-13
   1.26750004       1.01409176E-13
   1.26999998       9.56718428E-14
   1.27250004       8.76145944E-14
   1.27499998       7.70812654E-14
   1.27750003       6.39165912E-14
   1.27999997       4.79670421E-14
   1.28250003       2.90817514E-14
   1.28499997       7.11340895E-15
   1.28750002      -1.80808110E-14
   1.28999996      -4.66381762E-14
   1.29250002      -7.86894218E-14
   1.29499996      -1.14357539E-13
   1.29750001      -1.53756904E-13
   1.29999995      -1.96991878E-13
   1.30250001      -2.44155878E-13
   1.30499995      -2.95330085E-13
   1.30750000      -3.50582329E-13
   1.30999994      -4.09965871E-13
   1.31250000      -4.73518197E-13
   1.31500006      -5.41259962E-13
   1.31750000      -6.13193524E-13
   1.32000005      -6.89302023E-13
   1.32249999      -7.69548271E-13
   1.32500005      -8.53873450E-13
   1.32749999      -9.42196191E-13
   1.33000004      -1.03441160E-12
   1.33249998      -1.13038994E-12
   1.33500004      -1.22997630E-12
   1.33749998      -1.33298917E-12
   1.34000003      -1.43921995E-12
   1.34249997      -1.54843206E-12
   1.34500003      -1.66036087E-12
   1.34749997      -1.77471243E-12
   1.35000002      -1.89116344E-12
   1.35249996      -2.00936143E-12
   1.35500002      -2.12892356E-12
   1.35749996      -2.24943740E-12
   1.36000001      -2.37046103E-12
   1.36249995      -2.49152283E-12
   1.36500001      -2.61212146E-12
   1.36749995      -2.73172847E-12
   1.37000000      -2.84978638E-12
   1.37249994      -2.96571123E-12
   1.37500000      -3.07889283E-12
   1.37750006      -3.18869692E-12
   1.38000000      -3.29446561E-12
   1.38250005      -3.39551976E-12
   1.38499999      -3.49115984E-12
   1.38750005      -3.58066896E-12
   1.38999999      -3.66331444E-12
   1.39250004      -3.73834947E-12
   1.39499998      -3.80501837E-12
   1.39750004      -3.86255524E-12
   1.39999998      -3.91019075E-12
   1.40250003      -3.94715293E-12
   1.40499997      -3.97267115E-12
   1.40750003      -3.98597995E-12
   1.40999997      -3.98632169E-12
   1.41250002      -3.97295131E-12
   1.41499996      -3.94514066E-12
   1.41750002      -3.90218023E-12
   1.41999996      -3.84338655E-12
   1.42250001      -3.76810432E-12
   1.42499995      -3.67571164E-12
   1.42750001      -3.56562436E-12
   1.42999995      -3.43730057E-12
   1.43250000      -3.29024590E-12
   1.43499994      -3.12401754E-12
   1.43750000      -2.93822865E-12
   1.44000006      -2.73255463E-12
   1.44250000      -2.50673570E-12
   1.44500005      -2.26058343E-12
   1.44749999      -1.99398375E-12
   1.45000005      -1.70690307E-12
   1.45249999      -1.39939124E-12
   1.45500004      -1.07158618E-12
   1.45749998      -7.23718286E-13
   1.46000004      -3.56114037E-13
   1.46249998       3.08004558E-14
   1.46500003       4.36495973E-13
   1.46749997       8.60337138E-13
   1.47000003       1.30157961E-12
   1.47249997       1.75936750E-12
   1.47500002       2.23273158E-12
   1.47749996       2.72058764E-12
   1.48000002       3.22173473E-12
   1.48249996       3.73485531E-12
   1.48500001       4.25851325E-12
   1.48749995       4.79115619E-12
   1.49000001       5.33111489E-12
   1.49249995       5.87660476E-12
   1.49500000       6.42572757E-12
   1.49749994       6.97647452E-12
   1.50000000       7.52672924E-12
   1.50250006       8.07427042E-12
   1.50500000       8.61677830E-12
   1.50750005       9.15183727E-12
   1.50999999       9.67694414E-12
   1.51250005       1.01895124E-11
   1.51499999       1.06868828E-11
   1.51750004       1.11663257E-11
   1.51999998       1.16250560E-11
   1.52250004       1.20602391E-11
   1.52499998       1.24689998E-11
   1.52750003       1.28484376E-11
   1.52999997       1.31956338E-11
   1.53250003       1.35076655E-11
   1.53499997       1.37816191E-11
   1.53750002       1.40146063E-11
   1.53999996       1.42037727E-11
   1.54250002       1.43463158E-11
   1.54499996       1.44395034E-11
   1.54750001       1.44806840E-11
   1.54999995       1.44673067E-11
   1.55250001       1.43969402E-11
   1.55499995       1.42672879E-11
   1.55750000       1.40762046E-11
   1.55999994       1.38217172E-11
   1.56250000       1.35020450E-11
   1.56500006       1.31156136E-11
   1.56750000       1.26610788E-11
   1.57000005       1.21373415E-11
   1.57249999       1.15435717E-11
   1.57500005       1.08792229E-11
   1.57749999       1.01440557E-11
   1.58000004       9.33815091E-12
   1.58249998       8.46193341E-12
   1.58500004       7.51618819E-12
   1.58749998       6.50207405E-12
   1.59000003       5.42114877E-12
   1.59249997       4.27537736E-12
   1.59500003       3.06715070E-12
   1.59749997       1.79929910E-12
   1.60000002       4.75106933E-13
   1.60249996      -9.01675761E-13
   1.60500002      -2.32682471E-12
   1.60749996      -3.79562918E-12
   1.61000001      -5.30288660E-12
   1.61249995      -6.84289301E-12
   1.61500001      -8.40944935E-12
   1.61749995      -9.99583923E-12
   1.62000000      -1.15948518E-11
   1.62249994      -1.31987659E-11
   1.62500000      -1.47993683E-11
   1.62750006      -1.63879483E-11
   1.63000000      -1.79553161E-11
   1.63250005      -1.94918109E-11
   1.63499999      -2.09873230E-11
   1.63750005      -2.24313016E-11
   1.63999999      -2.38127816E-11
   1.64250004      -2.51204058E-11
   1.64499998      -2.63424664E-11
   1.64750004      -2.74669090E-11
   1.64999998      -2.84813926E-11
   1.65250003      -2.93733128E-11
   1.65499997      -3.01298535E-11
   1.65750003      -3.07380267E-11
   1.65999997      -3.11847076E-11
   1.66250002      -3.14567261E-11
   1.66499996      -3.15408845E-11
   1.66750002      -3.14240266E-11
   1.66999996      -3.10931107E-11
   1.67250001      -3.05352688E-11
   1.67499995      -2.97378823E-11
   1.67750001      -2.86886452E-11
   1.67999995      -2.73756538E-11
   1.68250000      -2.57874694E-11
   1.68499994      -2.39132134E-11
   1.68750000      -2.17426476E-11
   1.69000006      -1.92662570E-11
   1.69250000      -1.64753437E-11
   1.69500005      -1.33621109E-11
   1.69749999      -9.91976466E-12
   1.70000005      -6.14259164E-12
   1.70249999      -2.02606269E-12
   1.70500004       2.43308043E-12
   1.70749998       7.23673031E-12
   1.71000004       1.23853211E-11
   1.71249998       1.78777462E-11
   1.71500003       2.37112604E-11
   1.71749997       2.98814064E-11
   1.72000003       3.63819183E-11
   1.72249997       4.32046586E-11
   1.72500002       5.03395381E-11
   1.72749996       5.77744484E-11
   1.73000002       6.54951995E-11
   1.73249996       7.34854538E-11
   1.73500001       8.17267087E-11
   1.73749995       9.01982170E-11
   1.74000001       9.88769899E-11
   1.74249995       1.07737742E-10
   1.74500000       1.16752913E-10
   1.74749994       1.25892630E-10
   1.75000000       1.35124731E-10
   1.75250006       1.44414827E-10
   1.75500000       1.53726268E-10
   1.75750005       1.63020236E-10
   1.75999999       1.72255779E-10
   1.76250005       1.81389945E-10
   1.76499999       1.90377783E-10
   1.76750004       1.99172498E-10
   1.76999998       2.07725587E-10
   1.77250004       2.15986978E-10
   1.77499998       2.23905103E-10
   1.77750003       2.31427169E-10
   1.77999997       2.38499276E-10
   1.78250003       2.45066634E-10
   1.78499997       2.51073801E-10
   1.78750002       2.56464877E-10
   1.78999996       2.61183769E-10
   1.79250002       2.65174382E-10
   1.79499996       2.68381067E-10
   1.79750001       2.70748729E-10
   1.79999995       2.72223133E-10
   1.80250001       2.72751377E-10
   1.80499995       2.72282003E-10
   1.80750000       2.70765438E-10
   1.80999994       2.68154360E-10
   1.81250000       2.64403860E-10
   1.81500006       2.59472027E-10
   1.81750000       2.53320059E-10
   1.82000005       2.45912790E-10
   1.82249999       2.37218939E-10
   1.82500005       2.27211430E-10
   1.82749999       2.15867824E-10
   1.83000004       2.03170522E-10
   1.83249998       1.89107174E-10
   1.83500004       1.73670925E-10
   1.83749998       1.56860719E-10
   1.84000003       1.38681594E-10
   1.84249997       1.19144847E-10
   1.84500003       9.82683518E-11
   1.84749997       7.60767144E-11
   1.85000002       5.26014510E-11
   1.85249996       2.78811228E-11
   1.85500002       1.96145552E-12
   1.85749996      -2.51045938E-11
   1.86000001      -5.32568017E-11
   1.86249995      -8.24276827E-11
   1.86500001      -1.12542531E-10
   1.86749995      -1.43519502E-10
   1.87000000      -1.75269743E-10
   1.87249994      -2.07697637E-10
   1.87500000      -2.40700904E-10
   1.87750006      -2.74170991E-10
   1.88000000      -3.07993353E-10
   1.88250005      -3.42047835E-10
   1.88499999      -3.76209064E-10
   1.88750005      -4.10347062E-10
   1.88999999      -4.44327547E-10
   1.89250004      -4.78012741E-10
   1.89499998      -5.11261811E-10
   1.89750004      -5.43931733E-10
   1.89999998      -5.75877790E-10
   1.90250003      -6.06954431E-10
   1.90499997      -6.37016218E-10
   1.90750003      -6.65918432E-10
   1.90999997      -6.93518132E-10
   1.91250002      -7.19674820E-10
   1.91499996      -7.44251605E-10
   1.91750002      -7.67116093E-10
   1.91999996      -7.88141330E-10
   1.92250001      -8.07206746E-10
   1.92499995      -8.24199042E-10
   1.92750001      -8.39013581E-10
   1.92999995      -8.51554882E-10
   1.93250000      -8.61737792E-10
   1.93499994      -8.69488315E-10
   1.93750000      -8.74744888E-10
   1.94000006      -8.77458606E-10
   1.94250000      -8.77594775E-10
   1.94500005      -8.75133077E-10
   1.94749999      -8.70068517E-10
   1.95000005      -8.62412253E-10
   1.95249999      -8.52192095E-10
   1.95500004      -8.39452674E-10
   1.95749998      -8.24256108E-10
   1.96000004      -8.06682388E-10
   1.96249998      -7.86829379E-10
   1.96500003      -7.64812880E-10
   1.96749997      -7.40766948E-10
   1.97000003      -7.14843074E-10
   1.97249997      -6.87210511E-10
   1.97500002      -6.58055443E-10
   1.97749996      -6.27580432E-10
   1.98000002      -5.96003802E-10
   1.98249996      -5.63558700E-10
   1.98500001      -5.30492039E-10
   1.98749995      -4.97063335E-10
   1.99000001      -4.63543148E-10
   1.99249995      -4.30211838E-10
   1.99500000      -3.97357647E-10
   1.99749994      -3.65274949E-10
   2.00000000      -3.34262201E-10
   2.00250006      -3.04619968E-10
   2.00500011      -2.76648371E-10
   2.00749993      -2.50644894E-10
   2.00999999      -2.26901567E-10
   2.01250005      -2.05702594E-10
   2.01500010      -1.87321283E-10
   2.01749992      -1.72017303E-10
   2.01999998      -1.60033722E-10
   2.02250004      -1.51593821E-10
   2.02500010      -1.46898133E-10
   2.02749991      -1.46121226E-10
   2.02999997      -1.49408513E-10
   2.03250003      -1.56873181E-10
   2.03500009      -1.68592890E-10
   2.03749990      -1.84606788E-10
   2.03999996      -2.04912420E-10
   2.04250002      -2.29462713E-10
   2.04500008      -2.58163185E-10
   2.04749990      -2.90869218E-10
   2.04999995      -3.27383426E-10
   2.05250001      -3.67453457E-10
   2.05500007      -4.10769613E-10
   2.05749989      -4.56963190E-10
   2.05999994      -5.05604503E-10
   2.06250000      -5.56201862E-10
   2.06500006      -6.08200434E-10
   2.06750011      -6.60981436E-10
   2.06999993      -7.13862136E-10
   2.07249999      -7.66095798E-10
   2.07500005      -8.16871792E-10
   2.07750010      -8.65317651E-10
   2.07999992      -9.10499454E-10
   2.08249998      -9.51424273E-10
   2.08500004      -9.87042559E-10
   2.08750010      -1.01625153E-09
   2.08999991      -1.03789777E-09
   2.09249997      -1.05078257E-09
   2.09500003      -1.05366549E-09
   2.09750009      -1.04527054E-09
   2.09999990      -1.02429176E-09
   2.10249996      -9.89398785E-10
   2.10500002      -9.39245459E-10
   2.10750008      -8.72476591E-10
   2.10999990      -7.87735266E-10
   2.11249995      -6.83673618E-10
   2.11500001      -5.58960433E-10