  -10.00000      0.0000000E+00
  -9.990000      0.0000000E+00
  -9.980000      0.0000000E+00
  -9.970000      0.0000000E+00
  -9.960000      0.0000000E+00
  -9.950000      0.0000000E+00
  -9.940000      0.0000000E+00
  -9.930000      0.0000000E+00
  -9.920000      0.0000000E+00
  -9.910000      0.0000000E+00
  -9.900000      0.0000000E+00
  -9.890000      0.0000000E+00
  -9.880000      0.0000000E+00
  -9.870000      0.0000000E+00
  -9.860000      0.0000000E+00
  -9.850000      0.0000000E+00
  -9.840000      0.0000000E+00
  -9.830000      0.0000000E+00
  -9.820000      0.0000000E+00
  -9.810000      0.0000000E+00
  -9.800000      0.0000000E+00
  -9.790000      0.0000000E+00
  -9.780000      0.0000000E+00
  -9.770000      0.0000000E+00
  -9.760000      0.0000000E+00
  -9.750000      0.0000000E+00
  -9.740000      0.0000000E+00
  -9.730000      0.0000000E+00
  -9.720000      0.0000000E+00
  -9.710000      0.0000000E+00
  -9.700000      0.0000000E+00
  -9.690000      0.0000000E+00
  -9.680000      0.0000000E+00
  -9.670000      0.0000000E+00
  -9.660000      0.0000000E+00
  -9.650000      0.0000000E+00
  -9.640000      0.0000000E+00
  -9.630000      0.0000000E+00
  -9.620000      0.0000000E+00
  -9.610000      0.0000000E+00
  -9.600000      0.0000000E+00
  -9.590000      0.0000000E+00
  -9.580000      0.0000000E+00
  -9.570000      0.0000000E+00
  -9.560000      0.0000000E+00
  -9.550000      0.0000000E+00
  -9.540000      0.0000000E+00
  -9.530000      0.0000000E+00
  -9.520000      0.0000000E+00
  -9.510000      0.0000000E+00
  -9.500000      0.0000000E+00
  -9.490000      0.0000000E+00
  -9.480000      0.0000000E+00
  -9.470000      0.0000000E+00
  -9.460000      0.0000000E+00
  -9.450000      0.0000000E+00
  -9.440000      0.0000000E+00
  -9.430000      0.0000000E+00
  -9.420000      0.0000000E+00
  -9.410000      0.0000000E+00
  -9.400000      0.0000000E+00
  -9.390000      0.0000000E+00
  -9.380000      0.0000000E+00
  -9.370000      0.0000000E+00
  -9.360000      0.0000000E+00
  -9.350000      0.0000000E+00
  -9.340000      0.0000000E+00
  -9.330000      0.0000000E+00
  -9.320000      0.0000000E+00
  -9.310000      0.0000000E+00
  -9.300000      0.0000000E+00
  -9.290000      0.0000000E+00
  -9.280000      0.0000000E+00
  -9.270000      0.0000000E+00
  -9.260000      0.0000000E+00
  -9.250000      0.0000000E+00
  -9.240000      0.0000000E+00
  -9.230000      0.0000000E+00
  -9.220000      0.0000000E+00
  -9.210000      0.0000000E+00
  -9.200000      0.0000000E+00
  -9.190000      0.0000000E+00
  -9.180000      0.0000000E+00
  -9.170000      0.0000000E+00
  -9.160000      0.0000000E+00
  -9.150000      0.0000000E+00
  -9.140000      0.0000000E+00
  -9.130000      0.0000000E+00
  -9.120000      0.0000000E+00
  -9.110000      0.0000000E+00
  -9.100000      0.0000000E+00
  -9.090000      0.0000000E+00
  -9.080000      0.0000000E+00
  -9.070000      0.0000000E+00
  -9.060000      0.0000000E+00
  -9.050000      0.0000000E+00
  -9.040000      0.0000000E+00
  -9.030000      0.0000000E+00
  -9.020000      0.0000000E+00
  -9.010000      0.0000000E+00
  -9.000000      0.0000000E+00
  -8.990000      0.0000000E+00
  -8.980000      0.0000000E+00
  -8.970000      0.0000000E+00
  -8.960000      0.0000000E+00
  -8.950000      0.0000000E+00
  -8.940000      0.0000000E+00
  -8.930000      0.0000000E+00
  -8.920000      0.0000000E+00
  -8.910000      0.0000000E+00
  -8.900000      0.0000000E+00
  -8.890000      0.0000000E+00
  -8.880000      0.0000000E+00
  -8.870000      0.0000000E+00
  -8.860000      0.0000000E+00
  -8.850000      0.0000000E+00
  -8.840000      0.0000000E+00
  -8.830000      0.0000000E+00
  -8.820000      0.0000000E+00
  -8.810000      0.0000000E+00
  -8.800000      0.0000000E+00
  -8.790000      0.0000000E+00
  -8.780000      0.0000000E+00
  -8.770000      0.0000000E+00
  -8.760000      0.0000000E+00
  -8.750000      0.0000000E+00
  -8.740000      0.0000000E+00
  -8.730000      0.0000000E+00
  -8.720000      0.0000000E+00
  -8.710000      0.0000000E+00
  -8.700000      0.0000000E+00
  -8.690000      0.0000000E+00
  -8.680000      0.0000000E+00
  -8.670000      0.0000000E+00
  -8.660000      0.0000000E+00
  -8.650000      0.0000000E+00
  -8.640000      0.0000000E+00
  -8.630000      0.0000000E+00
  -8.620000      0.0000000E+00
  -8.610000      0.0000000E+00
  -8.600000      0.0000000E+00
  -8.590000      0.0000000E+00
  -8.580000      0.0000000E+00
  -8.570000      0.0000000E+00
  -8.560000      0.0000000E+00
  -8.550000      0.0000000E+00
  -8.540000      0.0000000E+00
  -8.530000      0.0000000E+00
  -8.520000      0.0000000E+00
  -8.510000      0.0000000E+00
  -8.500000      0.0000000E+00
  -8.490000      0.0000000E+00
  -8.480000      0.0000000E+00
  -8.470000      0.0000000E+00
  -8.460000      0.0000000E+00
  -8.450000      0.0000000E+00
  -8.440000      0.0000000E+00
  -8.430000      0.0000000E+00
  -8.420000      0.0000000E+00
  -8.410000      0.0000000E+00
  -8.400000      0.0000000E+00
  -8.390000      0.0000000E+00
  -8.380000      0.0000000E+00
  -8.370000      0.0000000E+00
  -8.360000      0.0000000E+00
  -8.350000      0.0000000E+00
  -8.340000      0.0000000E+00
  -8.330000      0.0000000E+00
  -8.320000      0.0000000E+00
  -8.310000      0.0000000E+00
  -8.300000      0.0000000E+00
  -8.290000      0.0000000E+00
  -8.280000      0.0000000E+00
  -8.270000      0.0000000E+00
  -8.260000      0.0000000E+00
  -8.250000      0.0000000E+00
  -8.240000      0.0000000E+00
  -8.230000      0.0000000E+00
  -8.220000      0.0000000E+00
  -8.210000      0.0000000E+00
  -8.200000      0.0000000E+00
  -8.190000      0.0000000E+00
  -8.180000      0.0000000E+00
  -8.170000      0.0000000E+00
  -8.160000      0.0000000E+00
  -8.150000      0.0000000E+00
  -8.140000      0.0000000E+00
  -8.130000      0.0000000E+00
  -8.120000      0.0000000E+00
  -8.110000      0.0000000E+00
  -8.100000      0.0000000E+00
  -8.090000      0.0000000E+00
  -8.080000      0.0000000E+00
  -8.070000      0.0000000E+00
  -8.060000      0.0000000E+00
  -8.050000      0.0000000E+00
  -8.040000      0.0000000E+00
  -8.030000      0.0000000E+00
  -8.020000      0.0000000E+00
  -8.010000      0.0000000E+00
  -8.000000      0.0000000E+00
  -7.990000      0.0000000E+00
  -7.980000      0.0000000E+00
  -7.970000      0.0000000E+00
  -7.960000      0.0000000E+00
  -7.950000      0.0000000E+00
  -7.940000      0.0000000E+00
  -7.930000      0.0000000E+00
  -7.920000      0.0000000E+00
  -7.910000      0.0000000E+00
  -7.900000      0.0000000E+00
  -7.890000      0.0000000E+00
  -7.880000      0.0000000E+00
  -7.870000      0.0000000E+00
  -7.860000      0.0000000E+00
  -7.850000      0.0000000E+00
  -7.840000      0.0000000E+00
  -7.830000      0.0000000E+00
  -7.820000      0.0000000E+00
  -7.810000      0.0000000E+00
  -7.800000      0.0000000E+00
  -7.790000      0.0000000E+00
  -7.780000      0.0000000E+00
  -7.770000      0.0000000E+00
  -7.760000      0.0000000E+00
  -7.750000      0.0000000E+00
  -7.740000      0.0000000E+00
  -7.730000      0.0000000E+00
  -7.720000      0.0000000E+00
  -7.710000      0.0000000E+00
  -7.700000      0.0000000E+00
  -7.690000      0.0000000E+00
  -7.680000      0.0000000E+00
  -7.670000      0.0000000E+00
  -7.660000      0.0000000E+00
  -7.650000      0.0000000E+00
  -7.640000      0.0000000E+00
  -7.630000      0.0000000E+00
  -7.620000      0.0000000E+00
  -7.610000      0.0000000E+00
  -7.600000      0.0000000E+00
  -7.590000      0.0000000E+00
  -7.580000      0.0000000E+00
  -7.570000      0.0000000E+00
  -7.560000      0.0000000E+00
  -7.550000      0.0000000E+00
  -7.540000      0.0000000E+00
  -7.530000      0.0000000E+00
  -7.520000      0.0000000E+00
  -7.510000      0.0000000E+00
  -7.500000      0.0000000E+00
  -7.490000      0.0000000E+00
  -7.480000      0.0000000E+00
  -7.470000      0.0000000E+00
  -7.460000      0.0000000E+00
  -7.450000      0.0000000E+00
  -7.440000      0.0000000E+00
  -7.430000      0.0000000E+00
  -7.420000      0.0000000E+00
  -7.410000      0.0000000E+00
  -7.400000      0.0000000E+00
  -7.390000      0.0000000E+00
  -7.380000      0.0000000E+00
  -7.370000      0.0000000E+00
  -7.360000      0.0000000E+00
  -7.350000      0.0000000E+00
  -7.340000      0.0000000E+00
  -7.330000      0.0000000E+00
  -7.320000      0.0000000E+00
  -7.310000      0.0000000E+00
  -7.300000      0.0000000E+00
  -7.290000      0.0000000E+00
  -7.280000      0.0000000E+00
  -7.270000      0.0000000E+00
  -7.260000      0.0000000E+00
  -7.250000      0.0000000E+00
  -7.240000      0.0000000E+00
  -7.230000      0.0000000E+00
  -7.220000      0.0000000E+00
  -7.210000      0.0000000E+00
  -7.200000      0.0000000E+00
  -7.190000      0.0000000E+00
  -7.180000      0.0000000E+00
  -7.170000      0.0000000E+00
  -7.160000      0.0000000E+00
  -7.150000      0.0000000E+00
  -7.140000      0.0000000E+00
  -7.130000      0.0000000E+00
  -7.120000      0.0000000E+00
  -7.110000      0.0000000E+00
  -7.100000      0.0000000E+00
  -7.090000      0.0000000E+00
  -7.080000      0.0000000E+00
  -7.070000      0.0000000E+00
  -7.060000      0.0000000E+00
  -7.050000      0.0000000E+00
  -7.040000      0.0000000E+00
  -7.030000      0.0000000E+00
  -7.020000      0.0000000E+00
  -7.010000      0.0000000E+00
  -7.000000      0.0000000E+00
  -6.990000      0.0000000E+00
  -6.980000      0.0000000E+00
  -6.970000      0.0000000E+00
  -6.960000      0.0000000E+00
  -6.950000      0.0000000E+00
  -6.940000      0.0000000E+00
  -6.930000      0.0000000E+00
  -6.920000      0.0000000E+00
  -6.910000      0.0000000E+00
  -6.900000      0.0000000E+00
  -6.890000      0.0000000E+00
  -6.880000      0.0000000E+00
  -6.870000      0.0000000E+00
  -6.860000      0.0000000E+00
  -6.850000      0.0000000E+00
  -6.840000      0.0000000E+00
  -6.830000      0.0000000E+00
  -6.820000      0.0000000E+00
  -6.810000      0.0000000E+00
  -6.800000      0.0000000E+00
  -6.790000      0.0000000E+00
  -6.780000      0.0000000E+00
  -6.770000      0.0000000E+00
  -6.760000      0.0000000E+00
  -6.750000      0.0000000E+00
  -6.740000      0.0000000E+00
  -6.730000      0.0000000E+00
  -6.720000      0.0000000E+00
  -6.710000      0.0000000E+00
  -6.700000      0.0000000E+00
  -6.690000      0.0000000E+00
  -6.680000      0.0000000E+00
  -6.670000      0.0000000E+00
  -6.660000      0.0000000E+00
  -6.650000      0.0000000E+00
  -6.640000      0.0000000E+00
  -6.630000      0.0000000E+00
  -6.620000      0.0000000E+00
  -6.610000      0.0000000E+00
  -6.600000      0.0000000E+00
  -6.590000      0.0000000E+00
  -6.580000      0.0000000E+00
  -6.570000      0.0000000E+00
  -6.560000      0.0000000E+00
  -6.550000      0.0000000E+00
  -6.540000      0.0000000E+00
  -6.530000      0.0000000E+00
  -6.520000      0.0000000E+00
  -6.510000      0.0000000E+00
  -6.500000      0.0000000E+00
  -6.490000      0.0000000E+00
  -6.480000      0.0000000E+00
  -6.470000      0.0000000E+00
  -6.460000      0.0000000E+00
  -6.450000      0.0000000E+00
  -6.440000      0.0000000E+00
  -6.430000      0.0000000E+00
  -6.420000      0.0000000E+00
  -6.410000      0.0000000E+00
  -6.400000      0.0000000E+00
  -6.390000      0.0000000E+00
  -6.380000      0.0000000E+00
  -6.370000      0.0000000E+00
  -6.360000      0.0000000E+00
  -6.350000      0.0000000E+00
  -6.340000      0.0000000E+00
  -6.330000      0.0000000E+00
  -6.320000      0.0000000E+00
  -6.310000      0.0000000E+00
  -6.300000      0.0000000E+00
  -6.290000      0.0000000E+00
  -6.280000      0.0000000E+00
  -6.270000      0.0000000E+00
  -6.260000      0.0000000E+00
  -6.250000      0.0000000E+00
  -6.240000      0.0000000E+00
  -6.230000      0.0000000E+00
  -6.220000      0.0000000E+00
  -6.210000      0.0000000E+00
  -6.200000      0.0000000E+00
  -6.190000      0.0000000E+00
  -6.180000      0.0000000E+00
  -6.170000      0.0000000E+00
  -6.160000      0.0000000E+00
  -6.150000      0.0000000E+00
  -6.140000      0.0000000E+00
  -6.130000      0.0000000E+00
  -6.120000      0.0000000E+00
  -6.110000      0.0000000E+00
  -6.100000      0.0000000E+00
  -6.090000      0.0000000E+00
  -6.080000      0.0000000E+00
  -6.070000      0.0000000E+00
  -6.060000      0.0000000E+00
  -6.050000      0.0000000E+00
  -6.040000      0.0000000E+00
  -6.030000      0.0000000E+00
  -6.020000      0.0000000E+00
  -6.010000      0.0000000E+00
  -6.000000      0.0000000E+00
  -5.990000      0.0000000E+00
  -5.980000      0.0000000E+00
  -5.970000      0.0000000E+00
  -5.960000      0.0000000E+00
  -5.950000      0.0000000E+00
  -5.940000      0.0000000E+00
  -5.930000      0.0000000E+00
  -5.920000      0.0000000E+00
  -5.910000      0.0000000E+00
  -5.900000      0.0000000E+00
  -5.890000      0.0000000E+00
  -5.880000      0.0000000E+00
  -5.870000      0.0000000E+00
  -5.860000      0.0000000E+00
  -5.850000      0.0000000E+00
  -5.840000      0.0000000E+00
  -5.830000      0.0000000E+00
  -5.820000      0.0000000E+00
  -5.810000      0.0000000E+00
  -5.800000      0.0000000E+00
  -5.790000      0.0000000E+00
  -5.780000      0.0000000E+00
  -5.770000      0.0000000E+00
  -5.760000      0.0000000E+00
  -5.750000      0.0000000E+00
  -5.740000      0.0000000E+00
  -5.730000      0.0000000E+00
  -5.720000      0.0000000E+00
  -5.710000      0.0000000E+00
  -5.700000      0.0000000E+00
  -5.690000      0.0000000E+00
  -5.680000      0.0000000E+00
  -5.670000      0.0000000E+00
  -5.660000      0.0000000E+00
  -5.650000      0.0000000E+00
  -5.640000      0.0000000E+00
  -5.630000      0.0000000E+00
  -5.620000      0.0000000E+00
  -5.610000      0.0000000E+00
  -5.600000      0.0000000E+00
  -5.590000      0.0000000E+00
  -5.580000      0.0000000E+00
  -5.570000      0.0000000E+00
  -5.560000      0.0000000E+00
  -5.550000      0.0000000E+00
  -5.540000      0.0000000E+00
  -5.530000      0.0000000E+00
  -5.520000      0.0000000E+00
  -5.510000      0.0000000E+00
  -5.500000      0.0000000E+00
  -5.490000      0.0000000E+00
  -5.480000      0.0000000E+00
  -5.470000      0.0000000E+00
  -5.460000      0.0000000E+00
  -5.450000      0.0000000E+00
  -5.440000      0.0000000E+00
  -5.430000      0.0000000E+00
  -5.420000      0.0000000E+00
  -5.410000      0.0000000E+00
  -5.400000      0.0000000E+00
  -5.390000      0.0000000E+00
  -5.380000      0.0000000E+00
  -5.370000      0.0000000E+00
  -5.360000      0.0000000E+00
  -5.350000      0.0000000E+00
  -5.340000      0.0000000E+00
  -5.330000      0.0000000E+00
  -5.320000      0.0000000E+00
  -5.310000      0.0000000E+00
  -5.300000      0.0000000E+00
  -5.290000      0.0000000E+00
  -5.280000      0.0000000E+00
  -5.270000      0.0000000E+00
  -5.260000      0.0000000E+00
  -5.250000      0.0000000E+00
  -5.240000      0.0000000E+00
  -5.230000      0.0000000E+00
  -5.220000      0.0000000E+00
  -5.210000      0.0000000E+00
  -5.200000      0.0000000E+00
  -5.190000      0.0000000E+00
  -5.180000      0.0000000E+00
  -5.170000      0.0000000E+00
  -5.160000      0.0000000E+00
  -5.150000      0.0000000E+00
  -5.140000      0.0000000E+00
  -5.130000      0.0000000E+00
  -5.120000      0.0000000E+00
  -5.110000      0.0000000E+00
  -5.100000      0.0000000E+00
  -5.090000      0.0000000E+00
  -5.080000      0.0000000E+00
  -5.070000      0.0000000E+00
  -5.060000      0.0000000E+00
  -5.050000      0.0000000E+00
  -5.040000      0.0000000E+00
  -5.030000      0.0000000E+00
  -5.020000      0.0000000E+00
  -5.010000      0.0000000E+00
  -5.000000      0.0000000E+00
  -4.990000      0.0000000E+00
  -4.980000      0.0000000E+00
  -4.970000      0.0000000E+00
  -4.960000      0.0000000E+00
  -4.950000      0.0000000E+00
  -4.940000      0.0000000E+00
  -4.930000      0.0000000E+00
  -4.920000      0.0000000E+00
  -4.910000      0.0000000E+00
  -4.900000      0.0000000E+00
  -4.890000      0.0000000E+00
  -4.880000      0.0000000E+00
  -4.870000      0.0000000E+00
  -4.860000      0.0000000E+00
  -4.850000      0.0000000E+00
  -4.840000      0.0000000E+00
  -4.830000      0.0000000E+00
  -4.820000      0.0000000E+00
  -4.810000      0.0000000E+00
  -4.800000      0.0000000E+00
  -4.790000      0.0000000E+00
  -4.780000      0.0000000E+00
  -4.770000      0.0000000E+00
  -4.760000      0.0000000E+00
  -4.750000      0.0000000E+00
  -4.740000      0.0000000E+00
  -4.730000      0.0000000E+00
  -4.720000      0.0000000E+00
  -4.710000      0.0000000E+00
  -4.700000      0.0000000E+00
  -4.690000      0.0000000E+00
  -4.680000      0.0000000E+00
  -4.670000      0.0000000E+00
  -4.660000      0.0000000E+00
  -4.650000      0.0000000E+00
  -4.640000      0.0000000E+00
  -4.630000      0.0000000E+00
  -4.620000      0.0000000E+00
  -4.610000      0.0000000E+00
  -4.600000      0.0000000E+00
  -4.590000      0.0000000E+00
  -4.580000      0.0000000E+00
  -4.570000      0.0000000E+00
  -4.560000      0.0000000E+00
  -4.550000      0.0000000E+00
  -4.540000      0.0000000E+00
  -4.530000      0.0000000E+00
  -4.520000      0.0000000E+00
  -4.510000      0.0000000E+00
  -4.500000      0.0000000E+00
  -4.490000      0.0000000E+00
  -4.480000      0.0000000E+00
  -4.470000      0.0000000E+00
  -4.460000      0.0000000E+00
  -4.450000      0.0000000E+00
  -4.440000      0.0000000E+00
  -4.430000      0.0000000E+00
  -4.420000      0.0000000E+00
  -4.410000      0.0000000E+00
  -4.400000      0.0000000E+00
  -4.390000      0.0000000E+00
  -4.380000      0.0000000E+00
  -4.370000      0.0000000E+00
  -4.360000      0.0000000E+00
  -4.350000      0.0000000E+00
  -4.340000      0.0000000E+00
  -4.330000      0.0000000E+00
  -4.320000      0.0000000E+00
  -4.310000      0.0000000E+00
  -4.300000      0.0000000E+00
  -4.290000      0.0000000E+00
  -4.280000      0.0000000E+00
  -4.270000      0.0000000E+00
  -4.260000      0.0000000E+00
  -4.250000      0.0000000E+00
  -4.240000      0.0000000E+00
  -4.230000      0.0000000E+00
  -4.220000      0.0000000E+00
  -4.210000      0.0000000E+00
  -4.200000      0.0000000E+00
  -4.190000      0.0000000E+00
  -4.180000      0.0000000E+00
  -4.170000      0.0000000E+00
  -4.160000      0.0000000E+00
  -4.150000      0.0000000E+00
  -4.140000      0.0000000E+00
  -4.130000      0.0000000E+00
  -4.120000      0.0000000E+00
  -4.110000      0.0000000E+00
  -4.100000      0.0000000E+00
  -4.090000      0.0000000E+00
  -4.080000      0.0000000E+00
  -4.070000      0.0000000E+00
  -4.060000      0.0000000E+00
  -4.050000      0.0000000E+00
  -4.040000      0.0000000E+00
  -4.030000      0.0000000E+00
  -4.020000      0.0000000E+00
  -4.010000      0.0000000E+00
  -4.000000      0.0000000E+00
  -3.990000      0.0000000E+00
  -3.980000      0.0000000E+00
  -3.970000      0.0000000E+00
  -3.960000      0.0000000E+00
  -3.950000      0.0000000E+00
  -3.940000      0.0000000E+00
  -3.930000      0.0000000E+00
  -3.920000      0.0000000E+00
  -3.910000      0.0000000E+00
  -3.900000      0.0000000E+00
  -3.890000      0.0000000E+00
  -3.880000      0.0000000E+00
  -3.870000      0.0000000E+00
  -3.860000      0.0000000E+00
  -3.850000      0.0000000E+00
  -3.840000      0.0000000E+00
  -3.830000      0.0000000E+00
  -3.820000      0.0000000E+00
  -3.810000      0.0000000E+00
  -3.800000      0.0000000E+00
  -3.790000      0.0000000E+00
  -3.780000      0.0000000E+00
  -3.770000      0.0000000E+00
  -3.760000      0.0000000E+00
  -3.750000      0.0000000E+00
  -3.740000      0.0000000E+00
  -3.730000      0.0000000E+00
  -3.720000      0.0000000E+00
  -3.710000      0.0000000E+00
  -3.700000      0.0000000E+00
  -3.690000      0.0000000E+00
  -3.680000      0.0000000E+00
  -3.670000      0.0000000E+00
  -3.660000      0.0000000E+00
  -3.650000      0.0000000E+00
  -3.640000      0.0000000E+00
  -3.630000      0.0000000E+00
  -3.620000      0.0000000E+00
  -3.610000      0.0000000E+00
  -3.600000      0.0000000E+00
  -3.590000      0.0000000E+00
  -3.580000      0.0000000E+00
  -3.570000      0.0000000E+00
  -3.560000      0.0000000E+00
  -3.550000      0.0000000E+00
  -3.540000      0.0000000E+00
  -3.530000      0.0000000E+00
  -3.520000      0.0000000E+00
  -3.510000      0.0000000E+00
  -3.500000      0.0000000E+00
  -3.490000      0.0000000E+00
  -3.480000      0.0000000E+00
  -3.470000      0.0000000E+00
  -3.460000      0.0000000E+00
  -3.450000      0.0000000E+00
  -3.440000      0.0000000E+00
  -3.430000      0.0000000E+00
  -3.420000      0.0000000E+00
  -3.410000      0.0000000E+00
  -3.400000      0.0000000E+00
  -3.390000      0.0000000E+00
  -3.380000      0.0000000E+00
  -3.370000      0.0000000E+00
  -3.360000      0.0000000E+00
  -3.350000      0.0000000E+00
  -3.340000      0.0000000E+00
  -3.330000      0.0000000E+00
  -3.320000      0.0000000E+00
  -3.310000      0.0000000E+00
  -3.300000      0.0000000E+00
  -3.290000      0.0000000E+00
  -3.280000      0.0000000E+00
  -3.270000      0.0000000E+00
  -3.260000      0.0000000E+00
  -3.250000      0.0000000E+00
  -3.240000      0.0000000E+00
  -3.230000      0.0000000E+00
  -3.220000      0.0000000E+00
  -3.210000      0.0000000E+00
  -3.200000      0.0000000E+00
  -3.190000      0.0000000E+00
  -3.180000      0.0000000E+00
  -3.170000      0.0000000E+00
  -3.160000      0.0000000E+00
  -3.150000      0.0000000E+00
  -3.140000      0.0000000E+00
  -3.130000      0.0000000E+00
  -3.120000      0.0000000E+00
  -3.110000      0.0000000E+00
  -3.100000      0.0000000E+00
  -3.090000      0.0000000E+00
  -3.080000      0.0000000E+00
  -3.070000      0.0000000E+00
  -3.060000      0.0000000E+00
  -3.050000      0.0000000E+00
  -3.040000      0.0000000E+00
  -3.030000      0.0000000E+00
  -3.020000      0.0000000E+00
  -3.010000      0.0000000E+00
  -3.000000      0.0000000E+00
  -2.990000      0.0000000E+00
  -2.980000      0.0000000E+00
  -2.970000      0.0000000E+00
  -2.960000      0.0000000E+00
  -2.950000      0.0000000E+00
  -2.940000      0.0000000E+00
  -2.930000      0.0000000E+00
  -2.920000      0.0000000E+00
  -2.910000      0.0000000E+00
  -2.900000      0.0000000E+00
  -2.890000     -2.7656794E-38
  -2.880000     -7.2988917E-38
  -2.870000     -1.3538283E-37
  -2.860000     -2.1080087E-37
  -2.850000     -3.0033893E-37
  -2.840000     -4.0982227E-37
  -2.830000     -5.1576559E-37
  -2.820000     -4.8595143E-37
  -2.810000     -3.0530303E-37
  -2.800000      5.3208839E-38
  -2.790000      5.8009048E-37
  -2.780000      1.1698205E-36
  -2.770000      1.8413846E-36
  -2.760000      2.4438706E-36
  -2.750000      2.8564757E-36
  -2.740000      2.9102534E-36
  -2.730000      2.6640642E-36
  -2.720000      2.1639795E-36
  -2.710000      1.3555353E-36
  -2.700000      1.0346427E-37
  -2.690000     -1.7418896E-36
  -2.680000     -4.1324693E-36
  -2.670000     -6.6716379E-36
  -2.660000     -8.9134600E-36
  -2.650000     -1.0092467E-35
  -2.640000     -9.5919076E-36
  -2.630000     -7.0062556E-36
  -2.620000     -1.9860918E-36
  -2.610000      5.3967825E-36
  -2.600000      1.4587548E-35
  -2.590000      2.4178840E-35
  -2.580000      3.2231567E-35
  -2.570000      3.6398299E-35
  -2.560000      3.4296224E-35
  -2.550000      2.4236610E-35
  -2.540000      5.3988036E-36
  -2.530000     -2.1287408E-35
  -2.520000     -5.3602703E-35
  -2.510000     -8.7148586E-35
  -2.500000     -1.1592623E-34
  -2.490000     -1.3298232E-34
  -2.480000     -1.3108076E-34
  -2.470000     -1.0438646E-34
  -2.460000     -4.9634411E-35
  -2.450000      3.2300490E-35
  -2.440000      1.3559975E-34
  -2.430000      2.4889456E-34
  -2.420000      3.5560155E-34
  -2.410000      4.3525801E-34
  -2.400000      4.6552901E-34
  -2.390000      4.2589285E-34
  -2.380000      3.0127250E-34
  -2.370000      8.6186023E-35
  -2.360000     -2.1149871E-34
  -2.350000     -5.6791434E-34
  -2.340000     -9.4226195E-34
  -2.330000     -1.2784034E-33
  -2.320000     -1.5093181E-33
  -2.310000     -1.5649753E-33
  -2.300000     -1.3825726E-33
  -2.290000     -9.1898808E-34
  -2.280000     -1.6370016E-34
  -2.270000      8.4968010E-34
  -2.260000      2.0355543E-33
  -2.250000      3.2545394E-33
  -2.240000      4.3198528E-33
  -2.230000      5.0132817E-33
  -2.220000      5.1110568E-33
  -2.210000      4.4183269E-33
  -2.200000      2.8092561E-33
  -2.190000      2.6789461E-34
  -2.180000     -3.0765837E-33
  -2.170000     -6.9276503E-33
  -2.160000     -1.0819652E-32
  -2.150000     -1.4142806E-32
  -2.140000     -1.6198771E-32
  -2.130000     -1.6286743E-32
  -2.120000     -1.3815105E-32
  -2.110000     -8.4280131E-33
  -2.100000     -1.3088712E-34
  -2.090000      1.0605738E-32
  -2.080000      2.2786904E-32
  -2.070000      3.4900792E-32
  -2.060000      4.5011054E-32
  -2.050000      5.0943351E-32
  -2.040000      5.0562984E-32
  -2.030000      4.2125113E-32
  -2.020000      2.4662159E-32
  -2.010000     -1.6428904E-33
  -2.000000     -3.5160699E-32
  -1.990000     -7.2666099E-32
  -1.980000     -1.0939952E-31
  -1.970000     -1.3938833E-31
  -1.960000     -1.5604930E-31
  -1.950000     -1.5305457E-31
  -1.940000     -1.2539715E-31
  -1.930000     -7.0542180E-32
  -1.920000      1.0493940E-32
  -1.910000      1.1232642E-31
  -1.900000      2.2484724E-31
  -1.890000      3.3351410E-31
  -1.880000      4.2041236E-31
  -1.870000      4.6613274E-31
  -1.860000      4.5239004E-31
  -1.850000      3.6517261E-31
  -1.840000      1.9807188E-31
  -1.830000     -4.4679994E-32
  -1.820000     -3.4601633E-31
  -1.810000     -6.7525257E-31
  -1.800000     -9.8920953E-31
  -1.790000     -1.2355720E-30
  -1.780000     -1.3585509E-30
  -1.770000     -1.3065749E-30
  -1.760000     -1.0413499E-30
  -1.750000     -5.4724218E-31
  -1.740000      1.6038673E-31
  -1.730000      1.0294503E-30
  -1.720000      1.9695758E-30
  -1.710000      2.8560296E-30
  -1.700000      3.5399356E-30
  -1.690000      3.8648317E-30
  -1.680000      3.6886403E-30
  -1.670000      2.9090591E-30
  -1.660000      1.4893430E-30
  -1.650000     -5.1937713E-31
  -1.640000     -2.9635369E-30
  -1.630000     -5.5845318E-30
  -1.620000     -8.0314687E-30
  -1.610000     -9.8911827E-30
  -1.600000     -1.0735264E-29
  -1.590000     -1.0181158E-29
  -1.580000     -7.9615469E-30
  -1.570000     -3.9934936E-30
  -1.560000      1.5632235E-30
  -1.550000      8.2701132E-30
  -1.540000      1.5407273E-29
  -1.530000      2.2012577E-29
  -1.520000      2.6967052E-29
  -1.510000      2.9124779E-29
  -1.500000      2.7478530E-29
  -1.490000      2.1344758E-29
  -1.480000      1.0544678E-29
  -1.470000     -4.4467733E-30
  -1.460000     -2.2414313E-29
  -1.450000     -4.1405986E-29
  -1.440000     -5.8848216E-29
  -1.430000     -7.1781419E-29
  -1.420000     -7.7209538E-29
  -1.410000     -7.2538039E-29
  -1.400000     -5.6055569E-29
  -1.390000     -2.7397521E-29
  -1.380000      1.2082236E-29
  -1.370000      5.9108463E-29
  -1.360000      1.0852030E-28
  -1.350000      1.5359596E-28
  -1.340000      1.8668499E-28
  -1.330000      2.0012528E-28
  -1.320000      1.8737405E-28
  -1.310000      1.4423358E-28
  -1.300000      7.0011809E-29
  -1.290000     -3.1570060E-29
  -1.280000     -1.5191504E-28
  -1.270000     -2.7770311E-28
  -1.260000     -3.9177618E-28
  -1.250000     -4.7479036E-28
  -1.240000     -5.0756415E-28
  -1.230000     -4.7393255E-28
  -1.220000     -3.6379883E-28
  -1.210000     -1.7597871E-28
  -1.200000      7.9629837E-29
  -1.190000      3.8102018E-28
  -1.180000      6.9459939E-28
  -1.170000      9.7752539E-28
  -1.160000      1.1819162E-27
  -1.150000      1.2607261E-27
  -1.140000      1.1747907E-27
  -1.130000      9.0026671E-28
  -1.120000      4.3546032E-28
  -1.110000     -1.9408799E-28
  -1.100000     -9.3338404E-28
  -1.090000     -1.6995719E-27
  -1.080000     -2.3879270E-27
  -1.070000     -2.8823236E-27
  -1.060000     -3.0696136E-27
  -1.050000     -2.8566548E-27
  -1.040000     -2.1880810E-27
  -1.030000     -1.0623797E-27
  -1.020000      4.5641213E-28
  -1.010000      2.2340271E-27
  -1.000000      4.0704599E-27
 -0.9900000      5.7149140E-27
 -0.9800000      6.8912362E-27
 -0.9700000      7.3323481E-27
 -0.9600000      6.8205715E-27
 -0.9500000      5.2292534E-27
 -0.9400000      2.5599355E-27
 -0.9300000     -1.0312162E-27
 -0.9200000     -5.2237541E-27
 -0.9100000     -9.5449119E-27
 -0.9000000     -1.3405910E-26
 -0.8900000     -1.6162367E-26
 -0.8800000     -1.7195052E-26
 -0.8700000     -1.6003515E-26
 -0.8600000     -1.2301787E-26
 -0.8500000     -6.1028078E-27
 -0.8400000      2.2227868E-27
 -0.8300000      1.1927108E-26
 -0.8200000      2.1915379E-26
 -0.8100000      3.0831889E-26
 -0.8000000      3.7200366E-26
 -0.7900000      3.9609538E-26
 -0.7800000      3.6926443E-26
 -0.7700000      2.8512496E-26
 -0.7600000      1.4412121E-26
 -0.7500000     -4.5183576E-27
 -0.7400000     -2.6571630E-26
 -0.7300000     -4.9263310E-26
 -0.7200000     -6.9530441E-26
 -0.7100000     -8.4050683E-26
 -0.7000000     -8.9660408E-26
 -0.6900000     -8.3831607E-26
 -0.6800000     -6.5151449E-26
 -0.6700000     -3.3737085E-26
 -0.6600000      8.4853538E-27
 -0.6500000      5.7703111E-26
 -0.6400000      1.0838997E-25
 -0.6300000      1.5375359E-25
 -0.6200000      1.8644624E-25
 -0.6100000      1.9948854E-25
 -0.6000000      1.8731674E-25
 -0.5900000      1.4682924E-25
 -0.5800000      7.8285373E-26
 -0.5700000     -1.4097687E-26
 -0.5600000     -1.2199009E-25
 -0.5500000     -2.3334074E-25
 -0.5400000     -3.3336167E-25
 -0.5300000     -4.0607781E-25
 -0.5200000     -4.3632957E-25
 -0.5100000     -4.1203189E-25
 -0.5000000     -3.2642182E-25
 -0.4900000     -1.7997799E-25
 -0.4800000      1.8315215E-26
 -0.4700000      2.5065471E-25
 -0.4600000      4.9127363E-25
 -0.4500000      7.0855708E-25
 -0.4400000      8.6835245E-25
 -0.4300000      9.3822984E-25
 -0.4200000      8.9227229E-25
 -0.4100000      7.1582570E-25
 -0.4000000      4.0954362E-25
 -0.3900000     -7.9604894E-27
 -0.3800000     -4.9946679E-25
 -0.3700000     -1.0109549E-24
 -0.3600000     -1.4760455E-24
 -0.3500000     -1.8229294E-24
 -0.3400000     -1.9832649E-24