  -10.00000        1.0000000E-24
  -9.950000        1.0000000E-24
  -9.900000        1.0000000E-24
  -9.850000        1.0000000E-24
  -9.800000        1.0000001E-24
  -9.750000        1.0000002E-24
  -9.700000        1.0000002E-24
  -9.650000        1.0000002E-24
  -9.600000        1.0000002E-24
  -9.550000        1.0000002E-24
  -9.500000        1.0000002E-24
  -9.450000        1.0000001E-24
  -9.400000        1.0000000E-24
  -9.350000        1.0000000E-24
  -9.300000        1.0000000E-24
  -9.250000        1.0000000E-24
  -9.200000        1.0000001E-24
  -9.150000        1.0000003E-24
  -9.100000        1.0000003E-24
  -9.050000        1.0000003E-24
  -9.000000        1.0000003E-24
  -8.950000        1.0000001E-24
  -8.900000        9.9999992E-25
  -8.850000        9.9999982E-25
  -8.800000        9.9999982E-25
  -8.750000        1.0000004E-24
  -8.700000        1.0000020E-24
  -8.650000        1.0000055E-24
  -8.600000        1.0000111E-24
  -8.550000        1.0000149E-24
  -8.500000        1.0000061E-24
  -8.450000        9.9996482E-25
  -8.400000        9.9986858E-25
  -8.350000        9.9971849E-25
  -8.300000        9.9958902E-25
  -8.250000        9.9968812E-25
  -8.200000        1.0003737E-24
  -8.150000        1.0020269E-24
  -8.100000        1.0046715E-24
  -8.050000        1.0073159E-24
  -8.000000        1.0072525E-24
  -7.950000        9.9994204E-25
  -7.900000        9.8048932E-25
  -7.850000        9.4763780E-25
  -7.800000        9.1020093E-25
  -7.750000        8.9356365E-25
  -7.700000        9.4077885E-25
  -7.650000        1.1005024E-24
  -7.600000        1.3954510E-24
  -7.550000        1.7732577E-24
  -7.500000        2.0574555E-24
  -7.450000        1.9355740E-24
  -7.400000        1.0327585E-24
  -7.350000       -8.9360674E-25
  -7.300000       -3.6542802E-24
  -7.250000       -6.3287755E-24
  -7.200000       -7.1691553E-24
  -7.150000       -3.9546343E-24
  -7.100000        5.0416404E-24
  -7.050000        1.9581539E-23
  -7.000000        3.6014823E-23
  -6.950000        4.6791446E-23
  -6.900000        4.1975841E-23
  -6.850000        1.3302490E-23
  -6.800000       -3.9935184E-23
  -6.750000       -1.0558718E-22
  -6.700000       -1.5774117E-22
  -6.650000       -1.6384076E-22
  -6.600000       -1.0068189E-22
  -6.550000        2.5331184E-23
  -6.500000        1.6474181E-22
  -6.450000        2.3318256E-22
  -6.400000        1.5207452E-22
  -6.350000       -8.1776729E-23
  -6.300000       -3.2536135E-22
  -6.250000       -2.6951250E-22
  -6.200000        4.6958439E-22
  -6.150000        2.1128471E-21
  -6.100000        4.3712275E-21
  -6.050000        6.1313858E-21
  -6.000000        5.4163152E-21
  -5.950000       -1.1047875E-22
  -5.900000       -1.1949197E-20
  -5.850000       -2.9034624E-20
  -5.800000       -4.6080377E-20
  -5.750000       -5.3035296E-20
  -5.700000       -3.6845135E-20
  -5.650000        1.3696390E-20
  -5.600000        1.0036111E-19
  -5.550000        2.0726111E-19
  -5.500000        2.9589308E-19
  -5.450000        3.0832315E-19
  -5.400000        1.8244315E-19
  -5.350000       -1.2033414E-19
  -5.300000       -5.8056772E-19
  -5.250000       -1.0919885E-18
  -5.200000       -1.4558193E-18
  -5.150000       -1.4149614E-18
  -5.100000       -7.3569893E-19
  -5.050000        6.7331344E-19
  -5.000000        2.6380326E-18
  -4.950000        4.6453566E-18
  -4.900000        5.8785104E-18
  -4.850000        5.4036938E-18
  -4.800000        2.5047250E-18
  -4.750000       -2.9043593E-18
  -4.700000       -9.9273701E-18
  -4.650000       -1.6574064E-17
  -4.600000       -2.0049551E-17
  -4.550000       -1.7510178E-17
  -4.500000       -7.1836360E-18
  -4.450000        1.0447167E-17
  -4.400000        3.1854090E-17
  -4.350000        5.0557057E-17
  -4.300000        5.8430808E-17
  -4.250000        4.8193488E-17
  -4.200000        1.6551911E-17
  -4.150000       -3.2993720E-17
  -4.100000       -8.8928513E-17
  -4.050000       -1.3315991E-16
  -4.000000       -1.4552105E-16
  -3.950000       -1.1067341E-16
  -3.900000       -2.5550213E-17
  -3.850000        9.5378994E-17
  -3.800000        2.1981131E-16
  -3.750000        3.0404298E-16
  -3.700000        3.0582138E-16
  -3.650000        2.0067504E-16
  -3.600000       -3.5286288E-18
  -3.550000       -2.6000282E-16
  -3.500000       -4.8942734E-16
  -3.450000       -6.0071164E-16
  -3.400000       -5.2230884E-16
  -3.350000       -2.3495370E-16
  -3.300000        2.0655977E-16
  -3.250000        6.7424114E-16
  -3.200000        9.9652537E-16
  -3.150000        1.0131540E-15
  -3.100000        6.4080854E-16
  -3.050000       -7.3397470E-17
  -3.000000       -9.3512014E-16
  -2.950000       -1.6395779E-15
  -2.900000       -1.8622816E-15
  -2.850000       -1.3827060E-15
  -2.800000       -2.0095236E-16
  -2.750000        1.4008884E-15
  -2.700000        2.8924314E-15
  -2.650000        3.6368262E-15
  -2.600000        3.1145781E-15
  -2.550000        1.1635721E-15
  -2.500000       -1.8550024E-15
  -2.450000       -5.0507393E-15
  -2.400000       -7.2047166E-15
  -2.350000       -7.1552151E-15
  -2.300000       -4.2687860E-15
  -2.250000        1.1631194E-15
  -2.200000        7.7758954E-15
  -2.150000        1.3356527E-14
  -2.100000        1.5455783E-14
  -2.050000        1.2257978E-14
  -2.000000        3.4463452E-15
  -1.950000       -9.2643432E-15
  -1.900000       -2.2215553E-14
  -1.850000       -3.0641718E-14
  -1.800000       -3.0137879E-14
  -1.750000       -1.8376813E-14
  -1.700000        3.4919397E-15
  -1.650000        3.0350983E-14
  -1.600000        5.3933295E-14
  -1.550000        6.4973004E-14
  -1.500000        5.6238034E-14
  -1.450000        2.5574913E-14
  -1.400000       -2.2106093E-14
  -1.350000       -7.4842639E-14
  -1.300000       -1.1607142E-13
  -1.250000       -1.2920664E-13
  -1.200000       -1.0323137E-13
  -1.150000       -3.7607616E-14
  -1.100000        5.5298841E-14
  -1.050000        1.5159598E-13
  -1.000000        2.2133293E-13
 -0.9500000        2.3702508E-13
 -0.9000000        1.8299312E-13
 -0.8500000        6.2597036E-14
 -0.8000000       -9.9370470E-14
 -0.7500000       -2.6074531E-13
 -0.7000000       -3.7228158E-13
 -0.6500000       -3.9188200E-13
 -0.6000000       -2.9884843E-13
 -0.5500000       -1.0362562E-13
 -0.5000000        1.5071528E-13
 -0.4500000        3.9691752E-13
 -0.4000000        5.6065319E-13
 -0.3500000        5.8215986E-13
 -0.3000000        4.3628862E-13
 -0.2500000        1.4458199E-13
 -0.2000000       -2.2530126E-13
 -0.1500000       -5.7413953E-13
 -0.1000000       -7.9686778E-13
 -5.0000001E-02   -8.1294872E-13
   0.000000       -5.9280684E-13
  5.0000001E-02   -1.7208210E-13
  0.1000000        3.5166865E-13
  0.1500000        8.4047417E-13
  0.2000000        1.1510257E-12
  0.2500000        1.1744132E-12
  0.3000000        8.6964859E-13
  0.3500000        2.8117786E-13
  0.4000000       -4.6547998E-13
  0.4500000       -1.1900894E-12
  0.5000000       -1.7002023E-12
  0.5500000       -1.8394665E-12
  0.6000000       -1.5296270E-12
  0.6500000       -7.9552689E-13
  0.7000000        2.3342810E-13
  0.7500000        1.3461944E-12
  0.8000000        2.2925923E-12
  0.8500000        2.8363321E-12
  0.9000000        2.8075528E-12
  0.9500000        2.1443407E-12
   1.000000        9.1505623E-13
   1.050000       -6.8323228E-13
   1.100000       -2.3511945E-12
   1.150000       -3.7359972E-12
   1.200000       -4.4965303E-12
   1.250000       -4.3761062E-12
   1.300000       -3.2706500E-12
   1.350000       -1.2780956E-12
   1.400000        1.2858385E-12
   1.450000        3.9176691E-12
   1.500000        6.0072043E-12
   1.550000        6.9636137E-12
   1.600000        6.3665566E-12
   1.650000        4.1092516E-12
   1.700000        4.9260059E-13
   1.750000       -3.7683997E-12
   1.800000       -7.6501158E-12
   1.850000       -1.0035491E-11
   1.900000       -1.0003903E-11
   1.950000       -7.1296220E-12
   2.000000       -1.7041669E-12
   2.050000        5.1993635E-12
   2.100000        1.1873473E-11
   2.150000        1.6337237E-11
   2.200000        1.6850174E-11
   2.250000        1.2459977E-11
   2.300000        3.4309166E-12
   2.350000       -8.5952200E-12
   2.400000       -2.0803314E-11
   2.450000       -2.9782891E-11
   2.500000       -3.2380772E-11
   2.550000       -2.6631808E-11
   2.600000       -1.2514945E-11
   2.650000        7.7096107E-12
   2.700000        2.9745054E-11
   2.750000        4.8106154E-11
   2.800000        5.7423923E-11
   2.850000        5.3908808E-11
   2.900000        3.6587882E-11
   2.950000        7.9431730E-12
   3.000000       -2.6302436E-11
   3.050000       -5.8298838E-11
   3.100000       -7.9884245E-11
   3.150000       -8.4687236E-11
   3.200000       -6.9974644E-11
   3.250000       -3.7717097E-11
   3.300000        5.4944361E-12
   3.350000        4.9767582E-11
   3.400000        8.4219159E-11
   3.450000        9.9739883E-11
   3.500000        9.1505740E-11
   3.550000        6.0539372E-11
   3.600000        1.3828974E-11
   3.650000       -3.7132856E-11
   3.700000       -7.9108581E-11
   3.750000       -1.0052082E-10
   3.800000       -9.4632427E-11
   3.850000       -6.1636717E-11
   3.900000       -9.0333878E-12
   3.950000        4.9910760E-11
   4.000000        9.9317270E-11
   4.050000        1.2472336E-10
   4.100000        1.1697003E-10
   4.150000        7.4930000E-11
   4.200000        6.3138600E-12
   4.250000       -7.3738168E-11
   4.300000       -1.4601186E-10
   4.350000       -1.9174934E-10
   4.400000       -1.9726351E-10
   4.450000       -1.5749976E-10
   4.500000       -7.7649588E-11
   4.550000        2.7612778E-11
   4.600000        1.3712599E-10
   4.650000        2.2778929E-10
   4.700000        2.7961766E-10
   4.750000        2.8015174E-10
   4.800000        2.2723558E-10
   4.850000        1.2956809E-10
   4.900000        4.9448388E-12
   4.950000       -1.2338318E-10
   5.000000       -2.3141958E-10
   5.050000       -2.9919694E-10
   5.100000       -3.1464462E-10
   5.150000       -2.7580963E-10
   5.200000       -1.9105083E-10
   5.250000       -7.7232908E-11
   5.300000        4.3681083E-11
   5.350000        1.4896426E-10
   5.400000        2.1956750E-10
   5.450000        2.4384256E-10
   5.500000        2.1984570E-10
   5.550000        1.5575585E-10
   5.600000        6.8257927E-11
   5.650000       -2.0895204E-11
   5.700000       -8.9566722E-11
   5.750000       -1.2028846E-10
   5.800000       -1.0463020E-10
   5.850000       -4.5849675E-11
   5.900000        4.0968118E-11
   5.950000        1.3160602E-10
   6.000000        1.9794363E-10
   6.050000        2.1476171E-10
   6.100000        1.6663637E-10
   6.150000        5.3203556E-11
   6.200000       -1.0875179E-10
   6.250000       -2.8732028E-10
   6.300000       -4.4160114E-10
   6.350000       -5.3086169E-10
   6.400000       -5.2471089E-10
   6.450000       -4.1176568E-10
   6.500000       -2.0439944E-10
   6.550000        6.2057789E-11
   6.600000        3.3598632E-10
   6.650000        5.6079164E-10
   6.700000        6.8828804E-10
   6.750000        6.9078965E-10
   6.800000        5.6862509E-10
   6.850000        3.5078343E-10
   6.900000        8.8112927E-11
   6.950000       -1.5949447E-10
   7.000000       -3.3873779E-10
   7.050000       -4.1717560E-10
   7.100000       -3.9206982E-10
   7.150000       -2.9103916E-10
   7.200000       -1.6392805E-10
   7.250000       -6.7789378E-11
   7.300000       -4.8986173E-11
   7.350000       -1.2750502E-10
   7.400000       -2.8825325E-10
   7.450000       -4.8237903E-10
   7.500000       -6.3891797E-10
   7.550000       -6.8406658E-10
   7.600000       -5.6296673E-10
   7.650000       -2.5780633E-10
   7.700000        2.0330657E-10
   7.750000        7.4992851E-10
   7.800000        1.2851679E-09
   7.850000        1.7101642E-09
   7.900000        1.9507571E-09
   7.950000        1.9789426E-09
   8.000000        1.8227818E-09
   8.050000        1.5613699E-09
   8.100000        1.3055375E-09
   8.150000        1.1690109E-09
   8.200000        1.2376696E-09
   8.250000        1.5453867E-09
   8.300000        2.0634301E-09
   8.350000        2.7068572E-09
   8.400000        3.3567074E-09
   8.450000        3.8923504E-09
   8.500000        4.2253721E-09
   8.550000        4.3257287E-09
   8.600000        4.2328345E-09
   8.650000        4.0482413E-09
   8.700000        3.9115893E-09
   8.750000        3.9660626E-09
   8.800000        4.3225081E-09
   8.850000        5.0317599E-09
   8.900000        6.0724665E-09
   8.950000        7.3575377E-09
   9.000000        8.7572900E-09
   9.050000        1.0132982E-08
   9.100000        1.1371834E-08
   9.150000        1.2414540E-08
   9.200000        1.3268591E-08
   9.250000        1.4004809E-08
   9.300000        1.4739022E-08
   9.350000        1.5604561E-08
   9.400000        1.6723282E-08
   9.450000        1.8182490E-08
   9.500000        2.0022901E-08
   9.550000        2.2239236E-08
   9.600000        2.4791554E-08
   9.650000        2.7622612E-08
   9.700000        3.0675800E-08
   9.750000        3.3908812E-08
   9.800000        3.7300453E-08
   9.850000        4.0850693E-08
   9.900000        4.4576275E-08
   9.950000        4.8505235E-08
   10.00000        5.2673453E-08
   10.05000        5.7124641E-08
   10.10000        6.1913170E-08
   10.15000        6.7107244E-08
   10.20000        7.2789419E-08
   10.25000        7.9051780E-08
   10.30000        8.5985434E-08
   10.35000        9.3666017E-08
   10.40000        1.0213953E-07
   10.45000        1.1141336E-07
   10.50000        1.2145694E-07
   10.55000        1.3221398E-07
   10.60000        1.4362462E-07
   10.65000        1.5565264E-07
   10.70000        1.6831062E-07
   10.75000        1.8167546E-07
   10.80000        1.9588893E-07
   10.85000        2.1114180E-07
   10.90000        2.2764479E-07
   10.95000        2.4559372E-07
   11.00000        2.6513842E-07
   11.05000        2.8636410E-07
   11.10000        3.0929149E-07
   11.15000        3.3389583E-07
   11.20000        3.6013989E-07
   11.25000        3.8801173E-07
   11.30000        4.1755584E-07
   11.35000        4.4888910E-07
   11.40000        4.8219584E-07
   11.45000        5.1770445E-07
   11.50000        5.5565175E-07
   11.55000        5.9624705E-07
   11.60000        6.3964671E-07
   11.65000        6.8594903E-07
   11.70000        7.3520948E-07
   11.75000        7.8747354E-07
   11.80000        8.4281561E-07
   11.85000        9.0137166E-07
   11.90000        9.6335395E-07
   11.95000        1.0290414E-06
   12.00000        1.0987484E-06
   12.05000        1.1727807E-06
   12.10000        1.2513920E-06
   12.15000        1.3347570E-06
   12.20000        1.4229713E-06
   12.25000        1.5160783E-06
   12.30000        1.6141199E-06
   12.35000        1.7171935E-06
   12.40000        1.8254996E-06
   12.45000        1.9393613E-06
   12.50000        2.0592111E-06
   12.55000        2.1855426E-06
   12.60000        2.3188418E-06
   12.65000        2.4595195E-06
   12.70000        2.6078590E-06
   12.75000        2.7640042E-06
   12.80000        2.9279868E-06
   12.85000        3.0997885E-06
   12.90000        3.2794230E-06
   12.95000        3.4670102E-06
   13.00000        3.6628223E-06
   13.05000        3.8672893E-06
   13.10000        4.0809573E-06
   13.15000        4.3044133E-06
   13.20000        4.5381967E-06
   13.25000        4.7827270E-06
   13.30000        5.0382600E-06
   13.35000        5.3048930E-06
   13.40000        5.5826185E-06
   13.45000        5.8714013E-06
   13.50000        6.1712653E-06
   13.55000        6.4823635E-06
   13.60000        6.8050067E-06
   13.65000        7.1396466E-06
   13.70000        7.4868167E-06
   13.75000        7.8470521E-06
   13.80000        8.2208035E-06
   13.85000        8.6083792E-06
   13.90000        9.0099211E-06
   13.95000        9.4254319E-06
   14.00000        9.8548298E-06
   14.05000        1.0298024E-05
   14.10000        1.0754987E-05
   14.15000        1.1225798E-05
   14.20000        1.1710653E-05
   14.25000        1.2209832E-05
   14.30000        1.2723647E-05
   14.35000        1.3252362E-05
   14.40000        1.3796141E-05
   14.45000        1.4355011E-05
   14.50000        1.4928868E-05
   14.55000        1.5517495E-05
   14.60000        1.6120626E-05
   14.65000        1.6738002E-05
   14.70000        1.7369419E-05
   14.75000        1.8014740E-05
   14.80000        1.8673894E-05
   14.85000        1.9346839E-05
   14.90000        2.0033503E-05
   14.95000        2.0733753E-05
   15.00000        2.1447340E-05
   15.05000        2.2173921E-05
   15.10000        2.2913055E-05
   15.15000        2.3664252E-05
   15.20000        2.4427016E-05
   15.25000        2.5200872E-05
   15.30000        2.5985377E-05
   15.35000        2.6780113E-05
   15.40000        2.7584641E-05
   15.45000        2.8398470E-05
   15.50000        2.9221010E-05
   15.55000        3.0051564E-05
   15.60000        3.0889332E-05
   15.65000        3.1733467E-05
   15.70000        3.2583106E-05
   15.75000        3.3437434E-05
   15.80000        3.4295728E-05
   15.85000        3.5157318E-05
   15.90000        3.6021607E-05
   15.95000        3.6887963E-05
   16.00000        3.7755672E-05
   16.05000        3.8623890E-05
   16.10000        3.9491595E-05
   16.15000        4.0357616E-05
   16.20000        4.1220686E-05
   16.25000        4.2079533E-05
   16.30000        4.2932959E-05
   16.35000        4.3779895E-05
   16.40000        4.4619428E-05
   16.45000        4.5450772E-05
   16.50000        4.6273206E-05
   16.55000        4.7085989E-05
   16.60000        4.7888265E-05
   16.65000        4.8679041E-05
   16.70000        4.9457158E-05
   16.75000        5.0221344E-05
   16.80000        5.0970280E-05
   16.85000        5.1702689E-05
   16.90000        5.2417403E-05
   16.95000        5.3113392E-05
   17.00000        5.3789794E-05
   17.05000        5.4445827E-05
   17.10000        5.5080785E-05
   17.15000        5.5693938E-05
   17.20000        5.6284491E-05
   17.25000        5.6851579E-05
   17.30000        5.7394278E-05
   17.35000        5.7911646E-05
   17.40000        5.8402762E-05
   17.45000        5.8866783E-05
   17.50000        5.9302980E-05
   17.55000        5.9710728E-05
   17.60000        6.0089493E-05
   17.65000        6.0438801E-05
   17.70000        6.0758190E-05
   17.75000        6.1047183E-05
   17.80000        6.1305313E-05
   17.85000        6.1532082E-05
   17.90000        6.1727005E-05
   17.95000        6.1889659E-05
   18.00000        6.2019688E-05
   18.05000        6.2116858E-05
   18.10000        6.2181047E-05
   18.15000        6.2212239E-05
   18.20000        6.2210529E-05
   18.25000        6.2176048E-05
   18.30000        6.2108986E-05
   18.35000        6.2009531E-05
   18.40000        6.1877836E-05
   18.45000        6.1714061E-05
   18.50000        6.1518338E-05
   18.55000        6.1290812E-05
   18.60000        6.1031653E-05
   18.65000        6.0741124E-05
   18.70000        6.0419592E-05
   18.75000        6.0067541E-05
   18.80000        5.9685601E-05
   18.85000        5.9274498E-05
   18.90000        5.8835049E-05
   18.95000        5.8368092E-05
   19.00000        5.7874480E-05
   19.05000        5.7355028E-05
   19.10000        5.6810499E-05
   19.15000        5.6241621E-05
   19.20000        5.5649096E-05
   19.25000        5.5033644E-05
   19.30000        5.4396030E-05
   19.35000        5.3737072E-05
   19.40000        5.3057673E-05
   19.45000        5.2358791E-05
   19.50000        5.1641451E-05
   19.55000        5.0906689E-05
   19.60000        5.0155555E-05
   19.65000        4.9389098E-05
   19.70000        4.8608385E-05
   19.75000        4.7814479E-05
   19.80000        4.7008474E-05
   19.85000        4.6191490E-05
   19.90000        4.5364653E-05
   19.95000        4.4529083E-05
   20.00000        4.3685868E-05
   20.05000        4.2836018E-05
   20.10000        4.1980449E-05
   20.15000        4.1120005E-05
   20.20000        4.0255447E-05
   20.25000        3.9387516E-05
   20.30000        3.8516984E-05
   20.35000        3.7644699E-05
   20.40000        3.6771617E-05
   20.45000        3.5898815E-05
   20.50000        3.5027439E-05
   20.55000        3.4158660E-05
   20.60000        3.3293603E-05
   20.65000        3.2433287E-05
   20.70000        3.1578551E-05
   20.75000        3.0730080E-05
   20.80000        2.9888393E-05
   20.85000        2.9053921E-05
   20.90000        2.8227038E-05
   20.95000        2.7408154E-05
   21.00000        2.6597738E-05
   21.05000        2.5796351E-05
   21.10000        2.5004625E-05
   21.15000        2.4223227E-05
   21.20000        2.3452829E-05
   21.25000        2.2694043E-05
   21.30000        2.1947410E-05
   21.35000        2.1213376E-05
   21.40000        2.0492311E-05
   21.45000        1.9784511E-05
   21.50000        1.9090225E-05
   21.55000        1.8409664E-05
   21.60000        1.7743010E-05
   21.65000        1.7090400E-05
   21.70000        1.6451939E-05
   21.75000        1.5827685E-05
   21.80000        1.5217684E-05
   21.85000        1.4621967E-05
   21.90000        1.4040584E-05
   21.95000        1.3473612E-05
   22.00000        1.2921162E-05
   22.05000        1.2383364E-05
   22.10000        1.1860334E-05
   22.15000        1.1352145E-05
   22.20000        1.0858797E-05
   22.25000        1.0380202E-05
   22.30000        9.9161880E-06
   22.35000        9.4665165E-06
   22.40000        9.0309222E-06
   22.45000        8.6091441E-06
   22.50000        8.2009428E-06
   22.55000        7.8061194E-06
   22.60000        7.4245036E-06
   22.65000        7.0559413E-06
   22.70000        6.7002866E-06
   22.75000        6.3573862E-06
   22.80000        6.0270818E-06
   22.85000        5.7092125E-06
   22.90000        5.4036122E-06
   22.95000        5.1101038E-06
   23.00000        4.8284778E-06
   23.05000        4.5584738E-06
   23.10000        4.2997553E-06
   23.15000        4.0519117E-06
   23.20000        3.8144774E-06
   23.25000        3.5869764E-06
   23.30000        3.3689819E-06
   23.35000        3.1601721E-06
   23.40000        2.9603625E-06
   23.45000        2.7694994E-06
   23.50000        2.5876129E-06
   23.55000        2.4147384E-06
   23.60000        2.2508314E-06
   23.65000        2.0957029E-06
   23.70000        1.9489962E-06
   23.75000        1.8102139E-06
   23.80000        1.6787924E-06
   23.85000        1.5541947E-06
   23.90000        1.4359965E-06
   23.95000        1.3239340E-06
   24.00000        1.2178997E-06
   24.05000        1.1178895E-06
   24.10000        1.0239213E-06
   24.15000        9.3595247E-07
   24.20000        8.5382493E-07
   24.25000        7.7725792E-07
   24.30000        7.0588567E-07
   24.35000        6.3932600E-07
   24.40000        5.7725140E-07
   24.45000        5.1943817E-07
   24.50000        4.6577540E-07
   24.55000        4.1623463E-07
   24.60000        3.7081438E-07
   24.65000        3.2947915E-07
   24.70000        2.9212046E-07
   24.75000        2.5854891E-07
   24.80000        2.2851842E-07
   24.85000        2.0177004E-07
   24.90000        1.7807461E-07
   24.95000        1.5725676E-07
   25.00000        1.3919207E-07
   25.05000        1.2378200E-07
   25.10000        1.1091986E-07
   25.15000        1.0046851E-07
   25.20000        9.2259093E-08
   25.25000        8.6116891E-08
   25.30000        8.1899650E-08
   25.35000        7.9533223E-08
   25.40000        7.9024552E-08
   25.45000        8.0440707E-08
   25.50000        8.3858936E-08
   25.55000        8.9305196E-08
   25.60000        9.6705449E-08
   25.65000        1.0586940E-07
   25.70000        1.1651881E-07
   25.75000        1.2835059E-07
   25.80000        1.4111392E-07
   25.85000        1.5467049E-07
   25.90000        1.6901465E-07
   25.95000        1.8424224E-07
   26.00000        2.0048020E-07
   26.05000        2.1780207E-07
   26.10000        2.3616276E-07
   26.15000        2.5537994E-07
   26.20000        2.7517126E-07
   26.25000        2.9523733E-07
   26.30000        3.1535686E-07
   26.35000        3.3545902E-07
   26.40000        3.5564105E-07
   26.45000        3.7612116E-07
   26.50000        3.9714124E-07
   26.55000        4.1885150E-07
   26.60000        4.4122194E-07
   26.65000        4.6401345E-07
   26.70000        4.8682159E-07
   26.75000        5.0917879E-07
   26.80000        5.3068214E-07
   26.85000        5.5109831E-07
   26.90000        5.7040961E-07
   26.95000        5.8878493E-07
   27.00000        6.0648654E-07
   27.05000        6.2374698E-07
   27.10000        6.4066217E-07
   27.15000        6.5713709E-07
   27.20000        6.7290341E-07
   27.25000        6.8759920E-07
   27.30000        7.0087862E-07
   27.35000        7.1250787E-07
   27.40000        7.2241238E-07
   27.45000        7.3065632E-07
   27.50000        7.3736646E-07
   27.55000        7.4262971E-07
   27.60000        7.4640695E-07
   27.65000        7.4849800E-07
   27.70000        7.4857218E-07
   27.75000        7.4625444E-07
   27.80000        7.4123261E-07
   27.85000        7.3334371E-07
   27.90000        7.2260684E-07
   27.95000        7.0918566E-07
   28.00000        6.9329354E-07
   28.05000        6.7507671E-07
   28.10000        6.5451729E-07
   28.15000        6.3139174E-07
   28.20000        6.0530147E-07
   28.25000        5.7576381E-07
   28.30000        5.4233186E-07
   28.35000        5.0469947E-07
   28.40000        4.6275684E-07
   28.45000        4.1657802E-07
   28.50000        3.6634887E-07
   28.55000        3.1226503E-07
   28.60000        2.5443595E-07
   28.65000        1.9283014E-07
   28.70000        1.2727656E-07
   28.75000        5.7515670E-08
   28.80000       -1.6724897E-08
   28.85000       -9.5662458E-08
   28.90000       -1.7942554E-07
   28.95000       -2.6806620E-07
   29.00000       -3.6160660E-07
   29.05000       -4.6009737E-07
   29.10000       -5.6365627E-07
   29.15000       -6.7246947E-07
   29.20000       -7.8674907E-07
   29.25000       -9.0666430E-07
   29.30000       -1.0322755E-06
   29.35000       -1.1635016E-06
   29.40000       -1.3001387E-06
   29.45000       -1.4419286E-06
   29.50000       -1.5886553E-06
   29.55000       -1.7402343E-06
   29.60000       -1.8967611E-06
   29.65000       -2.0584964E-06
   29.70000       -2.2257907E-06
   29.75000       -2.3989721E-06
   29.80000       -2.5782408E-06
   29.85000       -2.7636015E-06
   29.90000       -2.9548662E-06
   29.95000       -3.1517186E-06
   30.00000       -3.3538236E-06
   30.05000       -3.5609373E-06
   30.10000       -3.7729769E-06
   30.15000       -3.9900278E-06
   30.20000       -4.2122815E-06
   30.25000       -4.4399339E-06
   30.30000       -4.6730747E-06
   30.35000       -4.9116215E-06
   30.40000       -5.1553088E-06
   30.45000       -5.4037514E-06
   30.50000       -5.6565459E-06
   30.55000       -5.9133818E-06
   30.60000       -6.1741125E-06
   30.65000       -6.4387691E-06
   30.70000       -6.7075039E-06
   30.75000       -6.9804928E-06
   30.80000       -7.2578318E-06
   30.85000       -7.5394623E-06
   30.90000       -7.8251487E-06
   30.95000       -8.1145263E-06
   31.00000       -8.4071762E-06
   31.05000       -8.7027238E-06
   31.10000       -9.0008989E-06
   31.15000       -9.3015524E-06
   31.20000       -9.6046342E-06
   31.25000       -9.9101244E-06
   31.30000       -1.0217971E-05
   31.35000       -1.0528055E-05
   31.40000       -1.0840185E-05
   31.45000       -1.1154139E-05
   31.50000       -1.1469713E-05
   31.55000       -1.1786757E-05
   31.60000       -1.2105187E-05
   31.65000       -1.2424960E-05
   31.70000       -1.2746015E-05
   31.75000       -1.3068219E-05
   31.80000       -1.3391345E-05
   31.85000       -1.3715082E-05
   31.90000       -1.4039090E-05
   31.95000       -1.4363088E-05
   32.00000       -1.4686900E-05
   32.05000       -1.5010499E-05
   32.10000       -1.5333966E-05
   32.15000       -1.5657424E-05
   32.20000       -1.5980942E-05
   32.25000       -1.6304475E-05
   32.30000       -1.6627833E-05
   32.35000       -1.6950740E-05
   32.40000       -1.7272914E-05
   32.45000       -1.7594173E-05
   32.50000       -1.7914499E-05
   32.55000       -1.8234045E-05
   32.60000       -1.8553066E-05
   32.65000       -1.8871808E-05
   32.70000       -1.9190376E-05
   32.75000       -1.9508678E-05
   32.80000       -1.9826415E-05
   32.85000       -2.0143198E-05
   32.90000       -2.0458678E-05
   32.95000       -2.0772712E-05
   33.00000       -2.1085443E-05
   33.05000       -2.1397293E-05
   33.10000       -2.1708847E-05
   33.15000       -2.2020678E-05
   33.20000       -2.2333150E-05
   33.25000       -2.2646320E-05
   33.30000       -2.2959925E-05
   33.35000       -2.3273486E-05
   33.40000       -2.3586523E-05
   33.45000       -2.3898734E-05
   33.50000       -2.4210158E-05
   33.55000       -2.4521178E-05
   33.60000       -2.4832418E-05
   33.65000       -2.5144558E-05
   33.70000       -2.5458121E-05
   33.75000       -2.5773312E-05
   33.80000       -2.6090012E-05
   33.85000       -2.6407852E-05
   33.90000       -2.6726395E-05
   33.95000       -2.7045347E-05
   34.00000       -2.7364675E-05
   34.05000       -2.7684639E-05
   34.10000       -2.8005696E-05
   34.15000       -2.8328324E-05
   34.20000       -2.8652850E-05
   34.25000       -2.8979322E-05
   34.30000       -2.9307517E-05
   34.35000       -2.9637044E-05
   34.40000       -2.9967516E-05
   34.45000       -3.0298723E-05
   34.50000       -3.0630716E-05
   34.55000       -3.0963784E-05
   34.60000       -3.1298325E-05
   34.65000       -3.1634649E-05
   34.70000       -3.1972813E-05
   34.75000       -3.2312557E-05
   34.80000       -3.2653319E-05
   34.85000       -3.2994405E-05
   34.90000       -3.3335178E-05
   34.95000       -3.3675227E-05
   35.00000       -3.4014447E-05
   35.05000       -3.4352975E-05
   35.10000       -3.4691042E-05
   35.15000       -3.5028752E-05
   35.20000       -3.5365952E-05
   35.25000       -3.5702142E-05
   35.30000       -3.6036574E-05
   35.35000       -3.6368401E-05
   35.40000       -3.6696896E-05