  -10.00000        1.0000000E-24
  -9.950000        1.0000000E-24
  -9.900000        1.0000000E-24
  -9.850000        1.0000000E-24
  -9.800000        1.0000001E-24
  -9.750000        1.0000001E-24
  -9.700000        1.0000001E-24
  -9.650000        1.0000001E-24
  -9.600000        1.0000001E-24
  -9.550000        1.0000001E-24
  -9.500000        1.0000001E-24
  -9.450000        1.0000000E-24
  -9.400000        1.0000000E-24
  -9.350000        1.0000000E-24
  -9.300000        1.0000000E-24
  -9.250000        1.0000000E-24
  -9.200000        1.0000000E-24
  -9.150000        1.0000000E-24
  -9.100000        1.0000001E-24
  -9.050000        1.0000001E-24
  -9.000000        1.0000001E-24
  -8.950000        1.0000002E-24
  -8.900000        1.0000003E-24
  -8.850000        1.0000003E-24
  -8.800000        1.0000003E-24
  -8.750000        1.0000002E-24
  -8.700000        1.0000001E-24
  -8.650000        1.0000000E-24
  -8.600000        1.0000000E-24
  -8.550000        1.0000000E-24
  -8.500000        1.0000000E-24
  -8.450000        1.0000001E-24
  -8.400000        1.0000002E-24
  -8.350000        1.0000002E-24
  -8.300000        1.0000002E-24
  -8.250000        1.0000002E-24
  -8.200000        1.0000001E-24
  -8.150000        9.9999992E-25
  -8.100000        9.9999972E-25
  -8.050000        1.0000001E-24
  -8.000000        1.0000016E-24
  -7.950000        1.0000054E-24
  -7.900000        1.0000123E-24
  -7.850000        1.0000199E-24
  -7.800000        1.0000181E-24
  -7.750000        9.9998493E-25
  -7.700000        9.9988840E-25
  -7.650000        9.9970351E-25
  -7.600000        9.9946241E-25
  -7.550000        9.9933728E-25
  -7.500000        9.9973023E-25
  -7.450000        1.0012769E-24
  -7.400000        1.0045973E-24
  -7.350000        1.0095945E-24
  -7.300000        1.0142293E-24
  -7.250000        1.0131087E-24
  -7.200000        9.9697868E-25
  -7.150000        9.5510042E-25
  -7.100000        8.8288356E-25
  -7.050000        7.9594315E-25
  -7.000000        7.4770189E-25
  -6.950000        8.4033802E-25
  -6.900000        1.2101195E-24
  -6.850000        1.9634618E-24
  -6.800000        3.0486780E-24
  -6.750000        4.0804607E-24
  -6.700000        4.1934489E-24
  -6.650000        2.0746068E-24
  -6.600000       -3.6280778E-24
  -6.550000       -1.3367141E-23
  -6.500000       -2.5282454E-23
  -6.450000       -3.3772975E-23
  -6.400000       -2.9038106E-23
  -6.350000        1.0242033E-24
  -6.300000        6.5304600E-23
  -6.250000        1.6021612E-22
  -6.200000        2.5888403E-22
  -6.150000        3.0422281E-22
  -6.100000        2.1414804E-22
  -6.050000       -9.2632162E-23
  -6.000000       -6.4678102E-22
  -5.950000       -1.3626883E-21
  -5.900000       -1.9823343E-21
  -5.850000       -2.0705417E-21
  -5.800000       -1.1089206E-21
  -5.750000        1.2825487E-21
  -5.700000        5.0181360E-21
  -5.650000        9.2141611E-21
  -5.600000        1.2036196E-20
  -5.550000        1.0951473E-20
  -5.500000        3.5557611E-21
  -5.450000       -1.1052190E-20
  -5.400000       -3.0702563E-20
  -5.350000       -4.9112576E-20
  -5.300000       -5.6314320E-20
  -5.250000       -4.1347276E-20
  -5.200000        2.6897924E-21
  -5.150000        7.2374614E-20
  -5.100000        1.4908704E-19
  -5.050000        1.9911766E-19
  -5.000000        1.8200047E-19
  -4.950000        6.7897699E-20
  -4.900000       -1.3964115E-19
  -4.850000       -3.8469154E-19
  -4.800000       -5.5687065E-19
  -4.750000       -5.1855322E-19
  -4.700000       -1.6555506E-19
  -4.650000        4.9065919E-19
  -4.600000        1.2514283E-18
  -4.550000        1.7180226E-18
  -4.500000        1.3851121E-18
  -4.450000       -1.3886616E-19
  -4.400000       -2.8206294E-18
  -4.350000       -5.9113561E-18
  -4.300000       -7.8519268E-18
  -4.250000       -6.5619175E-18
  -4.200000       -2.1986572E-19
  -4.150000        1.1548057E-17
  -4.100000        2.6424756E-17
  -4.050000        3.8720123E-17
  -4.000000        3.9978033E-17
  -3.950000        2.1412070E-17
  -3.900000       -2.1869684E-17
  -3.850000       -8.5809566E-17
  -3.800000       -1.5348171E-16
  -3.750000       -1.9493127E-16
  -3.700000       -1.7316742E-16
  -3.650000       -5.7195079E-17
  -3.600000        1.5984298E-16
  -3.550000        4.4286358E-16
  -3.500000        7.0580349E-16
  -3.450000        8.2049990E-16
  -3.400000        6.4957903E-16
  -3.350000        1.0191804E-16
  -3.300000       -8.0166888E-16
  -3.250000       -1.8760441E-15
  -3.200000       -2.7627204E-15
  -3.150000       -2.9908655E-15
  -3.100000       -2.1181791E-15
  -3.050000        6.8148122E-17
  -3.000000        3.3459290E-15
  -2.950000        6.9328279E-15
  -2.900000        9.5336413E-15
  -2.850000        9.6234632E-15
  -2.800000        5.9610803E-15
  -2.750000       -1.7720059E-15
  -2.700000       -1.2412303E-14
  -2.650000       -2.3101143E-14
  -2.600000       -2.9661556E-14
  -2.550000       -2.7676104E-14
  -2.500000       -1.4138963E-14
  -2.450000        1.0733480E-14
  -2.400000        4.2193022E-14
  -2.350000        7.0889909E-14
  -2.300000        8.4595349E-14
  -2.250000        7.1781136E-14
  -2.200000        2.6406564E-14
  -2.150000       -4.7483376E-14
  -2.100000       -1.3323546E-13
  -2.050000       -2.0296427E-13
  -2.000000       -2.2383750E-13
  -1.950000       -1.6875036E-13
  -1.900000       -2.8948401E-14
  -1.850000        1.7554357E-13
  -1.800000        3.9255662E-13
  -1.750000        5.4544677E-13
  -1.700000        5.5298621E-13
  -1.650000        3.5838880E-13
  -1.600000       -4.0267635E-14
  -1.550000       -5.6931733E-13
  -1.500000       -1.0798662E-12
  -1.450000       -1.3766474E-12
  -1.400000       -1.2745564E-12
  -1.350000       -6.7124393E-13
  -1.300000        3.8598779E-13
  -1.250000        1.6661123E-12
  -1.200000        2.7771479E-12
  -1.150000        3.2565543E-12
  -1.100000        2.7182583E-12
  -1.050000        1.0203993E-12
  -1.000000       -1.6017568E-12
 -0.9500000       -4.4985569E-12
 -0.9000000       -6.7093501E-12
 -0.8500000       -7.2137756E-12
 -0.8000000       -5.2856248E-12
 -0.7500000       -8.5149693E-13
 -0.7000000        5.2762161E-12
 -0.6500000        1.1417062E-11
 -0.6000000        1.5362647E-11
 -0.5500000        1.5014450E-11
 -0.5000000        9.1778755E-12
 -0.4500000       -1.7292829E-12
 -0.4000000       -1.5337601E-11
 -0.3500000       -2.7590336E-11
 -0.3000000       -3.3695879E-11
 -0.2500000       -2.9628178E-11
 -0.2000000       -1.3795506E-11
 -0.1500000        1.1673734E-11
 -0.1000000        4.0600648E-11
 -5.0000001E-02    6.3774534E-11
  0.0000000E+00    7.1342252E-11
  5.0000001E-02    5.6106213E-11
  0.1000000        1.6815167E-11
  0.1500000       -3.9719190E-11
  0.2000000       -9.8751764E-11
  0.2500000       -1.4054916E-10
  0.3000000       -1.4588086E-10
  0.3500000       -1.0281990E-10
  0.4000000       -1.2829460E-11
  0.4500000        1.0616879E-10
  0.5000000        2.2159508E-10
  0.5500000        2.9351516E-10
  0.6000000        2.8633651E-10
  0.6500000        1.8199153E-10
  0.7000000       -9.5323411E-12
  0.7500000       -2.4656113E-10
  0.8000000       -4.6191789E-10
  0.8500000       -5.7919070E-10
  0.9000000       -5.3599003E-10
  0.9500000       -3.0800801E-10
   1.000000        7.4006981E-11
   1.050000        5.2165922E-10
   1.100000        9.0481345E-10
   1.150000        1.0848417E-09
   1.200000        9.5801467E-10
   1.250000        4.9692472E-10
   1.300000       -2.2410122E-10
   1.350000       -1.0312931E-09
   1.400000       -1.6864335E-09
   1.450000       -1.9498643E-09
   1.500000       -1.6567229E-09
   1.550000       -7.8443796E-10
   1.600000        5.1190407E-10
   1.650000        1.9137698E-09
   1.700000        3.0077416E-09
   1.750000        3.3966872E-09
   1.800000        2.8261362E-09
   1.850000        1.2888479E-09
   1.900000       -9.2888514E-10
   1.950000       -3.2834548E-09
   2.000000       -5.0950923E-09
   2.050000       -5.7303695E-09
   2.100000       -4.7998410E-09
   2.150000       -2.3130335E-09
   2.200000        1.2623929E-09
   2.250000        5.0688729E-09
   2.300000        8.0519520E-09
   2.350000        9.2377421E-09
   2.400000        8.0241973E-09
   2.450000        4.4029731E-09
   2.500000       -9.6069264E-10
   2.550000       -6.8293602E-09
   2.600000       -1.1667233E-08
   2.650000       -1.4027590E-08
   2.700000       -1.2957399E-08
   2.750000       -8.3095006E-09
   2.800000       -8.6933799E-10
   2.850000        7.7534636E-09
   2.900000        1.5458962E-08
   2.950000        2.0146864E-08
   3.000000        2.0249304E-08
   3.050000        1.5176793E-08
   3.100000        5.5631837E-09
   3.150000       -6.7614803E-09
   3.200000       -1.9081659E-08
   3.250000       -2.8340025E-08
   3.300000       -3.1812529E-08
   3.350000       -2.7782191E-08
   3.400000       -1.6071562E-08
   3.450000        1.6903631E-09
   3.500000        2.2155829E-08
   3.550000        4.0737376E-08
   3.600000        5.2449408E-08
   3.650000        5.3007284E-08
   3.700000        4.0000465E-08
   3.750000        1.3889623E-08
   3.800000       -2.1455278E-08
   3.850000       -5.8933374E-08
   3.900000       -8.9261896E-08
   3.950000       -1.0286593E-07
   4.000000       -9.2338247E-08
   4.050000       -5.4954612E-08
   4.100000        5.4416627E-09
   4.150000        7.7890697E-08
   4.200000        1.4561800E-07
   4.250000        1.8929872E-07
   4.300000        1.9184246E-07
   4.350000        1.4368743E-07
   4.400000        4.7181757E-08
   4.450000       -8.1447304E-08
   4.500000       -2.1367335E-07
   4.550000       -3.1413688E-07
   4.600000       -3.4924577E-07
   4.650000       -2.9705330E-07
   4.700000       -1.5577773E-07
   4.750000        5.1815952E-08
   4.800000        2.8027716E-07
   4.850000        4.7023374E-07
   4.900000        5.6278873E-07
   4.950000        5.1636857E-07
   5.000000        3.2153412E-07
   5.050000        9.0696712E-09
   5.100000       -3.5215885E-07
   5.150000       -6.6866454E-07
   5.200000       -8.4505331E-07
   5.250000       -8.1087603E-07
   5.300000       -5.4448566E-07
   5.350000       -8.6542265E-08
   5.400000        4.6227885E-07
   5.450000        9.6102997E-07
   5.500000        1.2625211E-06
   5.550000        1.2539011E-06
   5.600000        8.9311663E-07
   5.650000        2.3033212E-07
   5.700000       -5.9371598E-07
   5.750000       -1.3749029E-06
   5.800000       -1.8939645E-06
   5.850000       -1.9748538E-06
   5.900000       -1.5381291E-06
   5.950000       -6.3400273E-07
   6.000000        5.5631233E-07
   6.050000        1.7547023E-06
   6.100000        2.6500118E-06
   6.150000        2.9772227E-06
   6.200000        2.5919633E-06
   6.250000        1.5198348E-06
   6.300000       -3.4862712E-08
   6.350000       -1.7267097E-06
   6.400000       -3.1467248E-06
   6.450000       -3.9223883E-06
   6.500000       -3.8154071E-06
   6.550000       -2.7914718E-06
   6.600000       -1.0420620E-06
   6.650000        1.0501735E-06
   6.700000        2.9966345E-06
   6.750000        4.3192927E-06
   6.800000        4.6702417E-06
   6.850000        3.9240390E-06
   6.900000        2.2184042E-06
   6.950000       -6.8853922E-08
   7.000000       -2.4031031E-06
   7.050000       -4.2175934E-06
   7.100000       -5.0501394E-06
   7.150000       -4.6587929E-06
   7.200000       -3.0881035E-06
   7.250000       -6.6909485E-07
   7.300000        2.0483615E-06
   7.350000        4.4162653E-06
   7.400000        5.8355154E-06
   7.450000        5.8964392E-06
   7.500000        4.4814351E-06
   7.550000        1.8065346E-06
   7.600000       -1.6083437E-06
   7.650000       -5.0359631E-06
   7.700000       -7.6871156E-06
   7.750000       -8.8768647E-06
   7.800000       -8.1792014E-06
   7.850000       -5.5387950E-06
   7.900000       -1.3151387E-06
   7.950000        3.7545688E-06
   8.000000        8.6734199E-06
   8.050000        1.2368088E-05
   8.100000        1.3907620E-05
   8.150000        1.2717212E-05
   8.200000        8.7418575E-06
   8.250000        2.5183954E-06
   8.300000       -4.8723386E-06
   8.350000       -1.1979699E-05
   8.400000       -1.7262566E-05
   8.450000       -1.9424731E-05
   8.500000       -1.7735916E-05
   8.550000       -1.2260090E-05
   8.600000       -3.9232937E-06
   8.650000        5.6172476E-06
   8.700000        1.4296330E-05
   8.750000        2.0099822E-05
   8.800000        2.1560025E-05
   8.850000        1.8164896E-05
   8.900000        1.0565328E-05
   8.950000        5.0360086E-07
   9.000000       -9.5487640E-06
   9.050000       -1.6978745E-05
   9.100000       -1.9711528E-05
   9.150000       -1.6808488E-05
   9.200000       -8.8130491E-06
   9.250000        2.2750235E-06
   9.300000        1.3426304E-05
   9.350000        2.1330961E-05
   9.400000        2.3294835E-05
   9.450000        1.8048500E-05
   9.500000        6.2372574E-06
   9.550000       -9.5731693E-06
   9.600000       -2.5420741E-05
   9.650000       -3.6903311E-05
   9.700000       -4.0340517E-05
   9.750000       -3.3838722E-05
   9.800000       -1.7958439E-05
   9.850000        4.2299657E-06
   9.900000        2.7763537E-05
   9.950000        4.6956917E-05
   10.00000        5.6844456E-05
   10.05000        5.4519798E-05
   10.10000        4.0002997E-05
   10.15000        1.6373284E-05
   10.20000       -1.0907258E-05
   10.25000       -3.5335172E-05
   10.30000       -5.1037809E-05
   10.35000       -5.4334876E-05
   10.40000       -4.4758384E-05
   10.45000       -2.5231528E-05
   10.50000       -1.3274224E-06
   10.55000        2.0219235E-05
   10.60000        3.3360553E-05
   10.65000        3.4442746E-05
   10.70000        2.3292774E-05
   10.75000        3.3611771E-06
   10.80000       -1.9149935E-05
   10.85000       -3.6964517E-05
   10.90000       -4.3775835E-05
   10.95000       -3.6100017E-05
   11.00000       -1.4420097E-05
   11.05000        1.6718504E-05
   11.10000        4.9721981E-05
   11.15000        7.5830969E-05
   11.20000        8.7390399E-05
   11.25000        7.9910802E-05
   11.30000        5.3371659E-05
   11.35000        1.2412032E-05
   11.40000       -3.4655463E-05
   11.45000       -7.7763820E-05
   11.50000       -1.0745944E-04
   11.55000       -1.1712313E-04
   11.60000       -1.0449627E-04
   11.65000       -7.2152667E-05
   11.70000       -2.6831858E-05
   11.75000        2.2164360E-05
   11.80000        6.5090244E-05
   11.85000        9.3866969E-05
   11.90000        1.0370165E-04
   11.95000        9.3885981E-05
   12.00000        6.7668028E-05
   12.05000        3.1314867E-05
   12.10000       -7.3493352E-06
   12.15000       -4.0570529E-05
   12.20000       -6.2120685E-05
   12.25000       -6.8341185E-05
   12.30000       -5.8659250E-05
   12.35000       -3.5577948E-05
   12.40000       -4.2143943E-06
   12.45000        2.8511895E-05
   12.50000        5.4943801E-05
   12.55000        6.7916735E-05
   12.60000        6.2053645E-05
   12.65000        3.4980672E-05
   12.70000       -1.1743344E-05
   12.75000       -7.2236879E-05
   12.80000       -1.3668821E-04
   12.85000       -1.9267363E-04
   12.90000       -2.2735265E-04
   12.95000       -2.3023912E-04
   13.00000       -1.9600421E-04
   13.05000       -1.2661442E-04
   13.10000       -3.2123222E-05
   13.15000        7.0347982E-05
   13.20000        1.5950670E-04
   13.25000        2.1423656E-04
   13.30000        2.1850679E-04
   13.35000        1.6566963E-04
   13.40000        6.0969331E-05
   13.45000       -7.8589379E-05
   13.50000       -2.2726550E-04
   13.55000       -3.5601243E-04
   13.60000       -4.3914464E-04
   13.65000       -4.6063884E-04
   13.70000       -4.1843302E-04
   13.75000       -3.2549544E-04
   13.80000       -2.0720366E-04
   13.85000       -9.5522279E-05
   13.90000       -2.1336789E-05
   13.95000       -6.8540503E-06
   14.00000       -6.0039016E-05
   14.05000       -1.7258732E-04
   14.10000       -3.2203828E-04
   14.15000       -4.7754485E-04
   14.20000       -6.0783059E-04
   14.25000       -6.8925507E-04
   14.30000       -7.1185728E-04
   14.35000       -6.8177877E-04
   14.40000       -6.1944278E-04
   14.45000       -5.5402087E-04
   14.50000       -5.1572826E-04
   14.55000       -5.2806834E-04
   14.60000       -6.0213247E-04
   14.65000       -7.3445367E-04
   14.70000       -9.0888812E-04
   14.75000       -1.1018522E-03
   14.80000       -1.2893053E-03
   14.85000       -1.4534175E-03
   14.90000       -1.5870112E-03
   14.95000       -1.6945868E-03
   15.00000       -1.7897980E-03
   15.05000       -1.8903199E-03
   15.10000       -2.0118318E-03
   15.15000       -2.1630700E-03
   15.20000       -2.3435282E-03
   15.25000       -2.5445197E-03
   15.30000       -2.7532121E-03
   15.35000       -2.9582721E-03
   15.40000       -3.1552042E-03
   15.45000       -3.3495207E-03
   15.50000       -3.5565416E-03
   15.55000       -3.7976906E-03
   15.60000       -4.0943017E-03
   15.65000       -4.4608167E-03
   15.70000       -4.8995586E-03
   15.75000       -5.3988881E-03
   15.80000       -5.9355800E-03
   15.85000       -6.4809849E-03
   15.90000       -7.0093344E-03
   15.95000       -7.5058131E-03
   16.00000       -7.9719601E-03
   16.05000       -8.4266635E-03
   16.10000       -8.9022564E-03
   16.15000       -9.4366642E-03
   16.20000       -1.0063748E-02
   16.25000       -1.0804586E-02
   16.30000       -1.1662232E-02
   16.35000       -1.2621487E-02
   16.40000       -1.3653791E-02
   16.45000       -1.4725841E-02
   16.50000       -1.5809426E-02
   16.55000       -1.6889630E-02
   16.60000       -1.7969036E-02
   16.65000       -1.9066818E-02
   16.70000       -2.0213088E-02
   16.75000       -2.1440387E-02
   16.80000       -2.2774978E-02
   16.85000       -2.4230639E-02
   16.90000       -2.5806803E-02
   16.95000       -2.7491523E-02
   17.00000       -2.9268082E-02
   17.05000       -3.1123009E-02
   17.10000       -3.3052687E-02
   17.15000       -3.5066281E-02
   17.20000       -3.7183907E-02
   17.25000       -3.9430540E-02
   17.30000       -4.1827656E-02
   17.35000       -4.4385500E-02
   17.40000       -4.7098637E-02
   17.45000       -4.9946737E-02
   17.50000       -5.2900627E-02
   17.55000       -5.5932105E-02
   17.60000       -5.9024554E-02
   17.65000       -6.2181011E-02
   17.70000       -6.5426931E-02
   17.75000       -6.8806313E-02
   17.80000       -7.2371945E-02
   17.85000       -7.6172337E-02
   17.90000       -8.0238968E-02
   17.95000       -8.4577724E-02
   18.00000       -8.9167140E-02
   18.05000       -9.3964256E-02
   18.10000       -9.8916724E-02
   18.15000       -0.1039778    
   18.20000       -0.1091199    
   18.25000       -0.1143435    
   18.30000       -0.1196776    
   18.35000       -0.1251727    
   18.40000       -0.1308881    
   18.45000       -0.1368764    
   18.50000       -0.1431703    
   18.55000       -0.1497755    
   18.60000       -0.1566710    
   18.65000       -0.1638172    
   18.70000       -0.1711685    
   18.75000       -0.1786879    
   18.80000       -0.1863571    
   18.85000       -0.1941815    
   18.90000       -0.2021868    
   18.95000       -0.2104099    
   19.00000       -0.2188854    
   19.05000       -0.2276341    
   19.10000       -0.2366553    
   19.15000       -0.2459267    
   19.20000       -0.2554110    
   19.25000       -0.2650683    
   19.30000       -0.2748694    
   19.35000       -0.2848064    
   19.40000       -0.2948964    
   19.45000       -0.3051770    
   19.50000       -0.3156952    
   19.55000       -0.3264915    
   19.60000       -0.3375855    
   19.65000       -0.3489664    
   19.70000       -0.3605921    
   19.75000       -0.3723981    
   19.80000       -0.3843126    
   19.85000       -0.3962747    
   19.90000       -0.4082505    
   19.95000       -0.4202409    
   20.00000       -0.4322799    
   20.05000       -0.4444228    
   20.10000       -0.4567277    
   20.15000       -0.4692364    
   20.20000       -0.4819591    
   20.25000       -0.4948678    
   20.30000       -0.5079018    
   20.35000       -0.5209816    
   20.40000       -0.5340281    
   20.45000       -0.5469821    
   20.50000       -0.5598170    
   20.55000       -0.5725413    
   20.60000       -0.5851908    
   20.65000       -0.5978127    
   20.70000       -0.6104456    
   20.75000       -0.6231039    
   20.80000       -0.6357679    
   20.85000       -0.6483864    
   20.90000       -0.6608876    
   20.95000       -0.6731966    
   21.00000       -0.6852539    
   21.05000       -0.6970285    
   21.10000       -0.7085224    
   21.15000       -0.7197637    
   21.20000       -0.7307931    
   21.25000       -0.7416452    
   21.30000       -0.7523326    
   21.35000       -0.7628363    
   21.40000       -0.7731060    
   21.45000       -0.7830699    
   21.50000       -0.7926512    
   21.55000       -0.8017857    
   21.60000       -0.8104362    
   21.65000       -0.8185984    
   21.70000       -0.8262970    
   21.75000       -0.8335741    
   21.80000       -0.8404725    
   21.85000       -0.8470190    
   21.90000       -0.8532136    
   21.95000       -0.8590261    
   22.00000       -0.8644022    
   22.05000       -0.8692766    
   22.10000       -0.8735887    
   22.15000       -0.8772965    
   22.20000       -0.8803843    
   22.25000       -0.8828632    
   22.30000       -0.8847624    
   22.35000       -0.8861165    
   22.40000       -0.8869514    
   22.45000       -0.8872737    
   22.50000       -0.8870667    
   22.55000       -0.8862950    
   22.60000       -0.8849158    
   22.65000       -0.8828925    
   22.70000       -0.8802081    
   22.75000       -0.8768719    
   22.80000       -0.8729191    
   22.85000       -0.8684001    
   22.90000       -0.8633660    
   22.95000       -0.8578512    
   23.00000       -0.8518603    
   23.05000       -0.8453641    
   23.10000       -0.8383050    
   23.15000       -0.8306124    
   23.20000       -0.8222237    
   23.25000       -0.8131045    
   23.30000       -0.8032629    
   23.35000       -0.7927530    
   23.40000       -0.7816648    
   23.45000       -0.7701057    
   23.50000       -0.7581748    
   23.55000       -0.7459401    
   23.60000       -0.7334232    
   23.65000       -0.7205963    
   23.70000       -0.7073928    
   23.75000       -0.6937276    
   23.80000       -0.6795225    
   23.85000       -0.6647282    
   23.90000       -0.6493379    
   23.95000       -0.6333900    
   24.00000       -0.6169573    
   24.05000       -0.6001298    
   24.10000       -0.5829937    
   24.15000       -0.5656150    
   24.20000       -0.5480307    
   24.25000       -0.5302495    
   24.30000       -0.5122610    
   24.35000       -0.4940484    
   24.40000       -0.4756018    
   24.45000       -0.4569252    
   24.50000       -0.4380373    
   24.55000       -0.4189654    
   24.60000       -0.3997364    
   24.65000       -0.3803668    
   24.70000       -0.3608584    
   24.75000       -0.3411993    
   24.80000       -0.3213714    
   24.85000       -0.3013619    
   24.90000       -0.2811752    
   24.95000       -0.2608396    
   25.00000       -0.2404092    
   25.05000       -0.2199563    
   25.10000       -0.1995593    
   25.15000       -0.1792868    
   25.20000       -0.1591835    
   25.25000       -0.1392619    
   25.30000       -0.1195008    
   25.35000       -9.9852659E-02
   25.40000       -8.0256112E-02
   25.45000       -6.0652092E-02
   25.50000       -4.0998794E-02
   25.55000       -2.1282077E-02
   25.60000       -1.5191920E-03
   25.65000        1.8244755E-02
   25.70000        3.7946012E-02
   25.75000        5.7515237E-02
   25.80000        7.6890364E-02
   25.85000        9.6027002E-02
   25.90000        0.1149037    
   25.95000        0.1335214    
   26.00000        0.1518984    
   26.05000        0.1700618    
   26.10000        0.1880388    
   26.15000        0.2058503    
   26.20000        0.2235077    
   26.25000        0.2410146    
   26.30000        0.2583709    
   26.35000        0.2755772    
   26.40000        0.2926386    
   26.45000        0.3095648    
   26.50000        0.3263660    
   26.55000        0.3430469    
   26.60000        0.3595994    
   26.65000        0.3759988    
   26.70000        0.3922046    
   26.75000        0.4081677    
   26.80000        0.4238415    
   26.85000        0.4391966    
   26.90000        0.4542311    
   26.95000        0.4689770    
   27.00000        0.4834957    
   27.05000        0.4978667    
   27.10000        0.5121694    
   27.15000        0.5264642    
   27.20000        0.5407774    
   27.25000        0.5550957    
   27.30000        0.5693693    
   27.35000        0.5835260    
   27.40000        0.5974904    
   27.45000        0.6112034    
   27.50000        0.6246363    
   27.55000        0.6377974    
   27.60000        0.6507274    
   27.65000        0.6634881    
   27.70000        0.6761467    
   27.75000        0.6887596    
   27.80000        0.7013626    
   27.85000        0.7139670    
   27.90000        0.7265627    
   27.95000        0.7391267    
   28.00000        0.7516329    
   28.05000        0.7640603    
   28.10000        0.7763980    
   28.15000        0.7886459    
   28.20000        0.8008114    
   28.25000        0.8129048    
   28.30000        0.8249347    
   28.35000        0.8369060    
   28.40000        0.8488196    
   28.45000        0.8606754    
   28.50000        0.8724758    
   28.55000        0.8842290    
   28.60000        0.8959513    
   28.65000        0.9076663    
   28.70000        0.9194027    
   28.75000        0.9311888    
   28.80000        0.9430465    
   28.85000        0.9549864    
   28.90000        0.9670042    
   28.95000        0.9790800    
   29.00000        0.9911817    
   29.05000         1.003272    
   29.10000         1.015318    
   29.15000         1.027298    
   29.20000         1.039211    
   29.25000         1.051080    
   29.30000         1.062947    
   29.35000         1.074864    
   29.40000         1.086885    
   29.45000         1.099051    
   29.50000         1.111383    
   29.55000         1.123876    
   29.60000         1.136506    
   29.65000         1.149236    
   29.70000         1.162030    
   29.75000         1.174863    
   29.80000         1.187728    
   29.85000         1.200637    
   29.90000         1.213611    
   29.95000         1.226676    
   30.00000         1.239848    
   30.05000         1.253132    
   30.10000         1.266518    
   30.15000         1.279996    
   30.20000         1.293557    
   30.25000         1.307208    
   30.30000         1.320976    
   30.35000         1.334900    
   30.40000         1.349026    
   30.45000         1.363388    
   30.50000         1.377996    
   30.55000         1.392832    
   30.60000         1.407851    
   30.65000         1.422994    
   30.70000         1.438203    
   30.75000         1.453447    
   30.80000         1.468726    
   30.85000         1.484080    
   30.90000         1.499574    
   30.95000         1.515287    
   31.00000         1.531288    
   31.05000         1.547618    
   31.10000         1.564284    
   31.15000         1.581258    
   31.20000         1.598489    
   31.25000         1.615920    
   31.30000         1.633506    
   31.35000         1.651223    
   31.40000         1.669075    
   31.45000         1.687092    
   31.50000         1.705318    
   31.55000         1.723803    
   31.60000         1.742587    
   31.65000         1.761701    
   31.70000         1.781158    
   31.75000         1.800955    
   31.80000         1.821080    
   31.85000         1.841514    
   31.90000         1.862236    
   31.95000         1.883231    
   32.00000         1.904490    
   32.05000         1.926014    
   32.10000         1.947816    
   32.15000         1.969921    
   32.20000         1.992358    
   32.25000         2.015160    
   32.30000         2.038348    
   32.35000         2.061931    
   32.40000         2.085903    
   32.45000         2.110244    
   32.50000         2.134930    
   32.55000         2.159943    
   32.60000         2.185285    
   32.65000         2.210977    
   32.70000         2.237062    
   32.75000         2.263589    
   32.80000         2.290599    
   32.85000         2.318106    
   32.90000         2.346095    
   32.95000         2.374516    
   33.00000         2.403299    
   33.05000         2.432379    
   33.10000         2.461711    
   33.15000         2.491293    
   33.20000         2.521167    
   33.25000         2.551407    
   33.30000         2.582099    
   33.35000         2.613315    
   33.40000         2.645089    
   33.45000         2.677410    
   33.50000         2.710223    
   33.55000         2.743448    
   33.60000         2.777006    
   33.65000         2.810840    
   33.70000         2.844930    
   33.75000         2.879289    
   33.80000         2.913955    
   33.85000         2.948966    
   33.90000         2.984341    
   33.95000         3.020069    
   34.00000         3.056111    
   34.05000         3.092412    
   34.10000         3.128919    
   34.15000         3.165600    
   34.20000         3.202456    
   34.25000         3.239516    
   34.30000         3.276823    
   34.35000         3.314416    
   34.40000         3.352308    
   34.45000         3.390471    
   34.50000         3.428843    
   34.55000         3.467329    
   34.60000         3.505831    
   34.65000         3.544259    
   34.70000         3.582553    
   34.75000         3.620681    
   34.80000         3.658641    
   34.85000         3.696443    
   34.90000         3.734098    
   34.95000         3.771609    
   35.00000         3.808961    
   35.05000         3.846125    
   35.10000         3.883067    
   35.15000         3.919747    
   35.20000         3.956131    
   35.25000         3.992181    
   35.30000         4.027858    
   35.35000         4.063113    
   35.40000         4.097885    