  -10.00000        1.0000000E-24
  -9.950000        1.0000000E-24
  -9.900000        1.0000000E-24
  -9.850000        1.0000000E-24
  -9.800000        1.0000000E-24
  -9.750000        1.0000001E-24
  -9.700000        1.0000001E-24
  -9.650000        1.0000001E-24
  -9.600000        1.0000001E-24
  -9.550000        1.0000046E-24
  -9.500000        1.0000526E-24
  -9.450000        1.0003814E-24
  -9.400000        1.0024924E-24
  -9.350000        1.0148295E-24
  -9.300000        1.0737642E-24
  -9.250000        1.2956888E-24
  -9.200000        1.9527914E-24
  -9.150000        3.4743706E-24
  -9.100000        6.1432101E-24
  -9.050000        9.3272358E-24
  -9.000000        1.0879151E-23
  -8.950000        9.1874062E-24
  -8.900000        1.2118712E-23
  -8.850000        5.4553815E-23
  -8.800000        2.1273774E-22
  -8.750000        5.7662895E-22
  -8.700000        1.1159378E-21
  -8.650000        1.3977300E-21
  -8.600000        2.5262222E-22
  -8.550000       -4.2209762E-21
  -8.500000       -1.3587162E-20
  -8.450000       -2.6190104E-20
  -8.400000       -3.2604002E-20
  -8.350000       -1.1848731E-20
  -8.300000        6.5866990E-20
  -8.250000        2.2179207E-19
  -8.200000        4.3125826E-19
  -8.150000        5.7304472E-19
  -8.100000        3.9517334E-19
  -8.050000       -4.4682637E-19
  -8.000000       -2.2131745E-18
  -7.950000       -4.7343575E-18
  -7.900000       -6.9724692E-18
  -7.850000       -6.7340517E-18
  -7.800000       -9.4542205E-19
  -7.750000        1.3069504E-17
  -7.700000        3.5144373E-17
  -7.650000        5.9178877E-17
  -7.600000        7.0919706E-17
  -7.550000        4.9034314E-17
  -7.500000       -2.8017239E-17
  -7.450000       -1.6833231E-16
  -7.400000       -3.4868164E-16
  -7.350000       -4.9985262E-16
  -7.300000       -5.0698776E-16
  -7.250000       -2.3719726E-16
  -7.200000        3.9980778E-16
  -7.150000        1.3672168E-15
  -7.100000        2.4223963E-15
  -7.050000        3.0916292E-15
  -7.000000        2.7495522E-15
  -6.950000        8.3201008E-16
  -6.900000       -2.8416350E-15
  -6.850000       -7.7331643E-15
  -6.800000       -1.2398249E-14
  -6.750000       -1.4625874E-14
  -6.700000       -1.2017659E-14
  -6.650000       -2.9616672E-15
  -6.600000        1.2261956E-14
  -6.550000        3.0697836E-14
  -6.500000        4.6762497E-14
  -6.450000        5.3450930E-14
  -6.400000        4.4607699E-14
  -6.350000        1.7611958E-14
  -6.300000       -2.4621349E-14
  -6.250000       -7.3468826E-14
  -6.200000       -1.1684241E-13
  -6.150000       -1.4332340E-13
  -6.100000       -1.4638307E-13
  -6.050000       -1.2613515E-13
  -6.000000       -8.6570562E-14
  -5.950000       -2.8348695E-14
  -5.900000        5.9466497E-14
  -5.850000        2.0223230E-13
  -5.800000        4.2982648E-13
  -5.750000        7.5021369E-13
  -5.700000        1.1110530E-12
  -5.650000        1.3653281E-12
  -5.600000        1.2666724E-12
  -5.550000        5.2137586E-13
  -5.500000       -1.0890195E-12
  -5.450000       -3.5299400E-12
  -5.400000       -6.3360489E-12
  -5.350000       -8.5247365E-12
  -5.300000       -8.7035761E-12
  -5.250000       -5.4420296E-12
  -5.200000        2.1073249E-12
  -5.150000        1.3478212E-11
  -5.100000        2.6319091E-11
  -5.050000        3.6322077E-11
  -5.000000        3.7950799E-11
  -4.950000        2.6068850E-11
  -4.900000       -1.7670959E-12
  -4.850000       -4.2981705E-11
  -4.800000       -8.8566661E-11
  -4.750000       -1.2357651E-10
  -4.700000       -1.3019777E-10
  -4.650000       -9.3300437E-11
  -4.600000       -7.3451956E-12
  -4.550000        1.1748680E-10
  -4.500000        2.5263405E-10
  -4.450000        3.5436781E-10
  -4.400000        3.7393352E-10
  -4.350000        2.7340999E-10
  -4.300000        4.3444078E-11
  -4.250000       -2.8307964E-10
  -4.200000       -6.2793792E-10
  -4.150000       -8.7982438E-10
  -4.100000       -9.2263946E-10
  -4.050000       -6.7477723E-10
  -4.000000       -1.2868467E-10
  -3.950000        6.2351435E-10
  -3.900000        1.3918379E-09
  -3.850000        1.9253119E-09
  -3.800000        1.9810251E-09
  -3.750000        1.4100522E-09
  -3.700000        2.3449048E-10
  -3.650000       -1.3141227E-09
  -3.600000       -2.8190241E-09
  -3.550000       -3.7731138E-09
  -3.500000       -3.7294581E-09
  -3.450000       -2.4686613E-09
  -3.400000       -1.2857790E-10
  -3.350000        2.7583467E-09
  -3.300000        5.3553855E-09
  -3.250000        6.7380328E-09
  -3.200000        6.1902430E-09
  -3.150000        3.4949943E-09
  -3.100000       -8.8369922E-10
  -3.050000       -5.8149445E-09
  -3.000000       -9.7490691E-09
  -2.950000       -1.1163114E-08
  -2.900000       -9.0896988E-09
  -2.850000       -3.5617458E-09
  -2.800000        4.1997867E-09
  -2.750000        1.1973031E-08
  -2.700000        1.7106965E-08
  -2.650000        1.7353972E-08
  -2.600000        1.1723108E-08
  -2.550000        1.0594446E-09
  -2.500000       -1.1905396E-08
  -2.450000       -2.3149273E-08
  -2.400000       -2.8514378E-08
  -2.350000       -2.5120231E-08
  -2.300000       -1.2587796E-08
  -2.250000        6.3874697E-09
  -2.200000        2.6430268E-08
  -2.150000        4.0880767E-08
  -2.100000        4.3877503E-08
  -2.050000        3.2518482E-08
  -2.000000        8.3582092E-09
  -1.950000       -2.2395199E-08
  -1.900000       -5.0269488E-08
  -1.850000       -6.5281661E-08
  -1.800000       -6.0316069E-08
  -1.750000       -3.4046977E-08
  -1.700000        7.6910176E-09
  -1.650000        5.2813167E-08
  -1.600000        8.6219387E-08
  -1.550000        9.4587456E-08
  -1.500000        7.1289882E-08
  -1.450000        1.9730564E-08
  -1.400000       -4.6312831E-08
  -1.350000       -1.0592243E-07
  -1.300000       -1.3726498E-07
  -1.250000       -1.2508347E-07
  -1.200000       -6.7024814E-08
  -1.150000        2.3587369E-08
  -1.100000        1.2003909E-07
  -1.050000        1.8952930E-07
  -1.000000        2.0368650E-07
 -0.9500000        1.4910560E-07
 -0.9000000        3.4236539E-08
 -0.8500000       -1.1030676E-07
 -0.8000000       -2.3908112E-07
 -0.7500000       -3.0535185E-07
 -0.7000000       -2.7703237E-07
 -0.6500000       -1.4985405E-07
 -0.6000000        4.7174048E-08
 -0.5500000        2.5697824E-07
 -0.5000000        4.0999660E-07
 -0.4500000        4.4619460E-07
 -0.4000000        3.3685095E-07
 -0.3500000        9.8625229E-08
 -0.3000000       -2.0593247E-07
 -0.2500000       -4.8340115E-07
 -0.2000000       -6.3696291E-07
 -0.1500000       -5.9861321E-07
 -0.1000000       -3.5579362E-07
 -5.0000001E-02    3.7276116E-08
  0.0000000E+00    4.6931504E-07
  5.0000001E-02    8.0207576E-07
  0.1000000        9.1317810E-07
  0.1500000        7.3882285E-07
  0.2000000        3.0203344E-07
  0.2500000       -2.8474150E-07
  0.3000000       -8.4652402E-07
  0.3500000       -1.1965979E-06
  0.4000000       -1.1969605E-06
  0.4500000       -8.0936377E-07
  0.5000000       -1.1891394E-07
  0.5500000        6.8062320E-07
  0.6000000        1.3390683E-06
  0.6500000        1.6263035E-06
  0.7000000        1.4101864E-06
  0.7500000        7.1025607E-07
  0.8000000       -2.9303581E-07
  0.8500000       -1.3011606E-06
  0.9000000       -1.9835493E-06
  0.9500000       -2.0827877E-06
   1.000000       -1.5062359E-06
   1.050000       -3.7263646E-07
   1.100000        1.0059358E-06
   1.150000        2.2070060E-06
   1.200000        2.8244469E-06
   1.250000        2.6016555E-06
   1.300000        1.5282593E-06
   1.350000       -1.3444345E-07
   1.400000       -1.9138433E-06
   1.450000       -3.2599294E-06
   1.500000       -3.7154132E-06
   1.550000       -3.0697631E-06
   1.600000       -1.4457694E-06
   1.650000        7.1490416E-07
   1.700000        2.7704223E-06
   1.750000        4.0711675E-06
   1.800000        4.1687622E-06
   1.850000        2.9747523E-06
   1.900000        8.1331154E-07
   1.950000       -1.6572478E-06
   2.000000       -3.6382423E-06
   2.050000       -4.4446524E-06
   2.100000       -3.7403540E-06
   2.150000       -1.6755366E-06
   2.200000        1.1266709E-06
   2.250000        3.7418217E-06
   2.300000        5.2299461E-06
   2.350000        4.9503433E-06
   2.400000        2.8037832E-06
   2.450000       -6.8382536E-07
   2.500000       -4.4772091E-06
   2.550000       -7.3258634E-06
   2.600000       -8.1554581E-06
   2.650000       -6.4370756E-06
   2.700000       -2.4123608E-06
   2.750000        2.9104740E-06
   2.800000        8.0075924E-06
   2.850000        1.1277072E-05
   2.900000        1.1538102E-05
   2.950000        8.4375633E-06
   3.000000        2.6278133E-06
   3.050000       -4.3577411E-06
   3.100000       -1.0513965E-05
   3.150000       -1.3949518E-05
   3.200000       -1.3476874E-05
   3.250000       -9.0224785E-06
   3.300000       -1.7174773E-06
   3.350000        6.3788143E-06
   3.400000        1.2858177E-05
   3.450000        1.5682474E-05
   3.500000        1.3826514E-05
   3.550000        7.6412070E-06
   3.600000       -1.1897031E-06
   3.650000       -1.0105375E-05
   3.700000       -1.6413571E-05
   3.750000       -1.8107636E-05
   3.800000       -1.4504129E-05
   3.850000       -6.4959404E-06
   3.900000        3.6722176E-06
   3.950000        1.3053017E-05
   4.000000        1.8882287E-05
   4.050000        1.9431858E-05
   4.100000        1.4561023E-05
   4.150000        5.7840225E-06
   4.200000       -4.1817907E-06
   4.250000       -1.2258740E-05
   4.300000       -1.5985313E-05
   4.350000       -1.4317817E-05
   4.400000       -7.9941010E-06
   4.450000        6.7225204E-07
   4.500000        8.5203446E-06
   4.550000        1.2575981E-05
   4.600000        1.1067343E-05
   4.650000        4.0917885E-06
   4.700000       -6.2979534E-06
   4.750000       -1.6642498E-05
   4.800000       -2.3112862E-05
   4.850000       -2.2727432E-05
   4.900000       -1.4371574E-05
   4.950000        7.0860665E-07
   5.000000        1.9112182E-05
   5.050000        3.6148373E-05
   5.100000        4.7112888E-05
   5.150000        4.8594175E-05
   5.200000        3.9412440E-05
   5.250000        2.0904246E-05
   5.300000       -3.5322412E-06
   5.350000       -2.9484640E-05
   5.400000       -5.2833373E-05
   5.450000       -7.0905429E-05
   5.500000       -8.3115548E-05
   5.550000       -9.0906520E-05
   5.600000       -9.7033451E-05
   5.650000       -1.0445504E-04
   5.700000       -1.1522470E-04
   5.750000       -1.2977068E-04
   5.800000       -1.4681648E-04
   5.850000       -1.6396581E-04
   5.900000       -1.7873655E-04
   5.950000       -1.8966119E-04
   6.000000       -1.9703490E-04
   6.050000       -2.0300827E-04
   6.100000       -2.1095206E-04
   6.150000       -2.2429059E-04
   6.200000       -2.4521351E-04
   6.250000       -2.7375316E-04
   6.300000       -3.0761922E-04
   6.350000       -3.4293628E-04
   6.400000       -3.7570950E-04
   6.450000       -4.0355750E-04
   6.500000       -4.2710430E-04
   6.550000       -4.5047494E-04
   6.600000       -4.8059679E-04
   6.650000       -5.2539195E-04
   6.700000       -5.9134222E-04
   6.750000       -6.8117661E-04
   6.800000       -7.9247326E-04
   6.850000       -9.1775041E-04
   6.900000       -1.0461890E-03
   6.950000       -1.1666147E-03
   7.000000       -1.2709289E-03
   7.050000       -1.3569619E-03
   7.100000       -1.4298211E-03
   7.150000       -1.5012034E-03
   7.200000       -1.5867403E-03
   7.250000       -1.7020523E-03
   7.300000       -1.8586310E-03
   7.350000       -2.0607805E-03
   7.400000       -2.3045859E-03
   7.450000       -2.5793076E-03
   7.500000       -2.8708640E-03
   7.550000       -3.1664227E-03
   7.600000       -3.4587351E-03
   7.650000       -3.7488865E-03
   7.700000       -4.0465724E-03
   7.750000       -4.3677506E-03
   7.800000       -4.7303159E-03
   7.850000       -5.1490827E-03
   7.900000       -5.6315986E-03
   7.950000       -6.1761113E-03
   8.000000       -6.7723757E-03
   8.050000       -7.4051339E-03
   8.100000       -8.0592828E-03
   8.150000       -8.7251998E-03
   8.200000       -9.4026271E-03
   8.250000       -1.0101928E-02
   8.300000       -1.0842316E-02
   8.350000       -1.1647565E-02
   8.400000       -1.2540504E-02
   8.450000       -1.3537959E-02
   8.500000       -1.4647656E-02
   8.550000       -1.5868030E-02
   8.600000       -1.7190931E-02
   8.650000       -1.8606354E-02
   8.700000       -2.0107633E-02
   8.750000       -2.1695463E-02
   8.800000       -2.3379397E-02
   8.850000       -2.5176343E-02
   8.900000       -2.7106537E-02
   8.950000       -2.9188285E-02
   9.000000       -3.1433214E-02
   9.050000       -3.3843648E-02
   9.100000       -3.6413133E-02
   9.150000       -3.9130017E-02
   9.200000       -4.1983251E-02
   9.250000       -4.4968516E-02
   9.300000       -4.8092969E-02
   9.350000       -5.1376913E-02
   9.400000       -5.4851890E-02
   9.450000       -5.8555569E-02
   9.500000       -6.2524833E-02
   9.550000       -6.6789128E-02
   9.600000       -7.1365960E-02
   9.650000       -7.6259844E-02
   9.700000       -8.1465118E-02
   9.750000       -8.6971633E-02
   9.800000       -9.2771828E-02
   9.850000       -9.8866902E-02
   9.900000       -0.1052705    
   9.950000       -0.1120089    
   10.00000       -0.1191171    
   10.05000       -0.1266330    
   10.10000       -0.1345907    
   10.15000       -0.1430150    
   10.20000       -0.1519183    
   10.25000       -0.1613016    
   10.30000       -0.1711585    
   10.35000       -0.1814811    
   10.40000       -0.1922661    
   10.45000       -0.2035201    
   10.50000       -0.2152620    
   10.55000       -0.2275228    
   10.60000       -0.2403422    
   10.65000       -0.2537643    
   10.70000       -0.2678324    
   10.75000       -0.2825845    
   10.80000       -0.2980509    
   10.85000       -0.3142530    
   10.90000       -0.3312043    
   10.95000       -0.3489126    
   11.00000       -0.3673825    
   11.05000       -0.3866184    
   11.10000       -0.4066274    
   11.15000       -0.4274211    
   11.20000       -0.4490167    
   11.25000       -0.4714380    
   11.30000       -0.4947133    
   11.35000       -0.5188743    
   11.40000       -0.5439520    
   11.45000       -0.5699735    
   11.50000       -0.5969580    
   11.55000       -0.6249152    
   11.60000       -0.6538441    
   11.65000       -0.6837364    
   11.70000       -0.7145808    
   11.75000       -0.7463687    
   11.80000       -0.7791007    
   11.85000       -0.8127903    
   11.90000       -0.8474646    
   11.95000       -0.8831619    
   12.00000       -0.9199243    
   12.05000       -0.9577901    
   12.10000       -0.9967851    
   12.15000        -1.036917    
   12.20000        -1.078174    
   12.25000        -1.120528    
   12.30000        -1.163942    
   12.35000        -1.208378    
   12.40000        -1.253809    
   12.45000        -1.300221    
   12.50000        -1.347615    
   12.55000        -1.396003    
   12.60000        -1.445402    
   12.65000        -1.495821    
   12.70000        -1.547254    
   12.75000        -1.599679    
   12.80000        -1.653056    
   12.85000        -1.707333    
   12.90000        -1.762457    
   12.95000        -1.818381    
   13.00000        -1.875071    
   13.05000        -1.932509    
   13.10000        -1.990689    
   13.15000        -2.049607    
   13.20000        -2.109255    
   13.25000        -2.169612    
   13.30000        -2.230636    
   13.35000        -2.292268    
   13.40000        -2.354433    
   13.45000        -2.417054    
   13.50000        -2.480060    
   13.55000        -2.543390    
   13.60000        -2.606996    
   13.65000        -2.670843    
   13.70000        -2.734898    
   13.75000        -2.799123    
   13.80000        -2.863465    
   13.85000        -2.927857    
   13.90000        -2.992217    
   13.95000        -3.056456    
   14.00000        -3.120492    
   14.05000        -3.184251    
   14.10000        -3.247683    
   14.15000        -3.310752    
   14.20000        -3.373433    
   14.25000        -3.435698    
   14.30000        -3.497507    
   14.35000        -3.558794    
   14.40000        -3.619468    
   14.45000        -3.679422    
   14.50000        -3.738536    
   14.55000        -3.796703    
   14.60000        -3.853834    
   14.65000        -3.909872    
   14.70000        -3.964791    
   14.75000        -4.018579    
   14.80000        -4.071234    
   14.85000        -4.122736    
   14.90000        -4.173038    
   14.95000        -4.222065    
   15.00000        -4.269712    
   15.05000        -4.315863    
   15.10000        -4.360405    
   15.15000        -4.403254    
   15.20000        -4.444356    
   15.25000        -4.483701    
   15.30000        -4.521307    
   15.35000        -4.557211    
   15.40000        -4.591443    
   15.45000        -4.624013    
   15.50000        -4.654901    
   15.55000        -4.684052    
   15.60000        -4.711383    
   15.65000        -4.736806    
   15.70000        -4.760237    
   15.75000        -4.781612    
   15.80000        -4.800905    
   15.85000        -4.818119    
   15.90000        -4.833286    
   15.95000        -4.846455    
   16.00000        -4.857673    
   16.05000        -4.866982    
   16.10000        -4.874401    
   16.15000        -4.879933    
   16.20000        -4.883566    
   16.25000        -4.885283    
   16.30000        -4.885068    
   16.35000        -4.882923    
   16.40000        -4.878862    
   16.45000        -4.872917    
   16.50000        -4.865128    
   16.55000        -4.855542    
   16.60000        -4.844199    
   16.65000        -4.831134    
   16.70000        -4.816375    
   16.75000        -4.799948    
   16.80000        -4.781882    
   16.85000        -4.762220    
   16.90000        -4.741022    
   16.95000        -4.718359    
   17.00000        -4.694315    
   17.05000        -4.668974    
   17.10000        -4.642405    
   17.15000        -4.614658    
   17.20000        -4.585762    
   17.25000        -4.555725    
   17.30000        -4.524549    
   17.35000        -4.492242    
   17.40000        -4.458826    
   17.45000        -4.424352    
   17.50000        -4.388896    
   17.55000        -4.352553    
   17.60000        -4.315429    
   17.65000        -4.277627    
   17.70000        -4.239237    
   17.75000        -4.200336    
   17.80000        -4.160985    
   17.85000        -4.121238    
   17.90000        -4.081144    
   17.95000        -4.040754    
   18.00000        -4.000114    
   18.05000        -3.959265    
   18.10000        -3.918236    
   18.15000        -3.877042    
   18.20000        -3.835691    
   18.25000        -3.794184    
   18.30000        -3.752537    
   18.35000        -3.710783    
   18.40000        -3.668988    
   18.45000        -3.627238    
   18.50000        -3.585637    
   18.55000        -3.544286    
   18.60000        -3.503268    
   18.65000        -3.462635    
   18.70000        -3.422411    
   18.75000        -3.382598    
   18.80000        -3.343189    
   18.85000        -3.304187    
   18.90000        -3.265607    
   18.95000        -3.227485    
   19.00000        -3.189857    
   19.05000        -3.152750    
   19.10000        -3.116170    
   19.15000        -3.080099    
   19.20000        -3.044502    
   19.25000        -3.009346    
   19.30000        -2.974621    
   19.35000        -2.940354    
   19.40000        -2.906614    
   19.45000        -2.873497    
   19.50000        -2.841101    
   19.55000        -2.809499    
   19.60000        -2.778714    
   19.65000        -2.748722    
   19.70000        -2.719454    
   19.75000        -2.690828    
   19.80000        -2.662776    
   19.85000        -2.635269    
   19.90000        -2.608319    
   19.95000        -2.581971    
   20.00000        -2.556273    
   20.05000        -2.531255    
   20.10000        -2.506902    
   20.15000        -2.483163    
   20.20000        -2.459966    
   20.25000        -2.437250    
   20.30000        -2.414994    
   20.35000        -2.393236    
   20.40000        -2.372058    
   20.45000        -2.351568    
   20.50000        -2.331849    
   20.55000        -2.312930    
   20.60000        -2.294767    
   20.65000        -2.277252    
   20.70000        -2.260242    
   20.75000        -2.243613    
   20.80000        -2.227292    
   20.85000        -2.211284    
   20.90000        -2.195659    
   20.95000        -2.180517    
   21.00000        -2.165945    
   21.05000        -2.151977    
   21.10000        -2.138579    
   21.15000        -2.125664    
   21.20000        -2.113130    
   21.25000        -2.100909    
   21.30000        -2.089000    
   21.35000        -2.077475    
   21.40000        -2.066451    
   21.45000        -2.056045    
   21.50000        -2.046319    
   21.55000        -2.037243    
   21.60000        -2.028699    
   21.65000        -2.020514    
   21.70000        -2.012526    
   21.75000        -2.004643    
   21.80000        -1.996883    
   21.85000        -1.989372    
   21.90000        -1.982302    
   21.95000        -1.975865    
   22.00000        -1.970183    
   22.05000        -1.965269    
   22.10000        -1.961030    
   22.15000        -1.957312    
   22.20000        -1.953968    
   22.25000        -1.950924    
   22.30000        -1.948216    
   22.35000        -1.945976    
   22.40000        -1.944382    
   22.45000        -1.943591    
   22.50000        -1.943672    
   22.55000        -1.944582    
   22.60000        -1.946192    
   22.65000        -1.948350    
   22.70000        -1.950955    
   22.75000        -1.954025    
   22.80000        -1.957711    
   22.85000        -1.962261    
   22.90000        -1.967948    
   22.95000        -1.974977    
   23.00000        -1.983426    
   23.05000        -1.993227    
   23.10000        -2.004216    
   23.15000        -2.016208    
   23.20000        -2.029098    
   23.25000        -2.042917    
   23.30000        -2.057845    
   23.35000        -2.074160    
   23.40000        -2.092147    
   23.45000        -2.112011    
   23.50000        -2.133821    
   23.55000        -2.157508    
   23.60000        -2.182934    
   23.65000        -2.209980    
   23.70000        -2.238639    
   23.75000        -2.269063    
   23.80000        -2.301542    
   23.85000        -2.336431    
   23.90000        -2.374046    
   23.95000        -2.414570    
   24.00000        -2.458014    
   24.05000        -2.504247    
   24.10000        -2.553082    
   24.15000        -2.604394    
   24.20000        -2.658206    
   24.25000        -2.714734    
   24.30000        -2.774338    
   24.35000        -2.837434    
   24.40000        -2.904370    
   24.45000        -2.975339    
   24.50000        -3.050347    
   24.55000        -3.129263    
   24.60000        -3.211923    
   24.65000        -3.298246    
   24.70000        -3.388322    
   24.75000        -3.482422    
   24.80000        -3.580947    
   24.85000        -3.684309    
   24.90000        -3.792819    
   24.95000        -3.906605    
   25.00000        -4.025608    
   25.05000        -4.149652    
   25.10000        -4.278561    
   25.15000        -4.412272    
   25.20000        -4.550906    
   25.25000        -4.694755    
   25.30000        -4.844211    
   25.35000        -4.999637    
   25.40000        -5.161267    
   25.45000        -5.329143    
   25.50000        -5.503141    
   25.55000        -5.683057    
   25.60000        -5.868731    
   25.65000        -6.060143    
   25.70000        -6.257459    
   25.75000        -6.460985    
   25.80000        -6.671067    
   25.85000        -6.887969    
   25.90000        -7.111774    
   25.95000        -7.342360    
   26.00000        -7.579447    
   26.05000        -7.822714    
   26.10000        -8.071920    
   26.15000        -8.326997    
   26.20000        -8.588055    
   26.25000        -8.855330    
   26.30000        -9.129063    
   26.35000        -9.409383    
   26.40000        -9.696227    
   26.45000        -9.989344    
   26.50000        -10.28837    
   26.55000        -10.59292    
   26.60000        -10.90276    
   26.65000        -11.21778    
   26.70000        -11.53805    
   26.75000        -11.86370    
   26.80000        -12.19480    
   26.85000        -12.53127    
   26.90000        -12.87280    
   26.95000        -13.21893    
   27.00000        -13.56909    
   27.05000        -13.92278    
   27.10000        -14.27961    
   27.15000        -14.63939    
   27.20000        -15.00207    
   27.25000        -15.36763    
   27.30000        -15.73602    
   27.35000        -16.10702    
   27.40000        -16.48024    
   27.45000        -16.85518    
   27.50000        -17.23129    
   27.55000        -17.60810    
   27.60000        -17.98523    
   27.65000        -18.36246    
   27.70000        -18.73959    
   27.75000        -19.11640    
   27.80000        -19.49255    
   27.85000        -19.86755    
   27.90000        -20.24079    
   27.95000        -20.61163    
   28.00000        -20.97947    
   28.05000        -21.34388    
   28.10000        -21.70457    
   28.15000        -22.06138    
   28.20000        -22.41417    
   28.25000        -22.76275    
   28.30000        -23.10676    
   28.35000        -23.44570    
   28.40000        -23.77896    
   28.45000        -24.10594    
   28.50000        -24.42611    
   28.55000        -24.73910    
   28.60000        -25.04465    
   28.65000        -25.34260    
   28.70000        -25.63277    
   28.75000        -25.91490    
   28.80000        -26.18860    
   28.85000        -26.45338    
   28.90000        -26.70874    
   28.95000        -26.95422    
   29.00000        -27.18952    
   29.05000        -27.41446    
   29.10000        -27.62897    
   29.15000        -27.83303    
   29.20000        -28.02654    
   29.25000        -28.20930    
   29.30000        -28.38104    
   29.35000        -28.54142    
   29.40000        -28.69017    
   29.45000        -28.82710    
   29.50000        -28.95218    
   29.55000        -29.06548    
   29.60000        -29.16708    
   29.65000        -29.25702    
   29.70000        -29.33525    
   29.75000        -29.40160    
   29.80000        -29.45584    
   29.85000        -29.49781    
   29.90000        -29.52744    
   29.95000        -29.54486    
   30.00000        -29.55033    
   30.05000        -29.54422    
   30.10000        -29.52686    
   30.15000        -29.49847    
   30.20000        -29.45914    
   30.25000        -29.40884    
   30.30000        -29.34755    
   30.35000        -29.27530    
   30.40000        -29.19228    
   30.45000        -29.09883    
   30.50000        -28.99541    
   30.55000        -28.88243    
   30.60000        -28.76026    
   30.65000        -28.62906    
   30.70000        -28.48890    
   30.75000        -28.33976    
   30.80000        -28.18174    
   30.85000        -28.01506    
   30.90000        -27.84021    
   30.95000        -27.65782    
   31.00000        -27.46859    
   31.05000        -27.27315    
   31.10000        -27.07195    
   31.15000        -26.86521    
   31.20000        -26.65299    
   31.25000        -26.43531    
   31.30000        -26.21229    
   31.35000        -25.98421    
   31.40000        -25.75156    
   31.45000        -25.51497    
   31.50000        -25.27504    
   31.55000        -25.03226    
   31.60000        -24.78688    
   31.65000        -24.53900    
   31.70000        -24.28859    
   31.75000        -24.03572    
   31.80000        -23.78063    
   31.85000        -23.52381    
   31.90000        -23.26593    
   31.95000        -23.00776    
   32.00000        -22.74994    
   32.05000        -22.49289    
   32.10000        -22.23672    
   32.15000        -21.98133    
   32.20000        -21.72654    
   32.25000        -21.47224    
   32.30000        -21.21857    
   32.35000        -20.96590    
   32.40000        -20.71479    
   32.45000        -20.46583    
   32.50000        -20.21943    
   32.55000        -19.97579    
   32.60000        -19.73482    
   32.65000        -19.49631    
   32.70000        -19.26006    
   32.75000        -19.02607    
   32.80000        -18.79462    
   32.85000        -18.56624    
   32.90000        -18.34156    
   32.95000        -18.12114    
   33.00000        -17.90525    
   33.05000        -17.69383    
   33.10000        -17.48650    
   33.15000        -17.28276    
   33.20000        -17.08219    
   33.25000        -16.88462    
   33.30000        -16.69022    
   33.35000        -16.49941    
   33.40000        -16.31276    
   33.45000        -16.13070    
   33.50000        -15.95341    
   33.55000        -15.78075    
   33.60000        -15.61232    
   33.65000        -15.44763    
   33.70000        -15.28634    
   33.75000        -15.12836    
   33.80000        -14.97389    
   33.85000        -14.82334    
   33.90000        -14.67714    
   33.95000        -14.53555    
   34.00000        -14.39852    
   34.05000        -14.26569    
   34.10000        -14.13652    
   34.15000        -14.01047    
   34.20000        -13.88720    
   34.25000        -13.76666    
   34.30000        -13.64913    
   34.35000        -13.53501    
   34.40000        -13.42472    
   34.45000        -13.31844    
   34.50000        -13.21604    
   34.55000        -13.11713    
   34.60000        -13.02115    
   34.65000        -12.92760    
   34.70000        -12.83619    
   34.75000        -12.74691    
   34.80000        -12.65999    
   34.85000        -12.57579    
   34.90000        -12.49458    
   34.95000        -12.41643    
   35.00000        -12.34117    
   35.05000        -12.26840    
   35.10000        -12.19770    
   35.15000        -12.12873    
   35.20000        -12.06137    
   35.25000        -11.99572    
   35.30000        -11.93203    
   35.35000        -11.87056    
   35.40000        -11.81142    