  -4.00000000       0.00000000    
  -3.99900007       0.00000000    
  -3.99799991       0.00000000    
  -3.99699998       0.00000000    
  -3.99600005       5.55851670E-26
  -3.99499989       5.00426241E-25
  -3.99399996       2.50278231E-24
  -3.99300003       9.17871612E-24
  -3.99200010       2.75400714E-23
  -3.99099994       7.16101676E-23
  -3.99000001       1.67094447E-22
  -3.98900008       3.58047127E-22
  -3.98799992       7.16027208E-22
  -3.98699999       1.35228955E-21
  -3.98600006       2.43360656E-21
  -3.98499990       4.20236549E-21
  -3.98399997       7.00163475E-21
  -3.98300004       1.13059402E-20
  -3.98200011       1.77585305E-20
  -3.98099995       2.72159579E-20
  -3.98000002       4.08008550E-20
  -3.97900009       5.99637960E-20
  -3.97799993       8.65551776E-20
  -3.97700000       1.22908144E-19
  -3.97600007       1.71933484E-19
  -3.97499990       2.37227645E-19
  -3.97399998       3.23194742E-19
  -3.97300005       4.35183960E-19
  -3.97199988       5.79643092E-19
  -3.97099996       7.64289554E-19
  -3.97000003       9.98300086E-19
  -3.96900010       1.29251996E-18
  -3.96799994       1.65969313E-18
  -3.96700001       2.11471515E-18
  -3.96600008       2.67490730E-18
  -3.96499991       3.36031825E-18
  -3.96399999       4.19404766E-18
  -3.96300006       5.20259920E-18
  -3.96199989       6.41626051E-18
  -3.96099997       7.86951180E-18
  -3.96000004       9.60146339E-18
  -3.95900011       1.16563289E-17
  -3.95799994       1.40839245E-17
  -3.95700002       1.69402040E-17
  -3.95600009       2.02878288E-17
  -3.95499992       2.41967750E-17
  -3.95400000       2.87449697E-17
  -3.95300007       3.40189707E-17
  -3.95199990       4.01146797E-17
  -3.95099998       4.71381048E-17
  -3.95000005       5.52061333E-17
  -3.94899988       6.44473819E-17
  -3.94799995       7.50030668E-17
  -3.94700003       8.70278972E-17
  -3.94600010       1.00691061E-16
  -3.94499993       1.16177199E-16
  -3.94400001       1.33687448E-16
  -3.94300008       1.53440521E-16
  -3.94199991       1.75673839E-16
  -3.94099998       2.00644662E-16
  -3.94000006       2.28631345E-16
  -3.93899989       2.59934533E-16
  -3.93799996       2.94878480E-16
  -3.93700004       3.33812402E-16
  -3.93600011       3.77111774E-16
  -3.93499994       4.25179835E-16
  -3.93400002       4.78448995E-16
  -3.93300009       5.37382266E-16
  -3.93199992       6.02474948E-16
  -3.93099999       6.74255961E-16
  -3.93000007       7.53289640E-16
  -3.92899990       8.40177327E-16
  -3.92799997       9.35559008E-16
  -3.92700005       1.04011495E-15
  -3.92600012       1.15456763E-15
  -3.92499995       1.27968319E-15
  -3.92400002       1.41627360E-15
  -3.92300010       1.56519809E-15
  -3.92199993       1.72736530E-15
  -3.92100000       1.90373471E-15
  -3.92000008       2.09531917E-15
  -3.91899991       2.30318613E-15
  -3.91799998       2.52845963E-15
  -3.91700006       2.77232295E-15
  -3.91599989       3.03601935E-15
  -3.91499996       3.32085471E-15
  -3.91400003       3.62819998E-15
  -3.91300011       3.95949151E-15
  -3.91199994       4.31623426E-15
  -3.91100001       4.70000329E-15
  -3.91000009       5.11244608E-15
  -3.90899992       5.55528337E-15
  -3.90799999       6.03031215E-15
  -3.90700006       6.53940691E-15
  -3.90599990       7.08452174E-15
  -3.90499997       7.66769206E-15
  -3.90400004       8.29103547E-15
  -3.90300012       8.95675424E-15
  -3.90199995       9.66713790E-15
  -3.90100002       1.04245641E-14
  -3.90000010       1.12314976E-14
  -3.89899993       1.20904966E-14
  -3.89800000       1.30042105E-14
  -3.89700007       1.39753838E-14
  -3.89599991       1.50068556E-14
  -3.89499998       1.61015593E-14
  -3.89400005       1.72625281E-14
  -3.89299989       1.84928909E-14
  -3.89199996       1.97958816E-14
  -3.89100003       2.11748293E-14
  -3.89000010       2.26331676E-14
  -3.88899994       2.41744287E-14
  -3.88800001       2.58022499E-14
  -3.88700008       2.75203715E-14
  -3.88599992       2.93326358E-14
  -3.88499999       3.12429864E-14
  -3.88400006       3.32554757E-14
  -3.88299990       3.53742575E-14
  -3.88199997       3.76035872E-14
  -3.88100004       3.99478255E-14
  -3.88000011       4.24114343E-14
  -3.87899995       4.49989811E-14
  -3.87800002       4.77151244E-14
  -3.87700009       5.05646313E-14
  -3.87599993       5.35523706E-14
  -3.87500000       5.66833059E-14
  -3.87400007       5.99624923E-14
  -3.87299991       6.33950832E-14
  -3.87199998       6.69863335E-14
  -3.87100005       7.07415761E-14
  -3.86999989       7.46662389E-14
  -3.86899996       7.87658377E-14
  -3.86800003       8.30459697E-14
  -3.86700010       8.75123135E-14
  -3.86599994       9.21706220E-14
  -3.86500001       9.70267364E-14
  -3.86400008       1.02086559E-13
  -3.86299992       1.07356066E-13
  -3.86199999       1.12841289E-13
  -3.86100006       1.18548333E-13
  -3.85999990       1.24483350E-13
  -3.85899997       1.30652542E-13
  -3.85800004       1.37062169E-13
  -3.85700011       1.43718533E-13
  -3.85599995       1.50627964E-13
  -3.85500002       1.57796817E-13
  -3.85400009       1.65231503E-13
  -3.85299993       1.72938432E-13
  -3.85200000       1.80924028E-13
  -3.85100007       1.89194743E-13
  -3.84999990       1.97756999E-13
  -3.84899998       2.06617248E-13
  -3.84800005       2.15781914E-13
  -3.84699988       2.25257421E-13
  -3.84599996       2.35050152E-13
  -3.84500003       2.45166436E-13
  -3.84400010       2.55612588E-13
  -3.84299994       2.66394898E-13
  -3.84200001       2.77519544E-13
  -3.84100008       2.88992707E-13
  -3.83999991       3.00820431E-13
  -3.83899999       3.13008706E-13
  -3.83800006       3.25563442E-13
  -3.83699989       3.38490439E-13
  -3.83599997       3.51795389E-13
  -3.83500004       3.65483902E-13
  -3.83400011       3.79561400E-13
  -3.83299994       3.94033222E-13
  -3.83200002       4.08904491E-13
  -3.83100009       4.24180276E-13
  -3.82999992       4.39865402E-13
  -3.82900000       4.55964530E-13
  -3.82800007       4.72482188E-13
  -3.82699990       4.89422630E-13
  -3.82599998       5.06789923E-13
  -3.82500005       5.24587969E-13
  -3.82399988       5.42820400E-13
  -3.82299995       5.61490633E-13
  -3.82200003       5.80601810E-13
  -3.82100010       6.00156806E-13
  -3.81999993       6.20158222E-13
  -3.81900001       6.40608389E-13
  -3.81800008       6.61509421E-13
  -3.81699991       6.82863000E-13
  -3.81599998       7.04670588E-13
  -3.81500006       7.26933271E-13
  -3.81399989       7.49651860E-13
  -3.81299996       7.72826681E-13
  -3.81200004       7.96457843E-13
  -3.81100011       8.20545075E-13
  -3.80999994       8.45087672E-13
  -3.80900002       8.70084549E-13
  -3.80800009       8.95534298E-13
  -3.80699992       9.21435020E-13
  -3.80599999       9.47784277E-13
  -3.80500007       9.74579467E-13
  -3.80399990       1.00181744E-12
  -3.80299997       1.02949452E-12
  -3.80200005       1.05760658E-12
  -3.80100012       1.08614918E-12
  -3.79999995       1.11511733E-12
  -3.79900002       1.14450550E-12
  -3.79800010       1.17430761E-12
  -3.79699993       1.20451728E-12
  -3.79600000       1.23512756E-12
  -3.79500008       1.26613097E-12
  -3.79399991       1.29751938E-12
  -3.79299998       1.32928412E-12
  -3.79200006       1.36141619E-12
  -3.79099989       1.39390604E-12
  -3.78999996       1.42674349E-12
  -3.78900003       1.45991769E-12
  -3.78800011       1.49341737E-12
  -3.78699994       1.52723082E-12
  -3.78600001       1.56134545E-12
  -3.78500009       1.59574849E-12
  -3.78399992       1.63042615E-12
  -3.78299999       1.66536446E-12
  -3.78200006       1.70054866E-12
  -3.78099990       1.73596359E-12
  -3.77999997       1.77159340E-12
  -3.77900004       1.80742162E-12
  -3.77800012       1.84343122E-12
  -3.77699995       1.87960476E-12
  -3.77600002       1.91592402E-12
  -3.77500010       1.95237034E-12
  -3.77399993       1.98892465E-12
  -3.77300000       2.02556678E-12
  -3.77200007       2.06227656E-12
  -3.77099991       2.09903297E-12
  -3.76999998       2.13581453E-12
  -3.76900005       2.17259912E-12
  -3.76799989       2.20936420E-12
  -3.76699996       2.24608700E-12
  -3.76600003       2.28274366E-12
  -3.76500010       2.31931011E-12
  -3.76399994       2.35576164E-12
  -3.76300001       2.39207330E-12
  -3.76200008       2.42821973E-12
  -3.76099992       2.46417470E-12
  -3.75999999       2.49991195E-12
  -3.75900006       2.53540440E-12
  -3.75799990       2.57062470E-12
  -3.75699997       2.60554512E-12
  -3.75600004       2.64013746E-12
  -3.75500011       2.67437331E-12
  -3.75399995       2.70822405E-12
  -3.75300002       2.74166020E-12
  -3.75200009       2.77465247E-12
  -3.75099993       2.80717116E-12
  -3.75000000       2.83918635E-12
  -3.74900007       2.87066746E-12
  -3.74799991       2.90158392E-12
  -3.74699998       2.93190537E-12
  -3.74600005       2.96160058E-12
  -3.74499989       2.99063899E-12
  -3.74399996       3.01898892E-12
  -3.74300003       3.04661938E-12
  -3.74200010       3.07349914E-12
  -3.74099994       3.09959632E-12
  -3.74000001       3.12487991E-12
  -3.73900008       3.14931848E-12
  -3.73799992       3.17288058E-12
  -3.73699999       3.19553520E-12
  -3.73600006       3.21725090E-12
  -3.73499990       3.23799711E-12
  -3.73399997       3.25774260E-12
  -3.73300004       3.27645701E-12
  -3.73200011       3.29410978E-12
  -3.73099995       3.31067096E-12
  -3.73000002       3.32611065E-12
  -3.72900009       3.34039957E-12
  -3.72799993       3.35350866E-12
  -3.72700000       3.36540930E-12
  -3.72600007       3.37607351E-12
  -3.72499990       3.38547333E-12
  -3.72399998       3.39358186E-12
  -3.72300005       3.40037265E-12
  -3.72199988       3.40581990E-12
  -3.72099996       3.40989823E-12
  -3.72000003       3.41258315E-12
  -3.71900010       3.41385080E-12
  -3.71799994       3.41367841E-12
  -3.71700001       3.41204365E-12
  -3.71600008       3.40892549E-12
  -3.71499991       3.40430353E-12
  -3.71399999       3.39815827E-12
  -3.71300006       3.39047128E-12
  -3.71199989       3.38122520E-12
  -3.71099997       3.37040400E-12
  -3.71000004       3.35799227E-12
  -3.70900011       3.34397592E-12
  -3.70799994       3.32834238E-12
  -3.70700002       3.31107993E-12
  -3.70600009       3.29217860E-12
  -3.70499992       3.27162928E-12
  -3.70400000       3.24942460E-12
  -3.70300007       3.22555849E-12
  -3.70199990       3.20002618E-12
  -3.70099998       3.17282463E-12
  -3.70000005       3.14395211E-12
  -3.69899988       3.11340862E-12
  -3.69799995       3.08119611E-12
  -3.69700003       3.04731761E-12
  -3.69600010       3.01177789E-12
  -3.69499993       2.97458390E-12
  -3.69400001       2.93574410E-12
  -3.69300008       2.89526888E-12
  -3.69199991       2.85317039E-12
  -3.69099998       2.80946252E-12
  -3.69000006       2.76416130E-12
  -3.68899989       2.71728451E-12
  -3.68799996       2.66885212E-12
  -3.68700004       2.61888623E-12
  -3.68600011       2.56741048E-12
  -3.68499994       2.51445110E-12
  -3.68400002       2.46003586E-12
  -3.68300009       2.40419512E-12
  -3.68199992       2.34696138E-12
  -3.68099999       2.28836893E-12
  -3.68000007       2.22845483E-12
  -3.67899990       2.16725791E-12
  -3.67799997       2.10481936E-12
  -3.67700005       2.04118254E-12
  -3.67600012       1.97639344E-12
  -3.67499995       1.91049975E-12
  -3.67400002       1.84355200E-12
  -3.67300010       1.77560267E-12
  -3.67199993       1.70670682E-12
  -3.67100000       1.63692161E-12
  -3.67000008       1.56630676E-12
  -3.66899991       1.49492408E-12
  -3.66799998       1.42283798E-12
  -3.66700006       1.35011501E-12
  -3.66599989       1.27682413E-12
  -3.66499996       1.20303669E-12
  -3.66400003       1.12882620E-12
  -3.66300011       1.05426876E-12
  -3.66199994       9.79442547E-13
  -3.66100001       9.04428171E-13
  -3.66000009       8.29308519E-13
  -3.65899992       7.54168646E-13
  -3.65799999       6.79095994E-13
  -3.65700006       6.04180063E-13
  -3.65599990       5.29512740E-13
  -3.65499997       4.55187971E-13
  -3.65400004       3.81301869E-13
  -3.65300012       3.07952719E-13
  -3.65199995       2.35240836E-13
  -3.65100002       1.63268596E-13
  -3.65000010       9.21403863E-14
  -3.64899993       2.19625665E-14
  -3.64800000      -4.71565705E-14
  -3.64700007      -1.15106885E-13
  -3.64599991      -1.81776374E-13
  -3.64499998      -2.47051294E-13
  -3.64400005      -3.10816124E-13
  -3.64299989      -3.72953757E-13
  -3.64199996      -4.33345390E-13
  -3.64100003      -4.91870759E-13
  -3.64000010      -5.48408053E-13
  -3.63899994      -6.02834135E-13
  -3.63800001      -6.55024429E-13
  -3.63700008      -7.04853114E-13
  -3.63599992      -7.52193284E-13
  -3.63499999      -7.96916732E-13
  -3.63400006      -8.38894384E-13
  -3.63299990      -8.77996081E-13
  -3.63199997      -9.14090960E-13
  -3.63100004      -9.47047237E-13
  -3.63000011      -9.76732475E-13
  -3.62899995      -1.00301364E-12
  -3.62800002      -1.02575728E-12
  -3.62700009      -1.04482937E-12
  -3.62599993      -1.06009591E-12
  -3.62500000      -1.07142246E-12
  -3.62400007      -1.07867448E-12
  -3.62299991      -1.08171751E-12
  -3.62199998      -1.08041722E-12
  -3.62100005      -1.07463951E-12
  -3.61999989      -1.06425068E-12
  -3.61899996      -1.04911761E-12
  -3.61800003      -1.02910746E-12
  -3.61700010      -1.00408831E-12
  -3.61599994      -9.73929162E-13
  -3.61500001      -9.38499929E-13
  -3.61400008      -8.97671477E-13
  -3.61299992      -8.51316088E-13
  -3.61199999      -7.99307235E-13
  -3.61100006      -7.41520018E-13
  -3.60999990      -6.77831055E-13
  -3.60899997      -6.08118807E-13
  -3.60800004      -5.32263578E-13
  -3.60700011      -4.50147650E-13
  -3.60599995      -3.61655611E-13
  -3.60500002      -2.66674242E-13
  -3.60400009      -1.65092820E-13
  -3.60299993      -5.68032458E-14
  -3.60200000       5.82998480E-14
  -3.60100007       1.80318935E-13
  -3.59999990       3.09353454E-13
  -3.59899998       4.45499703E-13
  -3.59800005       5.88850583E-13
  -3.59699988       7.39495542E-13
  -3.59599996       8.97520448E-13
  -3.59500003       1.06300721E-12
  -3.59400010       1.23603406E-12
  -3.59299994       1.41667505E-12
  -3.59200001       1.60499999E-12
  -3.59100008       1.80107426E-12
  -3.58999991       2.00495870E-12
  -3.58899999       2.21670967E-12
  -3.58800006       2.43637879E-12
  -3.58699989       2.66401246E-12
  -3.58599997       2.89965187E-12
  -3.58500004       3.14333303E-12
  -3.58400011       3.39508695E-12
  -3.58299994       3.65493876E-12
  -3.58200002       3.92290801E-12
  -3.58100009       4.19900789E-12
  -3.57999992       4.48324624E-12
  -3.57900000       4.77562521E-12
  -3.57800007       5.07613960E-12
  -3.57699990       5.38477856E-12
  -3.57599998       5.70152476E-12
  -3.57500005       6.02635346E-12
  -3.57399988       6.35923389E-12
  -3.57299995       6.70012873E-12
  -3.57200003       7.04899290E-12
  -3.57100010       7.40577391E-12
  -3.56999993       7.77041365E-12
  -3.56900001       8.14284491E-12
  -3.56800008       8.52299308E-12
  -3.56699991       8.91077750E-12
  -3.56599998       9.30610797E-12
  -3.56500006       9.70888821E-12
  -3.56399989       1.01190133E-11
  -3.56299996       1.05363704E-11
  -3.56200004       1.09608381E-11
  -3.56100011       1.13922873E-11
  -3.55999994       1.18305799E-11
  -3.55900002       1.22755712E-11
  -3.55800009       1.27271076E-11
  -3.55699992       1.31850260E-11
  -3.55599999       1.36491547E-11
  -3.55500007       1.41193160E-11
  -3.55399990       1.45953197E-11
  -3.55299997       1.50769727E-11
  -3.55200005       1.55640639E-11
  -3.55100012       1.60563837E-11
  -3.54999995       1.65537063E-11
  -3.54900002       1.70558012E-11
  -3.54800010       1.75624289E-11
  -3.54699993       1.80733380E-11
  -3.54600000       1.85882715E-11
  -3.54500008       1.91069625E-11
  -3.54399991       1.96291334E-11
  -3.54299998       2.01544996E-11
  -3.54200006       2.06827697E-11
  -3.54099989       2.12136385E-11
  -3.53999996       2.17467988E-11
  -3.53900003       2.22819280E-11
  -3.53800011       2.28186983E-11
  -3.53699994       2.33567731E-11
  -3.53600001       2.38958055E-11
  -3.53500009       2.44354415E-11
  -3.53399992       2.49753204E-11
  -3.53299999       2.55150710E-11
  -3.53200006       2.60543132E-11
  -3.53099990       2.65926586E-11
  -3.52999997       2.71297134E-11
  -3.52900004       2.76650751E-11
  -3.52800012       2.81983308E-11
  -3.52699995       2.87290643E-11
  -3.52600002       2.92568469E-11
  -3.52500010       2.97812434E-11
  -3.52399993       3.03018166E-11
  -3.52300000       3.08181154E-11
  -3.52200007       3.13296888E-11
  -3.52099991       3.18360720E-11
  -3.51999998       3.23367930E-11
  -3.51900005       3.28313834E-11
  -3.51799989       3.33193577E-11
  -3.51699996       3.38002265E-11
  -3.51600003       3.42735007E-11
  -3.51500010       3.47386807E-11
  -3.51399994       3.51952634E-11
  -3.51300001       3.56427388E-11
  -3.51200008       3.60805899E-11
  -3.51099992       3.65083033E-11
  -3.50999999       3.69253517E-11
  -3.50900006       3.73312076E-11
  -3.50799990       3.77253437E-11
  -3.50699997       3.81072188E-11
  -3.50600004       3.84763020E-11
  -3.50500011       3.88320452E-11
  -3.50399995       3.91739106E-11
  -3.50300002       3.95013466E-11
  -3.50200009       3.98138085E-11
  -3.50099993       4.01107411E-11
  -3.50000000       4.03915963E-11
  -3.49900007       4.06558225E-11
  -3.49799991       4.09028644E-11
  -3.49699998       4.11321706E-11
  -3.49600005       4.13431823E-11
  -3.49499989       4.15353481E-11
  -3.49399996       4.17081127E-11
  -3.49300003       4.18609279E-11
  -3.49200010       4.19932422E-11
  -3.49099994       4.21045039E-11
  -3.49000001       4.21941718E-11
  -3.48900008       4.22616976E-11
  -3.48799992       4.23065402E-11
  -3.48699999       4.23281653E-11
  -3.48600006       4.23260350E-11
  -3.48499990       4.22996187E-11
  -3.48399997       4.22483958E-11
  -3.48300004       4.21718459E-11
  -3.48200011       4.20694521E-11
  -3.48099995       4.19407044E-11
  -3.48000002       4.17851032E-11
  -3.47900009       4.16021523E-11
  -3.47799993       4.13913626E-11
  -3.47700000       4.11522552E-11
  -3.47600007       4.08843584E-11
  -3.47499990       4.05872037E-11
  -3.47399998       4.02603402E-11
  -3.47300005       3.99033202E-11
  -3.47199988       3.95157101E-11
  -3.47099996       3.90970867E-11
  -3.47000003       3.86470370E-11
  -3.46900010       3.81651551E-11
  -3.46799994       3.76510455E-11
  -3.46700001       3.71043370E-11
  -3.46600008       3.65246583E-11
  -3.46499991       3.59116591E-11
  -3.46399999       3.52649993E-11
  -3.46300006       3.45843527E-11
  -3.46199989       3.38694107E-11
  -3.46099997       3.31198784E-11
  -3.46000004       3.23354676E-11
  -3.45900011       3.15159218E-11
  -3.45799994       3.06609876E-11
  -3.45700002       2.97704396E-11
  -3.45600009       2.88440591E-11
  -3.45499992       2.78816501E-11
  -3.45400000       2.68830340E-11
  -3.45300007       2.58480511E-11
  -3.45199990       2.47765593E-11
  -3.45099998       2.36684387E-11
  -3.45000005       2.25235872E-11
  -3.44899988       2.13419196E-11
  -3.44799995       2.01233787E-11
  -3.44700003       1.88679228E-11
  -3.44600010       1.75755313E-11
  -3.44499993       1.62462092E-11
  -3.44400001       1.48799792E-11
  -3.44300008       1.34768915E-11
  -3.44199991       1.20370155E-11
  -3.44099998       1.05604440E-11
  -3.44000006       9.04729416E-12
  -3.43899989       7.49770732E-12
  -3.43799996       5.91184870E-12
  -3.43700004       4.28990784E-12
  -3.43600011       2.63209918E-12
  -3.43499994       9.38662451E-13
  -3.43400002      -7.90137324E-13
  -3.43300009      -2.55400930E-12
  -3.43199992      -4.35263761E-12
  -3.43099999      -6.18567827E-12
  -3.43000007      -8.05276245E-12
  -3.42899990      -9.95349463E-12
  -3.42799997      -1.18874520E-11
  -3.42700005      -1.38541834E-11
  -3.42600012      -1.58532128E-11
  -3.42499995      -1.78840363E-11
  -3.42400002      -1.99461194E-11
  -3.42300010      -2.20389054E-11
  -3.42199993      -2.41618045E-11
  -3.42100000      -2.63142008E-11
  -3.42000008      -2.84954525E-11
  -3.41899991      -3.07048831E-11
  -3.41799998      -3.29417986E-11
  -3.41700006      -3.52054670E-11
  -3.41599989      -3.74951285E-11
  -3.41499996      -3.98100025E-11
  -3.41400003      -4.21492737E-11
  -3.41300011      -4.45121023E-11
  -3.41199994      -4.68976143E-11
  -3.41100001      -4.93049143E-11
  -3.41000009      -5.17330727E-11
  -3.40899992      -5.41811387E-11
  -3.40799999      -5.66481272E-11
  -3.40700006      -5.91330318E-11
  -3.40599990      -6.16348084E-11
  -3.40499997      -6.41523917E-11
  -3.40400004      -6.66846856E-11
  -3.40300012      -6.92305796E-11
  -3.40199995      -7.17889151E-11
  -3.40100002      -7.43585193E-11
  -3.40000010      -7.69381989E-11
  -3.39899993      -7.95267185E-11
  -3.39800000      -8.21228294E-11
  -3.39700007      -8.47252546E-11
  -3.39599991      -8.73326828E-11
  -3.39499998      -8.99437885E-11
  -3.39400005      -9.25572119E-11
  -3.39299989      -9.51715859E-11
  -3.39199996      -9.77855019E-11
  -3.39100003      -1.00397531E-10
  -3.39000010      -1.03006235E-10
  -3.38899994      -1.05610132E-10
  -3.38800001      -1.08207734E-10
  -3.38700008      -1.10797531E-10
  -3.38599992      -1.13377988E-10
  -3.38499999      -1.15947543E-10
  -3.38400006      -1.18504623E-10
  -3.38299990      -1.21047630E-10
  -3.38199997      -1.23574956E-10
  -3.38100004      -1.26084962E-10
  -3.38000011      -1.28576011E-10
  -3.37899995      -1.31046424E-10
  -3.37800002      -1.33494521E-10
  -3.37700009      -1.35918610E-10
  -3.37599993      -1.38316969E-10
  -3.37500000      -1.40687892E-10
  -3.37400007      -1.43029616E-10
  -3.37299991      -1.45340406E-10
  -3.37199998      -1.47618501E-10
  -3.37100005      -1.49862123E-10
  -3.36999989      -1.52069496E-10
  -3.36899996      -1.54238816E-10
  -3.36800003      -1.56368279E-10
  -3.36700010      -1.58456095E-10
  -3.36599994      -1.60500446E-10
  -3.36500001      -1.62499500E-10
  -3.36400008      -1.64451425E-10
  -3.36299992      -1.66354416E-10
  -3.36199999      -1.68206643E-10
  -3.36100006      -1.70006259E-10
  -3.35999990      -1.71751433E-10
  -3.35899997      -1.73440332E-10
  -3.35800004      -1.75071138E-10
  -3.35700011      -1.76642007E-10
  -3.35599995      -1.78151105E-10
  -3.35500002      -1.79596615E-10
  -3.35400009      -1.80976747E-10
  -3.35299993      -1.82289669E-10
  -3.35200000      -1.83533577E-10
  -3.35100007      -1.84706681E-10
  -3.34999990      -1.85807203E-10
  -3.34899998      -1.86833368E-10
  -3.34800005      -1.87783428E-10
  -3.34699988      -1.88655633E-10
  -3.34599996      -1.89448235E-10
  -3.34500003      -1.90159513E-10
  -3.34400010      -1.90787788E-10
  -3.34299994      -1.91331381E-10
  -3.34200001      -1.91788613E-10
  -3.34100008      -1.92157859E-10
  -3.33999991      -1.92437469E-10
  -3.33899999      -1.92625860E-10
  -3.33800006      -1.92721464E-10
  -3.33699989      -1.92722727E-10
  -3.33599997      -1.92628122E-10
  -3.33500004      -1.92436150E-10
  -3.33400011      -1.92145341E-10
  -3.33299994      -1.91754251E-10
  -3.33200002      -1.91261493E-10
  -3.33100009      -1.90665678E-10
  -3.32999992      -1.89965474E-10
  -3.32900000      -1.89159563E-10
  -3.32800007      -1.88246682E-10
  -3.32699990      -1.87225582E-10
  -3.32599998      -1.86095070E-10
  -3.32500005      -1.84853993E-10
  -3.32399988      -1.83501242E-10
  -3.32299995      -1.82035720E-10
  -3.32200003      -1.80456414E-10
  -3.32100010      -1.78762311E-10
  -3.31999993      -1.76952480E-10
  -3.31900001      -1.75026035E-10
  -3.31800008      -1.72982101E-10
  -3.31699991      -1.70819886E-10
  -3.31599998      -1.68538627E-10
  -3.31500006      -1.66137631E-10
  -3.31399989      -1.63616246E-10
  -3.31299996      -1.60973859E-10
  -3.31200004      -1.58209931E-10
  -3.31100011      -1.55323962E-10
  -3.30999994      -1.52315521E-10
  -3.30900002      -1.49184234E-10
  -3.30800009      -1.45929754E-10
  -3.30699992      -1.42551831E-10
  -3.30599999      -1.39050257E-10
  -3.30500007      -1.35424894E-10
  -3.30399990      -1.31675656E-10
  -3.30299997      -1.27802505E-10
  -3.30200005      -1.23805480E-10
  -3.30100012      -1.19684693E-10
  -3.29999995      -1.15440310E-10
  -3.29900002      -1.11072554E-10
  -3.29800010      -1.06581736E-10
  -3.29699993      -1.01968212E-10
  -3.29600000      -9.72324096E-11
  -3.29500008      -9.23748300E-11
  -3.29399991      -8.73960418E-11
  -3.29299998      -8.22966764E-11
  -3.29200006      -7.70774347E-11
  -3.29099989      -7.17390938E-11
  -3.28999996      -6.62825003E-11
  -3.28900003      -6.07085701E-11
  -3.28800011      -5.50182920E-11
  -3.28699994      -4.92127242E-11
  -3.28600001      -4.32929977E-11
  -3.28500009      -3.72603129E-11
  -3.28399992      -3.11159466E-11
  -3.28299999      -2.48612467E-11
  -3.28200006      -1.84976357E-11
  -3.28099990      -1.20266089E-11
  -3.27999997      -5.44973528E-12
  -3.27900004       1.23134315E-12
  -3.27800012       8.01491078E-12
  -3.27699995       1.48991774E-11
  -3.27600002       2.18822790E-11
  -3.27500010       2.89622788E-11
  -3.27399993       3.61371662E-11
  -3.27300000       4.34048561E-11
  -3.27200007       5.07631957E-11
  -3.27099991       5.82099507E-11
  -3.26999998       6.57428209E-11
  -3.26900005       7.33594296E-11
  -3.26799989       8.10573206E-11
  -3.26699996       8.88339818E-11
  -3.26600003       9.66868183E-11
  -3.26500010       1.04613172E-10
  -3.26399994       1.12610310E-10
  -3.26300001       1.20675428E-10
  -3.26200008       1.28805661E-10
  -3.26099992       1.36998052E-10
  -3.25999999       1.45249590E-10
  -3.25900006       1.53557222E-10
  -3.25799990       1.61917785E-10
  -3.25699997       1.70328085E-10
  -3.25600004       1.78784834E-10
  -3.25500011       1.87284688E-10
  -3.25399995       1.95824260E-10
  -3.25300002       2.04400080E-10
  -3.25200009       2.13008639E-10
  -3.25099993       2.21646340E-10
  -3.25000000       2.30309535E-10
  -3.24900007       2.38994546E-10
  -3.24799991       2.47697585E-10
  -3.24699998       2.56414834E-10
  -3.24600005       2.65142464E-10
  -3.24499989       2.73876533E-10
  -3.24399996       2.82613044E-10
  -3.24300003       2.91348001E-10
  -3.24200010       3.00077352E-10
  -3.24099994       3.08796932E-10
  -3.24000001       3.17502608E-10
  -3.23900008       3.26190186E-10
  -3.23799992       3.34855366E-10
  -3.23699999       3.43493900E-10
  -3.23600006       3.52101431E-10
  -3.23499990       3.60673602E-10
  -3.23399997       3.69206027E-10
  -3.23300004       3.77694237E-10
  -3.23200011       3.86133764E-10
  -3.23099995       3.94520111E-10
  -3.23000002       4.02848782E-10
  -3.22900009       4.11115170E-10
  -3.22799993       4.19314750E-10
  -3.22700000       4.27442887E-10
  -3.22600007       4.35494973E-10
  -3.22499990       4.43466347E-10
  -3.22399998       4.51352344E-10
  -3.22300005       4.59148330E-10
  -3.22199988       4.66849615E-10
  -3.22099996       4.74451478E-10
  -3.22000003       4.81949203E-10
  -3.21900010       4.89338181E-10
  -3.21799994       4.96613639E-10
  -3.21700001       5.03770858E-10
  -3.21600008       5.10805120E-10
  -3.21499991       5.17711707E-10
  -3.21399999       5.24486010E-10
  -3.21300006       5.31123256E-10
  -3.21199989       5.37618838E-10
  -3.21099997       5.43968037E-10
  -3.21000004       5.50166246E-10
  -3.20900011       5.56208746E-10
  -3.20799994       5.62091040E-10
  -3.20700002       5.67808467E-10
  -3.20600009       5.73356473E-10
  -3.20499992       5.78730508E-10
  -3.20400000       5.83926130E-10
  -3.20300007       5.88938898E-10
  -3.20199990       5.93764315E-10
  -3.20099998       5.98397942E-10
  -3.20000005       6.02835504E-10
  -3.19899988       6.07072670E-10
  -3.19799995       6.11105222E-10
  -3.19700003       6.14928886E-10
  -3.19600010       6.18539497E-10
  -3.19499993       6.21932950E-10
  -3.19400001       6.25105245E-10
  -3.19300008       6.28052332E-10
  -3.19199991       6.30770269E-10
  -3.19099998       6.33255226E-10
  -3.19000006       6.35503428E-10
  -3.18899989       6.37511099E-10
  -3.18799996       6.39274578E-10
  -3.18700004       6.40790254E-10
  -3.18600011       6.42054687E-10
  -3.18499994       6.43064435E-10
  -3.18400002       6.43816112E-10
  -3.18300009       6.44306442E-10
  -3.18199992       6.44532316E-10
  -3.18099999       6.44490572E-10
  -3.18000007       6.44178211E-10
  -3.17899990       6.43592402E-10
  -3.17799997       6.42730202E-10
  -3.17700005       6.41589060E-10
  -3.17600012       6.40166253E-10
  -3.17499995       6.38459341E-10
  -3.17400002       6.36465880E-10
  -3.17300010       6.34183539E-10
  -3.17199993       6.31610264E-10
  -3.17100000       6.28743835E-10
  -3.17000008       6.25582364E-10
  -3.16899991       6.22124019E-10
  -3.16799998       6.18367024E-10
  -3.16700006       6.14309881E-10
  -3.16599989       6.09950979E-10
  -3.16499996       6.05289041E-10
  -3.16400003       6.00322791E-10
  -3.16300011       5.95051119E-10
  -3.16199994       5.89473026E-10
  -3.16100001       5.83587734E-10
  -3.16000009       5.77394466E-10
  -3.15899992       5.70892666E-10
  -3.15799999       5.64081892E-10
  -3.15700006       5.56961810E-10
  -3.15599990       5.49532309E-10
  -3.15499997       5.41793277E-10
  -3.15400004       5.33744882E-10
  -3.15300012       5.25387400E-10
  -3.15199995       5.16721166E-10
  -3.15100002       5.07746734E-10
  -3.15000010       4.98464825E-10
  -3.14899993       4.88876273E-10
  -3.14800000       4.78982076E-10
  -3.14700007       4.68783290E-10
  -3.14599991       4.58281274E-10
  -3.14499998       4.47477444E-10
  -3.14400005       4.36373382E-10