  -4.00000000       0.00000000    
  -3.99900007       0.00000000    
  -3.99799991       0.00000000    
  -3.99699998       0.00000000    
  -3.99600005       0.00000000    
  -3.99499989       4.13985224E-31
  -3.99399996       4.55544310E-30
  -3.99300003       2.73416209E-29
  -3.99200010       1.18516240E-28
  -3.99099994       4.14922058E-28
  -3.99000001       1.24508068E-27
  -3.98900008       3.32097114E-27
  -3.98799992       8.06685002E-27
  -3.98699999       1.81536369E-26
  -3.98600006       3.83301998E-26
  -3.98499990       7.66701802E-26
  -3.98399997       1.46385368E-25
  -3.98300004       2.68393998E-25
  -3.98200011       4.74875825E-25
  -3.98099995       8.14095185E-25
  -3.98000002       1.35682863E-24
  -3.97900009       2.20479642E-24
  -3.97799993       3.50156818E-24
  -3.97700000       5.44648699E-24
  -3.97600007       8.31224471E-24
  -3.97499990       1.24668327E-23
  -3.97399998       1.84006934E-23
  -3.97300005       2.67600047E-23
  -3.97199988       3.83871707E-23
  -3.97099996       5.43696631E-23
  -3.97000003       7.60985842E-23
  -3.96900010       1.05338402E-22
  -3.96799994       1.44309430E-22
  -3.96700001       1.95784965E-22
  -3.96600008       2.63204943E-22
  -3.96499991       3.50808338E-22
  -3.96399999       4.63786649E-22
  -3.96300006       6.08460912E-22
  -3.96199989       7.92485525E-22
  -3.96099997       1.02508115E-21
  -3.96000004       1.31730037E-21
  -3.95900011       1.68233007E-21
  -3.95799994       2.13583325E-21
  -3.95700002       2.69633556E-21
  -3.95600009       3.38565974E-21
  -3.95499992       4.22941325E-21
  -3.95400000       5.25753534E-21
  -3.95300007       6.50490391E-21
  -3.95199990       8.01201648E-21
  -3.95099998       9.82574084E-21
  -3.95000005       1.20001515E-20
  -3.94899988       1.45974518E-20
  -3.94799995       1.76889876E-20
  -3.94700003       2.13563704E-20
  -3.94600010       2.56927113E-20
  -3.94499993       3.08039572E-20
  -3.94400001       3.68103774E-20
  -3.94300008       4.38481690E-20
  -3.94199991       5.20712199E-20
  -3.94099998       6.16530152E-20
  -3.94000006       7.27887080E-20
  -3.93899989       8.56973978E-20
  -3.93799996       1.00624551E-19
  -3.93700004       1.17844674E-19
  -3.93600011       1.37664102E-19
  -3.93499994       1.60424171E-19
  -3.93400002       1.86504464E-19
  -3.93300009       2.16326406E-19
  -3.93199992       2.50357095E-19
  -3.93099999       2.89113428E-19
  -3.93000007       3.33166508E-19
  -3.92899990       3.83146337E-19
  -3.92799997       4.39746895E-19
  -3.92700005       5.03731486E-19
  -3.92600012       5.75938564E-19
  -3.92499995       6.57287848E-19
  -3.92400002       7.48786741E-19
  -3.92300010       8.51537463E-19
  -3.92199993       9.66744283E-19
  -3.92100000       1.09572139E-18
  -3.92000008       1.23990124E-18
  -3.91899991       1.40084329E-18
  -3.91799998       1.58024315E-18
  -3.91700006       1.77994296E-18
  -3.91599989       2.00194107E-18
  -3.91499996       2.24840388E-18
  -3.91400003       2.52167643E-18
  -3.91300011       2.82429570E-18
  -3.91199994       3.15900235E-18
  -3.91100001       3.52875497E-18
  -3.91000009       3.93674527E-18
  -3.90899992       4.38641016E-18
  -3.90799999       4.88145046E-18
  -3.90700006       5.42584615E-18
  -3.90599990       6.02387250E-18
  -3.90499997       6.68012079E-18
  -3.90400004       7.39951439E-18
  -3.90300012       8.18733196E-18
  -3.90199995       9.04922521E-18
  -3.90100002       9.99124000E-18
  -3.90000010       1.10198424E-17
  -3.89899993       1.21419394E-17
  -3.89800000       1.33649060E-17
  -3.89700007       1.46966073E-17
  -3.89599991       1.61454274E-17
  -3.89499998       1.77202998E-17
  -3.89400005       1.94307290E-17
  -3.89299989       2.12868280E-17
  -3.89199996       2.32993469E-17
  -3.89100003       2.54796990E-17
  -3.89000010       2.78400076E-17
  -3.88899994       3.03931303E-17
  -3.88800001       3.31527008E-17
  -3.88700008       3.61331616E-17
  -3.88599992       3.93498056E-17
  -3.88499999       4.28188125E-17
  -3.88400006       4.65572950E-17
  -3.88299990       5.05833452E-17
  -3.88199997       5.49160643E-17
  -3.88100004       5.95756190E-17
  -3.88000011       6.45832976E-17
  -3.87899995       6.99615465E-17
  -3.87800002       7.57340099E-17
  -3.87700009       8.19255958E-17
  -3.87599993       8.85625357E-17
  -3.87500000       9.56724243E-17
  -3.87400007       1.03284286E-16
  -3.87299991       1.11428627E-16
  -3.87199998       1.20137489E-16
  -3.87100005       1.29444541E-16
  -3.86999989       1.39385095E-16
  -3.86899996       1.49996194E-16
  -3.86800003       1.61316684E-16
  -3.86700010       1.73387287E-16
  -3.86599994       1.86250647E-16
  -3.86500001       1.99951418E-16
  -3.86400008       2.14536333E-16
  -3.86299992       2.30054254E-16
  -3.86199999       2.46556309E-16
  -3.86100006       2.64095873E-16
  -3.85999990       2.82728772E-16
  -3.85899997       3.02513264E-16
  -3.85800004       3.23510126E-16
  -3.85700011       3.45782831E-16
  -3.85599995       3.69397527E-16
  -3.85500002       3.94423168E-16
  -3.85400009       4.20931594E-16
  -3.85299993       4.48997660E-16
  -3.85200000       4.78699294E-16
  -3.85100007       5.10117546E-16
  -3.84999990       5.43336801E-16
  -3.84899998       5.78444676E-16
  -3.84800005       6.15532384E-16
  -3.84699988       6.54694688E-16
  -3.84599996       6.96029896E-16
  -3.84500003       7.39640128E-16
  -3.84400010       7.85631423E-16
  -3.84299994       8.34113789E-16
  -3.84200001       8.85201205E-16
  -3.84100008       9.39011831E-16
  -3.83999991       9.95668277E-16
  -3.83899999       1.05529738E-15
  -3.83800006       1.11803066E-15
  -3.83699989       1.18400394E-15
  -3.83599997       1.25335804E-15
  -3.83500004       1.32623855E-15
  -3.83400011       1.40279604E-15
  -3.83299994       1.48318603E-15
  -3.83200002       1.56756936E-15
  -3.83100009       1.65611204E-15
  -3.82999992       1.74898560E-15
  -3.82900000       1.84636708E-15
  -3.82800007       1.94843899E-15
  -3.82699990       2.05538961E-15
  -3.82599998       2.16741353E-15
  -3.82500005       2.28471065E-15
  -3.82399988       2.40748744E-15
  -3.82299995       2.53595629E-15
  -3.82200003       2.67033638E-15
  -3.82100010       2.81085279E-15
  -3.81999993       2.95773720E-15
  -3.81900001       3.11122846E-15
  -3.81800008       3.27157159E-15
  -3.81699991       3.43901878E-15
  -3.81599998       3.61382922E-15
  -3.81500006       3.79626911E-15
  -3.81399989       3.98661181E-15
  -3.81299996       4.18513770E-15
  -3.81200004       4.39213561E-15
  -3.81100011       4.60790116E-15
  -3.80999994       4.83273716E-15
  -3.80900002       5.06695448E-15
  -3.80800009       5.31087159E-15
  -3.80699992       5.56481503E-15
  -3.80599999       5.82911981E-15
  -3.80500007       6.10412853E-15
  -3.80399990       6.39019147E-15
  -3.80299997       6.68766732E-15
  -3.80200005       6.99692371E-15
  -3.80100012       7.31833587E-15
  -3.79999995       7.65228792E-15
  -3.79900002       7.99917163E-15
  -3.79800010       8.35938764E-15
  -3.79699993       8.73334676E-15
  -3.79600000       9.12146657E-15
  -3.79500008       9.52417314E-15
  -3.79399991       9.94190268E-15
  -3.79299998       1.03750982E-14
  -3.79200006       1.08242129E-14
  -3.79099989       1.12897091E-14
  -3.78999996       1.17720563E-14
  -3.78900003       1.22717346E-14
  -3.78800011       1.27892319E-14
  -3.78699994       1.33250454E-14
  -3.78600001       1.38796801E-14
  -3.78500009       1.44536499E-14
  -3.78399992       1.50474793E-14
  -3.78299999       1.56616985E-14
  -3.78200006       1.62968495E-14
  -3.78099990       1.69534813E-14
  -3.77999997       1.76321495E-14
  -3.77900004       1.83334200E-14
  -3.77800012       1.90578703E-14
  -3.77699995       1.98060816E-14
  -3.77600002       2.05786434E-14
  -3.77500010       2.13761571E-14
  -3.77399993       2.21992275E-14
  -3.77300000       2.30484712E-14
  -3.77200007       2.39245117E-14
  -3.77099991       2.48279773E-14
  -3.76999998       2.57595052E-14
  -3.76900005       2.67197407E-14
  -3.76799989       2.77093378E-14
  -3.76699996       2.87289520E-14
  -3.76600003       2.97792525E-14
  -3.76500010       3.08609068E-14
  -3.76399994       3.19745993E-14
  -3.76300001       3.31210143E-14
  -3.76200008       3.43008364E-14
  -3.76099992       3.55147633E-14
  -3.75999999       3.67635000E-14
  -3.75900006       3.80477476E-14
  -3.75799990       3.93682178E-14
  -3.75699997       4.07256253E-14
  -3.75600004       4.21206886E-14
  -3.75500011       4.35541326E-14
  -3.75399995       4.50266791E-14
  -3.75300002       4.65390598E-14
  -3.75200009       4.80920066E-14
  -3.75099993       4.96862547E-14
  -3.75000000       5.13225360E-14
  -3.74900007       5.30015891E-14
  -3.74799991       5.47241526E-14
  -3.74699998       5.64909617E-14
  -3.74600005       5.83027550E-14
  -3.74499989       6.01602779E-14
  -3.74399996       6.20642589E-14
  -3.74300003       6.40154298E-14
  -3.74200010       6.60145360E-14
  -3.74099994       6.80622957E-14
  -3.74000001       7.01594476E-14
  -3.73900008       7.23067100E-14
  -3.73799992       7.45048012E-14
  -3.73699999       7.67544326E-14
  -3.73600006       7.90563226E-14
  -3.73499990       8.14111758E-14
  -3.73399997       8.38196767E-14
  -3.73300004       8.62825233E-14
  -3.73200011       8.88003931E-14
  -3.73099995       9.13739570E-14
  -3.73000002       9.40038723E-14
  -3.72900009       9.66908099E-14
  -3.72799993       9.94353932E-14
  -3.72700000       1.02238259E-13
  -3.72600007       1.05100024E-13
  -3.72499990       1.08021292E-13
  -3.72399998       1.11002651E-13
  -3.72300005       1.14044679E-13
  -3.72199988       1.17147936E-13
  -3.72099996       1.20312953E-13
  -3.72000003       1.23540270E-13
  -3.71900010       1.26830390E-13
  -3.71799994       1.30183800E-13
  -3.71700001       1.33600962E-13
  -3.71600008       1.37082335E-13
  -3.71499991       1.40628340E-13
  -3.71399999       1.44239370E-13
  -3.71300006       1.47915819E-13
  -3.71199989       1.51658037E-13
  -3.71099997       1.55466365E-13
  -3.71000004       1.59341087E-13
  -3.70900011       1.63282487E-13
  -3.70799994       1.67290810E-13
  -3.70700002       1.71366271E-13
  -3.70600009       1.75509048E-13
  -3.70499992       1.79719317E-13
  -3.70400000       1.83997186E-13
  -3.70300007       1.88342750E-13
  -3.70199990       1.92756076E-13
  -3.70099998       1.97237151E-13
  -3.70000005       2.01785989E-13
  -3.69899988       2.06402522E-13
  -3.69799995       2.11086655E-13
  -3.69700003       2.15838266E-13
  -3.69600010       2.20657179E-13
  -3.69499993       2.25543176E-13
  -3.69400001       2.30496015E-13
  -3.69300008       2.35515356E-13
  -3.69199991       2.40600888E-13
  -3.69099998       2.45752176E-13
  -3.69000006       2.50968815E-13
  -3.68899989       2.56250316E-13
  -3.68799996       2.61596110E-13
  -3.68700004       2.67005683E-13
  -3.68600011       2.72478329E-13
  -3.68499994       2.78013371E-13
  -3.68400002       2.83610050E-13
  -3.68300009       2.89267633E-13
  -3.68199992       2.94985201E-13
  -3.68099999       3.00761857E-13
  -3.68000007       3.06596653E-13
  -3.67899990       3.12488533E-13
  -3.67799997       3.18436439E-13
  -3.67700005       3.24439233E-13
  -3.67600012       3.30495695E-13
  -3.67499995       3.36604578E-13
  -3.67400002       3.42764500E-13
  -3.67300010       3.48974105E-13
  -3.67199993       3.55231957E-13
  -3.67100000       3.61536484E-13
  -3.67000008       3.67886114E-13
  -3.66899991       3.74279194E-13
  -3.66799998       3.80714015E-13
  -3.66700006       3.87188762E-13
  -3.66599989       3.93701564E-13
  -3.66499996       4.00250525E-13
  -3.66400003       4.06833611E-13
  -3.66300011       4.13448735E-13
  -3.66199994       4.20093783E-13
  -3.66100001       4.26766505E-13
  -3.66000009       4.33464598E-13
  -3.65899992       4.40185757E-13
  -3.65799999       4.46927489E-13
  -3.65700006       4.53687272E-13
  -3.65599990       4.60462560E-13
  -3.65499997       4.67250641E-13
  -3.65400004       4.74048806E-13
  -3.65300012       4.80854234E-13
  -3.65199995       4.87664054E-13
  -3.65100002       4.94475283E-13
  -3.65000010       5.01284886E-13
  -3.64899993       5.08089664E-13
  -3.64800000       5.14886528E-13
  -3.64700007       5.21672115E-13
  -3.64599991       5.28443066E-13
  -3.64499998       5.35196074E-13
  -3.64400005       5.41927505E-13
  -3.64299989       5.48633838E-13
  -3.64199996       5.55311385E-13
  -3.64100003       5.61956406E-13
  -3.64000010       5.68565160E-13
  -3.63899994       5.75133691E-13
  -3.63800001       5.81658094E-13
  -3.63700008       5.88134251E-13
  -3.63599992       5.94558148E-13
  -3.63499999       6.00925559E-13
  -3.63400006       6.07232255E-13
  -3.63299990       6.13473844E-13
  -3.63199997       6.19645990E-13
  -3.63100004       6.25744248E-13
  -3.63000011       6.31764010E-13
  -3.62899995       6.37700775E-13
  -3.62800002       6.43549829E-13
  -3.62700009       6.49306401E-13
  -3.62599993       6.54965773E-13
  -3.62500000       6.60523014E-13
  -3.62400007       6.65973244E-13
  -3.62299991       6.71311476E-13
  -3.62199998       6.76532669E-13
  -3.62100005       6.81631726E-13
  -3.61999989       6.86603498E-13
  -3.61899996       6.91442780E-13
  -3.61800003       6.96144260E-13
  -3.61700010       7.00702734E-13
  -3.61599994       7.05112780E-13
  -3.61500001       7.09368978E-13
  -3.61400008       7.13465962E-13
  -3.61299992       7.17398255E-13
  -3.61199999       7.21160273E-13
  -3.61100006       7.24746435E-13
  -3.60999990       7.28151155E-13
  -3.60899997       7.31368850E-13
  -3.60800004       7.34393828E-13
  -3.60700011       7.37220398E-13
  -3.60599995       7.39842920E-13
  -3.60500002       7.42255595E-13
  -3.60400009       7.44452731E-13
  -3.60299993       7.46428527E-13
  -3.60200000       7.48177182E-13
  -3.60100007       7.49692951E-13
  -3.59999990       7.50970087E-13
  -3.59899998       7.52002735E-13
  -3.59800005       7.52785150E-13
  -3.59699988       7.53311530E-13
  -3.59599996       7.53576075E-13
  -3.59500003       7.53573094E-13
  -3.59400010       7.53296785E-13
  -3.59299994       7.52741402E-13
  -3.59200001       7.51901308E-13
  -3.59100008       7.50770811E-13
  -3.58999991       7.49344217E-13
  -3.58899999       7.47615999E-13
  -3.58800006       7.45580518E-13
  -3.58699989       7.43232244E-13
  -3.58599997       7.40565758E-13
  -3.58500004       7.37575582E-13
  -3.58400011       7.34256297E-13
  -3.58299994       7.30602644E-13
  -3.58200002       7.26609419E-13
  -3.58100009       7.22271418E-13
  -3.57999992       7.17583545E-13
  -3.57900000       7.12540758E-13
  -3.57800007       7.07138124E-13
  -3.57699990       7.01370819E-13
  -3.57599998       6.95234126E-13
  -3.57500005       6.88723330E-13
  -3.57399988       6.81833930E-13
  -3.57299995       6.74561481E-13
  -3.57200003       6.66901647E-13
  -3.57100010       6.58850199E-13
  -3.56999993       6.50403125E-13
  -3.56900001       6.41556415E-13
  -3.56800008       6.32306273E-13
  -3.56699991       6.22649068E-13
  -3.56599998       6.12581275E-13
  -3.56500006       6.02099479E-13
  -3.56399989       5.91200483E-13
  -3.56299996       5.79881195E-13
  -3.56200004       5.68138744E-13
  -3.56100011       5.55970417E-13
  -3.55999994       5.43373723E-13
  -3.55900002       5.30346275E-13
  -3.55800009       5.16885905E-13
  -3.55699992       5.02990661E-13
  -3.55599999       4.88658810E-13
  -3.55500007       4.73888669E-13
  -3.55399990       4.58678993E-13
  -3.55299997       4.43028643E-13
  -3.55200005       4.26936698E-13
  -3.55100012       4.10402452E-13
  -3.54999995       3.93425499E-13
  -3.54900002       3.76005596E-13
  -3.54800010       3.58142796E-13
  -3.54699993       3.39837370E-13
  -3.54600000       3.21089862E-13
  -3.54500008       3.01901082E-13
  -3.54399991       2.82272063E-13
  -3.54299998       2.62204185E-13
  -3.54200006       2.41699049E-13
  -3.54099989       2.20758551E-13
  -3.53999996       1.99384847E-13
  -3.53900003       1.77580417E-13
  -3.53800011       1.55348024E-13
  -3.53699994       1.32690733E-13
  -3.53600001       1.09611925E-13
  -3.53500009       8.61152851E-14
  -3.53399992       6.22047986E-14
  -3.53299999       3.78847852E-14
  -3.53200006       1.31598884E-14
  -3.53099990      -1.19649240E-14
  -3.52999997      -3.74843521E-14
  -3.52900004      -6.33927521E-14
  -3.52800012      -8.96841534E-14
  -3.52699995      -1.16352240E-13
  -3.52600002      -1.43390332E-13
  -3.52500010      -1.70791414E-13
  -3.52399993      -1.98548101E-13
  -3.52300000      -2.26652640E-13
  -3.52200007      -2.55096969E-13
  -3.52099991      -2.83872616E-13
  -3.51999998      -3.12970732E-13
  -3.51900005      -3.42382101E-13
  -3.51799989      -3.72097156E-13
  -3.51699996      -4.02105974E-13
  -3.51600003      -4.32398204E-13
  -3.51500010      -4.62963110E-13
  -3.51399994      -4.93789634E-13
  -3.51300001      -5.24866283E-13
  -3.51200008      -5.56181240E-13
  -3.51099992      -5.87722199E-13
  -3.50999999      -6.19476530E-13
  -3.50900006      -6.51431220E-13
  -3.50799990      -6.83572827E-13
  -3.50699997      -7.15887581E-13
  -3.50600004      -7.48361225E-13
  -3.50500011      -7.80979177E-13
  -3.50399995      -8.13726473E-13
  -3.50300002      -8.46587720E-13
  -3.50200009      -8.79547195E-13
  -3.50099993      -9.12588690E-13
  -3.50000000      -9.45695670E-13
  -3.49900007      -9.78851223E-13
  -3.49799991      -1.01203800E-12
  -3.49699998      -1.04523833E-12
  -3.49600005      -1.07843422E-12
  -3.49499989      -1.11160712E-12
  -3.49399996      -1.14473817E-12
  -3.49300003      -1.17780807E-12
  -3.49200010      -1.21079741E-12
  -3.49099994      -1.24368614E-12
  -3.49000001      -1.27645388E-12
  -3.48900008      -1.30908001E-12
  -3.48799992      -1.34154352E-12
  -3.48699999      -1.37382293E-12
  -3.48600006      -1.40589667E-12
  -3.48499990      -1.43774250E-12
  -3.48399997      -1.46933811E-12
  -3.48300004      -1.50066060E-12
  -3.48200011      -1.53168689E-12
  -3.48099995      -1.56239366E-12
  -3.48000002      -1.59275728E-12
  -3.47900009      -1.62275358E-12
  -3.47799993      -1.65235826E-12
  -3.47700000      -1.68154683E-12
  -3.47600007      -1.71029434E-12
  -3.47499990      -1.73857554E-12
  -3.47399998      -1.76636494E-12
  -3.47300005      -1.79363707E-12
  -3.47199988      -1.82036569E-12
  -3.47099996      -1.84652489E-12
  -3.47000003      -1.87208820E-12
  -3.46900010      -1.89702876E-12
  -3.46799994      -1.92131987E-12
  -3.46700001      -1.94493445E-12
  -3.46600008      -1.96784516E-12
  -3.46499991      -1.99002468E-12
  -3.46399999      -2.01144548E-12
  -3.46300006      -2.03207958E-12
  -3.46199989      -2.05189945E-12
  -3.46099997      -2.07087667E-12
  -3.46000004      -2.08898328E-12
  -3.45900011      -2.10619109E-12
  -3.45799994      -2.12247169E-12
  -3.45700002      -2.13779645E-12
  -3.45600009      -2.15213719E-12
  -3.45499992      -2.16546529E-12
  -3.45400000      -2.17775212E-12
  -3.45300007      -2.18896906E-12
  -3.45199990      -2.19908770E-12
  -3.45099998      -2.20807921E-12
  -3.45000005      -2.21591517E-12
  -3.44899988      -2.22256718E-12
  -3.44799995      -2.22800641E-12
  -3.44700003      -2.23220466E-12
  -3.44600010      -2.23513352E-12
  -3.44499993      -2.23676503E-12
  -3.44400001      -2.23707077E-12
  -3.44300008      -2.23602322E-12
  -3.44199991      -2.23359439E-12
  -3.44099998      -2.22975653E-12
  -3.44000006      -2.22448253E-12
  -3.43899989      -2.21774530E-12
  -3.43799996      -2.20951729E-12
  -3.43700004      -2.19977248E-12
  -3.43600011      -2.18848399E-12
  -3.43499994      -2.17562600E-12
  -3.43400002      -2.16117228E-12
  -3.43300009      -2.14509768E-12
  -3.43199992      -2.12737683E-12
  -3.43099999      -2.10798523E-12
  -3.43000007      -2.08689836E-12
  -3.42899990      -2.06409217E-12
  -3.42799997      -2.03954301E-12
  -3.42700005      -2.01322813E-12
  -3.42600012      -1.98512474E-12
  -3.42499995      -1.95521073E-12
  -3.42400002      -1.92346443E-12
  -3.42300010      -1.88986457E-12
  -3.42199993      -1.85439099E-12
  -3.42100000      -1.81702353E-12
  -3.42000008      -1.77774299E-12
  -3.41899991      -1.73653062E-12
  -3.41799998      -1.69336821E-12
  -3.41700006      -1.64823851E-12
  -3.41599989      -1.60112472E-12
  -3.41499996      -1.55201080E-12
  -3.41400003      -1.50088156E-12
  -3.41300011      -1.44772248E-12
  -3.41199994      -1.39251956E-12
  -3.41100001      -1.33526003E-12
  -3.41000009      -1.27593162E-12
  -3.40899992      -1.21452317E-12
  -3.40799999      -1.15102405E-12
  -3.40700006      -1.08542483E-12
  -3.40599990      -1.01771673E-12
  -3.40499997      -9.47891939E-13
  -3.40400004      -8.75943740E-13
  -3.40300012      -8.01866223E-13
  -3.40199995      -7.25654562E-13
  -3.40100002      -6.47304909E-13
  -3.40000010      -5.66814391E-13
  -3.39899993      -4.84181271E-13
  -3.39800000      -3.99404766E-13
  -3.39700007      -3.12485281E-13
  -3.39599991      -2.23424279E-13
  -3.39499998      -1.32224323E-13
  -3.39400005      -3.88891901E-14
  -3.39299989       5.65762376E-14
  -3.39199996       1.54165865E-13
  -3.39100003       2.53872417E-13
  -3.39000010       3.55687403E-13
  -3.38899994       4.59601053E-13
  -3.38800001       5.65602415E-13
  -3.38700008       6.73679266E-13
  -3.38599992       7.83817997E-13
  -3.38499999       8.96003757E-13
  -3.38400006       1.01022044E-12
  -3.38299990       1.12645050E-12
  -3.38199997       1.24467504E-12
  -3.38100004       1.36487393E-12
  -3.38000011       1.48702556E-12
  -3.37899995       1.61110697E-12
  -3.37800002       1.73709376E-12
  -3.37700009       1.86496023E-12
  -3.37599993       1.99467894E-12
  -3.37500000       2.12622129E-12
  -3.37400007       2.25955734E-12
  -3.37299991       2.39465544E-12
  -3.37199998       2.53148262E-12
  -3.37100005       2.67000419E-12
  -3.36999989       2.81018416E-12
  -3.36899996       2.95198501E-12
  -3.36800003       3.09536793E-12
  -3.36700010       3.24029193E-12
  -3.36599994       3.38671539E-12
  -3.36500001       3.53459471E-12
  -3.36400008       3.68388436E-12
  -3.36299992       3.83453859E-12
  -3.36199999       3.98650861E-12
  -3.36100006       4.13974497E-12
  -3.35999990       4.29419608E-12
  -3.35899997       4.44980944E-12
  -3.35800004       4.60653087E-12
  -3.35700011       4.76430440E-12
  -3.35599995       4.92307280E-12
  -3.35500002       5.08277708E-12
  -3.35400009       5.24335653E-12
  -3.35299993       5.40474956E-12
  -3.35200000       5.56689243E-12
  -3.35100007       5.72972008E-12
  -3.34999990       5.89316616E-12
  -3.34899998       6.05716215E-12
  -3.34800005       6.22163909E-12
  -3.34699988       6.38652586E-12
  -3.34599996       6.55175003E-12
  -3.34500003       6.71723788E-12
  -3.34400010       6.88291351E-12
  -3.34299994       7.04870017E-12
  -3.34200001       7.21451978E-12
  -3.34100008       7.38029256E-12
  -3.33999991       7.54593697E-12
  -3.33899999       7.71137060E-12
  -3.33800006       7.87650934E-12
  -3.33699989       8.04126904E-12
  -3.33599997       8.20556210E-12
  -3.33500004       8.36930178E-12
  -3.33400011       8.53239788E-12
  -3.33299994       8.69476106E-12
  -3.33200002       8.85629851E-12
  -3.33100009       9.01691829E-12
  -3.32999992       9.17652586E-12
  -3.32900000       9.33502668E-12
  -3.32800007       9.49232359E-12
  -3.32699990       9.64831947E-12
  -3.32599998       9.80291542E-12
  -3.32500005       9.95601258E-12
  -3.32399988       1.01075094E-11
  -3.32299995       1.02573046E-11
  -3.32200003       1.04052955E-11
  -3.32100010       1.05513783E-11
  -3.31999993       1.06954497E-11
  -3.31900001       1.08374030E-11
  -3.31800008       1.09771333E-11
  -3.31699991       1.11145338E-11
  -3.31599998       1.12494961E-11
  -3.31500006       1.13819119E-11
  -3.31399989       1.15116727E-11
  -3.31299996       1.16386692E-11
  -3.31200004       1.17627913E-11
  -3.31100011       1.18839279E-11
  -3.30999994       1.20019680E-11
  -3.30900002       1.21168006E-11
  -3.30800009       1.22283121E-11
  -3.30699992       1.23363915E-11
  -3.30599999       1.24409250E-11
  -3.30500007       1.25418009E-11
  -3.30399990       1.26389055E-11
  -3.30299997       1.27321261E-11
  -3.30200005       1.28213490E-11
  -3.30100012       1.29064606E-11
  -3.29999995       1.29873482E-11
  -3.29900002       1.30638972E-11
  -3.29800010       1.31359958E-11
  -3.29699993       1.32035303E-11
  -3.29600000       1.32663880E-11
  -3.29500008       1.33244561E-11
  -3.29399991       1.33776219E-11
  -3.29299998       1.34257752E-11
  -3.29200006       1.34688033E-11
  -3.29099989       1.35065960E-11
  -3.28999996       1.35390423E-11
  -3.28900003       1.35660337E-11
  -3.28800011       1.35874610E-11
  -3.28699994       1.36032158E-11
  -3.28600001       1.36131904E-11
  -3.28500009       1.36172792E-11
  -3.28399992       1.36153762E-11
  -3.28299999       1.36073774E-11
  -3.28200006       1.35931787E-11
  -3.28099990       1.35726786E-11
  -3.27999997       1.35457756E-11
  -3.27900004       1.35123709E-11
  -3.27800012       1.34723656E-11
  -3.27699995       1.34256625E-11
  -3.27600002       1.33721662E-11
  -3.27500010       1.33117822E-11
  -3.27399993       1.32444195E-11
  -3.27300000       1.31699859E-11
  -3.27200007       1.30883932E-11
  -3.27099991       1.29995546E-11
  -3.26999998       1.29033841E-11
  -3.26900005       1.27997994E-11
  -3.26799989       1.26887181E-11
  -3.26699996       1.25700613E-11
  -3.26600003       1.24437526E-11
  -3.26500010       1.23097175E-11
  -3.26399994       1.21678822E-11
  -3.26300001       1.20181773E-11
  -3.26200008       1.18605351E-11
  -3.26099992       1.16948907E-11
  -3.25999999       1.15211816E-11
  -3.25900006       1.13393470E-11
  -3.25799990       1.11493297E-11
  -3.25699997       1.09510760E-11
  -3.25600004       1.07445329E-11
  -3.25500011       1.05296527E-11
  -3.25399995       1.03063886E-11
  -3.25300002       1.00746989E-11
  -3.25200009       9.83454290E-12
  -3.25099993       9.58588417E-12
  -3.25000000       9.32868886E-12
  -3.24900007       9.06292749E-12
  -3.24799991       8.78857230E-12
  -3.24699998       8.50560160E-12
  -3.24600005       8.21399459E-12
  -3.24499989       7.91373477E-12
  -3.24399996       7.60481001E-12
  -3.24300003       7.28720990E-12
  -3.24200010       6.96093010E-12
  -3.24099994       6.62596844E-12
  -3.24000001       6.28232709E-12
  -3.23900008       5.93001212E-12
  -3.23799992       5.56903308E-12
  -3.23699999       5.19940428E-12
  -3.23600006       4.82114348E-12
  -3.23499990       4.43427239E-12
  -3.23399997       4.03881746E-12
  -3.23300004       3.63480860E-12
  -3.23200011       3.22228052E-12
  -3.23099995       2.80127180E-12
  -3.23000002       2.37182539E-12
  -3.22900009       1.93398878E-12
  -3.22799993       1.48781378E-12
  -3.22700000       1.03335656E-12
  -3.22600007       5.70677674E-13
  -3.22499990       9.98423214E-14
  -3.22399998      -3.79079770E-13
  -3.22300005      -8.66014292E-13
  -3.22199988      -1.36088254E-12
  -3.22099996      -1.86360085E-12
  -3.22000003      -2.37408118E-12
  -3.21900010      -2.89223073E-12
  -3.21799994      -3.41795190E-12
  -3.21700001      -3.95114280E-12
  -3.21600008      -4.49169564E-12
  -3.21499991      -5.03949877E-12
  -3.21399999      -5.59443594E-12
  -3.21300006      -6.15638573E-12
  -3.21199989      -6.72522107E-12
  -3.21099997      -7.30081186E-12
  -3.21000004      -7.88302149E-12
  -3.20900011      -8.47170945E-12
  -3.20799994      -9.06673001E-12
  -3.20700002      -9.66793312E-12
  -3.20600009      -1.02751627E-11
  -3.20499992      -1.08882590E-11
  -3.20400000      -1.15070566E-11
  -3.20300007      -1.21313853E-11
  -3.20199990      -1.27610700E-11
  -3.20099998      -1.33959319E-11
  -3.20000005      -1.40357864E-11
  -3.19899988      -1.46804426E-11
  -3.19799995      -1.53297080E-11
  -3.19700003      -1.59833848E-11
  -3.19600010      -1.66412682E-11
  -3.19499993      -1.73031485E-11
  -3.19400001      -1.79688157E-11
  -3.19300008      -1.86380494E-11
  -3.19199991      -1.93106295E-11
  -3.19099998      -1.99863268E-11
  -3.19000006      -2.06649108E-11
  -3.18899989      -2.13461453E-11
  -3.18799996      -2.20297912E-11
  -3.18700004      -2.27156002E-11
  -3.18600011      -2.34033244E-11
  -3.18499994      -2.40927105E-11
  -3.18400002      -2.47834982E-11
  -3.18300009      -2.54754291E-11
  -3.18199992      -2.61682342E-11
  -3.18099999      -2.68616414E-11
  -3.18000007      -2.75553781E-11
  -3.17899990      -2.82491634E-11
  -3.17799997      -2.89427163E-11
  -3.17700005      -2.96357487E-11
  -3.17600012      -3.03279693E-11
  -3.17499995      -3.10190866E-11
  -3.17400002      -3.17088023E-11
  -3.17300010      -3.23968109E-11
  -3.17199993      -3.30828108E-11
  -3.17100000      -3.37664965E-11
  -3.17000008      -3.44475524E-11
  -3.16899991      -3.51256663E-11
  -3.16799998      -3.58005153E-11
  -3.16700006      -3.64717839E-11
  -3.16599989      -3.71391425E-11
  -3.16499996      -3.78022648E-11
  -3.16400003      -3.84608213E-11
  -3.16300011      -3.91144790E-11
  -3.16199994      -3.97629048E-11
  -3.16100001      -4.04057586E-11
  -3.16000009      -4.10427040E-11
  -3.15899992      -4.16733974E-11
  -3.15799999      -4.22974919E-11
  -3.15700006      -4.29146441E-11
  -3.15599990      -4.35245069E-11
  -3.15499997      -4.41267300E-11
  -3.15400004      -4.47209596E-11
  -3.15300012      -4.53068416E-11
  -3.15199995      -4.58840257E-11
  -3.15100002      -4.64521546E-11
  -3.15000010      -4.70108709E-11
  -3.14899993      -4.75598172E-11
  -3.14800000      -4.80986327E-11
  -3.14700007      -4.86269601E-11
  -3.14599991      -4.91444420E-11
  -3.14499998      -4.96507141E-11
  -3.14400005      -5.01454191E-11