  -4.00000000       0.00000000    
  -3.99900007       0.00000000    
  -3.99799991       0.00000000    
  -3.99699998       0.00000000    
  -3.99600005       3.59043055E-28
  -3.99499989       3.23318763E-27
  -3.99399996       1.61747562E-26
  -3.99300003       5.93390972E-26
  -3.99200010       1.78110285E-25
  -3.99099994       4.63323155E-25
  -3.99000001       1.08162651E-24
  -3.98900008       2.31889962E-24
  -3.98799992       4.64000135E-24
  -3.98699999       8.76850451E-24
  -3.98600006       1.57904236E-23
  -3.98499990       2.72863295E-23
  -3.98399997       4.54966029E-23
  -3.98300004       7.35249287E-23
  -3.98200011       1.15585541E-22
  -3.98099995       1.77300060E-22
  -3.98000002       2.66050068E-22
  -3.97900009       3.91392139E-22
  -3.97799993       5.65542082E-22
  -3.97700000       8.03935747E-22
  -3.97600007       1.12587410E-21
  -3.97499990       1.55526050E-21
  -3.97399998       2.12143817E-21
  -3.97300005       2.86013752E-21
  -3.97199988       3.81454016E-21
  -3.97099996       5.03647293E-21
  -3.97000003       6.58773668E-21
  -3.96900010       8.54158171E-21
  -3.96799994       1.09843446E-20
  -3.96700001       1.40172476E-20
  -3.96600008       1.77583787E-20
  -3.96499991       2.23448674E-20
  -3.96399999       2.79352496E-20
  -3.96300006       3.47120528E-20
  -3.96199989       4.28846134E-20
  -3.96099997       5.26921159E-20
  -3.96000004       6.44068868E-20
  -3.95900011       7.83379590E-20
  -3.95799994       9.48349066E-20
  -3.95700002       1.14291946E-19
  -3.95600009       1.37152375E-19
  -3.95499992       1.63913296E-19
  -3.95400000       1.95130717E-19
  -3.95300007       2.31424895E-19
  -3.95199990       2.73486099E-19
  -3.95099998       3.22080789E-19
  -3.95000005       3.78058065E-19
  -3.94899988       4.42356598E-19
  -3.94799995       5.16012017E-19
  -3.94700003       6.00164409E-19
  -3.94600010       6.96066747E-19
  -3.94499993       8.05093339E-19
  -3.94400001       9.28749086E-19
  -3.94300008       1.06867889E-18
  -3.94199991       1.22667762E-18
  -3.94099998       1.40470095E-18
  -3.94000006       1.60487618E-18
  -3.93899989       1.82951403E-18
  -3.93799996       2.08112045E-18
  -3.93700004       2.36240984E-18
  -3.93600011       2.67631744E-18
  -3.93499994       3.02601424E-18
  -3.93400002       3.41492065E-18
  -3.93300009       3.84672155E-18
  -3.93199992       4.32538202E-18
  -3.93099999       4.85516390E-18
  -3.93000007       5.44064110E-18
  -3.92899990       6.08672003E-18
  -3.92799997       6.79865494E-18
  -3.92700005       7.58206736E-18
  -3.92600012       8.44296634E-18
  -3.92499995       9.38776707E-18
  -3.92400002       1.04233128E-17
  -3.92300010       1.15568969E-17
  -3.92199993       1.27962822E-17
  -3.92100000       1.41497267E-17
  -3.92000008       1.56260043E-17
  -3.91899991       1.72344288E-17
  -3.91799998       1.89848820E-17
  -3.91700006       2.08878341E-17
  -3.91599989       2.29543761E-17
  -3.91499996       2.51962374E-17
  -3.91400003       2.76258241E-17
  -3.91300011       3.02562353E-17
  -3.91199994       3.31012965E-17
  -3.91100001       3.61755960E-17
  -3.91000009       3.94945027E-17
  -3.90899992       4.30741996E-17
  -3.90799999       4.69317166E-17
  -3.90700006       5.10849673E-17
  -3.90599990       5.55527683E-17
  -3.90499997       6.03548827E-17
  -3.90400004       6.55120428E-17
  -3.90300012       7.10459936E-17
  -3.90199995       7.69795189E-17
  -3.90100002       8.33364813E-17
  -3.90000010       9.01418418E-17
  -3.89899993       9.74217194E-17
  -3.89800000       1.05203411E-16
  -3.89700007       1.13515425E-16
  -3.89599991       1.22387499E-16
  -3.89499998       1.31850697E-16
  -3.89400005       1.41937364E-16
  -3.89299989       1.52681222E-16
  -3.89199996       1.64117398E-16
  -3.89100003       1.76282406E-16
  -3.89000010       1.89214270E-16
  -3.88899994       2.02952469E-16
  -3.88800001       2.17538046E-16
  -3.88700008       2.33013602E-16
  -3.88599992       2.49423330E-16
  -3.88499999       2.66813076E-16
  -3.88400006       2.85230378E-16
  -3.88299990       3.04724417E-16
  -3.88199997       3.25346149E-16
  -3.88100004       3.47148274E-16
  -3.88000011       3.70185347E-16
  -3.87899995       3.94513721E-16
  -3.87800002       4.20191578E-16
  -3.87700009       4.47278977E-16
  -3.87599993       4.75838016E-16
  -3.87500000       5.05932568E-16
  -3.87400007       5.37628488E-16
  -3.87299991       5.70993751E-16
  -3.87199998       6.06098184E-16
  -3.87100005       6.43013786E-16
  -3.86999989       6.81814459E-16
  -3.86899996       7.22576279E-16
  -3.86800003       7.65377330E-16
  -3.86700010       8.10297817E-16
  -3.86599994       8.57420059E-16
  -3.86500001       9.06828391E-16
  -3.86400008       9.58609315E-16
  -3.86299992       1.01285161E-15
  -3.86199999       1.06964591E-15
  -3.86100006       1.12908507E-15
  -3.85999990       1.19126396E-15
  -3.85899997       1.25627977E-15
  -3.85800004       1.32423162E-15
  -3.85700011       1.39522071E-15
  -3.85599995       1.46935038E-15
  -3.85500002       1.54672589E-15
  -3.85400009       1.62745459E-15
  -3.85299993       1.71164575E-15
  -3.85200000       1.79941054E-15
  -3.85100007       1.89086214E-15
  -3.84999990       1.98611587E-15
  -3.84899998       2.08528839E-15
  -3.84800005       2.18849830E-15
  -3.84699988       2.29586586E-15
  -3.84599996       2.40751306E-15
  -3.84500003       2.52356378E-15
  -3.84400010       2.64414294E-15
  -3.84299994       2.76937740E-15
  -3.84200001       2.89939484E-15
  -3.84100008       3.03432443E-15
  -3.83999991       3.17429684E-15
  -3.83899999       3.31944377E-15
  -3.83800006       3.46989757E-15
  -3.83699989       3.62579187E-15
  -3.83599997       3.78726049E-15
  -3.83500004       3.95443896E-15
  -3.83400011       4.12746280E-15
  -3.83299994       4.30646712E-15
  -3.83200002       4.49158871E-15
  -3.83100009       4.68296395E-15
  -3.82999992       4.88072878E-15
  -3.82900000       5.08501915E-15
  -3.82800007       5.29597144E-15
  -3.82699990       5.51371989E-15
  -3.82599998       5.73839961E-15
  -3.82500005       5.97014444E-15
  -3.82399988       6.20908650E-15
  -3.82299995       6.45535752E-15
  -3.82200003       6.70908751E-15
  -3.82100010       6.97040395E-15
  -3.81999993       7.23943305E-15
  -3.81900001       7.51629932E-15
  -3.81800008       7.80112432E-15
  -3.81699991       8.09402662E-15
  -3.81599998       8.39512396E-15
  -3.81500006       8.70452815E-15
  -3.81399989       9.02234847E-15
  -3.81299996       9.34869247E-15
  -3.81200004       9.68366097E-15
  -3.81100011       1.00273522E-14
  -3.80999994       1.03798594E-14
  -3.80900002       1.07412705E-14
  -3.80800009       1.11116687E-14
  -3.80699992       1.14911319E-14
  -3.80599999       1.18797328E-14
  -3.80500007       1.22775359E-14
  -3.80399990       1.26846013E-14
  -3.80299997       1.31009807E-14
  -3.80200005       1.35267206E-14
  -3.80100012       1.39618584E-14
  -3.79999995       1.44064245E-14
  -3.79900002       1.48604392E-14
  -3.79800010       1.53239153E-14
  -3.79699993       1.57968578E-14
  -3.79600000       1.62792600E-14
  -3.79500008       1.67711067E-14
  -3.79399991       1.72723723E-14
  -3.79299998       1.77830197E-14
  -3.79200006       1.83030013E-14
  -3.79099989       1.88322597E-14
  -3.78999996       1.93707219E-14
  -3.78900003       1.99183050E-14
  -3.78800011       2.04749141E-14
  -3.78699994       2.10404373E-14
  -3.78600001       2.16147528E-14
  -3.78500009       2.21977232E-14
  -3.78399992       2.27891978E-14
  -3.78299999       2.33890073E-14
  -3.78200006       2.39969686E-14
  -3.78099990       2.46128869E-14
  -3.77999997       2.52365437E-14
  -3.77900004       2.58677086E-14
  -3.77800012       2.65061309E-14
  -3.77699995       2.71515446E-14
  -3.77600002       2.78036651E-14
  -3.77500010       2.84621874E-14
  -3.77399993       2.91267864E-14
  -3.77300000       2.97971215E-14
  -3.77200007       3.04728302E-14
  -3.77099991       3.11535262E-14
  -3.76999998       3.18388030E-14
  -3.76900005       3.25282370E-14
  -3.76799989       3.32213776E-14
  -3.76699996       3.39177572E-14
  -3.76600003       3.46168779E-14
  -3.76500010       3.53182246E-14
  -3.76399994       3.60212585E-14
  -3.76300001       3.67254106E-14
  -3.76200008       3.74300912E-14
  -3.76099992       3.81346871E-14
  -3.75999999       3.88385579E-14
  -3.75900006       3.95410396E-14
  -3.75799990       4.02414376E-14
  -3.75699997       4.09390336E-14
  -3.75600004       4.16330822E-14
  -3.75500011       4.23228076E-14
  -3.75399995       4.30074135E-14
  -3.75300002       4.36860698E-14
  -3.75200009       4.43579228E-14
  -3.75099993       4.50220847E-14
  -3.75000000       4.56776408E-14
  -3.74900007       4.63236491E-14
  -3.74799991       4.69591339E-14
  -3.74699998       4.75830956E-14
  -3.74600005       4.81945010E-14
  -3.74499989       4.87922894E-14
  -3.74399996       4.93753665E-14
  -3.74300003       4.99426143E-14
  -3.74200010       5.04928740E-14
  -3.74099994       5.10249666E-14
  -3.74000001       5.15376722E-14
  -3.73900008       5.20297510E-14
  -3.73799992       5.24999220E-14
  -3.73699999       5.29468776E-14
  -3.73600006       5.33692861E-14
  -3.73499990       5.37657755E-14
  -3.73399997       5.41349429E-14
  -3.73300004       5.44753621E-14
  -3.73200011       5.47855760E-14
  -3.73099995       5.50640872E-14
  -3.73000002       5.53093744E-14
  -3.72900009       5.55198892E-14
  -3.72799993       5.56940494E-14
  -3.72700000       5.58302421E-14
  -3.72600007       5.59268310E-14
  -3.72499990       5.59821456E-14
  -3.72399998       5.59944852E-14
  -3.72300005       5.59621217E-14
  -3.72199988       5.58833070E-14
  -3.72099996       5.57562588E-14
  -3.72000003       5.55791680E-14
  -3.71900010       5.53501980E-14
  -3.71799994       5.50674923E-14
  -3.71700001       5.47291670E-14
  -3.71600008       5.43333079E-14
  -3.71499991       5.38779870E-14
  -3.71399999       5.33612427E-14
  -3.71300006       5.27810997E-14
  -3.71199989       5.21355589E-14
  -3.71099997       5.14226011E-14
  -3.71000004       5.06401832E-14
  -3.70900011       4.97862487E-14
  -3.70799994       4.88587205E-14
  -3.70700002       4.78555048E-14
  -3.70600009       4.67744977E-14
  -3.70499992       4.56135679E-14
  -3.70400000       4.43705843E-14
  -3.70300007       4.30433988E-14
  -3.70199990       4.16298499E-14
  -3.70099998       4.01277725E-14
  -3.70000005       3.85349881E-14
  -3.69899988       3.68493112E-14
  -3.69799995       3.50685498E-14
  -3.69700003       3.31905151E-14
  -3.69600010       3.12130116E-14
  -3.69499993       2.91338371E-14
  -3.69400001       2.69507994E-14
  -3.69300008       2.46617031E-14
  -3.69199991       2.22643593E-14
  -3.69099998       1.97565844E-14
  -3.69000006       1.71362016E-14
  -3.68899989       1.44010441E-14
  -3.68799996       1.15489554E-14
  -3.68700004       8.57779424E-15
  -3.68600011       5.48543153E-15
  -3.68499994       2.26975798E-15
  -3.68400002      -1.07131785E-15
  -3.68300009      -4.53986578E-15
  -3.68199992      -8.13793257E-15
  -3.68099999      -1.18675389E-14
  -3.68000007      -1.57306792E-14
  -3.67899990      -1.97293150E-14
  -3.67799997      -2.38653786E-14
  -3.67700005      -2.81407655E-14
  -3.67600012      -3.25573376E-14
  -3.67499995      -3.71169160E-14
  -3.67400002      -4.18212726E-14
  -3.67300010      -4.66721490E-14
  -3.67199993      -5.16712290E-14
  -3.67100000      -5.68201526E-14
  -3.67000008      -6.21205087E-14
  -3.66899991      -6.75738287E-14
  -3.66799998      -7.31815867E-14
  -3.66700006      -7.89451986E-14
  -3.66599989      -8.48660199E-14
  -3.66499996      -9.09453448E-14
  -3.66400003      -9.71843862E-14
  -3.66300011      -1.03584303E-13
  -3.66199994      -1.10146179E-13
  -3.66100001      -1.16871004E-13
  -3.66000009      -1.23759713E-13
  -3.65899992      -1.30813153E-13
  -3.65799999      -1.38032069E-13
  -3.65700006      -1.45417139E-13
  -3.65599990      -1.52968960E-13
  -3.65499997      -1.60688005E-13
  -3.65400004      -1.68574681E-13
  -3.65300012      -1.76629273E-13
  -3.65199995      -1.84851998E-13
  -3.65100002      -1.93242937E-13
  -3.65000010      -2.01802062E-13
  -3.64899993      -2.10529280E-13
  -3.64800000      -2.19424332E-13
  -3.64700007      -2.28486880E-13
  -3.64599991      -2.37716449E-13
  -3.64499998      -2.47112443E-13
  -3.64400005      -2.56674185E-13
  -3.64299989      -2.66400834E-13
  -3.64199996      -2.76291387E-13
  -3.64100003      -2.86344787E-13
  -3.64000010      -2.96559760E-13
  -3.63899994      -3.06934979E-13
  -3.63800001      -3.17468924E-13
  -3.63700008      -3.28159971E-13
  -3.63599992      -3.39006302E-13
  -3.63499999      -3.50005994E-13
  -3.63400006      -3.61156932E-13
  -3.63299990      -3.72456921E-13
  -3.63199997      -3.83903548E-13
  -3.63100004      -3.95494266E-13
  -3.63000011      -4.07226390E-13
  -3.62899995      -4.19097049E-13
  -3.62800002      -4.31103233E-13
  -3.62700009      -4.43241716E-13
  -3.62599993      -4.55509166E-13
  -3.62500000      -4.67902084E-13
  -3.62400007      -4.80416759E-13
  -3.62299991      -4.93049286E-13
  -3.62199998      -5.05795655E-13
  -3.62100005      -5.18651636E-13
  -3.61999989      -5.31612948E-13
  -3.61899996      -5.44674928E-13
  -3.61800003      -5.57832860E-13
  -3.61700010      -5.71081810E-13
  -3.61599994      -5.84416684E-13
  -3.61500001      -5.97832222E-13
  -3.61400008      -6.11322896E-13
  -3.61299992      -6.24883066E-13
  -3.61199999      -6.38506934E-13
  -3.61100006      -6.52188481E-13
  -3.60999990      -6.65921528E-13
  -3.60899997      -6.79699623E-13
  -3.60800004      -6.93516208E-13
  -3.60700011      -7.07364560E-13
  -3.60599995      -7.21237740E-13
  -3.60500002      -7.35128538E-13
  -3.60400009      -7.49029690E-13
  -3.60299993      -7.62933716E-13
  -3.60200000      -7.76832917E-13
  -3.60100007      -7.90719432E-13
  -3.59999990      -8.04585185E-13
  -3.59899998      -8.18421990E-13
  -3.59800005      -8.32221390E-13
  -3.59699988      -8.45974820E-13
  -3.59599996      -8.59673498E-13
  -3.59500003      -8.73308533E-13
  -3.59400010      -8.86870763E-13
  -3.59299994      -9.00350866E-13
  -3.59200001      -9.13739462E-13
  -3.59100008      -9.27026793E-13
  -3.58999991      -9.40203210E-13
  -3.58899999      -9.53258739E-13
  -3.58800006      -9.66183297E-13
  -3.58699989      -9.78966474E-13
  -3.58599997      -9.91597971E-13
  -3.58500004      -1.00406727E-12
  -3.58400011      -1.01636343E-12
  -3.58299994      -1.02847581E-12
  -3.58200002      -1.04039325E-12
  -3.58100009      -1.05210469E-12
  -3.57999992      -1.06359886E-12
  -3.57900000      -1.07486426E-12
  -3.57800007      -1.08588952E-12
  -3.57699990      -1.09666291E-12
  -3.57599998      -1.10717262E-12
  -3.57500005      -1.11740695E-12
  -3.57399988      -1.12735374E-12
  -3.57299995      -1.13700108E-12
  -3.57200003      -1.14633682E-12
  -3.57100010      -1.15534860E-12
  -3.56999993      -1.16402417E-12
  -3.56900001      -1.17235106E-12
  -3.56800008      -1.18031691E-12
  -3.56699991      -1.18790915E-12
  -3.56599998      -1.19511519E-12
  -3.56500006      -1.20192246E-12
  -3.56399989      -1.20831817E-12
  -3.56299996      -1.21428974E-12
  -3.56200004      -1.21982426E-12
  -3.56100011      -1.22490906E-12
  -3.55999994      -1.22953145E-12
  -3.55900002      -1.23367852E-12
  -3.55800009      -1.23733760E-12
  -3.55699992      -1.24049599E-12
  -3.55599999      -1.24314079E-12
  -3.55500007      -1.24525932E-12
  -3.55399990      -1.24683900E-12
  -3.55299997      -1.24786704E-12
  -3.55200005      -1.24833097E-12
  -3.55100012      -1.24821833E-12
  -3.54999995      -1.24751663E-12
  -3.54900002      -1.24621342E-12
  -3.54800010      -1.24429666E-12
  -3.54699993      -1.24175399E-12
  -3.54600000      -1.23857337E-12
  -3.54500008      -1.23474289E-12
  -3.54399991      -1.23025082E-12
  -3.54299998      -1.22508535E-12
  -3.54200006      -1.21923500E-12
  -3.54099989      -1.21268837E-12
  -3.53999996      -1.20543441E-12
  -3.53900003      -1.19746194E-12
  -3.53800011      -1.18876024E-12
  -3.53699994      -1.17931869E-12
  -3.53600001      -1.16912675E-12
  -3.53500009      -1.15817436E-12
  -3.53399992      -1.14645153E-12
  -3.53299999      -1.13394851E-12
  -3.53200006      -1.12065598E-12
  -3.53099990      -1.10656449E-12
  -3.52999997      -1.09166539E-12
  -3.52900004      -1.07594988E-12
  -3.52800012      -1.05940972E-12
  -3.52699995      -1.04203690E-12
  -3.52600002      -1.02382360E-12
  -3.52500010      -1.00476246E-12
  -3.52399993      -9.84846536E-13
  -3.52300000      -9.64069102E-13
  -3.52200007      -9.42423873E-13
  -3.52099991      -9.19904886E-13
  -3.51999998      -8.96506610E-13
  -3.51900005      -8.72223788E-13
  -3.51799989      -8.47051758E-13
  -3.51699996      -8.20986128E-13
  -3.51600003      -7.94023050E-13
  -3.51500010      -7.66159000E-13
  -3.51399994      -7.37390943E-13
  -3.51300001      -7.07716383E-13
  -3.51200008      -6.77133100E-13
  -3.51099992      -6.45639575E-13
  -3.50999999      -6.13234669E-13
  -3.50900006      -5.79917733E-13
  -3.50799990      -5.45688657E-13
  -3.50699997      -5.10547821E-13
  -3.50600004      -4.74496148E-13
  -3.50500011      -4.37535099E-13
  -3.50399995      -3.99666709E-13
  -3.50300002      -3.60893552E-13
  -3.50200009      -3.21218719E-13
  -3.50099993      -2.80645949E-13
  -3.50000000      -2.39179472E-13
  -3.49900007      -1.96824192E-13
  -3.49799991      -1.53585559E-13
  -3.49699998      -1.09469657E-13
  -3.49600005      -6.44831546E-14
  -3.49499989      -1.86333577E-14
  -3.49399996       2.80718086E-14
  -3.49300003       7.56237927E-14
  -3.49200010       1.24013389E-13
  -3.49099994       1.73230760E-13
  -3.49000001       2.23265417E-13
  -3.48900008       2.74106231E-13
  -3.48799992       3.25741360E-13
  -3.48699999       3.78158361E-13
  -3.48600006       4.31344061E-13
  -3.48499990       4.85284718E-13
  -3.48399997       5.39965750E-13
  -3.48300004       5.95372059E-13
  -3.48200011       6.51487761E-13
  -3.48099995       7.08296269E-13
  -3.48000002       7.65780397E-13
  -3.47900009       8.23922256E-13
  -3.47799993       8.82703253E-13
  -3.47700000       9.42103925E-13
  -3.47600007       1.00210443E-12
  -3.47499990       1.06268412E-12
  -3.47399998       1.12382141E-12
  -3.47300005       1.18549430E-12
  -3.47199988       1.24768002E-12
  -3.47099996       1.31035525E-12
  -3.47000003       1.37349572E-12
  -3.46900010       1.43707659E-12
  -3.46799994       1.50107227E-12
  -3.46700001       1.56545675E-12
  -3.46600008       1.63020313E-12
  -3.46499991       1.69528378E-12
  -3.46399999       1.76067060E-12
  -3.46300006       1.82633444E-12
  -3.46199989       1.89224613E-12
  -3.46099997       1.95837552E-12
  -3.46000004       2.02469161E-12
  -3.45900011       2.09116296E-12
  -3.45799994       2.15775748E-12
  -3.45700002       2.22444264E-12
  -3.45600009       2.29118504E-12
  -3.45499992       2.35795064E-12
  -3.45400000       2.42470518E-12
  -3.45300007       2.49141376E-12
  -3.45199990       2.55804015E-12
  -3.45099998       2.62454880E-12
  -3.45000005       2.69090262E-12
  -3.44899988       2.75706433E-12
  -3.44799995       2.82299639E-12
  -3.44700003       2.88866045E-12
  -3.44600010       2.95401789E-12
  -3.44499993       3.01902925E-12
  -3.44400001       3.08365486E-12
  -3.44300008       3.14785459E-12
  -3.44199991       3.21158768E-12
  -3.44099998       3.27481358E-12
  -3.44000006       3.33749066E-12
  -3.43899989       3.39957706E-12
  -3.43799996       3.46103094E-12
  -3.43700004       3.52180958E-12
  -3.43600011       3.58187069E-12
  -3.43499994       3.64117070E-12
  -3.43400002       3.69966644E-12
  -3.43300009       3.75731477E-12
  -3.43199992       3.81407102E-12
  -3.43099999       3.86989139E-12
  -3.43000007       3.92473207E-12
  -3.42899990       3.97854839E-12
  -3.42799997       4.03129613E-12
  -3.42700005       4.08293017E-12
  -3.42600012       4.13340586E-12
  -3.42499995       4.18267851E-12
  -3.42400002       4.23070303E-12
  -3.42300010       4.27743474E-12
  -3.42199993       4.32282899E-12
  -3.42100000       4.36684022E-12
  -3.42000008       4.40942378E-12
  -3.41899991       4.45053543E-12
  -3.41799998       4.49013006E-12
  -3.41700006       4.52816387E-12
  -3.41599989       4.56459219E-12
  -3.41499996       4.59937080E-12
  -3.41400003       4.63245588E-12
  -3.41300011       4.66380363E-12
  -3.41199994       4.69337113E-12
  -3.41100001       4.72111543E-12
  -3.41000009       4.74699360E-12
  -3.40899992       4.77096314E-12
  -3.40799999       4.79298198E-12
  -3.40700006       4.81300937E-12
  -3.40599990       4.83100365E-12
  -3.40499997       4.84692538E-12
  -3.40400004       4.86073378E-12
  -3.40300012       4.87238938E-12
  -3.40199995       4.88185317E-12
  -3.40100002       4.88908740E-12
  -3.40000010       4.89405435E-12
  -3.39899993       4.89671758E-12
  -3.39800000       4.89704067E-12
  -3.39700007       4.89498806E-12
  -3.39599991       4.89052505E-12
  -3.39499998       4.88361782E-12
  -3.39400005       4.87423383E-12
  -3.39299989       4.86234056E-12
  -3.39199996       4.84790723E-12
  -3.39100003       4.83090347E-12
  -3.39000010       4.81130023E-12
  -3.38899994       4.78906888E-12
  -3.38800001       4.76418254E-12
  -3.38700008       4.73661475E-12
  -3.38599992       4.70634035E-12
  -3.38499999       4.67333550E-12
  -3.38400006       4.63757765E-12
  -3.38299990       4.59904510E-12
  -3.38199997       4.55771705E-12
  -3.38100004       4.51357484E-12
  -3.38000011       4.46660070E-12
  -3.37899995       4.41677771E-12
  -3.37800002       4.36409069E-12
  -3.37700009       4.30852576E-12
  -3.37599993       4.25007078E-12
  -3.37500000       4.18871448E-12
  -3.37400007       4.12444688E-12
  -3.37299991       4.05726017E-12
  -3.37199998       3.98714785E-12
  -3.37100005       3.91410428E-12
  -3.36999989       3.83812643E-12
  -3.36899996       3.75921169E-12
  -3.36800003       3.67736007E-12
  -3.36700010       3.59257220E-12
  -3.36599994       3.50485136E-12
  -3.36500001       3.41420186E-12
  -3.36400008       3.32062980E-12
  -3.36299992       3.22414296E-12
  -3.36199999       3.12475089E-12
  -3.36100006       3.02246487E-12
  -3.35999990       2.91729813E-12
  -3.35899997       2.80926519E-12
  -3.35800004       2.69838297E-12
  -3.35700011       2.58466967E-12
  -3.35599995       2.46814570E-12
  -3.35500002       2.34883272E-12
  -3.35400009       2.22675502E-12
  -3.35299993       2.10193798E-12
  -3.35200000       1.97440957E-12
  -3.35100007       1.84419884E-12
  -3.34999990       1.71133745E-12
  -3.34899998       1.57585848E-12
  -3.34800005       1.43779715E-12
  -3.34699988       1.29719055E-12
  -3.34599996       1.15407770E-12
  -3.34500003       1.00849927E-12
  -3.34400010       8.60498250E-13
  -3.34299994       7.10119192E-13
  -3.34200001       5.57408828E-13
  -3.34100008       4.02415623E-13
  -3.33999991       2.45190044E-13
  -3.33899999       8.57844408E-14
  -3.33800006      -7.57469377E-14
  -3.33699989      -2.39347957E-13
  -3.33599997      -4.04960543E-13
  -3.33500004      -5.72524775E-13
  -3.33400011      -7.41978798E-13
  -3.33299994      -9.13259052E-13
  -3.33200002      -1.08629978E-12
  -3.33100009      -1.26103381E-12
  -3.32999992      -1.43739198E-12
  -3.32900000      -1.61530316E-12
  -3.32800007      -1.79469471E-12
  -3.32699990      -1.97549182E-12
  -3.32599998      -2.15761848E-12
  -3.32500005      -2.34099654E-12
  -3.32399988      -2.52554640E-12
  -3.32299995      -2.71118631E-12
  -3.32200003      -2.89783323E-12
  -3.32100010      -3.08540259E-12
  -3.31999993      -3.27380787E-12
  -3.31900001      -3.46296125E-12
  -3.31800008      -3.65277296E-12
  -3.31699991      -3.84315236E-12
  -3.31599998      -4.03400707E-12
  -3.31500006      -4.22524342E-12
  -3.31399989      -4.41676556E-12
  -3.31299996      -4.60847636E-12
  -3.31200004      -4.80027823E-12
  -3.31100011      -4.99207186E-12
  -3.30999994      -5.18375664E-12
  -3.30900002      -5.37523108E-12
  -3.30800009      -5.56639153E-12
  -3.30699992      -5.75713435E-12
  -3.30599999      -5.94735415E-12
  -3.30500007      -6.13694425E-12
  -3.30399990      -6.32579839E-12
  -3.30299997      -6.51380729E-12
  -3.30200005      -6.70086252E-12
  -3.30100012      -6.88685437E-12
  -3.29999995      -7.07167137E-12
  -3.29900002      -7.25520295E-12
  -3.29800010      -7.43733634E-12
  -3.29699993      -7.61795921E-12
  -3.29600000      -7.79695839E-12
  -3.29500008      -7.97421938E-12
  -3.29399991      -8.14962941E-12
  -3.29299998      -8.32307227E-12
  -3.29200006      -8.49443432E-12
  -3.29099989      -8.66360022E-12
  -3.28999996      -8.83045373E-12
  -3.28900003      -8.99488036E-12
  -3.28800011      -9.15676389E-12
  -3.28699994      -9.31598982E-12
  -3.28600001      -9.47244106E-12
  -3.28500009      -9.62600399E-12
  -3.28399992      -9.77656237E-12
  -3.28299999      -9.92400172E-12
  -3.28200006      -1.00682076E-11
  -3.28099990      -1.02090662E-11
  -3.27999997      -1.03464641E-11
  -3.27900004      -1.04802876E-11
  -3.27800012      -1.06104249E-11
  -3.27699995      -1.07367639E-11
  -3.27600002      -1.08591946E-11
  -3.27500010      -1.09776060E-11
  -3.27399993      -1.10918887E-11
  -3.27300000      -1.12019361E-11
  -3.27200007      -1.13076406E-11
  -3.27099991      -1.14088964E-11
  -3.26999998      -1.15055986E-11
  -3.26900005      -1.15976447E-11
  -3.26799989      -1.16849325E-11
  -3.26699996      -1.17673614E-11
  -3.26600003      -1.18448324E-11
  -3.26500010      -1.19172493E-11
  -3.26399994      -1.19845158E-11
  -3.26300001      -1.20465382E-11
  -3.26200008      -1.21032247E-11
  -3.26099992      -1.21544849E-11
  -3.25999999      -1.22002313E-11
  -3.25900006      -1.22403780E-11
  -3.25799990      -1.22748417E-11
  -3.25699997      -1.23035401E-11
  -3.25600004      -1.23263942E-11
  -3.25500011      -1.23433277E-11
  -3.25399995      -1.23542652E-11
  -3.25300002      -1.23591363E-11
  -3.25200009      -1.23578708E-11
  -3.25099993      -1.23504020E-11
  -3.25000000      -1.23366673E-11
  -3.24900007      -1.23166043E-11
  -3.24799991      -1.22901559E-11
  -3.24699998      -1.22572664E-11
  -3.24600005      -1.22178838E-11
  -3.24499989      -1.21719596E-11
  -3.24399996      -1.21194469E-11
  -3.24300003      -1.20603041E-11
  -3.24200010      -1.19944913E-11
  -3.24099994      -1.19219730E-11
  -3.24000001      -1.18427169E-11
  -3.23900008      -1.17566928E-11
  -3.23799992      -1.16638756E-11
  -3.23699999      -1.15642435E-11
  -3.23600006      -1.14577783E-11
  -3.23499990      -1.13444644E-11
  -3.23399997      -1.12242923E-11
  -3.23300004      -1.10972542E-11
  -3.23200011      -1.09633474E-11
  -3.23099995      -1.08225729E-11
  -3.23000002      -1.06749340E-11
  -3.22900009      -1.05204396E-11
  -3.22799993      -1.03591033E-11
  -3.22700000      -1.01909410E-11
  -3.22600007      -1.00159742E-11
  -3.22499990      -9.83422805E-12
  -3.22399998      -9.64573213E-12
  -3.22300005      -9.45051936E-12
  -3.22199988      -9.24862791E-12
  -3.22099996      -9.04009940E-12
  -3.22000003      -8.82497981E-12
  -3.21900010      -8.60332031E-12
  -3.21799994      -8.37517642E-12
  -3.21700001      -8.14060711E-12
  -3.21600008      -7.89967657E-12
  -3.21499991      -7.65245246E-12
  -3.21399999      -7.39900762E-12
  -3.21300006      -7.13941926E-12
  -3.21199989      -6.87376892E-12
  -3.21099997      -6.60214288E-12
  -3.21000004      -6.32463179E-12
  -3.20900011      -6.04133020E-12
  -3.20799994      -5.75233828E-12
  -3.20700002      -5.45775924E-12
  -3.20600009      -5.15770152E-12
  -3.20499992      -4.85227787E-12
  -3.20400000      -4.54160537E-12
  -3.20300007      -4.22580590E-12
  -3.20199990      -3.90500523E-12
  -3.20099998      -3.57933323E-12
  -3.20000005      -3.24892522E-12
  -3.19899988      -2.91391976E-12
  -3.19799995      -2.57446039E-12
  -3.19700003      -2.23069436E-12
  -3.19600010      -1.88277323E-12
  -3.19499993      -1.53085314E-12
  -3.19400001      -1.17509409E-12
  -3.19300008      -8.15660148E-13
  -3.19199991      -4.52719405E-13
  -3.19099998      -8.64439881E-14
  -3.19000006       2.82990048E-13
  -3.18899989       6.55402815E-13
  -3.18799996       1.03061038E-12
  -3.18700004       1.40842557E-12
  -3.18600011       1.78865690E-12
  -3.18499994       2.17110965E-12
  -3.18400002       2.55558552E-12
  -3.18300009       2.94188241E-12
  -3.18199992       3.32979542E-12
  -3.18099999       3.71911616E-12
  -3.18000007       4.10963191E-12
  -3.17899990       4.50112864E-12
  -3.17799997       4.89338778E-12
  -3.17700005       5.28618902E-12
  -3.17600012       5.67930772E-12
  -3.17499995       6.07251749E-12
  -3.17400002       6.46558935E-12
  -3.17300010       6.85829128E-12
  -3.17199993       7.25038866E-12
  -3.17100000       7.64164513E-12
  -3.17000008       8.03182087E-12
  -3.16899991       8.42067562E-12
  -3.16799998       8.80796651E-12
  -3.16700006       9.19344809E-12
  -3.16599989       9.57687402E-12
  -3.16499996       9.95799537E-12
  -3.16400003       1.03365615E-11
  -3.16300011       1.07123217E-11
  -3.16199994       1.10850235E-11
  -3.16100001       1.14544138E-11
  -3.16000009       1.18202366E-11
  -3.15899992       1.21822361E-11
  -3.15799999       1.25401564E-11
  -3.15700006       1.28937399E-11
  -3.15599990       1.32427307E-11
  -3.15499997       1.35868695E-11
  -3.15400004       1.39258995E-11
  -3.15300012       1.42595623E-11
  -3.15199995       1.45876002E-11
  -3.15100002       1.49097575E-11
  -3.15000010       1.52257755E-11
  -3.14899993       1.55353976E-11
  -3.14800000       1.58383688E-11
  -3.14700007       1.61344341E-11
  -3.14599991       1.64233401E-11
  -3.14499998       1.67048354E-11
  -3.14400005       1.69786685E-11