  -4.00000000       0.00000000    
  -3.99900007       0.00000000    
  -3.99799991       0.00000000    
  -3.99699998       0.00000000    
  -3.99600005      -3.17036977E-27
  -3.99499989      -2.85307786E-26
  -3.99399996      -1.42621158E-25
  -3.99300003      -5.22750315E-25
  -3.99200010      -1.56744788E-24
  -3.99099994      -4.07270308E-24
  -3.99000001      -9.49542405E-24
  -3.98900008      -2.03282924E-23
  -3.98799992      -4.06127619E-23
  -3.98699999      -7.66194028E-23
  -3.98600006      -1.37727036E-22
  -3.98499990      -2.37534096E-22
  -3.98399997      -3.95237640E-22
  -3.98300004      -6.37316914E-22
  -3.98200011      -9.99559519E-22
  -3.98099995      -1.52947048E-21
  -3.98000002      -2.28910219E-21
  -3.97900009      -3.35834925E-21
  -3.97799993      -4.83874607E-21
  -3.97700000      -6.85780953E-21
  -3.97600007      -9.57396532E-21
  -3.97499990      -1.31821013E-20
  -3.97399998      -1.79197823E-20
  -3.97300005      -2.40741628E-20
  -3.97199988      -3.19896366E-20
  -3.97099996      -4.20762511E-20
  -3.97000003      -5.48189200E-20
  -3.96900010      -7.07874479E-20
  -3.96799994      -9.06474340E-20
  -3.96700001      -1.15172001E-19
  -3.96600008      -1.45254428E-19
  -3.96499991      -1.81921664E-19
  -3.96399999      -2.26348746E-19
  -3.96300006      -2.79874079E-19
  -3.96199989      -3.44015680E-19
  -3.96099997      -4.20488217E-19
  -3.96000004      -5.11220935E-19
  -3.95900011      -6.18376445E-19
  -3.95799994      -7.44370217E-19
  -3.95700002      -8.91890952E-19
  -3.95600009      -1.06392136E-18
  -3.95499992      -1.26376013E-18
  -3.95400000      -1.49504396E-18
  -3.95300007      -1.76177001E-18
  -3.95199990      -2.06831963E-18
  -3.95099998      -2.41948116E-18
  -3.95000005      -2.82047372E-18
  -3.94899988      -3.27697112E-18
  -3.94799995      -3.79512492E-18
  -3.94700003      -4.38158894E-18
  -3.94600010      -5.04354064E-18
  -3.94499993      -5.78870588E-18
  -3.94400001      -6.62537839E-18
  -3.94300008      -7.56244250E-18
  -3.94199991      -8.60939260E-18
  -3.94099998      -9.77635253E-18
  -3.94000006      -1.10740914E-17
  -3.93899989      -1.25140391E-17
  -3.93799996      -1.41082999E-17
  -3.93700004      -1.58696652E-17
  -3.93600011      -1.78116206E-17
  -3.93499994      -1.99483505E-17
  -3.93400002      -2.22947459E-17
  -3.93300009      -2.48663959E-17
  -3.93199992      -2.76795892E-17
  -3.93099999      -3.07513062E-17
  -3.93000007      -3.40992006E-17
  -3.92899990      -3.77415812E-17
  -3.92799997      -4.16974037E-17
  -3.92700005      -4.59862227E-17
  -3.92600012      -5.06281684E-17
  -3.92499995      -5.56439104E-17
  -3.92400002      -6.10545981E-17
  -3.92300010      -6.68818142E-17
  -3.92199993      -7.31475220E-17
  -3.92100000      -7.98739761E-17
  -3.92000008      -8.70836558E-17
  -3.91899991      -9.47991797E-17
  -3.91799998      -1.03043212E-16
  -3.91700006      -1.11838353E-16
  -3.91599989      -1.21207013E-16
  -3.91499996      -1.31171324E-16
  -3.91400003      -1.41752949E-16
  -3.91300011      -1.52972986E-16
  -3.91199994      -1.64851776E-16
  -3.91100001      -1.77408721E-16
  -3.91000009      -1.90662140E-16
  -3.90899992      -2.04629052E-16
  -3.90799999      -2.19324954E-16
  -3.90700006      -2.34763599E-16
  -3.90599990      -2.50956778E-16
  -3.90499997      -2.67914033E-16
  -3.90400004      -2.85642406E-16
  -3.90300012      -3.04146132E-16
  -3.90199995      -3.23426402E-16
  -3.90100002      -3.43480966E-16
  -3.90000010      -3.64303841E-16
  -3.89899993      -3.85884944E-16
  -3.89800000      -4.08209741E-16
  -3.89700007      -4.31258831E-16
  -3.89599991      -4.55007570E-16
  -3.89499998      -4.79425730E-16
  -3.89400005      -5.04476836E-16
  -3.89299989      -5.30117952E-16
  -3.89199996      -5.56299053E-16
  -3.89100003      -5.82962538E-16
  -3.89000010      -6.10042817E-16
  -3.88899994      -6.37465720E-16
  -3.88800001      -6.65147815E-16
  -3.88700008      -6.92996141E-16
  -3.88599992      -7.20907253E-16
  -3.88499999      -7.48766961E-16
  -3.88400006      -7.76449427E-16
  -3.88299990      -8.03816691E-16
  -3.88199997      -8.30717981E-16
  -3.88100004      -8.56988867E-16
  -3.88000011      -8.82450836E-16
  -3.87899995      -9.06910342E-16
  -3.87800002      -9.30158114E-16
  -3.87700009      -9.51968577E-16
  -3.87599993      -9.72098950E-16
  -3.87500000      -9.90288347E-16
  -3.87400007      -1.00625714E-15
  -3.87299991      -1.01970623E-15
  -3.87199998      -1.03031605E-15
  -3.87100005      -1.03774559E-15
  -3.86999989      -1.04163199E-15
  -3.86899996      -1.04158932E-15
  -3.86800003      -1.03720773E-15
  -3.86700010      -1.02805278E-15
  -3.86599994      -1.01366423E-15
  -3.86500001      -9.93555565E-16
  -3.86400008      -9.67212735E-16
  -3.86299992      -9.34093217E-16
  -3.86199999      -8.93625477E-16
  -3.86100006      -8.45207697E-16
  -3.85999990      -7.88207038E-16
  -3.85899997      -7.21958686E-16
  -3.85800004      -6.45764843E-16
  -3.85700011      -5.58894044E-16
  -3.85599995      -4.60579988E-16
  -3.85500002      -3.50020934E-16
  -3.85400009      -2.26378528E-16
  -3.85299993      -8.87771195E-17
  -3.85200000       6.36971556E-17
  -3.85100007       2.31997216E-16
  -3.84999990       4.17115869E-16
  -3.84899998       6.20086616E-16
  -3.84800005       8.41984472E-16
  -3.84699988       1.08392657E-15
  -3.84599996       1.34707313E-15
  -3.84500003       1.63262805E-15
  -3.84400010       1.94183934E-15
  -3.84299994       2.27600040E-15
  -3.84200001       2.63644998E-15
  -3.84100008       3.02457275E-15
  -3.83999991       3.44180043E-15
  -3.83899999       3.88961214E-15
  -3.83800006       4.36953381E-15
  -3.83699989       4.88313944E-15
  -3.83599997       5.43205236E-15
  -3.83500004       6.01794293E-15
  -3.83400011       6.64253105E-15
  -3.83299994       7.30758617E-15
  -3.83200002       8.01492475E-15
  -3.83100009       8.76641492E-15
  -3.82999992       9.56397183E-15
  -3.82900000       1.04095589E-14
  -3.82800007       1.13051904E-14
  -3.82699990       1.22529279E-14
  -3.82599998       1.32548798E-14
  -3.82500005       1.43132034E-14
  -3.82399988       1.54301010E-14
  -3.82299995       1.66078224E-14
  -3.82200003       1.78486647E-14
  -3.82100010       1.91549640E-14
  -3.81999993       2.05291072E-14
  -3.81900001       2.19735203E-14
  -3.81800008       2.34906682E-14
  -3.81699991       2.50830596E-14
  -3.81599998       2.67532392E-14
  -3.81500006       2.85037937E-14
  -3.81399989       3.03373388E-14
  -3.81299996       3.22565291E-14
  -3.81200004       3.42640480E-14
  -3.81100011       3.63626128E-14
  -3.80999994       3.85549611E-14
  -3.80900002       4.08438576E-14
  -3.80800009       4.32320975E-14
  -3.80699992       4.57224895E-14
  -3.80599999       4.83178595E-14
  -3.80500007       5.10210465E-14
  -3.80399990       5.38349069E-14
  -3.80299997       5.67623036E-14
  -3.80200005       5.98061029E-14
  -3.80100012       6.29691611E-14
  -3.79999995       6.62543547E-14
  -3.79900002       6.96645432E-14
  -3.79800010       7.32025660E-14
  -3.79699993       7.68712622E-14
  -3.79600000       8.06734440E-14
  -3.79500008       8.46119033E-14
  -3.79399991       8.86893979E-14
  -3.79299998       9.29086655E-14
  -3.79200006       9.72723963E-14
  -3.79099989       1.01783240E-13
  -3.78999996       1.06443784E-13
  -3.78900003       1.11256585E-13
  -3.78800011       1.16224128E-13
  -3.78699994       1.21348813E-13
  -3.78600001       1.26632998E-13
  -3.78500009       1.32078945E-13
  -3.78399992       1.37688851E-13
  -3.78299999       1.43464789E-13
  -3.78200006       1.49408738E-13
  -3.78099990       1.55522595E-13
  -3.77999997       1.61808135E-13
  -3.77900004       1.68267012E-13
  -3.77800012       1.74900730E-13
  -3.77699995       1.81710685E-13
  -3.77600002       1.88698110E-13
  -3.77500010       1.95864104E-13
  -3.77399993       2.03209587E-13
  -3.77300000       2.10735319E-13
  -3.77200007       2.18441896E-13
  -3.77099991       2.26329697E-13
  -3.76999998       2.34398926E-13
  -3.76900005       2.42649596E-13
  -3.76799989       2.51081491E-13
  -3.76699996       2.59694149E-13
  -3.76600003       2.68486893E-13
  -3.76500010       2.77458828E-13
  -3.76399994       2.86608790E-13
  -3.76300001       2.95935368E-13
  -3.76200008       3.05436828E-13
  -3.76099992       3.15111245E-13
  -3.75999999       3.24956289E-13
  -3.75900006       3.34969438E-13
  -3.75799990       3.45147766E-13
  -3.75699997       3.55488073E-13
  -3.75600004       3.65986863E-13
  -3.75500011       3.76640207E-13
  -3.75399995       3.87443875E-13
  -3.75300002       3.98393260E-13
  -3.75200009       4.09483374E-13
  -3.75099993       4.20708878E-13
  -3.75000000       4.32063998E-13
  -3.74900007       4.43542555E-13
  -3.74799991       4.55137989E-13
  -3.74699998       4.66843198E-13
  -3.74600005       4.78650756E-13
  -3.74499989       4.90552748E-13
  -3.74399996       5.02540826E-13
  -3.74300003       5.14606153E-13
  -3.74200010       5.26739351E-13
  -3.74099994       5.38930662E-13
  -3.74000001       5.51169678E-13
  -3.73900008       5.63445558E-13
  -3.73799992       5.75746970E-13
  -3.73699999       5.88062043E-13
  -3.73600006       6.00378254E-13
  -3.73499990       6.12682648E-13
  -3.73399997       6.24961617E-13
  -3.73300004       6.37201067E-13
  -3.73200011       6.49386252E-13
  -3.73099995       6.61501832E-13
  -3.73000002       6.73531977E-13
  -3.72900009       6.85460098E-13
  -3.72799993       6.97269065E-13
  -3.72700000       7.08941152E-13
  -3.72600007       7.20457981E-13
  -3.72499990       7.31800417E-13
  -3.72399998       7.42948888E-13
  -3.72300005       7.53883013E-13
  -3.72199988       7.64581757E-13
  -3.72099996       7.75023546E-13
  -3.72000003       7.85186044E-13
  -3.71900010       7.95046212E-13
  -3.71799994       8.04580361E-13
  -3.71700001       8.13764149E-13
  -3.71600008       8.22572479E-13
  -3.71499991       8.30979654E-13
  -3.71399999       8.38959219E-13
  -3.71300006       8.46484070E-13
  -3.71199989       8.53526342E-13
  -3.71099997       8.60057468E-13
  -3.71000004       8.66048227E-13
  -3.70900011       8.71468750E-13
  -3.70799994       8.76288354E-13
  -3.70700002       8.80475705E-13
  -3.70600009       8.83998766E-13
  -3.70499992       8.86824902E-13
  -3.70400000       8.88920610E-13
  -3.70300007       8.90251902E-13
  -3.70199990       8.90783920E-13
  -3.70099998       8.90481211E-13
  -3.70000005       8.89307725E-13
  -3.69899988       8.87226653E-13
  -3.69799995       8.84200590E-13
  -3.69700003       8.80191482E-13
  -3.69600010       8.75160567E-13
  -3.69499993       8.69068489E-13
  -3.69400001       8.61875296E-13
  -3.69300008       8.53540437E-13
  -3.69199991       8.44022823E-13
  -3.69099998       8.33280710E-13
  -3.69000006       8.21271762E-13
  -3.68899989       8.07953205E-13
  -3.68799996       7.93281619E-13
  -3.68700004       7.77213146E-13
  -3.68600011       7.59703444E-13
  -3.68499994       7.40707625E-13
  -3.68400002       7.20180372E-13
  -3.68300009       6.98076037E-13
  -3.68199992       6.74348381E-13
  -3.68099999       6.48950945E-13
  -3.68000007       6.21836783E-13
  -3.67899990       5.92958679E-13
  -3.67799997       5.62269090E-13
  -3.67700005       5.29720202E-13
  -3.67600012       4.95263878E-13
  -3.67499995       4.58851869E-13
  -3.67400002       4.20435578E-13
  -3.67300010       3.79966376E-13
  -3.67199993       3.37395449E-13
  -3.67100000       2.92673898E-13
  -3.67000008       2.45752745E-13
  -3.66899991       1.96582984E-13
  -3.66799998       1.45115636E-13
  -3.66700006       9.13017695E-14
  -3.66599989       3.50925276E-14
  -3.66499996      -2.35608177E-14
  -3.66400003      -8.47068184E-14
  -3.66300011      -1.48393830E-13
  -3.66199994      -2.14669930E-13
  -3.66100001      -2.83582917E-13
  -3.66000009      -3.55180241E-13
  -3.65899992      -4.29508967E-13
  -3.65799999      -5.06615745E-13
  -3.65700006      -5.86546653E-13
  -3.65599990      -6.69347336E-13
  -3.65499997      -7.55062733E-13
  -3.65400004      -8.43737244E-13
  -3.65300012      -9.35414615E-13
  -3.65199995      -1.03013767E-12
  -3.65100002      -1.12794854E-12
  -3.65000010      -1.22888863E-12
  -3.64899993      -1.33299827E-12
  -3.64800000      -1.44031683E-12
  -3.64700007      -1.55088269E-12
  -3.64599991      -1.66473302E-12
  -3.64499998      -1.78190416E-12
  -3.64400005      -1.90243112E-12
  -3.64299989      -2.02634719E-12
  -3.64199996      -2.15368500E-12
  -3.64100003      -2.28447534E-12
  -3.64000010      -2.41874793E-12
  -3.63899994      -2.55653072E-12
  -3.63800001      -2.69784997E-12
  -3.63700008      -2.84273061E-12
  -3.63599992      -2.99119540E-12
  -3.63499999      -3.14326581E-12
  -3.63400006      -3.29896115E-12
  -3.63299990      -3.45829875E-12
  -3.63199997      -3.62129445E-12
  -3.63100004      -3.78796170E-12
  -3.63000011      -3.95831154E-12
  -3.62899995      -4.13235288E-12
  -3.62800002      -4.31009308E-12
  -3.62700009      -4.49153692E-12
  -3.62599993      -4.67668612E-12
  -3.62500000      -4.86554070E-12
  -3.62400007      -5.05809760E-12
  -3.62299991      -5.25435121E-12
  -3.62199998      -5.45429370E-12
  -3.62100005      -5.65791424E-12
  -3.61999989      -5.86519939E-12
  -3.61899996      -6.07613222E-12
  -3.61800003      -6.29069323E-12
  -3.61700010      -6.50886029E-12
  -3.61599994      -6.73060782E-12
  -3.61500001      -6.95590720E-12
  -3.61400008      -7.18472590E-12
  -3.61299992      -7.41702966E-12
  -3.61199999      -7.65277858E-12
  -3.61100006      -7.89193103E-12
  -3.60999990      -8.13444277E-12
  -3.60899997      -8.38026350E-12
  -3.60800004      -8.62934030E-12
  -3.60700011      -8.88161853E-12
  -3.60599995      -9.13703661E-12
  -3.60500002      -9.39553210E-12
  -3.60400009      -9.65703646E-12
  -3.60299993      -9.92147770E-12
  -3.60200000      -1.01887812E-11
  -3.60100007      -1.04588673E-11
  -3.59999990      -1.07316525E-11
  -3.59899998      -1.10070486E-11
  -3.59800005      -1.12849643E-11
  -3.59699988      -1.15653034E-11
  -3.59599996      -1.18479653E-11
  -3.59500003      -1.21328459E-11
  -3.59400010      -1.24198360E-11
  -3.59299994      -1.27088218E-11
  -3.59200001      -1.29996855E-11
  -3.59100008      -1.32923048E-11
  -3.58999991      -1.35865529E-11
  -3.58899999      -1.38822990E-11
  -3.58800006      -1.41794068E-11
  -3.58699989      -1.44777359E-11
  -3.58599997      -1.47771413E-11
  -3.58500004      -1.50774723E-11
  -3.58400011      -1.53785751E-11
  -3.58299994      -1.56802921E-11
  -3.58200002      -1.59824567E-11
  -3.58100009      -1.62849022E-11
  -3.57999992      -1.65874554E-11
  -3.57900000      -1.68899374E-11
  -3.57800007      -1.71921661E-11
  -3.57699990      -1.74939525E-11
  -3.57599998      -1.77951074E-11
  -3.57500005      -1.80954314E-11
  -3.57399988      -1.83947250E-11
  -3.57299995      -1.86927782E-11
  -3.57200003      -1.89893830E-11
  -3.57100010      -1.92843224E-11
  -3.56999993      -1.95773779E-11
  -3.56900001      -1.98683240E-11
  -3.56800008      -2.01569299E-11
  -3.56699991      -2.04429616E-11
  -3.56599998      -2.07261812E-11
  -3.56500006      -2.10063460E-11
  -3.56399989      -2.12832078E-11
  -3.56299996      -2.15565153E-11
  -3.56200004      -2.18260132E-11
  -3.56100011      -2.20914398E-11
  -3.55999994      -2.23525295E-11
  -3.55900002      -2.26090154E-11
  -3.55800009      -2.28606231E-11
  -3.55699992      -2.31070753E-11
  -3.55599999      -2.33480926E-11
  -3.55500007      -2.35833887E-11
  -3.55399990      -2.38126775E-11
  -3.55299997      -2.40356658E-11
  -3.55200005      -2.42520587E-11
  -3.55100012      -2.44615560E-11
  -3.54999995      -2.46638543E-11
  -3.54900002      -2.48586499E-11
  -3.54800010      -2.50456322E-11
  -3.54699993      -2.52244909E-11
  -3.54600000      -2.53949119E-11
  -3.54500008      -2.55565760E-11
  -3.54399991      -2.57091640E-11
  -3.54299998      -2.58523515E-11
  -3.54200006      -2.59858159E-11
  -3.54099989      -2.61092294E-11
  -3.53999996      -2.62222605E-11
  -3.53900003      -2.63245814E-11
  -3.53800011      -2.64158573E-11
  -3.53699994      -2.64957535E-11
  -3.53600001      -2.65639333E-11
  -3.53500009      -2.66200621E-11
  -3.53399992      -2.66637996E-11
  -3.53299999      -2.66948078E-11
  -3.53200006      -2.67127466E-11
  -3.53099990      -2.67172760E-11
  -3.52999997      -2.67080559E-11
  -3.52900004      -2.66847447E-11
  -3.52800012      -2.66470006E-11
  -3.52699995      -2.65944853E-11
  -3.52600002      -2.65268606E-11
  -3.52500010      -2.64437864E-11
  -3.52399993      -2.63449228E-11
  -3.52300000      -2.62299349E-11
  -3.52200007      -2.60984880E-11
  -3.52099991      -2.59502472E-11
  -3.51999998      -2.57848812E-11
  -3.51900005      -2.56020604E-11
  -3.51799989      -2.54014587E-11
  -3.51699996      -2.51827500E-11
  -3.51600003      -2.49456150E-11
  -3.51500010      -2.46897329E-11
  -3.51399994      -2.44147896E-11
  -3.51300001      -2.41204730E-11
  -3.51200008      -2.38064776E-11
  -3.51099992      -2.34724965E-11
  -3.50999999      -2.31182348E-11
  -3.50900006      -2.27433974E-11
  -3.50799990      -2.23476949E-11
  -3.50699997      -2.19308460E-11
  -3.50600004      -2.14925716E-11
  -3.50500011      -2.10325993E-11
  -3.50399995      -2.05506653E-11
  -3.50300002      -2.00465079E-11
  -3.50200009      -1.95198753E-11
  -3.50099993      -1.89705213E-11
  -3.50000000      -1.83982118E-11
  -3.49900007      -1.78027142E-11
  -3.49799991      -1.71838047E-11
  -3.49699998      -1.65412718E-11
  -3.49600005      -1.58749108E-11
  -3.49499989      -1.51845220E-11
  -3.49399996      -1.44699209E-11
  -3.49300003      -1.37309296E-11
  -3.49200010      -1.29673798E-11
  -3.49099994      -1.21791136E-11
  -3.49000001      -1.13659837E-11
  -3.48900008      -1.05278546E-11
  -3.48799992      -9.66459985E-12
  -3.48699999      -8.77610484E-12
  -3.48600006      -7.86226813E-12
  -3.48499990      -6.92299993E-12
  -3.48399997      -5.95822133E-12
  -3.48300004      -4.96786683E-12
  -3.48200011      -3.95188353E-12
  -3.48099995      -2.91023238E-12
  -3.48000002      -1.84288739E-12
  -3.47900009      -7.49836228E-13
  -3.47799993       3.68919115E-13
  -3.47700000       1.51336224E-12
  -3.47600007       2.68346239E-12
  -3.47499990       3.87917389E-12
  -3.47399998       5.10043483E-12
  -3.47300005       6.34716932E-12
  -3.47199988       7.61928454E-12
  -3.47099996       8.91667122E-12
  -3.47000003       1.02392053E-11
  -3.46900010       1.15867463E-11
  -3.46799994       1.29591346E-11
  -3.46700001       1.43561959E-11
  -3.46600008       1.57777368E-11
  -3.46499991       1.72235455E-11
  -3.46399999       1.86933958E-11
  -3.46300006       2.01870395E-11
  -3.46199989       2.17042131E-11
  -3.46099997       2.32446336E-11
  -3.46000004       2.48079994E-11
  -3.45900011       2.63939894E-11
  -3.45799994       2.80022637E-11
  -3.45700002       2.96324631E-11
  -3.45600009       3.12842079E-11
  -3.45499992       3.29571023E-11
  -3.45400000       3.46507198E-11
  -3.45300007       3.63646301E-11
  -3.45199990       3.80983717E-11
  -3.45099998       3.98514659E-11
  -3.45000005       4.16234130E-11
  -3.44899988       4.34136928E-11
  -3.44799995       4.52217638E-11
  -3.44700003       4.70470642E-11
  -3.44600010       4.88890144E-11
  -3.44499993       5.07470073E-11
  -3.44400001       5.26204184E-11
  -3.44300008       5.45086025E-11
  -3.44199991       5.64108933E-11
  -3.44099998       5.83266005E-11
  -3.44000006       6.02550232E-11
  -3.43899989       6.21954155E-11
  -3.43799996       6.41470349E-11
  -3.43700004       6.61091043E-11
  -3.43600011       6.80808326E-11
  -3.43499994       7.00614011E-11
  -3.43400002       7.20499702E-11
  -3.43300009       7.40456793E-11
  -3.43199992       7.60476473E-11
  -3.43099999       7.80549791E-11
  -3.43000007       8.00667518E-11
  -3.42899990       8.20820217E-11
  -3.42799997       8.40998313E-11
  -3.42700005       8.61191882E-11
  -3.42600012       8.81390794E-11
  -3.42499995       9.01584918E-11
  -3.42400002       9.21763776E-11
  -3.42300010       9.41916684E-11
  -3.42199993       9.62032815E-11
  -3.42100000       9.82101137E-11
  -3.42000008       1.00211034E-10
  -3.41899991       1.02204911E-10
  -3.41799998       1.04190573E-10
  -3.41700006       1.06166846E-10
  -3.41599989       1.08132524E-10
  -3.41499996       1.10086391E-10
  -3.41400003       1.12027221E-10
  -3.41300011       1.13953756E-10
  -3.41199994       1.15864721E-10
  -3.41100001       1.17758844E-10
  -3.41000009       1.19634816E-10
  -3.40899992       1.21491317E-10
  -3.40799999       1.23327015E-10
  -3.40700006       1.25140565E-10
  -3.40599990       1.26930605E-10
  -3.40499997       1.28695749E-10
  -3.40400004       1.30434608E-10
  -3.40300012       1.32145794E-10
  -3.40199995       1.33827879E-10
  -3.40100002       1.35479433E-10
  -3.40000010       1.37099013E-10
  -3.39899993       1.38685188E-10
  -3.39800000       1.40236475E-10
  -3.39700007       1.41751416E-10
  -3.39599991       1.43228526E-10
  -3.39499998       1.44666321E-10
  -3.39400005       1.46063286E-10
  -3.39299989       1.47417939E-10
  -3.39199996       1.48728765E-10
  -3.39100003       1.49994239E-10
  -3.39000010       1.51212848E-10
  -3.38899994       1.52383051E-10
  -3.38800001       1.53503335E-10
  -3.38700008       1.54572161E-10
  -3.38599992       1.55587987E-10
  -3.38499999       1.56549274E-10
  -3.38400006       1.57454480E-10
  -3.38299990       1.58302066E-10
  -3.38199997       1.59090505E-10
  -3.38100004       1.59818242E-10
  -3.38000011       1.60483765E-10
  -3.37899995       1.61085534E-10
  -3.37800002       1.61622007E-10
  -3.37700009       1.62091673E-10
  -3.37599993       1.62493005E-10
  -3.37500000       1.62824518E-10
  -3.37400007       1.63084685E-10
  -3.37299991       1.63272021E-10
  -3.37199998       1.63385028E-10
  -3.37100005       1.63422248E-10
  -3.36999989       1.63382211E-10
  -3.36899996       1.63263458E-10
  -3.36800003       1.63064562E-10
  -3.36700010       1.62784092E-10
  -3.36599994       1.62420646E-10
  -3.36500001       1.61972824E-10
  -3.36400008       1.61439265E-10
  -3.36299992       1.60818595E-10
  -3.36199999       1.60109467E-10
  -3.36100006       1.59310579E-10
  -3.35999990       1.58420624E-10
  -3.35899997       1.57438326E-10
  -3.35800004       1.56362437E-10
  -3.35700011       1.55191721E-10
  -3.35599995       1.53924970E-10
  -3.35500002       1.52561033E-10
  -3.35400009       1.51098731E-10
  -3.35299993       1.49536952E-10
  -3.35200000       1.47874615E-10
  -3.35100007       1.46110637E-10
  -3.34999990       1.44244006E-10
  -3.34899998       1.42273707E-10
  -3.34800005       1.40198783E-10
  -3.34699988       1.38018305E-10
  -3.34599996       1.35731384E-10
  -3.34500003       1.33337147E-10
  -3.34400010       1.30834774E-10
  -3.34299994       1.28223501E-10
  -3.34200001       1.25502567E-10
  -3.34100008       1.22671276E-10
  -3.33999991       1.19728977E-10
  -3.33899999       1.16675045E-10
  -3.33800006       1.13508904E-10
  -3.33699989       1.10230033E-10
  -3.33599997       1.06837941E-10
  -3.33500004       1.03332197E-10
  -3.33400011       9.97124050E-11
  -3.33299994       9.59782392E-11
  -3.33200002       9.21294013E-11
  -3.33100009       8.81656553E-11
  -3.32999992       8.40868070E-11
  -3.32900000       7.98927313E-11
  -3.32800007       7.55833382E-11
  -3.32699990       7.11585998E-11
  -3.32599998       6.66185440E-11
  -3.32500005       6.19632609E-11
  -3.32399988       5.71928789E-11
  -3.32299995       5.23076027E-11
  -3.32200003       4.73076890E-11
  -3.32100010       4.21934501E-11
  -3.31999993       3.69652642E-11
  -3.31900001       3.16235649E-11
  -3.31800008       2.61688553E-11
  -3.31699991       2.06016940E-11
  -3.31599998       1.49227020E-11
  -3.31500006       9.13256883E-12
  -3.31399989       3.23204506E-12
  -3.31299996      -2.77805296E-12
  -3.31200004      -8.89684246E-12
  -3.31100011      -1.51233765E-11
  -3.30999994      -2.14566385E-11
  -3.30900002      -2.78955487E-11
  -3.30800009      -3.44389552E-11
  -3.30699992      -4.10856384E-11
  -3.30599999      -4.78343129E-11
  -3.30500007      -5.46836222E-11
  -3.30399990      -6.16321438E-11
  -3.30299997      -6.86783755E-11
  -3.30200005      -7.58207525E-11
  -3.30100012      -8.30576372E-11
  -3.29999995      -9.03873296E-11
  -3.29900002      -9.78080464E-11
  -3.29800010      -1.05317935E-10
  -3.29699993      -1.12915073E-10
  -3.29600000      -1.20597476E-10
  -3.29500008      -1.28363070E-10
  -3.29399991      -1.36209710E-10
  -3.29299998      -1.44135218E-10
  -3.29200006      -1.52137289E-10
  -3.29099989      -1.60213565E-10
  -3.28999996      -1.68361616E-10
  -3.28900003      -1.76578960E-10
  -3.28800011      -1.84863042E-10
  -3.28699994      -1.93211211E-10
  -3.28600001      -2.01620748E-10
  -3.28500009      -2.10088877E-10
  -3.28399992      -2.18612739E-10
  -3.28299999      -2.27189420E-10
  -3.28200006      -2.35815895E-10
  -3.28099990      -2.44489151E-10
  -3.27999997      -2.53206039E-10
  -3.27900004      -2.61963340E-10
  -3.27800012      -2.70757777E-10
  -3.27699995      -2.79586049E-10
  -3.27600002      -2.88444740E-10
  -3.27500010      -2.97330355E-10
  -3.27399993      -3.06239395E-10
  -3.27300000      -3.15168225E-10
  -3.27200007      -3.24113208E-10
  -3.27099991      -3.33070599E-10
  -3.26999998      -3.42036566E-10
  -3.26900005      -3.51007307E-10
  -3.26799989      -3.59978880E-10
  -3.26699996      -3.68947345E-10
  -3.26600003      -3.77908649E-10
  -3.26500010      -3.86858684E-10
  -3.26399994      -3.95793343E-10
  -3.26300001      -4.04708406E-10
  -3.26200008      -4.13599599E-10
  -3.26099992      -4.22462648E-10
  -3.25999999      -4.31293140E-10
  -3.25900006      -4.40086717E-10
  -3.25799990      -4.48838883E-10
  -3.25699997      -4.57545141E-10
  -3.25600004      -4.66200911E-10
  -3.25500011      -4.74801642E-10
  -3.25399995      -4.83342644E-10
  -3.25300002      -4.91819252E-10
  -3.25200009      -5.00226693E-10
  -3.25099993      -5.08560305E-10
  -3.25000000      -5.16815202E-10
  -3.24900007      -5.24986610E-10
  -3.24799991      -5.33069644E-10
  -3.24699998      -5.41059419E-10
  -3.24600005      -5.48950940E-10
  -3.24499989      -5.56739321E-10
  -3.24399996      -5.64419567E-10
  -3.24300003      -5.71986625E-10
  -3.24200010      -5.79435555E-10
  -3.24099994      -5.86761195E-10
  -3.24000001      -5.93958549E-10
  -3.23900008      -6.01022565E-10
  -3.23799992      -6.07948136E-10
  -3.23699999      -6.14730156E-10
  -3.23600006      -6.21363461E-10
  -3.23499990      -6.27843000E-10
  -3.23399997      -6.34163611E-10
  -3.23300004      -6.40320130E-10
  -3.23200011      -6.46307508E-10
  -3.23099995      -6.52120580E-10
  -3.23000002      -6.57754240E-10
  -3.22900009      -6.63203381E-10
  -3.22799993      -6.68462896E-10
  -3.22700000      -6.73527734E-10
  -3.22600007      -6.78392786E-10
  -3.22499990      -6.83053003E-10
  -3.22399998      -6.87503332E-10
  -3.22300005      -6.91738777E-10
  -3.22199988      -6.95754399E-10
  -3.22099996      -6.99545144E-10
  -3.22000003      -7.03106129E-10
  -3.21900010      -7.06432413E-10
  -3.21799994      -7.09519221E-10
  -3.21700001      -7.12361670E-10
  -3.21600008      -7.14955040E-10
  -3.21499991      -7.17294502E-10
  -3.21399999      -7.19375448E-10
  -3.21300006      -7.21193216E-10
  -3.21199989      -7.22743199E-10
  -3.21099997      -7.24020843E-10
  -3.21000004      -7.25021765E-10
  -3.20900011      -7.25741467E-10
  -3.20799994      -7.26175620E-10
  -3.20700002      -7.26319893E-10
  -3.20600009      -7.26170124E-10
  -3.20499992      -7.25722205E-10
  -3.20400000      -7.24971971E-10
  -3.20300007      -7.23915483E-10
  -3.20199990      -7.22548854E-10
  -3.20099998      -7.20868198E-10
  -3.20000005      -7.18869797E-10
  -3.19899988      -7.16549986E-10
  -3.19799995      -7.13905213E-10
  -3.19700003      -7.10931980E-10
  -3.19600010      -7.07626902E-10
  -3.19499993      -7.03986758E-10
  -3.19400001      -7.00008329E-10
  -3.19300008      -6.95688562E-10
  -3.19199991      -6.91024515E-10
  -3.19099998      -6.86013302E-10
  -3.19000006      -6.80652146E-10
  -3.18899989      -6.74938549E-10
  -3.18799996      -6.68869904E-10
  -3.18700004      -6.62443878E-10
  -3.18600011      -6.55658139E-10
  -3.18499994      -6.48510634E-10
  -3.18400002      -6.40999309E-10
  -3.18300009      -6.33122332E-10
  -3.18199992      -6.24877927E-10
  -3.18099999      -6.16264484E-10
  -3.18000007      -6.07280559E-10
  -3.17899990      -5.97924821E-10
  -3.17799997      -5.88196047E-10
  -3.17700005      -5.78093240E-10
  -3.17600012      -5.67615455E-10
  -3.17499995      -5.56761970E-10
  -3.17400002      -5.45532231E-10
  -3.17300010      -5.33925737E-10
  -3.17199993      -5.21942212E-10
  -3.17100000      -5.09581544E-10
  -3.17000008      -4.96843733E-10
  -3.16899991      -4.83729001E-10
  -3.16799998      -4.70237738E-10
  -3.16700006      -4.56370414E-10
  -3.16599989      -4.42127723E-10
  -3.16499996      -4.27510555E-10
  -3.16400003      -4.12519879E-10
  -3.16300011      -3.97156946E-10
  -3.16199994      -3.81423060E-10
  -3.16100001      -3.65319830E-10
  -3.16000009      -3.48848950E-10
  -3.15899992      -3.32012307E-10
  -3.15799999      -3.14811982E-10
  -3.15700006      -2.97250224E-10
  -3.15599990      -2.79329476E-10
  -3.15499997      -2.61052346E-10
  -3.15400004      -2.42421611E-10
  -3.15300012      -2.23440294E-10
  -3.15199995      -2.04111547E-10
  -3.15100002      -1.84438714E-10
  -3.15000010      -1.64425321E-10
  -3.14899993      -1.44075099E-10
  -3.14800000      -1.23391963E-10
  -3.14700007      -1.02379993E-10
  -3.14599991      -8.10434844E-11
  -3.14499998      -5.93868982E-11
  -3.14400005      -3.74148872E-11