  -2.00000000       0.00000000    
  -1.89999998       0.00000000    
  -1.79999995       0.00000000    
  -1.70000005       0.00000000    
  -1.60000002       0.00000000    
  -1.50000000       0.00000000    
  -1.39999998      -1.79994704E-31
  -1.29999995      -4.19174928E-30
  -1.20000005      -4.17320010E-29
  -1.10000002      -2.67335904E-28
  -1.00000000      -1.28928982E-27
 -0.899999976      -5.07562389E-27
 -0.800000012      -1.71196375E-26
 -0.699999988      -5.10679060E-26
 -0.600000024      -1.37742756E-25
 -0.500000000      -3.41415302E-25
 -0.400000006      -7.87236936E-25
 -0.300000012      -1.70478028E-24
 -0.200000003      -3.49347525E-24
 -0.100000001      -6.81608323E-24
   0.00000000      -1.27259294E-23
  0.100000001      -2.28320990E-23
  0.200000003      -3.95038854E-23
  0.300000012      -6.61112644E-23
  0.400000006      -1.07291773E-22
  0.500000000      -1.69225861E-22
  0.600000024      -2.59892914E-22
  0.699999988      -3.89267718E-22
  0.800000012      -5.69404396E-22
  0.899999976      -8.14340128E-22
   1.00000000      -1.13973695E-21
   1.10000002      -1.56216754E-21
   1.20000005      -2.09794208E-21
   1.29999995      -2.76136920E-21
   1.39999998      -3.56235630E-21
   1.50000000      -4.50327183E-21
   1.60000002      -5.57503860E-21
   1.70000005      -6.75249587E-21
   1.79999995      -7.98915108E-21
   1.89999998      -9.21158347E-21
   2.00000000      -1.03138840E-20
   2.09999990      -1.11527235E-20
   2.20000005      -1.15437635E-20
   2.29999995      -1.12603499E-20
   2.40000010      -1.00355014E-20
   2.50000000      -7.56832133E-21
   2.59999990      -3.53588369E-21
   2.70000005       2.38847998E-21
   2.79999995       1.05099073E-20
   2.90000010       2.10796462E-20
   3.00000000       3.42561858E-20
   3.09999990       5.00613003E-20
   3.20000005       6.83333904E-20
   3.29999995       8.86815294E-20
   3.40000010       1.10444638E-19
   3.50000000       1.32661004E-19
   3.59999990       1.54053807E-19
   3.70000005       1.73038675E-19
   3.79999995       1.87758522E-19
   3.90000010       1.96149856E-19
   4.00000000       1.96042800E-19
   4.09999990       1.85294519E-19
   4.19999981       1.61952141E-19
   4.30000019       1.24437988E-19
   4.40000010       7.17453424E-20
   4.50000000       3.62997387E-21
   4.59999990      -7.92212392E-20
   4.69999981      -1.75064518E-19
   4.80000019      -2.81037043E-19
   4.90000010      -3.93177376E-19
   5.00000000      -5.06543849E-19
   5.09999990      -6.15440160E-19
   5.19999981      -7.13748094E-19
   5.30000019      -7.95358819E-19
   5.40000010      -8.54681680E-19
   5.50000000      -8.87196598E-19
   5.59999990      -8.90008392E-19
   5.69999981      -8.62349179E-19
   5.80000019      -8.05970719E-19
   5.90000010      -7.25368431E-19
   6.00000000      -6.27779730E-19
   6.09999990      -5.22913184E-19
   6.19999981      -4.22377782E-19
   6.30000019      -3.38805398E-19
   6.40000010      -2.84685840E-19
   6.50000000      -2.70962784E-19
   6.59999990      -3.05470873E-19
   6.69999981      -3.91323897E-19
   6.80000019      -5.25388264E-19
   6.90000010      -6.96996705E-19
   7.00000000      -8.87063836E-19
   7.09999990      -1.06776465E-18
   7.19999981      -1.20291717E-18
   7.30000019      -1.24918428E-18
   7.40000010      -1.15815925E-18
   7.50000000      -8.79345931E-19
   7.59999990      -3.63973454E-19
   7.69999981       4.30487564E-19
   7.80000019       1.53531991E-18
   7.90000010       2.96534778E-18
   8.00000000       4.71386905E-18
   8.10000038       6.74812703E-18
   8.19999981       9.00574446E-18
   8.30000019       1.13925534E-17
   8.39999962       1.37822063E-17
   8.50000000       1.60179241E-17
   8.60000038       1.79166063E-17
   8.69999981       1.92754374E-17
   8.80000019       1.98809783E-17
   8.89999962       1.95205062E-17
   9.00000000       1.79953109E-17
   9.10000038       1.51353158E-17
   9.19999981       1.08143881E-17
   9.30000019       4.96545148E-18
   9.39999962      -2.40552911E-18
   9.50000000      -1.12076951E-17
   9.60000038      -2.12565681E-17
   9.69999981      -3.22693679E-17
   9.80000019      -4.38651761E-17
   9.89999962      -5.55705163E-17
   10.0000000      -6.68306812E-17
   10.1000004      -7.70268469E-17
   10.1999998      -8.54986388E-17
   10.3000002      -9.15714614E-17
   10.3999996      -9.45876067E-17
   10.5000000      -9.39398317E-17
   10.6000004      -8.91058080E-17
   10.6999998      -7.96816996E-17
   10.8000002      -6.54130392E-17
   10.8999996      -4.62210924E-17
   11.0000000      -2.22231452E-17
   11.1000004       6.25485814E-18
   11.1999998       3.86742439E-17
   11.3000002       7.42888063E-17
   11.3999996       1.12159299E-16
   11.5000000       1.51177024E-16
   11.6000004       1.90095329E-16
   11.6999998       2.27567895E-16
   11.8000002       2.62191876E-16
   11.8999996       2.92554036E-16
   12.0000000       3.17277366E-16
   12.1000004       3.35066302E-16
   12.1999998       3.44748259E-16
   12.3000002       3.45310027E-16
   12.3999996       3.35927126E-16
   12.5000000       3.15986197E-16
   12.6000004       2.85099061E-16
   12.6999998       2.43109997E-16
   12.8000002       1.90096296E-16
   12.8999996       1.26364041E-16
   13.0000000       5.24404814E-17
   13.1000004      -3.09345068E-17
   13.1999998      -1.22816402E-16
   13.3000002      -2.22061281E-16
   13.3999996      -3.27327068E-16
   13.5000000      -4.37070139E-16
   13.6000004      -5.49536712E-16
   13.6999998      -6.62750448E-16
   13.8000002      -7.74497493E-16
   13.8999996      -8.82311393E-16
   14.0000000      -9.83461262E-16
   14.1000004      -1.07494770E-15
   14.1999998      -1.15350958E-15
   14.3000002      -1.21564686E-15
   14.3999996      -1.25766340E-15
   14.5000000      -1.27573263E-15
   14.6000004      -1.26598974E-15
   14.6999998      -1.22464998E-15
   14.8000002      -1.14815454E-15
   14.8999996      -1.03333922E-15
   15.0000000      -8.77624866E-16
   15.1000004      -6.79220262E-16
   15.1999998      -4.37332084E-16
   15.3000002      -1.52370361E-16
   15.3999996       1.73860606E-16
   15.5000000       5.37997476E-16
   15.6000004       9.34991601E-16
   15.6999998       1.35803321E-15
   15.8000002       1.79853555E-15
   15.8999996       2.24618907E-15
   16.0000000       2.68909180E-15
   16.1000004       3.11395908E-15
   16.2000008       3.50641422E-15
   16.2999992       3.85135590E-15
   16.3999996       4.13339415E-15
   16.5000000       4.33734740E-15
   16.6000004       4.44878518E-15
   16.7000008       4.45459370E-15
   16.7999992       4.34355319E-15
   16.8999996       4.10690023E-15
   17.0000000       3.73885171E-15
   17.1000004       3.23707320E-15
   17.2000008       2.60305951E-15
   17.2999992       1.84242160E-15
   17.3999996       9.65049624E-16
   17.5000000      -1.48524183E-17
   17.6000004      -1.07887539E-15
   17.7000008      -2.20465905E-15
   17.7999992      -3.36629062E-15
   17.8999996      -4.53484753E-15
   18.0000000      -5.67906665E-15
   18.1000004      -6.76612883E-15
   18.2000008      -7.76254027E-15
   18.2999992      -8.63508585E-15
   18.3999996      -9.35181887E-15
   18.5000000      -9.88308133E-15
   18.6000004      -1.02024907E-14
   18.7000008      -1.02878902E-14
   18.7999992      -1.01222233E-14
   18.8999996      -9.69428615E-15
   19.0000000      -8.99935999E-15
   19.1000004      -8.03967082E-15
   19.2000008      -6.82467829E-15
   19.2999992      -5.37116382E-15
   19.3999996      -3.70311243E-15
   19.5000000      -1.85138554E-15
   19.6000004       1.46812383E-16
   19.7000008       2.24867194E-15
   19.7999992       4.40669738E-15
   19.8999996       6.56979252E-15
   20.0000000       8.68448735E-15
   20.1000004       1.06962660E-14
   20.2000008       1.25509759E-14
   20.2999992       1.41962654E-14
   20.3999996       1.55830159E-14
   20.5000000       1.66667387E-14
   20.6000004       1.74088632E-14
   20.7000008       1.77779239E-14
   20.7999992       1.77505681E-14
   20.8999996       1.73123844E-14
   21.0000000       1.64585007E-14
   21.1000004       1.51939516E-14
   21.2000008       1.35337772E-14
   21.2999992       1.15028853E-14
   21.3999996       9.13563404E-15
   21.5000000       6.47516666E-15
   21.6000004       3.57252027E-15
   21.7000008       4.85516744E-16
   21.7999992      -2.72253160E-15
   21.8999996      -5.98425813E-15
   22.0000000      -9.22978938E-15
   22.1000004      -1.23883532E-14
   22.2000008      -1.53899144E-14
   22.2999992      -1.81667781E-14
   22.3999996      -2.06551305E-14
   22.5000000      -2.27964620E-14
   22.6000004      -2.45388460E-14
   22.7000008      -2.58380573E-14
   22.7999992      -2.66584596E-14
   22.8999996      -2.69736914E-14
   23.0000000      -2.67671322E-14
   23.1000004      -2.60321397E-14
   23.2000008      -2.47720579E-14
   23.2999992      -2.30000413E-14
   23.3999996      -2.07386886E-14
   23.5000000      -1.80195451E-14
   23.6000004      -1.48824434E-14
   23.7000008      -1.13747970E-14
   23.7999992      -7.55078373E-15
   23.8999996      -3.47051908E-15
   24.0000000       8.00814594E-16
   24.1000004       5.19384001E-15
   24.2000008       9.63587137E-15
   24.2999992       1.40518065E-14
   24.3999996       1.83650482E-14
   24.5000000       2.24984572E-14
   24.6000004       2.63753524E-14
   24.7000008       2.99206054E-14
   24.7999992       3.30618101E-14
   24.8999996       3.57305602E-14
   25.0000000       3.78638195E-14
   25.1000004       3.94054194E-14
   25.2000008       4.03075807E-14
   25.2999992       4.05325086E-14
   25.3999996       4.00539282E-14
   25.5000000       3.88585750E-14
   25.6000004       3.69474586E-14
   25.7000008       3.43368963E-14
   25.7999992       3.10591938E-14
   25.8999996       2.71628575E-14
   26.0000000       2.27123279E-14
   26.1000004       1.77870668E-14
   26.2000008       1.24800784E-14
   26.2999992       6.89575790E-15
   26.3999996       1.14714508E-15
   26.5000000      -4.64737036E-15
   26.6000004      -1.03677900E-14
   26.7000008      -1.58965553E-14
   26.7999992      -2.11227198E-14
   26.8999996      -2.59460778E-14
   27.0000000      -3.02809840E-14
   27.1000004      -3.40596929E-14
   27.2000008      -3.72349856E-14
   27.2999992      -3.97818714E-14
   27.3999996      -4.16982360E-14
   27.5000000      -4.30043269E-14
   27.6000004      -4.37409982E-14
   27.7000008      -4.39667969E-14
   27.7999992      -4.37539104E-14
   27.8999996      -4.31832067E-14
   28.0000000      -4.23385726E-14
   28.1000004      -4.13009064E-14
   28.2000008      -4.01420162E-14
   28.2999992      -3.89189379E-14
   28.3999996      -3.76689274E-14
   28.5000000      -3.64056285E-14
   28.6000004      -3.51166714E-14
   28.7000008      -3.37629738E-14
   28.7999992      -3.22800055E-14
   28.8999996      -3.05809997E-14
   29.0000000      -2.85621407E-14
   29.1000004      -2.61095331E-14
   29.2000008      -2.31076399E-14
   29.2999992      -1.94488201E-14
   29.3999996      -1.50434051E-14
   29.5000000      -9.82973688E-15
   29.6000004      -3.78348823E-15
   29.7000008       3.07436982E-15
   29.7999992       1.06716351E-14
   29.8999996       1.88815536E-14
   30.0000000       2.75225873E-14
   30.1000004       3.63616574E-14
   30.2000008       4.51210013E-14
   30.2999992       5.34886636E-14
   30.3999996       6.11324142E-14
   30.5000000       6.77166182E-14
   30.6000004       7.29214798E-14
   30.7000008       7.64637919E-14
   30.7999992       7.81182031E-14
   30.8999996       7.77379937E-14
   31.0000000       7.52740630E-14
   31.1000004       7.07909954E-14
   31.2000008       6.44790617E-14
   31.2999992       5.66611814E-14
   31.3999996       4.77937832E-14
   31.5000000       3.84611640E-14
   31.6000004       2.93628139E-14
   31.7000008       2.12936392E-14
   31.7999992       1.51174697E-14
   31.8999996       1.17343455E-14
   32.0000000       1.20426266E-14
   32.0999985       1.68971858E-14
   32.2000008       2.70652573E-14
   32.2999992       4.31817397E-14
   32.4000015       6.57058975E-14
   32.5000000       9.48814933E-14
   32.5999985       1.30702483E-13
   32.7000008       1.72885903E-13
   32.7999992       2.20854083E-13
   32.9000015       2.73727167E-13
   33.0000000       3.30327427E-13
   33.0999985       3.89195566E-13
   33.2000008       4.48619522E-13
   33.2999992       5.06675160E-13
   33.4000015       5.61277804E-13
   33.5000000       6.10244006E-13
   33.5999985       6.51360259E-13
   33.7000008       6.82458051E-13
   33.7999992       7.01491274E-13
   33.9000015       7.06614346E-13
   34.0000000       6.96257613E-13
   34.0999985       6.69197174E-13
   34.2000008       6.24617112E-13
   34.2999992       5.62161157E-13
   34.4000015       4.81971776E-13
   34.5000000       3.84715507E-13
   34.5999985       2.71593268E-13
   34.7000008       1.44334726E-13
   34.7999992       5.17698829E-15
   34.9000015      -1.43171797E-13
   35.0000000      -2.97583491E-13
   35.0999985      -4.54573797E-13
   35.2000008      -6.10377905E-13
   35.2999992      -7.61035278E-13
   35.4000015      -9.02482136E-13
   35.5000000      -1.03064909E-12
   35.5999985      -1.14156167E-12
   35.7000008      -1.23144225E-12
   35.7999992      -1.29680945E-12
   35.9000015      -1.33457514E-12
   36.0000000      -1.34213506E-12
   36.0999985      -1.31745222E-12
   36.2000008      -1.25913028E-12
   36.2999992      -1.16647631E-12
   36.4000015      -1.03954844E-12
   36.5000000      -8.79190709E-13
   36.5999985      -6.87048237E-13
   36.7000008      -4.65566171E-13
   36.7999992      -2.17966988E-13
   36.9000015       5.17922836E-14
   37.0000000       3.39085015E-13
   37.0999985       6.38701602E-13
   37.2000008       9.44957437E-13
   37.2999992       1.25182059E-12
   37.4000015       1.55305770E-12
   37.5000000       1.84239321E-12
   37.5999985       2.11368076E-12
   37.7000008       2.36107856E-12
   37.7999992       2.57922438E-12
   37.9000015       2.76340582E-12
   38.0000000       2.90971305E-12
   38.0999985       3.01517492E-12
   38.2000008       3.07786544E-12
   38.2999992       3.09697754E-12
   38.4000015       3.07285946E-12
   38.5000000       3.00700719E-12
   38.5999985       2.90201370E-12
   38.7000008       2.76147399E-12
   38.7999992       2.58984674E-12
   38.9000015       2.39227713E-12
   39.0000000       2.17438827E-12
   39.0999985       1.94204765E-12
   39.2000008       1.70111722E-12
   39.2999992       1.45720350E-12
   39.4000015       1.21541264E-12
   39.5000000       9.80126245E-13
   39.5999985       7.54809789E-13
   39.7000008       5.41861911E-13
   39.7999992       3.42515567E-13
   39.9000015       1.56796261E-13
   40.0000000      -1.64581974E-14
   40.0999985      -1.79515447E-13
   40.2000008      -3.35606515E-13
   40.2999992      -4.88729012E-13
   40.4000015      -6.43404600E-13
   40.5000000      -8.04401847E-13
   40.5999985      -9.76438006E-13
   40.7000008      -1.16387488E-12
   40.7999992      -1.37042472E-12
   40.9000015      -1.59888227E-12
   41.0000000      -1.85089726E-12
   41.0999985      -2.12680221E-12
   41.2000008      -2.42550424E-12
   41.2999992      -2.74445007E-12
   41.4000015      -3.07966868E-12
   41.5000000      -3.42588783E-12
   41.5999985      -3.77672546E-12
   41.7000008      -4.12494561E-12
   41.7999992      -4.46276176E-12
   41.9000015      -4.78218290E-12
   42.0000000      -5.07537502E-12
   42.0999985      -5.33502322E-12
   42.2000008      -5.55467781E-12
   42.2999992      -5.72905785E-12
   42.4000015      -5.85430272E-12
   42.5000000      -5.92815207E-12
   42.5999985      -5.95004645E-12
   42.7000008      -5.92113945E-12
   42.7999992      -5.84421964E-12
   42.9000015      -5.72354750E-12
   43.0000000      -5.56461171E-12
   43.0999985      -5.37382205E-12
   43.2000008      -5.15814865E-12
   43.2999992      -4.92473423E-12
   43.4000015      -4.68049688E-12
   43.5000000      -4.43174620E-12
   43.5999985      -4.18383514E-12
   43.7000008      -3.94086933E-12
   43.7999992      -3.70549164E-12
   43.9000015      -3.47874897E-12
   44.0000000      -3.26006518E-12
   44.0999985      -3.04730330E-12
   44.2000008      -2.83693186E-12
   44.2999992      -2.62427710E-12
   44.4000015      -2.40385207E-12
   44.5000000      -2.16974225E-12
   44.5999985      -1.91602767E-12
   44.7000008      -1.63721510E-12
   44.7999992      -1.32865713E-12
   44.9000015      -9.86931348E-13
   45.0000000      -6.10158733E-13
   45.0999985      -1.98239388E-13
   45.2000008       2.47008523E-13
   45.2999992       7.21816324E-13
   45.4000015       1.22054309E-12
   45.5000000       1.73586178E-12
   45.5999985       2.25904408E-12
   45.7000008       2.78032957E-12
   45.7999992       3.28935815E-12
   45.9000015       3.77564603E-12
   46.0000000       4.22907195E-12
   46.0999985       4.64035624E-12
   46.2000008       5.00149618E-12
   46.2999992       5.30614138E-12
   46.4000015       5.54988520E-12
   46.5000000       5.73045561E-12
   46.5999985       5.84779794E-12
   46.7000008       5.90404418E-12
   46.7999992       5.90337501E-12
   46.9000015       5.85177696E-12
   47.0000000       5.75671975E-12
   47.0999985       5.62676468E-12
   47.2000008       5.47113266E-12
   47.2999992       5.29925496E-12
   47.4000015       5.12033601E-12
   47.5000000       4.94295013E-12
   47.5999985       4.77469453E-12
   47.7000008       4.62191917E-12
   47.7999992       4.48954676E-12
   47.9000015       4.38098993E-12
   48.0000000       4.29816252E-12
   48.0999985       4.24159015E-12
   48.2000008       4.21059888E-12
   48.2999992       4.20357325E-12
   48.4000015       4.21825682E-12
   48.5000000       4.25208002E-12
   48.5999985       4.30248545E-12
   48.7000008       4.36722707E-12
   48.7999992       4.44462522E-12
   48.9000015       4.53375575E-12
   49.0000000       4.63455576E-12
   49.0999985       4.74784535E-12
   49.2000008       4.87525558E-12
   49.2999992       5.01906936E-12
   49.4000015       5.18198158E-12
   49.5000000       5.36679902E-12
   49.5999985       5.57609601E-12
   49.7000008       5.81185100E-12
   49.7999992       6.07508618E-12
   49.9000015       6.36554177E-12
   50.0000000       6.68140239E-12
   50.0999985       7.01910492E-12
   50.2000008       7.37323744E-12
   50.2999992       7.73654838E-12
   50.4000015       8.10006923E-12
   50.5000000       8.45334653E-12
   50.5999985       8.78478106E-12
   50.7000008       9.08205629E-12
   50.7999992       9.33263623E-12
   50.9000015       9.52430756E-12
   51.0000000       9.64574341E-12
   51.0999985       9.68704544E-12
   51.2000008       9.64024780E-12
   51.2999992       9.49974908E-12
   51.4000015       9.26264187E-12
   51.5000000       8.92893398E-12
   51.5999985       8.50163082E-12
   51.7000008       7.98668423E-12
   51.7999992       7.39280945E-12
   51.9000015       6.73116641E-12
   52.0000000       6.01493811E-12
   52.0999985       5.25881465E-12
   52.2000008       4.47841677E-12
   52.2999992       3.68969005E-12
   52.4000015       2.90829925E-12
   52.5000000       2.14905828E-12
   52.5999985       1.42542065E-12
   52.7000008       7.49063301E-13
   52.7999992       1.29578924E-13
   52.9000015      -4.25707023E-13
   53.0000000      -9.11789307E-13
   53.0999985      -1.32590737E-12
   53.2000008      -1.66735148E-12
   53.2999992      -1.93716701E-12
   53.4000015      -2.13778040E-12
   53.5000000      -2.27257427E-12
   53.5999985      -2.34544220E-12
   53.7000008      -2.36035540E-12
   53.7999992      -2.32097111E-12
   53.9000015      -2.23030860E-12
   54.0000000      -2.09052003E-12
   54.0999985      -1.90276549E-12
   54.2000008      -1.66720674E-12
   54.2999992      -1.38311725E-12
   54.4000015      -1.04910308E-12
   54.5000000      -6.63416967E-13
   54.5999985      -2.24347369E-13
   54.7000008       2.69347858E-13
   54.7999992       8.17991779E-13
   54.9000015       1.42055584E-12
   55.0000000       2.07427608E-12
   55.0999985       2.77434716E-12
   55.2000008       3.51372056E-12
   55.2999992       4.28302359E-12
   55.4000015       5.07061190E-12
   55.5000000       5.86275906E-12
   55.5999985       6.64397834E-12
   55.7000008       7.39745851E-12
   55.7999992       8.10560473E-12
   55.9000015       8.75063997E-12
   56.0000000       9.31525083E-12
   56.0999985       9.78323759E-12
   56.2000008       1.01401283E-11
   56.2999992       1.03737349E-11
   56.4000015       1.04746125E-11
   56.5000000       1.04364000E-11
   56.5999985       1.02560226E-11
   56.7000008       9.93375521E-12
   56.7999992       9.47313322E-12
   56.9000015       8.88073035E-12
   57.0000000       8.16580744E-12
   57.0999985       7.33986136E-12
   57.2000008       6.41610810E-12
   57.2999992       5.40891594E-12
   57.4000015       4.33323733E-12
   57.5000000       3.20406592E-12
   57.5999985       2.03595062E-12
   57.7000008       8.42594657E-13
   57.7999992      -3.63439042E-13
   57.9000015      -1.57090497E-12
   58.0000000      -2.76992578E-12
   58.0999985      -3.95192212E-12
   58.2000008      -5.10943111E-12
   58.2999992      -6.23583216E-12
   58.4000015      -7.32500258E-12
   58.5000000      -8.37093936E-12
   58.5999985      -9.36736713E-12
   58.7000008      -1.03073756E-11
   58.7999992      -1.11831152E-11
   58.9000015      -1.19855766E-11
   59.0000000      -1.27044790E-11
   59.0999985      -1.33282777E-11
   59.2000008      -1.38443120E-11
   59.2999992      -1.42390787E-11
   59.4000015      -1.44986297E-11
   59.5000000      -1.46090761E-11
   59.5999985      -1.45571732E-11
   59.7000008      -1.43309609E-11
   59.7999992      -1.39204056E-11
   59.9000015      -1.33180472E-11
   60.0000000      -1.25195696E-11
   60.0999985      -1.15242885E-11
   60.2000008      -1.03355276E-11
   60.2999992      -8.96083728E-12
   60.4000015      -7.41206835E-12
   60.5000000      -5.70527132E-12
   60.5999985      -3.86043020E-12
   60.7000008      -1.90105050E-12
   60.7999992       1.46399413E-13
   60.9000015       2.25314927E-12
   61.0000000       4.38887078E-12
   61.0999985       6.52246443E-12
   61.2000008       8.62285070E-12
   61.2999992       1.06597361E-11
   61.4000015       1.26043143E-11
   61.5000000       1.44298731E-11
   61.5999985       1.61122886E-11
   61.7000008       1.76303954E-11
   61.7999992       1.89662071E-11
   61.9000015       2.01050131E-11
   62.0000000       2.10353453E-11
   62.0999985       2.17488319E-11
   62.2000008       2.22399685E-11
   62.2999992       2.25058271E-11
   62.4000015       2.25457361E-11
   62.5000000       2.23609586E-11
   62.5999985       2.19544001E-11
   62.7000008       2.13303576E-11
   62.7999992       2.04943527E-11
   62.9000015       1.94530399E-11
   63.0000000       1.82141958E-11
   63.0999985       1.67868081E-11
   63.2000008       1.51812226E-11
   63.2999992       1.34093613E-11
   63.4000015       1.14849649E-11
   63.5000000       9.42385146E-12
   63.5999985       7.24414279E-12
   63.7000008       4.96645216E-12
   63.7999992       2.61398802E-12
   63.9000015       2.12554407E-13
   64.0000000      -2.20956478E-12
   64.0999985      -4.62185542E-12
   64.1999969      -6.99195823E-12
   64.3000031      -9.28618293E-12
   64.4000015      -1.14701425E-11
   64.5000000      -1.35094878E-11
   64.5999985      -1.53707082E-11
   64.6999969      -1.70219741E-11
   64.8000031      -1.84339904E-11
   64.9000015      -1.95808057E-11
   65.0000000      -2.04405676E-11
   65.0999985      -2.09961597E-11
   65.1999969      -2.12357250E-11
   65.3000031      -2.11530238E-11
   65.4000015      -2.07476276E-11
   65.5000000      -2.00249400E-11
   65.5999985      -1.89960409E-11
   65.6999969      -1.76773596E-11
   65.8000031      -1.60902108E-11
   65.9000015      -1.42601946E-11
   66.0000000      -1.22165012E-11
   66.0999985      -9.99116241E-12
   66.1999969      -7.61825845E-12
   66.3000031      -5.13312786E-12
   66.4000015      -2.57162087E-12
   66.5000000       3.06002206E-14
   66.5999985       2.63867335E-12
   66.6999969       5.21905349E-12
   66.8000031       7.73992502E-12
   66.9000015       1.01715034E-11
   67.0000000       1.24862360E-11
   67.0999985       1.46589164E-11
   67.1999969       1.66667166E-11
   67.3000031       1.84891651E-11
   67.4000015       2.01080871E-11
   67.5000000       2.15075405E-11
   67.5999985       2.26737570E-11
   67.6999969       2.35950981E-11
   67.8000031       2.42620767E-11
   67.9000015       2.46674001E-11
   68.0000000       2.48060843E-11
   68.0999985       2.46756157E-11
   68.1999969       2.42761505E-11
   68.3000031       2.36107470E-11
   68.4000015       2.26856086E-11
   68.5000000       2.15103109E-11
   68.5999985       2.00980049E-11
   68.6999969       1.84655572E-11
   68.8000031       1.66336094E-11
   68.9000015       1.46265500E-11
   69.0000000       1.24723617E-11
   69.0999985       1.02023546E-11
   69.1999969       7.85077125E-12
   69.3000031       5.45427462E-12
   69.4000015       3.05131766E-12
   69.5000000       6.81417488E-13
   69.5999985      -1.61564143E-12
   69.6999969      -3.80065554E-12
   69.8000031      -5.83587085E-12
   69.9000015      -7.68583634E-12
   70.0000000      -9.31822067E-12
   70.0999985      -1.07045518E-11
   70.1999969      -1.18208611E-11
   70.3000031      -1.26482071E-11
   70.4000015      -1.31730599E-11
   70.5000000      -1.33875402E-11
   70.5999985      -1.32895023E-11
   70.6999969      -1.28824703E-11
   70.8000031      -1.21754273E-11
   70.9000015      -1.11824864E-11
   71.0000000      -9.92243787E-12
   71.0999985      -8.41822619E-12
   71.1999969      -6.69634617E-12
   71.3000031      -4.78621873E-12
   71.4000015      -2.71954009E-12
   71.5000000      -5.29645338E-13
   71.5999985       1.74909891E-12
   71.6999969       4.08185898E-12
   71.8000031       6.43384131E-12
   71.9000015       8.77073848E-12
   72.0000000       1.10591102E-11
   72.0999985       1.32667028E-11
   72.1999969       1.53627076E-11
   72.3000031       1.73179804E-11
   72.4000015       1.91052296E-11
   72.5000000       2.06991577E-11
   72.5999985       2.20766200E-11
   72.6999969       2.32167740E-11
   72.8000031       2.41012297E-11
   72.9000015       2.47142289E-11
   73.0000000       2.50428376E-11
   73.0999985       2.50771539E-11
   73.1999969       2.48105373E-11
   73.3000031       2.42398376E-11
   73.4000015       2.33656202E-11
   73.5000000       2.21923747E-11
   73.5999985       2.07286931E-11
   73.6999969       1.89873950E-11
   73.8000031       1.69855813E-11
   73.9000015       1.47446361E-11
   74.0000000       1.22901160E-11
   74.0999985       9.65155126E-12
   74.1999969       6.86214540E-12
   74.3000031       3.95838093E-12
   74.4000015       9.79517140E-13
   74.5000000      -2.03299118E-12
   74.5999985      -5.03615509E-12
   74.6999969      -7.98617075E-12
   74.8000031      -1.08391785E-11
   74.9000015      -1.35520484E-11
   75.0000000      -1.60831487E-11
   75.0999985      -1.83931100E-11
   75.1999969      -2.04455290E-11
   75.3000031      -2.22076264E-11
   75.4000015      -2.36508035E-11
   75.5000000      -2.47511248E-11
   75.5999985      -2.54896902E-11
   75.6999969      -2.58528997E-11
   75.8000031      -2.58326173E-11
   75.9000015      -2.54262219E-11
   76.0000000      -2.46365584E-11
   76.0999985      -2.34717905E-11
   76.1999969      -2.19451939E-11
   76.3000031      -2.00748584E-11
   76.4000015      -1.78833372E-11
   76.5000000      -1.53972755E-11
   76.5999985      -1.26469711E-11
   76.6999969      -9.66595120E-12
   76.8000031      -6.49051689E-12
   76.9000015      -3.15929509E-12
   77.0000000       2.87214236E-13
   77.0999985       3.80708182E-12
   77.1999969       7.35738814E-12
   77.3000031       1.08946628E-11
   77.4000015       1.43753100E-11
   77.5000000       1.77560518E-11
   77.5999985       2.09943590E-11
   77.6999969       2.40488896E-11
   77.8000031       2.68799514E-11
   77.9000015       2.94499494E-11
   78.0000000       3.17238492E-11
   78.0999985       3.36696400E-11
   78.1999969       3.52588098E-11
   78.3000031       3.64667775E-11
   78.4000015       3.72733268E-11
   78.5000000       3.76630012E-11
   78.5999985       3.76254548E-11
   78.6999969       3.71557542E-11
   78.8000031       3.62545896E-11
   78.9000015       3.49284317E-11
   79.0000000       3.31896004E-11
   79.0999985       3.10561923E-11
   79.1999969       2.85519854E-11
   79.3000031       2.57061577E-11
   79.4000015       2.25529647E-11
   79.5000000       1.91312851E-11
   79.5999985       1.54840897E-11
   79.6999969       1.16578266E-11
   79.8000031       7.70173682E-12
   79.9000015       3.66711956E-12
   80.0000000      -3.93442982E-13
   80.0999985      -4.42688074E-12
   80.1999969      -8.38043177E-12
   80.3000031      -1.22024257E-11
   80.4000015      -1.58430404E-11
   80.5000000      -1.92550142E-11
   80.5999985      -2.23942930E-11
   80.6999969      -2.52206259E-11
   80.8000031      -2.76980834E-11
   80.9000015      -2.97954821E-11
   81.0000000      -3.14867542E-11
   81.0999985      -3.27512011E-11
   81.1999969      -3.35736924E-11
   81.3000031      -3.39447775E-11
   81.4000015      -3.38607198E-11
   81.5000000      -3.33234690E-11
   81.5999985      -3.23405643E-11
   81.6999969      -3.09249779E-11
   81.8000031      -2.90949209E-11
   81.9000015      -2.68735763E-11
   82.0000000      -2.42888192E-11
   82.0999985      -2.13728618E-11
   82.1999969      -1.81619025E-11
   82.3000031      -1.46956960E-11
   82.4000015      -1.10171178E-11
   82.5000000      -7.17167775E-12
   82.5999985      -3.20701170E-12
   82.6999969       8.27669476E-13
   82.8000031       4.88215544E-12
   82.9000015       8.90584308E-12
   83.0000000       1.28483613E-11
   83.0999985       1.66602201E-11
   83.1999969       2.02934614E-11
   83.3000031       2.37023162E-11
   83.4000015       2.68438553E-11
   83.5000000       2.96786068E-11
   83.5999985       3.21711477E-11