  -2.00000000       0.00000000    
  -1.89999998       0.00000000    
  -1.79999995       0.00000000    
  -1.70000005       0.00000000    
  -1.60000002       0.00000000    
  -1.50000000       0.00000000    
  -1.39999998       3.92372867E-29
  -1.29999995       5.07323218E-28
  -1.20000005       3.52451112E-27
  -1.10000002       1.74500269E-26
  -1.00000000       6.89486741E-26
 -0.899999976       2.30963485E-25
 -0.800000012       6.80758562E-25
 -0.699999988       1.81002518E-24
 -0.600000024       4.41857125E-24
 -0.500000000       1.00333870E-23
 -0.400000006       2.14041582E-23
 -0.300000012       4.32318685E-23
 -0.200000003       8.31854834E-23
 -0.100000001       1.53248575E-22
   0.00000000       2.71408314E-22
  0.100000001       4.63650182E-22
  0.200000003       7.66149133E-22
  0.300000012       1.22745182E-21
  0.400000006       1.91032899E-21
  0.500000000       2.89284710E-21
  0.600000024       4.26807950E-21
  0.699999988       6.14176758E-21
  0.800000012       8.62717148E-21
  0.899999976       1.18363463E-20
   1.00000000       1.58671772E-20
   1.10000002       2.07857240E-20
   1.20000005       2.66037376E-20
   1.29999995       3.32517914E-20
   1.39999998       4.05489591E-20
   1.50000000       4.81708921E-20
   1.60000002       5.56187326E-20
   1.70000005       6.21922658E-20
   1.79999995       6.69713341E-20
   1.89999998       6.88099369E-20
   2.00000000       6.63478144E-20
   2.09999990       5.80439874E-20
   2.20000005       4.22360230E-20
   2.29999995       1.72276938E-20
   2.40000010      -1.85941558E-20
   2.50000000      -6.66149679E-20
   2.59999990      -1.27824117E-19
   2.70000005      -2.02629872E-19
   2.79999995      -2.90667907E-19
   2.90000010      -3.90615830E-19
   3.00000000      -5.00029543E-19
   3.09999990      -6.15217700E-19
   3.20000005      -7.31171982E-19
   3.29999995      -8.41569730E-19
   3.40000010      -9.38863334E-19
   3.50000000      -1.01446692E-18
   3.59999990      -1.05904513E-18
   3.70000005      -1.06290341E-18
   3.79999995      -1.01646849E-18
   3.90000010      -9.10843004E-19
   4.00000000      -7.38406762E-19
   4.09999990      -4.93429882E-19
   4.19999981      -1.72658262E-19
   4.30000019       2.24173339E-19
   4.40000010       6.93945804E-19
   4.50000000       1.22992027E-18
   4.59999990       1.82169635E-18
   4.69999981       2.45539073E-18
   4.80000019       3.11404053E-18
   4.90000010       3.77822644E-18
   5.00000000       4.42687997E-18
   5.09999990       5.03822890E-18
   5.19999981       5.59080540E-18
   5.30000019       6.06443702E-18
   5.40000010       6.44111646E-18
   5.50000000       6.70565958E-18
   5.59999990       6.84605694E-18
   5.69999981       6.85344780E-18
   5.80000019       6.72167421E-18
   5.90000010       6.44641207E-18
   6.00000000       6.02391924E-18
   6.09999990       5.44949896E-18
   6.19999981       4.71582533E-18
   6.30000019       3.81132359E-18
   6.40000010       2.71884424E-18
   6.50000000       1.41487993E-18
   6.59999990      -1.30417819E-19
   6.69999981      -1.95219112E-18
   6.80000019      -4.08862390E-18
   6.90000010      -6.57739240E-18
   7.00000000      -9.45082553E-18
   7.09999990      -1.27299349E-17
   7.19999981      -1.64175863E-17
   7.30000019      -2.04912457E-17
   7.40000010      -2.48958882E-17
   7.50000000      -2.95377197E-17
   7.59999990      -3.42794730E-17
   7.69999981      -3.89380649E-17
   7.80000019      -4.32853126E-17
   7.90000010      -4.70523560E-17
   8.00000000      -4.99381972E-17
   8.10000038      -5.16225652E-17
   8.19999981      -5.17829258E-17
   8.30000019      -5.01152470E-17
   8.39999962      -4.63575507E-17
   8.50000000      -4.03151552E-17
   8.60000038      -3.18859101E-17
   8.69999981      -2.10837436E-17
   8.80000019      -8.05842744E-18
   8.89999962       6.89043229E-18
   9.00000000       2.33071190E-17
   9.10000038       4.05829632E-17
   9.19999981       5.79701938E-17
   9.30000019       7.46071980E-17
   9.39999962       8.95552450E-17
   9.50000000       1.01845997E-16
   9.60000038       1.10538091E-16
   9.69999981       1.14780495E-16
   9.80000019       1.13879517E-16
   9.89999962       1.07365555E-16
   10.0000000       9.50552086E-17
   10.1000004       7.71043769E-17
   10.1999998       5.40475776E-17
   10.3000002       2.68192982E-17
   10.3999996      -3.24629534E-18
   10.5000000      -3.44401181E-17
   10.6000004      -6.47289608E-17
   10.6999998      -9.18325659E-17
   10.8000002      -1.13325637E-16
   10.8999996      -1.26761869E-16
   11.0000000      -1.29815197E-16
   11.1000004      -1.20432508E-16
   11.1999998      -9.69899973E-17
   11.3000002      -5.84450219E-17
   11.3999996      -4.47424475E-18
   11.5000000       6.44109992E-17
   11.6000004       1.46781148E-16
   11.6999998       2.40244458E-16
   11.8000002       3.41449331E-16
   11.8999996       4.46137547E-16
   12.0000000       5.49250944E-16
   12.1000004       6.45090869E-16
   12.1999998       7.27527927E-16
   12.3000002       7.90255323E-16
   12.3999996       8.27078016E-16
   12.5000000       8.32224482E-16
   12.6000004       8.00670281E-16
   12.6999998       7.28455481E-16
   12.8000002       6.12981809E-16
   12.8999996       4.53271841E-16
   13.0000000       2.50175866E-16
   13.1000004       6.51089204E-18
   13.1999998      -2.72879684E-16
   13.3000002      -5.81154705E-16
   13.3999996      -9.09597765E-16
   13.5000000      -1.24783539E-15
   13.6000004      -1.58414590E-15
   13.6999998      -1.90585399E-15
   13.8000002      -2.19979644E-15
   13.8999996      -2.45284351E-15
   14.0000000      -2.65245699E-15
   14.1000004      -2.78725805E-15
   14.1999998      -2.84758607E-15
   14.3000002      -2.82601595E-15
   14.3999996      -2.71781215E-15
   14.5000000      -2.52129373E-15
   14.6000004      -2.23808763E-15
   14.6999998      -1.87325254E-15
   14.8000002      -1.43525974E-15
   14.8999996      -9.35822329E-16
   15.0000000      -3.89571072E-16
   15.1000004       1.86415580E-16
   15.1999998       7.73218738E-16
   15.3000002       1.35080198E-15
   15.3999996       1.89882489E-15
   15.5000000       2.39751638E-15
   15.6000004       2.82857145E-15
   15.6999998       3.17603304E-15
   15.8000002       3.42711627E-15
   15.8999996       3.57293574E-15
   16.0000000       3.60909727E-15
   16.1000004       3.53611564E-15
   16.2000008       3.35963358E-15
   16.2999992       3.09041580E-15
   16.3999996       2.74410363E-15
   16.5000000       2.34073108E-15
   16.6000004       1.90400492E-15
   16.7000008       1.46036834E-15
   16.7999992       1.03787741E-15
   16.8999996       6.64926793E-16
   17.0000000       3.68875755E-16
   17.1000004       1.74627198E-16
   17.2000008       1.03221718E-16
   17.2999992       1.70510088E-16
   17.3999996       3.85968456E-16
   17.5000000       7.51717759E-16
   17.6000004       1.26180561E-15
   17.7000008       1.90179712E-15
   17.7999992       2.64871777E-15
   17.8999996       3.47136887E-15
   18.0000000       4.33103404E-15
   18.1000004       5.18256812E-15
   18.2000008       5.97584878E-15
   18.2999992       6.65755784E-15
   18.3999996       7.17323319E-15
   18.5000000       7.46953125E-15
   18.6000004       7.49661174E-15
   18.7000008       7.21055346E-15
   18.7999992       6.57571455E-15
   18.8999996       5.56691102E-15
   19.0000000       4.17133699E-15
   19.1000004       2.39011247E-15
   19.2000008       2.39371564E-16
   19.2999992      -2.24917338E-15
   19.3999996      -5.02826117E-15
   19.5000000      -8.03573211E-15
   19.6000004      -1.11958121E-14
   19.7000008      -1.44210188E-14
   19.7999992      -1.76146346E-14
   19.8999996      -2.06736890E-14
   20.0000000      -2.34923555E-14
   20.1000004      -2.59656171E-14
   20.2000008      -2.79931006E-14
   20.2999992      -2.94828994E-14
   20.3999996      -3.03552315E-14
   20.5000000      -3.05457936E-14
   20.6000004      -3.00086324E-14
   20.7000008      -2.87184149E-14
   20.7999992      -2.66719918E-14
   20.8999996      -2.38891497E-14
   21.0000000      -2.04125149E-14
   21.1000004      -1.63065836E-14
   21.2000008      -1.16559382E-14
   21.2999992      -6.56264526E-15
   21.3999996      -1.14300246E-15
   21.5000000       4.47627732E-15
   21.6000004       1.01622744E-14
   21.7000008       1.57802933E-14
   21.7999992       2.11983260E-14
   21.8999996       2.62913758E-14
   22.0000000       3.09454441E-14
   22.1000004       3.50610383E-14
   22.2000008       3.85560284E-14
   22.2999992       4.13678254E-14
   22.3999996       4.34546706E-14
   22.5000000       4.47961302E-14
   22.6000004       4.53927565E-14
   22.7000008       4.52648749E-14
   22.7999992       4.44507068E-14
   22.8999996       4.30038289E-14
   23.0000000       4.09901368E-14
   23.1000004       3.84844405E-14
   23.2000008       3.55668897E-14
   23.2999992       3.23193248E-14
   23.3999996       2.88217902E-14
   23.5000000       2.51492857E-14
   23.6000004       2.13689319E-14
   23.7000008       1.75376664E-14
   23.7999992       1.37005352E-14
   23.8999996       9.88966108E-15
   24.0000000       6.12392158E-15
   24.1000004       2.40934011E-15
   24.2000008      -1.25982471E-15
   24.2999992      -4.89934487E-15
   24.3999996      -8.53271260E-15
   24.5000000      -1.21883493E-14
   24.6000004      -1.58964486E-14
   24.7000008      -1.96855997E-14
   24.7999992      -2.35792983E-14
   24.8999996      -2.75925455E-14
   25.0000000      -3.17286684E-14
   25.1000004      -3.59765115E-14
   25.2000008      -4.03081973E-14
   25.2999992      -4.46775558E-14
   25.3999996      -4.90193620E-14
   25.5000000      -5.32495428E-14
   25.6000004      -5.72663594E-14
   25.7000008      -6.09526264E-14
   25.7999992      -6.41790359E-14
   25.8999996      -6.68084769E-14
   26.0000000      -6.87012093E-14
   26.1000004      -6.97209014E-14
   26.2000008      -6.97411557E-14
   26.2999992      -6.86523389E-14
   26.3999996      -6.63683789E-14
   26.5000000      -6.28331954E-14
   26.6000004      -5.80263647E-14
   26.7000008      -5.19676363E-14
   26.7999992      -4.47199244E-14
   26.8999996      -3.63903752E-14
   27.0000000      -2.71293387E-14
   27.1000004      -1.71269079E-14
   27.2000008      -6.60704079E-15
   27.2999992       4.18072847E-15
   27.3999996       1.49717766E-14
   27.5000000       2.54987088E-14
   27.6000004       3.55049649E-14
   27.7000008       4.47590336E-14
   27.7999992       5.30684370E-14
   27.8999996       6.02925506E-14
   28.0000000       6.63533288E-14
   28.1000004       7.12428028E-14
   28.2000008       7.50266751E-14
   28.2999992       7.78430123E-14
   28.3999996       7.98956103E-14
   28.5000000       8.14417503E-14
   28.6000004       8.27743432E-14
   28.7000008       8.41990323E-14
   28.7999992       8.60071224E-14
   28.8999996       8.84455540E-14
   29.0000000       9.16857465E-14
   29.1000004       9.57933548E-14
   29.2000008       1.00701057E-13
   29.2999992       1.06187066E-13
   29.3999996       1.11861509E-13
   29.5000000       1.17163088E-13
   29.6000004       1.21367827E-13
   29.7000008       1.23611150E-13
   29.7999992       1.22924172E-13
   29.8999996       1.18283814E-13
   30.0000000       1.08675770E-13
   30.1000004       9.31680406E-14
   30.2000008       7.09922166E-14
   30.2999992       4.16282609E-14
   30.3999996       4.88813058E-15
   30.5000000      -3.90072597E-14
   30.6000004      -8.93633312E-14
   30.7000008      -1.44965244E-13
   30.7999992      -2.04054696E-13
   30.8999996      -2.64334914E-13
   31.0000000      -3.23007381E-13
   31.1000004      -3.76842437E-13
   31.2000008      -4.22284495E-13
   31.2999992      -4.55589993E-13
   31.3999996      -4.72995016E-13
   31.5000000      -4.70906788E-13
   31.6000004      -4.46111166E-13
   31.7000008      -3.95987307E-13
   31.7999992      -3.18718603E-13
   31.8999996      -2.13487797E-13
   32.0000000      -8.06448549E-14
   32.0999985       7.81648170E-14
   32.2000008       2.59922184E-13
   32.2999992       4.60216175E-13
   32.4000015       6.73291446E-13
   32.5000000       8.92167525E-13
   32.5999985       1.10882917E-12
   32.7000008       1.31448617E-12
   32.7999992       1.49989526E-12
   32.9000015       1.65573501E-12
   33.0000000       1.77301967E-12
   33.0999985       1.84353531E-12
   33.2000008       1.86027886E-12
   33.2999992       1.81788167E-12
   33.4000015       1.71299205E-12
   33.5000000       1.54460147E-12
   33.5999985       1.31429036E-12
   33.7000008       1.02637896E-12
   33.7999992       6.87969430E-13
   33.9000015       3.08869223E-13
   34.0000000      -9.86075303E-14
   34.0999985      -5.19959889E-13
   34.2000008      -9.38934043E-13
   34.2999992      -1.33805814E-12
   34.4000015      -1.69926150E-12
   34.5000000      -2.00455321E-12
   34.5999985      -2.23673489E-12
   34.7000008      -2.38011737E-12
   34.7999992      -2.42121167E-12
   34.9000015      -2.34935877E-12
   35.0000000      -2.15727588E-12
   35.0999985      -1.84148139E-12
   35.2000008      -1.40258714E-12
   35.2999992      -8.45429900E-13
   35.4000015      -1.79037964E-13
   35.5000000       5.83574421E-13
   35.5999985       1.42578050E-12
   35.7000008       2.32787075E-12
   35.7999992       3.26772095E-12
   35.9000015       4.22156927E-12
   36.0000000       5.16487721E-12
   36.0999985       6.07323133E-12
   36.2000008       6.92325060E-12
   36.2999992       7.69346045E-12
   36.4000015       8.36508467E-12
   36.5000000       8.92273408E-12
   36.5999985       9.35494217E-12
   36.7000008       9.65453585E-12
   36.7999992       9.81881156E-12
   36.9000015       9.84951530E-12
   37.0000000       9.75261972E-12
   37.0999985       9.53791299E-12
   37.2000008       9.21841856E-12
   37.2999992       8.80966480E-12
   37.4000015       8.32885323E-12
   37.5000000       7.79395732E-12
   37.5999985       7.22279701E-12
   37.7000008       6.63214579E-12
   37.7999992       6.03690448E-12
   37.9000015       5.44939441E-12
   38.0000000       4.87880266E-12
   38.0999985       4.33081132E-12
   38.2000008       3.80743744E-12
   38.2999992       3.30708464E-12
   38.4000015       2.82481287E-12
   38.5000000       2.35281239E-12
   38.5999985       1.88105824E-12
   38.7000008       1.39811036E-12
   38.7999992       8.92020886E-13
   38.9000015       3.51295463E-13
   39.0000000      -2.34140263E-13
   39.0999985      -8.72024837E-13
   39.2000008      -1.56694709E-12
   39.2999992      -2.31968221E-12
   39.4000015      -3.12671677E-12
   39.5000000      -3.97999819E-12
   39.5999985      -4.86692110E-12
   39.7000008      -5.77056415E-12
   39.7999992      -6.67016702E-12
   39.9000015      -7.54183261E-12
   40.0000000      -8.35941472E-12
   40.0999985      -9.09556284E-12
   40.2000008      -9.72285707E-12
   40.2999992      -1.02149903E-11
   40.4000015      -1.05479280E-11
   40.5000000      -1.07009939E-11
   40.5999985      -1.06578201E-11
   40.7000008      -1.04071144E-11
   40.7999992      -9.94320685E-12
   40.9000015      -9.26634203E-12
   41.0000000      -8.38270512E-12
   41.0999985      -7.30418503E-12
   41.2000008      -6.04787531E-12
   41.2999992      -4.63535373E-12
   41.4000015      -3.09177250E-12
   41.5000000      -1.44480933E-12
   41.5999985       2.76465022E-13
   41.7000008       2.04273751E-12
   41.7999992       3.82556443E-12
   41.9000015       5.59838330E-12
   42.0000000       7.33737029E-12
   42.0999985       9.02209991E-12
   42.2000008       1.06359799E-11
   42.2999992       1.21664328E-11
   42.4000015       1.36048256E-11
   42.5000000       1.49461641E-11
   42.5999985       1.61885644E-11
   42.7000008       1.73325503E-11
   42.7999992       1.83802314E-11
   42.9000015       1.93343848E-11
   43.0000000       2.01975658E-11
   43.0999985       2.09712404E-11
   43.2000008       2.16550458E-11
   43.2999992       2.22462136E-11
   43.4000015       2.27392029E-11
   43.5000000       2.31255813E-11
   43.5999985       2.33941391E-11
   43.7000008       2.35312846E-11
   43.7999992       2.35216690E-11
   43.9000015       2.33490085E-11
   44.0000000       2.29970886E-11
   44.0999985       2.24508537E-11
   44.2000008       2.16975517E-11
   44.2999992       2.07278483E-11
   44.4000015       1.95368357E-11
   44.5000000       1.81248905E-11
   44.5999985       1.64983079E-11
   44.7000008       1.46696717E-11
   44.7999992       1.26579303E-11
   44.9000015       1.04881633E-11
   45.0000000       8.19104159E-12
   45.0999985       5.80199907E-12
   45.2000008       3.36016198E-12
   45.2999992       9.07074654E-13
   45.4000015      -1.51470286E-12
   45.5000000      -3.86305874E-12
   45.5999985      -6.09777983E-12
   45.7000008      -8.18191175E-12
   45.7999992      -1.00829588E-11
   45.9000015      -1.17738614E-11
   46.0000000      -1.32337075E-11
   46.0999985      -1.44481406E-11
   46.2000008      -1.54094428E-11
   46.2999992      -1.61163131E-11
   46.4000015      -1.65733503E-11
   46.5000000      -1.67902723E-11
   46.5999985      -1.67809378E-11
   46.7000008      -1.65622325E-11
   46.7999992      -1.61528776E-11
   46.9000015      -1.55722501E-11
   47.0000000      -1.48392826E-11
   47.0999985      -1.39714967E-11
   47.2000008      -1.29842448E-11
   47.2999992      -1.18901980E-11
   47.4000015      -1.06990979E-11
   47.5000000      -9.41778686E-12
   47.5999985      -8.05051685E-12
   47.7000008      -6.59949222E-12
   47.7999992      -5.06562283E-12
   47.9000015      -3.44941805E-12
   48.0000000      -1.75196403E-12
   48.0999985       2.40852684E-14
   48.2000008       1.87358072E-12
   48.2999992       3.78807836E-12
   48.4000015       5.75523006E-12
   48.5000000       7.75840850E-12
   48.5999985       9.77661355E-12
   48.7000008       1.17846601E-11
   48.7999992       1.37536657E-11
   48.9000015       1.56518062E-11
   49.0000000       1.74453074E-11
   49.0999985       1.90996316E-11
   49.2000008       2.05807819E-11
   49.2999992       2.18566606E-11
   49.4000015       2.28984106E-11
   49.5000000       2.36816591E-11
   49.5999985       2.41875929E-11
   49.7000008       2.44037984E-11
   49.7999992       2.43248494E-11
   49.9000015       2.39525535E-11
   50.0000000       2.32958913E-11
   50.0999985       2.23706279E-11
   50.2000008       2.11986192E-11
   50.2999992       1.98068506E-11
   50.4000015       1.82262816E-11
   50.5000000       1.64905156E-11
   50.5999985       1.46344169E-11
   50.7000008       1.26927262E-11
   50.7999992       1.06987431E-11
   50.9000015       8.68317310E-12
   51.0000000       6.67317330E-12
   51.0999985       4.69165679E-12
   51.2000008       2.75689194E-12
   51.2999992       8.82401736E-13
   51.4000015      -9.22834292E-13
   51.5000000      -2.65390054E-12
   51.5999985      -4.30922355E-12
   51.7000008      -5.88966506E-12
   51.7999992      -7.39749147E-12
   51.9000015      -8.83529187E-12
   52.0000000      -1.02049098E-11
   52.0999985      -1.15064833E-11
   52.2000008      -1.27376287E-11
   52.2999992      -1.38928487E-11
   52.4000015      -1.49631869E-11
   52.5000000      -1.59361829E-11
   52.5999985      -1.67960836E-11
   52.7000008      -1.75243743E-11
   52.7999992      -1.81005332E-11
   52.9000015      -1.85029995E-11
   53.0000000      -1.87103024E-11
   53.0999985      -1.87022585E-11
   53.2000008      -1.84612100E-11
   53.2999992      -1.79731629E-11
   53.4000015      -1.72288347E-11
   53.5000000      -1.62244922E-11
   53.5999985      -1.49625399E-11
   53.7000008      -1.34518455E-11
   53.7999992      -1.17077511E-11
   53.9000015      -9.75179226E-12
   54.0000000      -7.61111920E-12
   54.0999985      -5.31766948E-12
   54.2000008      -2.90712051E-12
   54.2999992      -4.17692384E-13
   54.4000015       2.11114069E-12
   54.5000000       4.63996072E-12
   54.5999985       7.13067062E-12
   54.7000008       9.54764393E-12
   54.7999992       1.18587085E-11
   54.9000015       1.40359209E-11
   55.0000000       1.60560957E-11
   55.0999985       1.79010678E-11
   55.2000008       1.95577200E-11
   55.2999992       2.10177396E-11
   55.4000015       2.22771784E-11
   55.5000000       2.33358367E-11
   55.5999985       2.41965354E-11
   55.7000008       2.48642964E-11
   55.7999992       2.53455555E-11
   55.9000015       2.56473887E-11
   56.0000000       2.57768529E-11
   56.0999985       2.57404601E-11
   56.2000008       2.55438240E-11
   56.2999992       2.51914860E-11
   56.4000015       2.46869435E-11
   56.5000000       2.40328486E-11
   56.5999985       2.32313613E-11
   56.7000008       2.22846325E-11
   56.7999992       2.11953718E-11
   56.9000015       1.99674374E-11
   57.0000000       1.86064150E-11
   57.0999985       1.71201352E-11
   57.2000008       1.55190773E-11
   57.2999992       1.38166249E-11
   57.4000015       1.20291398E-11
   57.5000000       1.01758654E-11
   57.5999985       8.27861391E-12
   57.7000008       6.36128693E-12
   57.7999992       4.44922224E-12
   57.9000015       2.56842009E-12
   58.0000000       7.44680142E-13
   58.0999985      -9.97300658E-13
   58.2000008      -2.63481468E-12
   58.2999992      -4.14796713E-12
   58.4000015      -5.52038493E-12
   58.5000000      -6.73977107E-12
   58.5999985      -7.79827418E-12
   58.7000008      -8.69263689E-12
   58.7999992      -9.42413942E-12
   58.9000015      -9.99831294E-12
   59.0000000      -1.04244530E-11
   59.0999985      -1.07149662E-11
   59.2000008      -1.08845702E-11
   59.2999992      -1.09494124E-11
   59.4000015      -1.09261367E-11
   59.5000000      -1.08309759E-11
   59.5999985      -1.06788892E-11
   59.7000008      -1.04828247E-11
   59.7999992      -1.02531204E-11
   59.9000015      -9.99709256E-12
   60.0000000      -9.71880909E-12
   60.0999985      -9.41908704E-12
   60.2000008      -9.09566953E-12
   60.2999992      -8.74359959E-12
   60.4000015      -8.35574058E-12
   60.5000000      -7.92342060E-12
   60.5999985      -7.43714292E-12
   60.7000008      -6.88733619E-12
   60.7999992      -6.26507917E-12
   60.9000015      -5.56276900E-12
   61.0000000      -4.77468759E-12
   61.0999985      -3.89743706E-12
   61.2000008      -2.93022464E-12
   61.2999992      -1.87498107E-12
   61.4000015      -7.36317745E-13
   61.5000000       4.78667344E-13
   61.5999985       1.76071863E-12
   61.7000008       3.09885234E-12
   61.7999992       4.48085492E-12
   61.9000015       5.89381148E-12
   62.0000000       7.32462355E-12
   62.0999985       8.76048106E-12
   62.2000008       1.01892583E-11
   62.2999992       1.15997984E-11
   62.4000015       1.29820790E-11
   62.5000000       1.43272503E-11
   62.5999985       1.56275409E-11
   62.7000008       1.68760492E-11
   62.7999992       1.80664355E-11
   62.9000015       1.91925573E-11
   63.0000000       2.02480584E-11
   63.0999985       2.12259706E-11
   63.2000008       2.21183575E-11
   63.2999992       2.29160284E-11
   63.4000015       2.36083618E-11
   63.5000000       2.41832544E-11
   63.5999985       2.46272273E-11
   63.7000008       2.49256692E-11
   63.7999992       2.50632397E-11
   63.9000015       2.50243871E-11
   64.0000000       2.47939985E-11
   64.0999985       2.43580971E-11
   64.1999969       2.37046025E-11
   64.3000031       2.28240690E-11
   64.4000015       2.17103939E-11
   64.5000000       2.03614226E-11
   64.5999985       1.87794485E-11
   64.6999969       1.69715318E-11
   64.8000031       1.49496700E-11
   64.9000015       1.27307505E-11
   65.0000000       1.03363281E-11
   65.0999985       7.79220612E-12
   65.1999969       5.12785040E-12
   65.3000031       2.37566672E-12
   65.4000015      -4.29832412E-13
   65.5000000      -3.25292592E-12
   65.5999985      -6.05760667E-12
   65.6999969      -8.80848606E-12
   65.8000031      -1.14716309E-11
   65.9000015      -1.40153150E-11
   66.0000000      -1.64106246E-11
   66.0999985      -1.86319224E-11
   66.1999969      -2.06571513E-11
   66.3000031      -2.24679633E-11
   66.4000015      -2.40496841E-11
   66.5000000      -2.53911440E-11
   66.5999985      -2.64843755E-11
   66.6999969      -2.73242332E-11
   66.8000031      -2.79079451E-11
   66.9000015      -2.82346490E-11
   67.0000000      -2.83049573E-11
   67.0999985      -2.81205545E-11
   67.1999969      -2.76838882E-11
   67.3000031      -2.69979560E-11
   67.4000015      -2.60662169E-11
   67.5000000      -2.48926036E-11
   67.5999985      -2.34816853E-11
   67.6999969      -2.18389005E-11
   67.8000031      -1.99709034E-11
   67.9000015      -1.78859427E-11
   68.0000000      -1.55942828E-11
   68.0999985      -1.31086106E-11
   68.1999969      -1.04443823E-11
   68.3000031      -7.62011201E-12
   68.4000015      -4.65753738E-12
   68.5000000      -1.58165950E-12
   68.5999985       1.57936836E-12
   68.6999969       4.79450334E-12
   68.8000031       8.03023013E-12
   68.9000015       1.12511164E-11
   69.0000000       1.44204952E-11
   69.0999985       1.75012244E-11
   69.1999969       2.04565340E-11
   69.3000031       2.32508613E-11
   69.4000015       2.58506983E-11
   69.5000000       2.82253648E-11
   69.5999985       3.03477035E-11
   69.6999969       3.21946393E-11
   69.8000031       3.37476089E-11
   69.9000015       3.49928073E-11
   70.0000000       3.59212868E-11
   70.0999985       3.65288841E-11
   70.1999969       3.68159669E-11
   70.3000031       3.67871046E-11
   70.4000015       3.64505509E-11
   70.5000000       3.58177168E-11
   70.5999985       3.49025565E-11
   70.6999969       3.37209913E-11
   70.8000031       3.22902989E-11
   70.9000015       3.06286281E-11
   71.0000000       2.87545734E-11
   71.0999985       2.66868350E-11
   71.1999969       2.44440284E-11
   71.3000031       2.20446023E-11
   71.4000015       1.95068683E-11
   71.5000000       1.68491419E-11
   71.5999985       1.40899514E-11
   71.6999969       1.12483165E-11
   71.8000031       8.34403120E-12
   71.9000015       5.39796289E-12
   72.0000000       2.43228940E-12
   72.0999985      -5.29321920E-13
   72.1999969      -3.46163506E-12
   72.3000031      -6.33787944E-12
   72.4000015      -9.12991297E-12
   72.5000000      -1.18085151E-11
   72.5999985      -1.43438065E-11
   72.6999969      -1.67057809E-11
   72.8000031      -1.88649339E-11
   72.9000015      -2.07929611E-11
   73.0000000      -2.24634773E-11
   73.0999985      -2.38527531E-11
   73.1999969      -2.49404074E-11
   73.3000031      -2.57100365E-11
   73.4000015      -2.61497300E-11
   73.5000000      -2.62524880E-11
   73.5999985      -2.60164598E-11
   73.6999969      -2.54450488E-11
   73.8000031      -2.45468507E-11
   73.9000015      -2.33354325E-11
   74.0000000      -2.18289675E-11
   74.0999985      -2.00497657E-11
   74.1999969      -1.80236728E-11
   74.3000031      -1.57794403E-11
   74.4000015      -1.33480293E-11
   74.5000000      -1.07619252E-11
   74.5999985      -8.05448763E-12
   74.6999969      -5.25934157E-12
   74.8000031      -2.40985248E-12
   74.9000015       4.61304389E-13
   75.0000000       3.32247489E-12
   75.0999985       6.14325214E-12
   75.1999969       8.89460814E-12
   75.3000031       1.15489380E-11
   75.4000015       1.40800410E-11
   75.5000000       1.64630566E-11
   75.5999985       1.86743832E-11
   75.6999969       2.06916064E-11
   75.8000031       2.24934498E-11
   75.9000015       2.40597889E-11
   76.0000000       2.53717290E-11
   76.0999985       2.64117582E-11
   76.1999969       2.71639846E-11
   76.3000031       2.76144559E-11
   76.4000015       2.77515389E-11
   76.5000000       2.75663554E-11
   76.5999985       2.70532381E-11
   76.6999969       2.62101747E-11
   76.8000031       2.50392502E-11
   76.9000015       2.35469942E-11
   77.0000000       2.17446564E-11
   77.0999985       1.96483663E-11
   77.1999969       1.72791365E-11
   77.3000031       1.46627467E-11
   77.4000015       1.18294550E-11
   77.5000000       8.81354972E-12
   77.5999985       5.65277903E-12
   77.6999969       2.38764629E-12
   77.8000031      -9.39394179E-13
   77.9000015      -4.28479734E-12
   78.0000000      -7.60482823E-12
   78.0999985      -1.08564529E-11
   78.1999969      -1.39981837E-11
   78.3000031      -1.69908636E-11
   78.4000015      -1.97983262E-11
   78.5000000      -2.23879491E-11
   78.5999985      -2.47310557E-11
   78.6999969      -2.68031604E-11
   78.8000031      -2.85840813E-11
   78.9000015      -3.00579006E-11
   79.0000000      -3.12128171E-11
   79.0999985      -3.20408804E-11
   79.1999969      -3.25376913E-11
   79.3000031      -3.27020182E-11
   79.4000015      -3.25354362E-11
   79.5000000      -3.20419732E-11
   79.5999985      -3.12278189E-11
   79.6999969      -3.01010987E-11
   79.8000031      -2.86717056E-11
   79.9000015      -2.69512676E-11
   80.0000000      -2.49531680E-11
   80.0999985      -2.26926620E-11
   80.1999969      -2.01870569E-11
   80.3000031      -1.74559308E-11
   80.4000015      -1.45213676E-11
   80.5000000      -1.14081748E-11
   80.5999985      -8.14405921E-12
   80.6999969      -4.75972387E-12
   80.8000031      -1.28886441E-12
   80.9000015       2.23195681E-12
   81.0000000       5.76357191E-12
   81.0999985       9.26461165E-12
   81.1999969       1.26920445E-11
   81.3000031       1.60018544E-11
   81.4000015       1.91498154E-11
   81.5000000       2.20923557E-11
   81.5999985       2.47874690E-11
   81.6999969       2.71956416E-11
   81.8000031       2.92807445E-11
   81.9000015       3.10108848E-11
   82.0000000       3.23591084E-11
   82.0999985       3.33040297E-11
   82.1999969       3.38302580E-11
   82.3000031       3.39286758E-11
   82.4000015       3.35965075E-11
   82.5000000       3.28372225E-11
   82.5999985       3.16602543E-11
   82.6999969       3.00805873E-11
   82.8000031       2.81181588E-11
   82.9000015       2.57972099E-11
   83.0000000       2.31455688E-11
   83.0999985       2.01938796E-11
   83.1999969       1.69748781E-11
   83.3000031       1.35226960E-11
   83.4000015       9.87224538E-12
   83.5000000       6.05870736E-12
   83.5999985       2.11713719E-12