  -2.00000000       0.00000000    
  -1.89999998       0.00000000    
  -1.79999995       0.00000000    
  -1.70000005       0.00000000    
  -1.60000002       0.00000000    
  -1.50000000       0.00000000    
  -1.39999998       8.61966498E-31
  -1.29999995       1.95381094E-29
  -1.20000005       1.86514639E-28
  -1.10000002       1.13525520E-27
  -1.00000000       5.15926511E-27
 -0.899999976       1.89765190E-26
 -0.800000012       5.92431890E-26
 -0.699999988       1.61830710E-25
 -0.600000024       3.94703744E-25
 -0.500000000       8.71170948E-25
 -0.400000006       1.75439648E-24
 -0.300000012       3.23458787E-24
 -0.200000003       5.44698358E-24
 -0.100000001       8.28236108E-24
   0.00000000       1.10242941E-23
  0.100000001       1.17324095E-23
  0.200000003       6.28336743E-24
  0.300000012      -1.30126369E-23
  0.400000006      -5.92768828E-23
  0.500000000      -1.53415965E-22
  0.600000024      -3.26896967E-22
  0.699999988      -6.24777837E-22
  0.800000012      -1.10871333E-21
  0.899999976      -1.85954220E-21
   1.00000000      -2.97895931E-21
   1.10000002      -4.58971785E-21
   1.20000005      -6.83379221E-21
   1.29999995      -9.86800460E-21
   1.39999998      -1.38567422E-20
   1.50000000      -1.89616147E-20
   1.60000002      -2.53281395E-20
   1.70000005      -3.30698376E-20
   1.79999995      -4.22503339E-20
   1.89999998      -5.28643245E-20
   2.00000000      -6.48181959E-20
   2.09999990      -7.79112759E-20
   2.20000005      -9.18183082E-20
   2.29999995      -1.06073622E-19
   2.40000010      -1.20057188E-19
   2.50000000      -1.32982493E-19
   2.59999990      -1.43885987E-19
   2.70000005      -1.51618174E-19
   2.79999995      -1.54836553E-19
   2.90000010      -1.52001559E-19
   3.00000000      -1.41377187E-19
   3.09999990      -1.21039594E-19
   3.20000005      -8.88973008E-20
   3.29999995      -4.27278530E-20
   3.40000010       1.97642480E-20
   3.50000000       1.00864019E-19
   3.59999990       2.02733994E-19
   3.70000005       3.27273182E-19
   3.79999995       4.75950264E-19
   3.90000010       6.49617143E-19
   4.00000000       8.48314715E-19
   4.09999990       1.07108526E-18
   4.19999981       1.31580995E-18
   4.30000019       1.57908944E-18
   4.40000010       1.85618771E-18
   4.50000000       2.14105176E-18
   4.59999990       2.42641707E-18
   4.69999981       2.70399738E-18
   4.80000019       2.96474684E-18
   4.90000010       3.19917065E-18
   5.00000000       3.39765222E-18
   5.09999990       3.55075178E-18
   5.19999981       3.64942739E-18
   5.30000019       3.68513388E-18
   5.40000010       3.64975950E-18
   5.50000000       3.53537283E-18
   5.59999990       3.33378375E-18
   5.69999981       3.03593752E-18
   5.80000019       2.63120425E-18
   5.90000010       2.10664477E-18
   6.00000000       1.44637338E-18
   6.09999990       6.31150853E-19
   6.19999981      -3.61652902E-19
   6.30000019      -1.55758678E-18
   6.40000010      -2.98402904E-18
   6.50000000      -4.66840803E-18
   6.59999990      -6.63572146E-18
   6.69999981      -8.90540828E-18
   6.80000019      -1.14876933E-17
   6.90000010      -1.43796284E-17
   7.00000000      -1.75610791E-17
   7.09999990      -2.09909687E-17
   7.19999981      -2.46041465E-17
   7.30000019      -2.83091977E-17
   7.40000010      -3.19874978E-17
   7.50000000      -3.54938039E-17
   7.59999990      -3.86584414E-17
   7.69999981      -4.12912349E-17
   7.80000019      -4.31870865E-17
   7.90000010      -4.41329775E-17
   8.00000000      -4.39161635E-17
   8.10000038      -4.23332145E-17
   8.19999981      -3.91994242E-17
   8.30000019      -3.43582934E-17
   8.39999962      -2.76905824E-17
   8.50000000      -1.91226803E-17
   8.60000038      -8.63401694E-18
   8.69999981       3.73668750E-18
   8.80000019       1.78863613E-17
   8.89999962       3.36437880E-17
   9.00000000       5.07670587E-17
   9.10000038       6.89422152E-17
   9.19999981       8.77832124E-17
   9.30000019       1.06833275E-16
   9.39999962       1.25567804E-16
   9.50000000       1.43399290E-16
   9.60000038       1.59684544E-16
   9.69999981       1.73734756E-16
   9.80000019       1.84828968E-16
   9.89999962       1.92231163E-16
   10.0000000       1.95211541E-16
   10.1000004       1.93071605E-16
   10.1999998       1.85173195E-16
   10.3000002       1.70970437E-16
   10.3999996       1.50043853E-16
   10.5000000       1.22135031E-16
   10.6000004       8.71801713E-17
   10.6999998       4.53405057E-17
   10.8000002      -2.97231264E-18
   10.8999996      -5.70780828E-17
   11.0000000      -1.16018817E-16
   11.1000004      -1.78559866E-16
   11.1999998      -2.43202350E-16
   11.3000002      -3.08207073E-16
   11.3999996      -3.71629750E-16
   11.5000000      -4.31366457E-16
   11.6000004      -4.85207789E-16
   11.6999998      -5.30899764E-16
   11.8000002      -5.66208862E-16
   11.8999996      -5.88989230E-16
   12.0000000      -5.97249549E-16
   12.1000004      -5.89216765E-16
   12.1999998      -5.63396130E-16
   12.3000002      -5.18625356E-16
   12.3999996      -4.54122686E-16
   12.5000000      -3.69528049E-16
   12.6000004      -2.64938142E-16
   12.6999998      -1.40935364E-16
   12.8000002       1.38860609E-18
   12.8999996       1.60414501E-16
   13.0000000       3.33981835E-16
   13.1000004       5.19380486E-16
   13.1999998       7.13348014E-16
   13.3000002       9.12074172E-16
   13.3999996       1.11121384E-15
   13.5000000       1.30591156E-15
   13.6000004       1.49083855E-15
   13.6999998       1.66024546E-15
   13.8000002       1.80803375E-15
   13.8999996       1.92784699E-15
   14.0000000       2.01318217E-15
   14.1000004       2.05752392E-15
   14.1999998       2.05450213E-15
   14.3000002       1.99806687E-15
   14.3999996       1.88268425E-15
   14.5000000       1.70354949E-15
   14.6000004       1.45680995E-15
   14.6999998       1.13979676E-15
   14.8000002       7.51259938E-16
   14.8999996       2.91598160E-16
   15.0000000      -2.36920171E-16
   15.1000004      -8.29955281E-16
   15.1999998      -1.48092043E-15
   15.3000002      -2.18084197E-15
   15.3999996      -2.91826504E-15
   15.5000000      -3.67921551E-15
   15.6000004      -4.44722833E-15
   15.6999998      -5.20345130E-15
   15.8000002      -5.92683861E-15
   15.8999996      -6.59443779E-15
   16.0000000      -7.18177806E-15
   16.1000004      -7.66336627E-15
   16.2000008      -8.01328659E-15
   16.2999992      -8.20590273E-15
   16.3999996      -8.21665158E-15
   16.5000000      -8.02290973E-15
   16.6000004      -7.60492269E-15
   16.7000008      -6.94675988E-15
   16.7999992      -6.03726630E-15
   16.8999996      -4.87097774E-15
   17.0000000      -3.44895934E-15
   17.1000004      -1.77953004E-15
   17.2000008       1.21173807E-16
   17.2999992       2.22882977E-15
   17.3999996       4.51078502E-15
   17.5000000       6.92617613E-15
   17.6000004       9.42632050E-15
   17.7000008       1.19553983E-14
   17.7999992       1.44514256E-14
   17.8999996       1.68474989E-14
   18.0000000       1.90733134E-14
   18.1000004       2.10568884E-14
   18.2000008       2.27264835E-14
   18.2999992       2.40126573E-14
   18.3999996       2.48503763E-14
   18.5000000       2.51811647E-14
   18.6000004       2.49551746E-14
   18.7000008       2.41331443E-14
   18.7999992       2.26881756E-14
   18.8999996       2.06072528E-14
   19.0000000       1.78924614E-14
   19.1000004       1.45618533E-14
   19.2000008       1.06499274E-14
   19.2999992       6.20768467E-15
   19.3999996       1.30225799E-15
   19.5000000      -3.98390808E-15
   19.6000004      -9.55430379E-15
   19.7000008      -1.53000171E-14
   19.7999992      -2.11017811E-14
   19.8999996      -2.68323554E-14
   20.0000000      -3.23592200E-14
   20.1000004      -3.75474764E-14
   20.2000008      -4.22629257E-14
   20.2999992      -4.63752639E-14
   20.3999996      -4.97612443E-14
   20.5000000      -5.23078319E-14
   20.6000004      -5.39152124E-14
   20.7000008      -5.44995703E-14
   20.7999992      -5.39955857E-14
   20.8999996      -5.23586132E-14
   21.0000000      -4.95664504E-14
   21.1000004      -4.56206084E-14
   21.2000008      -4.05471555E-14
   21.2999992      -3.43970017E-14
   21.3999996      -2.72456736E-14
   21.5000000      -1.91925672E-14
   21.6000004      -1.03596517E-14
   21.7000008      -8.89706573E-16
   21.7999992       9.05591892E-15
   21.8999996       1.92999659E-14
   22.0000000       2.96522992E-14
   22.1000004       3.99132631E-14
   22.2000008       4.98772776E-14
   22.2999992       5.93366637E-14
   22.3999996       6.80855925E-14
   22.5000000       7.59240557E-14
   22.6000004       8.26619182E-14
   22.7000008       8.81228752E-14
   22.7999992       9.21482739E-14
   22.8999996       9.46007527E-14
   23.0000000       9.53676496E-14
   23.1000004       9.43640579E-14
   23.2000008       9.15355573E-14
   23.2999992       8.68604166E-14
   23.3999996       8.03513411E-14
   23.5000000       7.20566320E-14
   23.6000004       6.20607149E-14
   23.7000008       5.04839768E-14
   23.7999992       3.74819194E-14
   23.8999996       2.32435311E-14
   24.0000000       7.98892761E-15
   24.1000004      -8.03374497E-15
   24.2000008      -2.45521343E-14
   24.2999992      -4.12741469E-14
   24.3999996      -5.78930418E-14
   24.5000000      -7.40929602E-14
   24.6000004      -8.95549097E-14
   24.7000008      -1.03962974E-13
   24.7999992      -1.17010649E-13
   24.8999996      -1.28407227E-13
   25.0000000      -1.37883899E-13
   25.1000004      -1.45199730E-13
   25.2000008      -1.50147066E-13
   25.2999992      -1.52556407E-13
   25.3999996      -1.52300766E-13
   25.5000000      -1.49299071E-13
   25.6000004      -1.43518850E-13
   25.7000008      -1.34977980E-13
   25.7999992      -1.23745550E-13
   25.8999996      -1.09941719E-13
   26.0000000      -9.37365216E-14
   26.1000004      -7.53478565E-14
   26.2000008      -5.50383408E-14
   26.2999992      -3.31113107E-14
   26.3999996      -9.90588430E-15
   26.5000000       1.42087702E-14
   26.6000004       3.88399504E-14
   26.7000008       6.35785505E-14
   26.7999992       8.80067097E-14
   26.8999996       1.11705804E-13
   27.0000000       1.34264534E-13
   27.1000004       1.55287065E-13
   27.2000008       1.74400763E-13
   27.2999992       1.91263414E-13
   27.3999996       2.05569665E-13
   27.5000000       2.17056421E-13
   27.6000004       2.25506923E-13
   27.7000008       2.30753432E-13
   27.7999992       2.32678297E-13
   27.8999996       2.31213486E-13
   28.0000000       2.26338276E-13
   28.1000004       2.18075707E-13
   28.2000008       2.06487713E-13
   28.2999992       1.91669231E-13
   28.3999996       1.73741975E-13
   28.5000000       1.52848166E-13
   28.6000004       1.29144837E-13
   28.7000008       1.02799449E-13
   28.7999992       7.39873251E-14
   28.8999996       4.28913801E-14
   29.0000000       9.70473092E-15
   29.1000004      -2.53635885E-14
   29.2000008      -6.20797494E-14
   29.2999992      -1.00173145E-13
   29.3999996      -1.39321917E-13
   29.5000000      -1.79136477E-13
   29.6000004      -2.19142467E-13
   29.7000008      -2.58764093E-13
   29.7999992      -2.97309866E-13
   29.8999996      -3.33962296E-13
   30.0000000      -3.67773683E-13
   30.1000004      -3.97670070E-13
   30.2000008      -4.22465041E-13
   30.2999992      -4.40885284E-13
   30.3999996      -4.51609263E-13
   30.5000000      -4.53319538E-13
   30.6000004      -4.44769601E-13
   30.7000008      -4.24863649E-13
   30.7999992      -3.92749093E-13
   30.8999996      -3.47918742E-13
   31.0000000      -2.90319851E-13
   31.1000004      -2.20465979E-13
   31.2000008      -1.39546794E-13
   31.2999992      -4.95306344E-14
   31.3999996       4.67460306E-14
   31.5000000       1.45508456E-13
   31.6000004       2.41998560E-13
   31.7000008       3.30460485E-13
   31.7999992       4.04162137E-13
   31.8999996       4.55455985E-13
   32.0000000       4.75883005E-13
   32.0999985       4.56319390E-13
   32.2000008       3.87167810E-13
   32.2999992       2.58588994E-13
   32.4000015       6.07707244E-14
   32.5000000      -2.15771547E-13
   32.5999985      -5.79870787E-13
   32.7000008      -1.03936976E-12
   32.7999992      -1.60077843E-12
   32.9000015      -2.26893808E-12
   33.0000000      -3.04670503E-12
   33.0999985      -3.93466509E-12
   33.2000008      -4.93089207E-12
   33.2999992      -6.03075619E-12
   33.4000015      -7.22680032E-12
   33.5000000      -8.50868421E-12
   33.5999985      -9.86320661E-12
   33.7000008      -1.12744085E-11
   33.7999992      -1.27237526E-11
   33.9000015      -1.41903902E-11
   34.0000000      -1.56515009E-11
   34.0999985      -1.70826929E-11
   34.2000008      -1.84584830E-11
   34.2999992      -1.97528036E-11
   34.4000015      -2.09395522E-11
   34.5000000      -2.19931712E-11
   34.5999985      -2.28892235E-11
   34.7000008      -2.36049669E-11
   34.7999992      -2.41198971E-11
   34.9000015      -2.44162589E-11
   35.0000000      -2.44794983E-11
   35.0999985      -2.42986655E-11
   35.2000008      -2.38667211E-11
   35.2999992      -2.31807854E-11
   35.4000015      -2.22422775E-11
   35.5000000      -2.10569825E-11
   35.5999985      -1.96350141E-11
   35.7000008      -1.79906888E-11
   35.7999992      -1.61423184E-11
   35.9000015      -1.41119174E-11
   36.0000000      -1.19248396E-11
   36.0999985      -9.60934457E-12
   36.2000008      -7.19611827E-12
   36.2999992      -4.71774659E-12
   36.4000015      -2.20815597E-12
   36.5000000       2.97960956E-13
   36.5999985       2.76572818E-12
   36.7000008       5.16066356E-12
   36.7999992       7.44924174E-12
   36.9000015       9.59942629E-12
   37.0000000       1.15811744E-11
   37.0999985       1.33668883E-11
   37.2000008       1.49318197E-11
   37.2999992       1.62544249E-11
   37.4000015       1.73166412E-11
   37.5000000       1.81041224E-11
   37.5999985       1.86063873E-11
   37.7000008       1.88169202E-11
   37.7999992       1.87332008E-11
   37.9000015       1.83566669E-11
   38.0000000       1.76926234E-11
   38.0999985       1.67500961E-11
   38.2000008       1.55416392E-11
   38.2999992       1.40830897E-11
   38.4000015       1.23932965E-11
   38.5000000       1.04938081E-11
   38.5999985       8.40853862E-12
   38.7000008       6.16341960E-12
   38.7999992       3.78603442E-12
   38.9000015       1.30524844E-12
   39.0000000      -1.24915692E-12
   39.0999985      -3.84685036E-12
   39.2000008      -6.45730344E-12
   39.2999992      -9.05013391E-12
   39.4000015      -1.15954277E-11
   39.5000000      -1.40640468E-11
   39.5999985      -1.64279146E-11
   39.7000008      -1.86602799E-11
   39.7999992      -2.07359633E-11
   39.9000015      -2.26315720E-11
   40.0000000      -2.43257046E-11
   40.0999985      -2.57991250E-11
   40.2000008      -2.70349281E-11
   40.2999992      -2.80186690E-11
   40.4000015      -2.87384908E-11
   40.5000000      -2.91852306E-11
   40.5999985      -2.93524961E-11
   40.7000008      -2.92367450E-11
   40.7999992      -2.88373370E-11
   40.9000015      -2.81565569E-11
   41.0000000      -2.71996453E-11
   41.0999985      -2.59747848E-11
   41.2000008      -2.44930812E-11
   41.2999992      -2.27685128E-11
   41.4000015      -2.08178561E-11
   41.5000000      -1.86605904E-11
   41.5999985      -1.63187606E-11
   41.7000008      -1.38168227E-11
   41.7999992      -1.11814412E-11
   41.9000015      -8.44125984E-12
   42.0000000      -5.62663588E-12
   42.0999985      -2.76933055E-12
   42.2000008       9.78251361E-14
   42.2999992       2.94130974E-12
   42.4000015       5.72731315E-12
   42.5000000       8.42217181E-12
   42.5999985       1.09928169E-11
   42.7000008       1.34072449E-11
   42.7999992       1.56349881E-11
   42.9000015       1.76475883E-11
   43.0000000       1.94190480E-11
   43.0999985       2.09262694E-11
   43.2000008       2.21494507E-11
   43.2999992       2.30724485E-11
   43.4000015       2.36830746E-11
   43.5000000       2.39733424E-11
   43.5999985       2.39396350E-11
   43.7000008       2.35828128E-11
   43.7999992       2.29082274E-11
   43.9000015       2.19256713E-11
   44.0000000       2.06492306E-11
   44.0999985       1.90970833E-11
   44.2000008       1.72912171E-11
   44.2999992       1.52570803E-11
   44.4000015       1.30231928E-11
   44.5000000       1.06206849E-11
   44.5999985       8.08282868E-12
   44.7000008       5.44452721E-12
   44.7999992       2.74179442E-12
   44.9000015       1.12328520E-14
   45.0000000      -2.71048960E-12
   45.0999985      -5.38714602E-12
   45.2000008      -7.98343683E-12
   45.2999992      -1.04654445E-11
   45.4000015      -1.28010701E-11
   45.5000000      -1.49604201E-11
   45.5999985      -1.69161577E-11
   45.7000008      -1.86438278E-11
   45.7999992      -2.01221158E-11
   45.9000015      -2.13330863E-11
   46.0000000      -2.22623638E-11
   46.0999985      -2.28992780E-11
   46.2000008      -2.32369627E-11
   46.2999992      -2.32724118E-11
   46.4000015      -2.30064839E-11
   46.5000000      -2.24438731E-11
   46.5999985      -2.15930242E-11
   46.7000008      -2.04660056E-11
   46.7999992      -1.90783500E-11
   46.9000015      -1.74488358E-11
   47.0000000      -1.55992320E-11
   47.0999985      -1.35540138E-11
   47.2000008      -1.13400287E-11
   47.2999992      -8.98614603E-12
   47.4000015      -6.52286298E-12
   47.5000000      -3.98190595E-12
   47.5999985      -1.39580318E-12
   47.7000008       1.20254208E-12
   47.7999992       3.78028598E-12
   47.9000015       6.30507278E-12
   48.0000000       8.74544968E-12
   48.0999985       1.10712706E-11
   48.2000008       1.32540741E-11
   48.2999992       1.52674297E-11
   48.4000015       1.70872552E-11
   48.5000000       1.86920965E-11
   48.5999985       2.00633676E-11
   48.7000008       2.11855550E-11
   48.7999992       2.20463595E-11
   48.9000015       2.26368178E-11
   49.0000000       2.29513648E-11
   49.0999985       2.29878599E-11
   49.2000008       2.27475660E-11
   49.2999992       2.22350992E-11
   49.4000015       2.14583264E-11
   49.5000000       2.04282407E-11
   49.5999985       1.91587978E-11
   49.7000008       1.76667292E-11
   49.7999992       1.59713284E-11
   49.9000015       1.40942093E-11
   50.0000000       1.20590525E-11
   50.0999985       9.89132387E-12
   50.2000008       7.61798697E-12
   50.2999992       5.26719900E-12
   50.4000015       2.86798970E-12
   50.5000000       4.49937261E-13
   50.5999985      -1.95717140E-12
   50.7000008      -4.32368247E-12
   50.7999992      -6.62042643E-12
   50.9000015      -8.81907047E-12
   51.0000000      -1.08924744E-11
   51.0999985      -1.28150372E-11
   51.2000008      -1.45630452E-11
   51.2999992      -1.61150052E-11
   51.4000015      -1.74519496E-11
   51.5000000      -1.85577369E-11
   51.5999985      -1.94193047E-11
   51.7000008      -2.00268829E-11
   51.7999992      -2.03741832E-11
   51.9000015      -2.04585116E-11
   52.0000000      -2.02808412E-11
   52.0999985      -1.98458142E-11
   52.2000008      -1.91616844E-11
   52.2999992      -1.82402010E-11
   52.4000015      -1.70964198E-11
   52.5000000      -1.57484546E-11
   52.5999985      -1.42171882E-11
   52.7000008      -1.25259195E-11
   52.7999992      -1.06999826E-11
   52.9000015      -8.76633401E-12
   53.0000000      -6.75312714E-12
   53.0999985      -4.68927197E-12
   53.2000008      -2.60400750E-12
   53.2999992      -5.26483750E-13
   53.4000015       1.51463510E-12
   53.5000000       3.49153519E-12
   53.5999985       5.37758510E-12
   53.7000008       7.14763275E-12
   53.7999992       8.77826284E-12
   53.9000015       1.02480194E-11
   54.0000000       1.15375877E-11
   54.0999985       1.26299587E-11
   54.2000008       1.35105512E-11
   54.2999992       1.41673253E-11
   54.4000015       1.45908632E-11
   54.5000000       1.47744594E-11
   54.5999985       1.47141622E-11
   54.7000008       1.44088404E-11
   54.7999992       1.38602168E-11
   54.9000015       1.30728891E-11
   55.0000000       1.20543436E-11
   55.0999985       1.08149384E-11
   55.2000008       9.36786673E-12
   55.2999992       7.72908734E-12
   55.4000015       5.91721203E-12
   55.5000000       3.95337192E-12
   55.5999985       1.86102197E-12
   55.7000008      -3.34291947E-13
   55.7999992      -2.60520923E-12
   55.9000015      -4.92287851E-12
   56.0000000      -7.25731975E-12
   56.0999985      -9.57782204E-12
   56.2000008      -1.18533725E-11
   56.2999992      -1.40531033E-11
   56.4000015      -1.61467558E-11
   56.5000000      -1.81051424E-11
   56.5999985      -1.99006107E-11
   56.7000008      -2.15074781E-11
   56.7999992      -2.29024612E-11
   56.9000015      -2.40650468E-11
   57.0000000      -2.49778479E-11
   57.0999985      -2.56268947E-11
   57.2000008      -2.60018725E-11
   57.2999992      -2.60963057E-11
   57.4000015      -2.59076840E-11
   57.5000000      -2.54375149E-11
   57.5999985      -2.46913202E-11
   57.7000008      -2.36785591E-11
   57.7999992      -2.24124989E-11
   57.9000015      -2.09100202E-11
   58.0000000      -1.91913638E-11
   58.0999985      -1.72798199E-11
   58.2000008      -1.52013853E-11
   58.2999992      -1.29843601E-11
   58.4000015      -1.06589251E-11
   58.5000000      -8.25668266E-12
   58.5999985      -5.81018567E-12
   58.7000008      -3.35245178E-12
   58.7999992      -9.16476422E-13
   58.9000015       1.46524687E-12
   59.0000000       3.76119491E-12
   59.0999985       5.94125877E-12
   59.2000008       7.97716320E-12
   59.2999992       9.84284789E-12
   59.4000015       1.15148134E-11
   59.5000000       1.29724252E-11
   59.5999985       1.41981678E-11
   59.7000008       1.51778572E-11
   59.7999992       1.59008032E-11
   59.9000015       1.63599186E-11
   60.0000000       1.65517895E-11
   60.0999985       1.64766863E-11
   60.2000008       1.61385436E-11
   60.2999992       1.55448709E-11
   60.4000015       1.47066526E-11
   60.5000000       1.36381679E-11
   60.5999985       1.23567996E-11
   60.7000008       1.08827834E-11
   60.7999992       9.23893080E-12
   60.9000015       7.45030686E-12
   61.0000000       5.54387872E-12
   61.0999985       3.54813704E-12
   61.2000008       1.49268488E-12
   61.2999992      -5.92189763E-13
   61.4000015      -2.67595776E-12
   61.5000000      -4.72829935E-12
   61.5999985      -6.71955503E-12
   61.7000008      -8.62117149E-12
   61.7999992      -1.04061256E-11
   61.9000015      -1.20493320E-11
   62.0000000      -1.35280086E-11
   62.0999985      -1.48220099E-11
   62.2000008      -1.59141051E-11
   62.2999992      -1.67902133E-11
   62.4000015      -1.74395758E-11
   62.5000000      -1.78548756E-11
   62.5999985      -1.80322892E-11
   62.7000008      -1.79714837E-11
   62.7999992      -1.76755641E-11
   62.9000015      -1.71509543E-11
   63.0000000      -1.64072401E-11
   63.0999985      -1.54569690E-11
   63.2000008      -1.43154065E-11
   63.2999992      -1.30002701E-11
   63.4000015      -1.15314303E-11
   63.5000000      -9.93059888E-12
   63.5999985      -8.22100461E-12
   63.7000008      -6.42705594E-12
   63.7999992      -4.57400307E-12
   63.9000015      -2.68760036E-12
   64.0000000      -7.93769998E-13
   64.0999985       1.08172542E-12
   64.1999969       2.91360490E-12
   64.3000031       4.67737828E-12
   64.4000015       6.34964217E-12
   64.5000000       7.90836233E-12
   64.5999985       9.33313843E-12
   64.6999969       1.06054445E-11
   64.8000031       1.17088544E-11
   64.9000015       1.26292362E-11
   65.0000000       1.33549222E-11
   65.0999985       1.38768459E-11
   65.1999969       1.41886520E-11
   65.3000031       1.42867679E-11
   65.4000015       1.41704435E-11
   65.5000000       1.38417507E-11
   65.5999985       1.33055528E-11
   65.6999969       1.25694316E-11
   65.8000031       1.16435819E-11
   65.9000015       1.05406725E-11
   66.0000000       9.27567224E-12
   66.0999985       7.86564997E-12
   66.1999969       6.32954062E-12
   66.3000031       4.68789460E-12
   66.4000015       2.96259653E-12
   66.5000000       1.17657229E-12
   66.5999985      -6.46521844E-13
   66.6999969      -2.48262023E-12
   66.8000031      -4.30757556E-12
   66.9000015      -6.09748840E-12
   67.0000000      -7.82903690E-12
   67.0999985      -9.47979455E-12
   67.1999969      -1.10285401E-11
   67.3000031      -1.24555505E-11
   67.4000015      -1.37428662E-11
   67.5000000      -1.48745356E-11
   67.5999985      -1.58368232E-11
   67.6999969      -1.66183872E-11
   67.8000031      -1.72104102E-11
   67.9000015      -1.76067043E-11
   68.0000000      -1.78037567E-11
   68.0999985      -1.78007383E-11
   68.1999969      -1.75994844E-11
   68.3000031      -1.72044132E-11
   68.4000015      -1.66224187E-11
   68.5000000      -1.58627295E-11
   68.5999985      -1.49367359E-11
   68.6999969      -1.38577908E-11
   68.8000031      -1.26409863E-11
   68.9000015      -1.13029239E-11
   69.0000000      -9.86145800E-12
   69.0999985      -8.33544345E-12
   69.1999969      -6.74447564E-12
   69.3000031      -5.10862750E-12
   69.4000015      -3.44819377E-12
   69.5000000      -1.78343787E-12
   69.5999985      -1.34350471E-13
   69.6999969       1.47958458E-12
   69.8000031       3.03960958E-12
   69.9000015       4.52789932E-12
   70.0000000       5.92775004E-12
   70.0999985       7.22375415E-12
   70.1999969       8.40194928E-12
   70.3000031       9.44995731E-12
   70.4000015       1.03570945E-11
   70.5000000       1.11144592E-11
   70.5999985       1.17150066E-11
   70.6999969       1.21535924E-11
   70.8000031       1.24269952E-11
   70.9000015       1.25339253E-11
   71.0000000       1.24750019E-11
   71.0999985       1.22527188E-11
   71.1999969       1.18713884E-11
   71.3000031       1.13370676E-11
   71.4000015       1.06574732E-11
   71.5000000       9.84187471E-12
   71.5999985       8.90098585E-12
   71.6999969       7.84683256E-12
   71.8000031       6.69262302E-12
   71.9000015       5.45259931E-12
   72.0000000       4.14188649E-12
   72.0999985       2.77633255E-12
   72.1999969       1.37234343E-12
   72.3000031      -5.32869139E-14
   72.4000015      -1.48355232E-12
   72.5000000      -2.90141197E-12
   72.5999985      -4.28997072E-12
   72.6999969      -5.63265884E-12
   72.8000031      -6.91341429E-12
   72.9000015      -8.11685788E-12
   73.0000000      -9.22847215E-12
   73.0999985      -1.02347653E-11
   73.1999969      -1.11234390E-11
   73.3000031      -1.18835324E-11
   73.4000015      -1.25055695E-11
   73.5000000      -1.29816852E-11
   73.5999985      -1.33057333E-11
   73.6999969      -1.34733865E-11
   73.8000031      -1.34822015E-11
   73.9000015      -1.33316838E-11
   74.0000000      -1.30233073E-11
   74.0999985      -1.25605264E-11
   74.1999969      -1.19487510E-11
   74.3000031      -1.11953034E-11
   74.4000015      -1.03093419E-11
   74.5000000      -9.30176422E-12
   74.5999985      -8.18508022E-12
   74.6999969      -6.97326355E-12
   74.8000031      -5.68157717E-12
   74.9000015      -4.32638474E-12
   75.0000000      -2.92493677E-12
   75.0999985      -1.49514776E-12
   75.1999969      -5.53595899E-14
   75.3000031       1.37590102E-12
   75.4000015       2.78016911E-12
   75.5000000       4.13928830E-12
   75.5999985       5.43565323E-12
   75.6999969       6.65244465E-12
   75.8000031       7.77385274E-12
   75.9000015       8.78528760E-12
   76.0000000       9.67357184E-12
   76.0999985       1.04271175E-11
   76.1999969       1.10360766E-11
   76.3000031       1.14924745E-11
   76.4000015       1.17903135E-11
   76.5000000       1.19256575E-11
   76.5999985       1.18966842E-11
   76.6999969       1.17037153E-11
   76.8000031       1.13492176E-11
   76.9000015       1.08377777E-11
   77.0000000       1.01760484E-11
   77.0999985       9.37266931E-12
   77.1999969       8.43816163E-12
   77.3000031       7.38479417E-12
   77.4000015       6.22642866E-12
   77.5000000       4.97833849E-12
   77.5999985       3.65700786E-12
   77.6999969       2.27990955E-12
   77.8000031       8.65268848E-13
   77.9000015      -5.68187587E-13
   78.0000000      -2.00149337E-12
   78.0999985      -3.41570999E-12
   78.1999969      -4.79219529E-12
   78.3000031      -6.11287106E-12
   78.4000015      -7.36047941E-12
   78.5000000      -8.51883494E-12
   78.5999985      -9.57304895E-12
   78.6999969      -1.05097415E-11
   78.8000031      -1.13172206E-11
   78.9000015      -1.19856425E-11
   79.0000000      -1.25071316E-11
   79.0999985      -1.28758714E-11
   79.1999969      -1.30881642E-11
   79.3000031      -1.31424481E-11
   79.4000015      -1.30392936E-11
   79.5000000      -1.27813584E-11
   79.5999985      -1.23733194E-11
   79.6999969      -1.18217771E-11
   79.8000031      -1.11351345E-11
   79.9000015      -1.03234652E-11
   80.0000000      -9.39835536E-12
   80.0999985      -8.37274174E-12
   80.1999969      -7.26073715E-12
   80.3000031      -6.07745018E-12
   80.4000015      -4.83879777E-12
   80.5000000      -3.56132051E-12
   80.5999985      -2.26199051E-12
   80.6999969      -9.58023157E-13
   80.8000031       3.33312723E-13
   80.9000015       1.59488460E-12
   81.0000000       2.80988470E-12
   81.0999985       3.96201735E-12
   81.1999969       5.03568368E-12
   81.3000031       6.01616717E-12
   81.4000015       6.88980990E-12
   81.5000000       7.64418910E-12
   81.5999985       8.26828189E-12
   81.6999969       8.75262363E-12
   81.8000031       9.08945488E-12
   81.9000015       9.27285072E-12
   82.0000000       9.29883427E-12
   82.0999985       9.16547220E-12
   82.1999969       8.87294058E-12
   82.3000031       8.42357087E-12
   82.4000015       7.82186555E-12
   82.5000000       7.07447902E-12
   82.5999985       6.19017337E-12
   82.6999969       5.17973728E-12
   82.8000031       4.05587109E-12
   82.9000015       2.83303914E-12
   83.0000000       1.52729305E-12
   83.0999985       1.56062243E-13
   83.1999969      -1.26208028E-12
   83.3000031      -2.70767653E-12
   83.4000015      -4.16065966E-12
   83.5000000      -5.60064538E-12
   83.5999985      -7.00723203E-12