 -0.239999995         0.00000000    
 -0.231999993         0.00000000    
 -0.224000007         0.00000000    
 -0.216000006         0.00000000    
 -0.208000004         0.00000000    
 -0.200000003         0.00000000    
 -0.192000002         2.16427814E-33
 -0.184000000         4.33872805E-27
 -0.175999999        -5.55355034E-27
 -0.167999998        -1.26392835E-25
 -0.159999996        -2.98618291E-25
 -0.151999995         2.50346537E-25
 -0.143999994         2.25140764E-24
 -0.136000007         3.20173220E-24
 -0.128000006        -2.93999999E-24
 -0.119999997        -1.54764034E-23
 -0.112000003        -1.57527445E-23
 -0.104000002         1.67662051E-23
  -9.60000008E-02     6.15422893E-23
  -8.79999995E-02     5.05115652E-23
  -7.99999982E-02    -5.10887085E-23
  -7.19999969E-02    -1.57004840E-22
  -6.40000030E-02    -1.19734028E-22
  -5.60000017E-02     7.69052545E-23
  -4.80000004E-02     2.45666104E-22
  -3.99999991E-02     2.04662023E-22
  -3.20000015E-02     1.86446628E-23
  -2.40000002E-02    -1.04879013E-22
  -1.60000008E-02    -1.57463844E-22
  -8.00000038E-03    -3.42433816E-22
   0.00000000        -6.01256504E-22
   8.00000038E-03    -3.82834197E-22
   1.60000008E-02     6.79043440E-22
   2.40000002E-02     1.85854801E-21
   3.20000015E-02     1.68815365E-21
   3.99999991E-02    -3.25460937E-22
   4.80000004E-02    -2.65145293E-21
   5.60000017E-02    -3.07157001E-21
   6.40000030E-02    -1.11886760E-21
   7.19999969E-02     1.41098655E-21
   7.99999982E-02     2.57170715E-21
   8.79999995E-02     2.24227076E-21
   9.60000008E-02     1.54529274E-21
  0.104000002         9.28947658E-22
  0.112000003        -2.54279657E-22
  0.119999997        -2.34404406E-21
  0.128000006        -4.35902857E-21
  0.136000007        -4.66501270E-21
  0.143999994        -2.34969034E-21
  0.151999995         1.96296785E-21
  0.159999996         6.18548496E-21
  0.167999998         7.83987406E-21
  0.175999999         5.84526009E-21
  0.184000000         1.38293754E-21
  0.192000002        -3.49665885E-21
  0.200000003        -7.79273526E-21
  0.208000004        -1.10113314E-20
  0.216000006        -1.10450325E-20
  0.224000007        -4.90545326E-21
  0.231999993         6.85488693E-21
  0.239999995         1.77678993E-20
  0.247999996         1.99069593E-20
  0.256000012         1.12629001E-20
  0.263999999        -2.40526734E-21
  0.272000015        -1.32969195E-20
  0.280000001        -1.80006877E-20
  0.287999988        -1.77517225E-20
  0.296000004        -1.37729611E-20
  0.303999990        -4.68579117E-21
  0.312000006         1.01803687E-20
  0.319999993         2.56577774E-20
  0.328000009         3.13496315E-20
  0.335999995         1.99527968E-20
  0.344000012        -4.20744166E-21
  0.351999998        -2.63478125E-20
  0.360000014        -3.28285528E-20
  0.368000001        -2.23363484E-20
  0.375999987        -5.51944705E-21
  0.384000003         5.93249412E-21
  0.391999990         9.05411057E-21
  0.400000006         9.03456601E-21
  0.407999992         1.09455939E-20
  0.416000009         1.36369093E-20
  0.423999995         1.15445850E-20
  0.432000011         1.20973539E-21
  0.439999998        -1.43958233E-20
  0.448000014        -2.70676955E-20
  0.456000000        -2.84970991E-20
  0.463999987        -1.58129161E-20
  0.472000003         5.69194612E-21
  0.479999989         2.50251749E-20
  0.488000005         3.24605318E-20
  0.495999992         2.57640831E-20
  0.504000008         1.04878036E-20
  0.512000024        -4.73812771E-21
  0.519999981        -1.23701734E-20
  0.527999997        -7.55939117E-21
  0.536000013         9.58739004E-21
  0.544000030         3.05575479E-20
  0.551999986         3.99829607E-20
  0.560000002         2.62415004E-20
  0.568000019        -6.11471659E-21
  0.575999975        -3.54809333E-20
  0.583999991        -3.86142579E-20
  0.592000008        -1.11513818E-20
  0.600000024         2.55147560E-20
  0.607999980         4.00204424E-20
  0.615999997         1.76432455E-20
  0.624000013        -2.62905932E-20
  0.632000029        -5.92255696E-20
  0.639999986        -5.85603032E-20
  0.648000002        -2.93008311E-20
  0.656000018         8.51870116E-22
  0.663999975         3.54554854E-21
  0.671999991        -2.65580537E-20
  0.680000007        -6.43332354E-20
  0.688000023        -7.31474717E-20
  0.695999980        -3.76781997E-20
  0.703999996         2.17905223E-20
  0.712000012         7.02296438E-20
  0.720000029         8.93967434E-20
  0.727999985         8.45744355E-20
  0.736000001         6.80116301E-20
  0.744000018         4.90188911E-20
  0.751999974         3.81434888E-20
  0.759999990         4.38383979E-20
  0.768000007         5.75530944E-20
  0.776000023         5.43457145E-20
  0.783999979         1.87712581E-20
  0.791999996        -3.60245719E-20
  0.800000012        -8.24770221E-20
  0.808000028        -1.05069121E-19
  0.815999985        -1.05777395E-19
  0.824000001        -9.22889804E-20
  0.832000017        -7.37198031E-20
  0.839999974        -6.33039449E-20
  0.847999990        -7.06445847E-20
  0.856000006        -8.84249483E-20
  0.864000022        -9.59778117E-20
  0.871999979        -7.80880599E-20
  0.879999995        -3.35625432E-20
  0.888000011         3.30471870E-20
  0.896000028         1.15972803E-19
  0.903999984         2.00335454E-19
  0.912000000         2.62056169E-19
  0.920000017         2.86969195E-19
  0.927999973         2.84641302E-19
  0.935999990         2.71640917E-19
  0.944000006         2.42521678E-19
  0.952000022         1.70082913E-19
  0.959999979         3.89802240E-20
  0.967999995        -1.29461030E-19
  0.976000011        -2.92282641E-19
  0.984000027        -4.17279790E-19
  0.991999984        -4.91611739E-19
   1.00000000        -5.06732446E-19
   1.00800002        -4.53768692E-19
   1.01600003        -3.39605127E-19
   1.02400005        -1.93692612E-19
   1.03199995        -4.65562646E-20
   1.03999996         9.29091914E-20
   1.04799998         2.28816304E-19
   1.05599999         3.51835613E-19
   1.06400001         4.34379475E-19
   1.07200003         4.53555227E-19
   1.08000004         4.09917340E-19
   1.08800006         3.21241872E-19
   1.09599996         2.06149668E-19
   1.10399997         7.80336987E-20
   1.11199999        -5.13847537E-20
   1.12000000        -1.68188954E-19
   1.12800002        -2.54173215E-19
   1.13600004        -2.88980950E-19
   1.14400005        -2.62341003E-19
   1.15199995        -1.88630435E-19
   1.15999997        -1.02424683E-19
   1.16799998        -3.16517301E-20
   1.17600000         2.28386053E-20
   1.18400002         7.59720221E-20
   1.19200003         1.30709374E-19
   1.20000005         1.69319658E-19
   1.20799994         1.71418629E-19
   1.21599996         1.33776651E-19
   1.22399998         7.23386248E-20
   1.23199999         1.18571292E-20
   1.24000001        -2.51331300E-20
   1.24800003        -2.81114229E-20
   1.25600004        -5.08751377E-21
   1.26400006         2.22357910E-20
   1.27199996         3.46152565E-20
   1.27999997         2.78230956E-20
   1.28799999         9.35625203E-21
   1.29600000        -1.48140648E-20
   1.30400002        -4.89611662E-20
   1.31200004        -1.05300874E-19
   1.32000005        -1.93185706E-19
   1.32799995        -3.06101029E-19
   1.33599997        -4.17112260E-19
   1.34399998        -4.91792478E-19
   1.35200000        -5.10467218E-19
   1.36000001        -4.76719645E-19
   1.36800003        -4.02537958E-19
   1.37600005        -2.89480567E-19
   1.38399994        -1.28790613E-19
   1.39199996         8.29754243E-20
   1.39999998         3.32827105E-19
   1.40799999         5.92371954E-19
   1.41600001         8.24691781E-19
   1.42400002         9.94719118E-19
   1.43200004         1.08279514E-18
   1.44000006         1.08968255E-18
   1.44799995         1.02265363E-18
   1.45599997         8.77906947E-19
   1.46399999         6.45600665E-19
   1.47200000         3.33792270E-19
   1.48000002        -2.19203008E-20
   1.48800004        -3.77155482E-19
   1.49600005        -7.00329105E-19
   1.50399995        -9.72615818E-19
   1.51199996        -1.17756026E-18
   1.51999998        -1.30141598E-18
   1.52800000        -1.33863952E-18
   1.53600001        -1.28649415E-18
   1.54400003        -1.13740612E-18
   1.55200005        -8.89062408E-19
   1.55999994        -5.63555773E-19
   1.56799996        -2.05362554E-19
   1.57599998         1.45032032E-19
   1.58399999         4.68970255E-19
   1.59200001         7.58273934E-19
   1.60000002         9.95421601E-19
   1.60800004         1.15274949E-18
   1.61600006         1.20595168E-18
   1.62399995         1.14170343E-18
   1.63199997         9.59404193E-19
   1.63999999         6.78453280E-19
   1.64800000         3.42663782E-19
   1.65600002         3.97352282E-21
   1.66400003        -3.03513815E-19
   1.67200005        -5.65796657E-19
   1.67999995        -7.63774840E-19
   1.68799996        -8.59112317E-19
   1.69599998        -8.16833617E-19
   1.70400000        -6.37821651E-19
   1.71200001        -3.61051645E-19
   1.72000003        -3.83732770E-20
   1.72800004         2.83977903E-19
   1.73599994         5.64596005E-19
   1.74399996         7.64969755E-19
   1.75199997         8.57205976E-19
   1.75999999         8.29993544E-19
   1.76800001         6.85241641E-19
   1.77600002         4.35497358E-19
   1.78400004         1.09194019E-19
   1.79200006        -2.46557932E-19
   1.79999995        -5.76225905E-19
   1.80799997        -8.32743195E-19
   1.81599998        -9.87028820E-19
   1.82400000        -1.02639445E-18
   1.83200002        -9.49702398E-19
   1.84000003        -7.67087130E-19
   1.84800005        -5.03586678E-19
   1.85599995        -1.98905660E-19
   1.86399996         1.01931522E-19
   1.87199998         3.61237166E-19
   1.88000000         5.53703742E-19
   1.88800001         6.63073718E-19
   1.89600003         6.80860014E-19
   1.90400004         6.11487012E-19
   1.91199994         4.74783991E-19
   1.91999996         2.98930847E-19
   1.92799997         1.11001951E-19
   1.93599999        -6.56043988E-20
   1.94400001        -2.09314564E-19
   1.95200002        -3.01720565E-19
   1.96000004        -3.32410232E-19
   1.96800005        -3.02663215E-19
   1.97599995        -2.25747748E-19
   1.98399997        -1.22615024E-19
   1.99199998        -1.24060839E-20
   2.00000000         9.61579368E-20
   2.00799990         2.02521163E-19
   2.01600003         3.02448846E-19
   2.02399993         3.81852885E-19
   2.03200006         4.25546737E-19
   2.03999996         4.29960262E-19
   2.04800010         4.03093229E-19
   2.05599999         3.52068024E-19
   2.06399989         2.74741656E-19
   2.07200003         1.65998528E-19
   2.07999992         3.00723321E-20
   2.08800006        -1.17579924E-19
   2.09599996        -2.61740108E-19
   2.10400009        -3.96780859E-19
   2.11199999        -5.20373740E-19
   2.11999989        -6.20017571E-19
   2.12800002        -6.72842410E-19
   2.13599992        -6.62052563E-19
   2.14400005        -5.90055745E-19
   2.15199995        -4.72609333E-19
   2.16000009        -3.23530888E-19
   2.16799998        -1.49419295E-19
   2.17600012         4.20974929E-20
   2.18400002         2.33160527E-19
   2.19199991         3.95840665E-19
   2.20000005         5.01297352E-19
   2.20799994         5.31884372E-19
   2.21600008         4.88710455E-19
   2.22399998         3.89015442E-19
   2.23200011         2.55749408E-19
   2.24000001         1.09377226E-19
   2.24799991        -3.23010152E-20
   2.25600004        -1.51763228E-19
   2.26399994        -2.33786651E-19
   2.27200007        -2.69279627E-19
   2.27999997        -2.54421085E-19
   2.28800011        -1.87043592E-19
   2.29600000        -6.88837822E-20
   2.30399990         8.52476248E-20
   2.31200004         2.43140565E-19
   2.31999993         3.66865122E-19
   2.32800007         4.34377820E-19
   2.33599997         4.50157014E-19
   2.34400010         4.32142287E-19
   2.35200000         3.88290289E-19
   2.35999990         3.09426786E-19
   2.36800003         1.86613730E-19
   2.37599993         3.18290246E-20
   2.38400006        -1.22836011E-19
   2.39199996        -2.46208758E-19
   2.40000010        -3.26287493E-19
   2.40799999        -3.69788999E-19
   2.41599989        -3.88939264E-19
   2.42400002        -3.90989405E-19
   2.43199992        -3.77778659E-19
   2.44000006        -3.51243119E-19
   2.44799995        -3.17083351E-19
   2.45600009        -2.82700115E-19
   2.46399999        -2.52208222E-19
   2.47199988        -2.24785866E-19
   2.48000002        -1.98301688E-19
   2.48799992        -1.72563421E-19
   2.49600005        -1.46328031E-19
   2.50399995        -1.11531890E-19
   2.51200008        -5.42849685E-20
   2.51999998         3.49219628E-20
   2.52800012         1.51372785E-19
   2.53600001         2.77027802E-19
   2.54399991         3.90883190E-19
   2.55200005         4.78265180E-19
   2.55999994         5.32215296E-19
   2.56800008         5.49981016E-19
   2.57599998         5.30719805E-19
   2.58400011         4.75267374E-19
   2.59200001         3.84994621E-19
   2.59999990         2.60151663E-19
   2.60800004         1.02344608E-19
   2.61599994        -7.77885753E-20
   2.62400007        -2.55100381E-19
   2.63199997        -3.95498651E-19
   2.64000010        -4.71409197E-19
   2.64800000        -4.75078467E-19
   2.65599990        -4.18552046E-19
   2.66400003        -3.21214420E-19
   2.67199993        -1.96507999E-19
   2.68000007        -4.91096096E-20
   2.68799996         1.16190765E-19
   2.69600010         2.83065652E-19
   2.70400000         4.21185711E-19
   2.71199989         4.96624919E-19
   2.72000003         4.87954981E-19
   2.72799993         3.95871193E-19
   2.73600006         2.39664338E-19
   2.74399996         4.47112511E-20
   2.75200009        -1.68109997E-19
   2.75999999        -3.83205041E-19
   2.76799989        -5.83472731E-19
   2.77600002        -7.45794571E-19
   2.78399992        -8.45626895E-19
   2.79200006        -8.66635939E-19
   2.79999995        -8.05452336E-19
   2.80800009        -6.67709031E-19
   2.81599998        -4.61564507E-19
   2.82399988        -1.96813901E-19
   2.83200002         1.09497439E-19
   2.83999991         4.27740652E-19
   2.84800005         7.18435417E-19
   2.85599995         9.44093390E-19
   2.86400008         1.08157112E-18
   2.87199998         1.12406990E-18
   2.88000011         1.07270457E-18
   2.88800001         9.29670565E-19
   2.89599991         7.01157268E-19
   2.90400004         4.03319437E-19
   2.91199994         6.17195256E-20
   2.92000008        -2.92772409E-19
   2.92799997        -6.23790497E-19
   2.93600011        -8.89150399E-19
   2.94400001        -1.05059093E-18
   2.95199990        -1.08944453E-18
   2.96000004        -1.01141535E-18
   2.96799994        -8.34912683E-19
   2.97600007        -5.77100907E-19
   2.98399997        -2.52473256E-19
   2.99200010         1.17264975E-19
   3.00000000         4.93873355E-19
   3.00799990         8.23732510E-19
   3.01600003         1.05199879E-18
   3.02399993         1.14244810E-18
   3.03200006         1.08796264E-18
   3.03999996         9.02701272E-19
   3.04800010         6.06091778E-19
   3.05599999         2.17779957E-19
   3.06399989        -2.32604196E-19
   3.07200003        -6.97048403E-19
   3.07999992        -1.11620734E-18
   3.08800006        -1.43631714E-18
   3.09599996        -1.61981506E-18
   3.10400009        -1.64358585E-18
   3.11199999        -1.49412497E-18
   3.11999989        -1.17090983E-18
   3.12800002        -6.96707760E-19
   3.13599992        -1.21981856E-19
   3.14400005         4.85698897E-19
   3.15199995         1.06078045E-18
   3.16000009         1.55179269E-18
   3.16799998         1.91952927E-18
   3.17600012         2.13039932E-18
   3.18400002         2.15793886E-18
   3.19199991         1.99356587E-18
   3.20000005         1.65507539E-18
   3.20799994         1.18305832E-18
   3.21600008         6.29358818E-19
   3.22399998         5.02012036E-20
   3.23200011        -4.92422893E-19
   3.24000001        -9.32811060E-19
   3.24799991        -1.21685661E-18
   3.25600004        -1.32037733E-18
   3.26399994        -1.25064963E-18
   3.27200007        -1.02949782E-18
   3.27999997        -6.78981435E-19
   3.28800011        -2.25900699E-19
   3.29600000         2.84268217E-19
   3.30399990         7.85237075E-19
   3.31200004         1.20622486E-18
   3.31999993         1.49337316E-18
   3.32800007         1.61941005E-18
   3.33599997         1.57759938E-18
   3.34400010         1.37097452E-18
   3.35200000         1.01073985E-18
   3.35999990         5.24872465E-19
   3.36800003        -3.67460705E-20
   3.37599993        -6.11415668E-19
   3.38400006        -1.13976265E-18
   3.39199996        -1.57376416E-18
   3.40000010        -1.87429201E-18
   3.40799999        -2.00937101E-18
   3.41599989        -1.95972405E-18
   3.42400002        -1.72559605E-18
   3.43199992        -1.32745128E-18
   3.44000006        -8.01525141E-19
   3.44799995        -1.95703708E-19
   3.45600009         4.31949942E-19
   3.46399999         1.01480182E-18
   3.47199988         1.48467464E-18
   3.48000002         1.78615364E-18
   3.48799992         1.89044891E-18
   3.49600005         1.79629198E-18
   3.50399995         1.51680957E-18
   3.51200008         1.06860620E-18
   3.51999998         4.77990143E-19
   3.52800012        -2.02822437E-19
   3.53600001        -8.91767288E-19
   3.54399991        -1.49568007E-18
   3.55200005        -1.93840719E-18
   3.55999994        -2.17686909E-18
   3.56800008        -2.19714618E-18
   3.57599998        -2.00102580E-18
   3.58400011        -1.59951171E-18
   3.59200001        -1.01985683E-18
   3.59999990        -3.16639439E-19
   3.60800004         4.28672239E-19
   3.61599994         1.12409430E-18
   3.62400007         1.68778894E-18
   3.63199997         2.05936312E-18
   3.64000010         2.20103931E-18
   3.64800000         2.09738282E-18
   3.65599990         1.75756441E-18
   3.66400003         1.21627097E-18
   3.67199993         5.30838092E-19
   3.68000007        -2.22944872E-19
   3.68799996        -9.56588160E-19
   3.69600010        -1.58103425E-18
   3.70400000        -2.02425778E-18
   3.71199989        -2.24329914E-18
   3.72000003        -2.22302246E-18
   3.72799993        -1.96893594E-18
   3.73600006        -1.50610244E-18
   3.74399996        -8.83192734E-19
   3.75200009        -1.70648032E-19
