 -0.239999995         0.00000000    
 -0.231999993         0.00000000    
 -0.224000007         0.00000000    
 -0.216000006         0.00000000    
 -0.208000004         0.00000000    
 -0.200000003         0.00000000    
 -0.192000002         0.00000000    
 -0.184000000         0.00000000    
 -0.175999999         0.00000000    
 -0.167999998         0.00000000    
 -0.159999996         0.00000000    
 -0.151999995        -2.01122293E-37
 -0.143999994        -3.06847906E-35
 -0.136000007        -2.44525164E-34
 -0.128000006        -5.81597871E-34
 -0.119999997         1.26661307E-33
 -0.112000003         1.11450743E-32
 -0.104000002         2.52818683E-32
  -9.60000008E-02    -4.62229431E-33
  -8.79999995E-02    -1.65795015E-31
  -7.99999982E-02    -4.04007064E-31
  -7.19999969E-02    -2.21771327E-31
  -6.40000030E-02     1.14927838E-30
  -5.60000017E-02     3.38645892E-30
  -4.80000004E-02     3.36355502E-30
  -3.99999991E-02    -3.57569508E-30
  -3.20000015E-02    -1.68570103E-29
  -2.40000002E-02    -2.33963489E-29
  -1.60000008E-02    -2.65770226E-30
  -8.00000038E-03     4.94981480E-29
   0.00000000         9.64118845E-29
   8.00000038E-03     7.21751455E-29
   1.60000008E-02    -5.77920118E-29
   2.40000002E-02    -2.33618817E-28
   3.20000015E-02    -3.11704636E-28
   3.99999991E-02    -1.67430443E-28
   4.80000004E-02     1.94309492E-28
   5.60000017E-02     6.23936735E-28
   6.40000030E-02     8.99141869E-28
   7.19999969E-02     7.77728067E-28
   7.99999982E-02     1.72437400E-29
   8.79999995E-02    -1.46153932E-27
   9.60000008E-02    -3.16034877E-27
  0.104000002        -3.70740128E-27
  0.112000003        -1.42144271E-27
  0.119999997         4.03770327E-27
  0.128000006         1.00791641E-26
  0.136000007         1.16712657E-26
  0.143999994         4.76817768E-27
  0.151999995        -9.36259642E-27
  0.159999996        -2.29174678E-26
  0.167999998        -2.58168490E-26
  0.175999999        -1.31215071E-26
  0.184000000         1.03508103E-26
  0.192000002         3.26246000E-26
  0.200000003         4.26278308E-26
  0.208000004         3.67418253E-26
  0.216000006         1.81551361E-26
  0.224000007        -9.31784398E-27
  0.231999993        -4.48935934E-26
  0.239999995        -8.56681742E-26
  0.247999996        -1.16205411E-25
  0.256000012        -1.05579159E-25
  0.263999999        -2.29315209E-26
  0.272000015         1.31817560E-25
  0.280000001         3.02949532E-25
  0.287999988         3.85920197E-25
  0.296000004         2.77407153E-25
  0.303999990        -5.04431621E-26
  0.312000006        -4.96255336E-25
  0.319999993        -8.42076574E-25
  0.328000009        -8.47374860E-25
  0.335999995        -3.89168060E-25
  0.344000012         4.27137760E-25
  0.351999998         1.26307892E-24
  0.360000014         1.67865834E-24
  0.368000001         1.35417855E-24
  0.375999987         2.92418436E-25
  0.384000003        -1.11980255E-24
  0.391999990        -2.25243435E-24
  0.400000006        -2.52926082E-24
  0.407999992        -1.73425864E-24
  0.416000009        -1.50980717E-25
  0.423999995         1.56437004E-24
  0.432000011         2.72006813E-24
  0.439999998         2.93703032E-24
  0.448000014         2.28469383E-24
  0.456000000         1.11918349E-24
  0.463999987        -2.37593368E-25
  0.472000003        -1.69659388E-24
  0.479999989        -3.27611548E-24
  0.488000005        -4.73264912E-24
  0.495999992        -5.30671661E-24
  0.504000008        -3.95613073E-24
  0.512000024        -1.09516709E-25
  0.519999981         5.51240697E-24
  0.527999997         1.06981025E-23
  0.536000013         1.25760277E-23
  0.544000030         9.18859897E-24
  0.551999986         8.96121238E-25
  0.560000002        -9.35762031E-24
  0.568000019        -1.72474276E-23
  0.575999975        -1.91356483E-23
  0.583999991        -1.38395075E-23
  0.592000008        -3.12970210E-24
  0.600000024         9.19466925E-24
  0.607999980         1.89839724E-23
  0.615999997         2.32196364E-23
  0.624000013         2.07184346E-23
  0.632000029         1.20987242E-23
  0.639999986        -5.92710690E-25
  0.648000002        -1.42953208E-23
  0.656000018        -2.54176821E-23
  0.663999975        -3.05680193E-23
  0.671999991        -2.75251272E-23
  0.680000007        -1.61183373E-23
  0.688000023         1.43051011E-24
  0.695999980         2.09176693E-23
  0.703999996         3.71541653E-23
  0.712000012         4.51813110E-23
  0.720000029         4.14420472E-23
  0.727999985         2.48511333E-23
  0.736000001        -2.29674723E-24
  0.744000018        -3.39271310E-23
  0.751999974        -6.09079126E-23
  0.759999990        -7.33315379E-23
  0.768000007        -6.40428269E-23
  0.776000023        -3.21459998E-23
  0.783999979         1.52520923E-23
  0.791999996         6.43263751E-23
  0.800000012         9.87939547E-23
  0.808000028         1.05630482E-22
  0.815999985         7.99472599E-23
  0.824000001         2.70814907E-23
  0.832000017        -3.88049546E-23
  0.839999974        -9.88999839E-23
  0.847999990        -1.35111363E-22
  0.856000006        -1.35040441E-22
  0.864000022        -9.55031741E-23
  0.871999979        -2.40901870E-23
  0.879999995         6.15971057E-23
  0.888000011         1.37410545E-22
  0.896000028         1.78892562E-22
  0.903999984         1.69273319E-22
  0.912000000         1.06687745E-22
  0.920000017         7.21605228E-24
  0.927999973        -9.88353037E-23
  0.935999990        -1.77140483E-22
  0.944000006        -2.02288599E-22
  0.952000022        -1.67589953E-22
  0.959999979        -8.71081732E-23
  0.967999995         1.10702429E-23
  0.976000011         9.65801460E-23
  0.984000027         1.47499495E-22
  0.991999984         1.55466057E-22
   1.00000000         1.24375862E-22
   1.00800002         6.55081392E-23
   1.01600003        -6.59338109E-24
   1.02400005        -7.61205840E-23
   1.03199995        -1.26604135E-22
   1.03999996        -1.44005889E-22
   1.04799998        -1.22096710E-22
   1.05599999        -6.88053317E-23
   1.06400001        -8.56502967E-24
   1.07200003         2.62180983E-23
   1.08000004         1.06279522E-23
   1.08800006        -5.51052790E-23
   1.09599996        -1.38601586E-22
   1.10399997        -1.84763391E-22
   1.11199999        -1.44704479E-22
   1.12000000        -8.15241045E-24
   1.12800002         1.76734264E-22
   1.13600004         3.15405346E-22
   1.14400005         3.09855703E-22
   1.15199995         1.17125271E-22
   1.15999997        -2.08411195E-22
   1.16799998        -5.15183171E-22
   1.17600000        -6.11296823E-22
   1.18400002        -3.49829822E-22
   1.19200003         2.87665891E-22
   1.20000005         1.15611961E-21
   1.20799994         1.98174643E-21
   1.21599996         2.44951383E-21
   1.22399998         2.31896591E-21
   1.23199999         1.51247158E-21
   1.24000001         1.51451714E-22
   1.24800003        -1.46939942E-21
   1.25600004        -2.96087705E-21
   1.26400006        -3.94540474E-21
   1.27199996        -4.15789888E-21
   1.27999997        -3.51926859E-21
   1.28799999        -2.16010644E-21
   1.29600000        -3.87930996E-22
   1.30400002         1.39843819E-21
   1.31200004         2.81607682E-21
   1.32000005         3.59861694E-21
   1.32799995         3.64613055E-21
   1.33599997         3.02128567E-21
   1.34399998         1.90150223E-21
   1.35200000         5.19644817E-22
   1.36000001        -8.78592129E-22
   1.36800003        -2.05463263E-21
   1.37600005        -2.78899998E-21
   1.38399994        -2.91135567E-21
   1.39199996        -2.35436443E-21
   1.39999998        -1.20879320E-21
   1.40799999         2.58644570E-22
   1.41600001         1.65497172E-21
   1.42400002         2.57871032E-21
   1.43200004         2.75505165E-21
   1.44000006         2.13320712E-21
   1.44799995         8.98822511E-22
   1.45599997        -5.94998123E-22
   1.46399999        -1.93752781E-21
   1.47200000        -2.76125732E-21
   1.48000002        -2.80077862E-21
   1.48800004        -1.92471115E-21
   1.49600005        -1.62708178E-22
   1.50399995         2.25292232E-21
   1.51199996         4.85608859E-21
   1.51999998         6.97575143E-21
   1.52800000         7.86562006E-21
   1.53600001         6.92481116E-21
   1.54400003         3.94224304E-21
   1.55200005        -7.43108942E-22
   1.55999994        -6.24757602E-21
   1.56799996        -1.13373795E-20
   1.57599998        -1.47492087E-20
   1.58399999        -1.55330431E-20
   1.59200001        -1.33075581E-20
   1.60000002        -8.36200920E-21
   1.60800004        -1.59622725E-21
   1.61600006         5.66727206E-21
   1.62399995         1.19498453E-20
   1.63199997         1.59059933E-20
   1.63999999         1.65958587E-20
   1.64800000         1.36969574E-20
   1.65600002         7.61601750E-21
   1.66400003        -5.34503018E-22
   1.67200005        -9.10834180E-21
   1.67999995        -1.62227179E-20
   1.68799996        -2.01239601E-20
   1.69599998        -1.95500309E-20
   1.70400000        -1.40134138E-20
   1.71200001        -3.95931979E-21
   1.72000003         9.22927899E-21
   1.72800004         2.33824814E-20
   1.73599994         3.58531064E-20
   1.74399996         4.39660874E-20
   1.75199997         4.55570013E-20
   1.75999999         3.94966496E-20
   1.76800001         2.60581022E-20
   1.77600002         6.99189276E-21
   1.78400004        -1.47650511E-20
   1.79200006        -3.56974705E-20
   1.79999995        -5.24684863E-20
   1.80799997        -6.26124283E-20
   1.81599998        -6.49698479E-20
   1.82400000        -5.97835288E-20
   1.83200002        -4.84897993E-20
   1.84000003        -3.33204151E-20
   1.84800005        -1.68378252E-20
   1.85599995        -1.46881236E-21
   1.86399996         1.09185765E-20
   1.87199998         1.93759061E-20
   1.88000000         2.41074358E-20
   1.88800001         2.64644869E-20
   1.89600003         2.86220519E-20
   1.90400004         3.29380476E-20
   1.91199994         4.11448393E-20
   1.91999996         5.36141024E-20
   1.92799997         6.89684648E-20
   1.93599999         8.41697051E-20
   1.94400001         9.50746339E-20
   1.95200002         9.72764853E-20
   1.96000004         8.70092222E-20
   1.96800005         6.19524416E-20
   1.97599995         2.18486042E-20
   1.98399997        -3.10921618E-20
   1.99199998        -9.20543842E-20
   2.00000000        -1.53878238E-19
   2.00799990        -2.07799363E-19
   2.01600003        -2.44667152E-19
   2.02399993        -2.56465255E-19
   2.03200006        -2.37836165E-19
   2.03999996        -1.87281394E-19
   2.04800010        -1.07791347E-19
   2.05599999        -6.78747979E-21
   2.06399989         1.04599160E-19
   2.07200003         2.12825713E-19
   2.07999992         3.03689074E-19
   2.08800006         3.64322628E-19
   2.09599996         3.85144857E-19
   2.10400009         3.61410099E-19
   2.11199999         2.94048413E-19
   2.11999989         1.89640836E-19
   2.12800002         5.95842494E-20
   2.13599992        -8.13545639E-20
   2.14400005        -2.16811638E-19
   2.15199995        -3.30791543E-19
   2.16000009        -4.09592542E-19
   2.16799998        -4.43555338E-19
   2.17600012        -4.28371946E-19
   2.18400002        -3.65683934E-19
   2.19199991        -2.62840853E-19
   2.20000005        -1.31826986E-19
   2.20799994         1.23876226E-20
   2.21600008         1.53744299E-19
   2.22399998         2.76945627E-19
   2.23200011         3.69103370E-19
   2.24000001         4.21069544E-19
   2.24799991         4.28375177E-19
   2.25600004         3.91661852E-19
   2.26399994         3.16504842E-19
   2.27200007         2.12584797E-19
   2.27999997         9.23734950E-20
   2.28800011        -3.04743290E-20
   2.29600000        -1.42748019E-19
   2.30399990        -2.33155564E-19
   2.31200004        -2.93514106E-19
   2.31999993        -3.19583685E-19
   2.32800007        -3.11423911E-19
   2.33599997        -2.73195164E-19
   2.34400010        -2.12392012E-19
   2.35200000        -1.38652854E-19
   2.35999990        -6.23585744E-20
   2.36800003         6.69621891E-21
   2.37599993         6.04035782E-20
   2.38400006         9.31745483E-20
   2.39199996         1.02537438E-19
   2.40000010         8.95138605E-20
   2.40799999         5.87007817E-20
   2.41599989         1.78987797E-20
   2.42400002        -2.28420611E-20
   2.43199992        -5.27519411E-20
   2.44000006        -6.22408368E-20
   2.44799995        -4.47904343E-20
   2.45600009         1.58320431E-21
   2.46399999         7.36116170E-20
   2.47199988         1.62929649E-19
   2.48000002         2.57032417E-19
   2.48799992         3.40836101E-19
   2.49600005         3.98636328E-19
   2.50399995         4.16277144E-19
   2.51200008         3.83360034E-19
   2.51999998         2.95259328E-19
   2.52800012         1.54624316E-19
   2.53600001        -2.80049105E-20
   2.54399991        -2.34750859E-19
   2.55200005        -4.42193385E-19
   2.55999994        -6.24189663E-19
   2.56800008        -7.55289622E-19
   2.57599998        -8.14227843E-19
   2.58400011        -7.87033195E-19
   2.59200001        -6.69403200E-19
   2.59999990        -4.68059116E-19
   2.60800004        -2.00832448E-19
   2.61599994         1.04720303E-19
   2.62400007         4.14228528E-19
   2.63199997         6.90721092E-19
   2.64000010         8.99564086E-19
   2.64800000         1.01330514E-18
   2.65599990         1.01556790E-18
   2.66400003         9.03358053E-19
   2.67199993         6.87527244E-19
   2.68000007         3.91484732E-19
   2.68799996         4.84679791E-20
   2.69600010        -3.02272010E-19
   2.70400000        -6.20022896E-19
   2.71199989        -8.67516111E-19
   2.72000003        -1.01565506E-18
   2.72799993        -1.04735396E-18
   2.73600006        -9.59772288E-19
   2.74399996        -7.64455248E-19
   2.75200009        -4.85377900E-19
   2.75999999        -1.55407281E-19
   2.76799989         1.88004957E-19
   2.77600002         5.07142779E-19
   2.78399992         7.67878122E-19
   2.79200006         9.42924273E-19
   2.79999995         1.01445658E-18
   2.80800009         9.75957835E-19
   2.81599998         8.32958056E-19
   2.82399988         6.02334000E-19
   2.83200002         3.10107840E-19
   2.83999991        -1.18732374E-20
   2.84800005        -3.29687050E-19
   2.85599995        -6.10836486E-19
   2.86400008        -8.27136410E-19
   2.87199998        -9.56998028E-19
   2.88000011        -9.87264980E-19
   2.88800001        -9.14616705E-19
   2.89599991        -7.46271854E-19
   2.90400004        -4.99592171E-19
   2.91199994        -2.00352851E-19
   2.92000008         1.20134129E-19
   2.92799997         4.28496902E-19
   2.93600011         6.92729694E-19
   2.94400001         8.85134437E-19
   2.95199990         9.84689036E-19
   2.96000004         9.78966704E-19
   2.96799994         8.65665552E-19
   2.97600007         6.53569154E-19
   2.98399997         3.62543336E-19
   2.99200010         2.21901248E-20
   3.00000000        -3.30942555E-19
   3.00799990        -6.57323365E-19
   3.01600003        -9.18989389E-19
   3.02399993        -1.08401968E-18
   3.03200006        -1.13035120E-18
   3.03999996        -1.04855906E-18
   3.04800010        -8.43361971E-19
   3.05599999        -5.33683334E-19
   3.06399989        -1.51138021E-19
   3.07200003         2.63084122E-19
   3.07999992         6.62748170E-19
   3.08800006         1.00200999E-18
   3.09599996         1.24098557E-18
   3.10400009         1.35059900E-18
   3.11199999         1.31599731E-18
   3.11999989         1.13816878E-18
   3.12800002         8.33766521E-19
   3.13599992         4.33371219E-19
   3.14400005        -2.15369785E-20
   3.15199995        -4.82678137E-19
   3.16000009        -8.99946450E-19
   3.16799998        -1.22691389E-18
   3.17600012        -1.42628344E-18
   3.18400002        -1.47451024E-18
   3.19199991        -1.36484718E-18
   3.20000005        -1.10832152E-18
   3.20799994        -7.32556475E-19
   3.21600008        -2.78681000E-19
   3.22399998         2.03239491E-19
   3.23200011         6.59761738E-19
   3.24000001         1.04007829E-18
   3.24799991         1.30185118E-18
   3.25600004         1.41614510E-18
   3.26399994         1.37075987E-18
   3.27200007         1.17149909E-18
   3.27999997         8.41283473E-19
   3.28800011         4.17372486E-19
   3.29600000        -5.28528894E-20
   3.30399990        -5.17060209E-19
   3.31200004        -9.23637213E-19
   3.31999993        -1.22736418E-18
   3.32800007        -1.39447431E-18
   3.33599997        -1.40641022E-18
   3.34400010        -1.26171896E-18
   3.35200000        -9.75868809E-19
   3.35999990        -5.79181939E-19
   3.36800003        -1.13366034E-19
   3.37599993         3.72838194E-19
   3.38400006         8.28502654E-19
   3.39199996         1.20557087E-18
   3.40000010         1.46380063E-18
   3.40799999         1.57509602E-18
   3.41599989         1.52661517E-18
   3.42400002         1.32214347E-18
   3.43199992         9.81544923E-19
   3.44000006         5.38490236E-19
   3.44799995         3.69134486E-20
   3.45600009        -4.73331513E-19
   3.46399999        -9.41257194E-19
   3.47199988        -1.31970525E-18
   3.48000002        -1.57016809E-18
   3.48799992        -1.66699786E-18
   3.49600005        -1.60041871E-18
   3.50399995        -1.37783154E-18
   3.51200008        -1.02315924E-18
   3.51999998        -5.74328301E-19
   3.52800012        -7.92651638E-20
   3.53600001         4.09082586E-19
   3.54399991         8.38190438E-19
   3.55200005         1.16140645E-18
   3.55999994         1.34296743E-18
   3.56800008         1.36211366E-18
   3.57599998         1.21579772E-18
   3.58400011         9.19522300E-19
   3.59200001         5.06013057E-19
   3.59999990         2.17428366E-20
   3.60800004        -4.78294855E-19
   3.61599994        -9.36832709E-19
   3.62400007        -1.30071918E-18
   3.63199997        -1.52664919E-18
   3.64000010        -1.58568362E-18
   3.64800000        -1.46626821E-18
   3.65599990        -1.17560263E-18
   3.66400003        -7.39208920E-19
   3.67199993        -1.98531528E-19
   3.68000007         3.93450940E-19
   3.68799996         9.78247677E-19
   3.69600010         1.49868377E-18
   3.70400000         1.90540351E-18
   3.71199989         2.16200114E-18
   3.72000003         2.24818943E-18
   3.72799993         2.16098309E-18
   3.73600006         1.91422622E-18
   3.74399996         1.53679684E-18
   3.75200009         1.06959354E-18
