 -0.239999995         0.00000000    
 -0.231999993         0.00000000    
 -0.224000007         0.00000000    
 -0.216000006         0.00000000    
 -0.208000004         0.00000000    
 -0.200000003         0.00000000    
 -0.192000002         3.66773082E-26
 -0.184000000         2.03277105E-25
 -0.175999999         1.19497846E-25
 -0.167999998        -1.65853252E-24
 -0.159999996        -4.96967895E-24
 -0.151999995        -3.04314907E-24
 -0.143999994         1.23964088E-23
 -0.136000007         3.26840724E-23
 -0.128000006         3.01789278E-23
 -0.119999997        -8.68183551E-24
 -0.112000003        -6.54906076E-23
 -0.104000002        -1.24663739E-22
  -9.60000008E-02    -1.69705312E-22
  -8.79999995E-02    -8.50639821E-23
  -7.99999982E-02     3.03377249E-22
  -7.19999969E-02     8.48213134E-22
  -6.40000030E-02     8.44222987E-22
  -5.60000017E-02    -2.94438382E-22
  -4.80000004E-02    -1.88993625E-21
  -3.99999991E-02    -2.17022001E-21
  -3.20000015E-02    -3.16586391E-22
  -2.40000002E-02     2.04345034E-21
  -1.60000008E-02     2.49279339E-21
  -8.00000038E-03     9.96242416E-22
   0.00000000        -1.86026556E-24
   8.00000038E-03     6.47288115E-22
   1.60000008E-02     5.37207006E-22
   2.40000002E-02    -2.74955724E-21
   3.20000015E-02    -6.58290446E-21
   3.99999991E-02    -4.95006891E-21
   4.80000004E-02     3.30939938E-21
   5.60000017E-02     1.04641167E-20
   6.40000030E-02     7.61364582E-21
   7.19999969E-02    -3.69359246E-21
   7.99999982E-02    -1.12226510E-20
   8.79999995E-02    -5.65671703E-21
   9.60000008E-02     7.67884203E-21
  0.104000002         1.40087221E-20
  0.112000003         5.91400816E-21
  0.119999997        -8.16436231E-21
  0.128000006        -1.38559554E-20
  0.136000007        -7.37629991E-21
  0.143999994         7.11711268E-22
  0.151999995        -1.17708235E-21
  0.159999996        -1.04879118E-20
  0.167999998        -1.15269711E-20
  0.175999999         6.48406405E-21
  0.184000000         3.33925996E-20
  0.192000002         4.42273085E-20
  0.200000003         2.44573445E-20
  0.208000004        -1.27945187E-20
  0.216000006        -3.92567576E-20
  0.224000007        -4.12647320E-20
  0.231999993        -3.18861033E-20
  0.239999995        -3.07830224E-20
  0.247999996        -3.70009714E-20
  0.256000012        -2.89593994E-20
  0.263999999         7.32420369E-21
  0.272000015         5.53991808E-20
  0.280000001         8.05509838E-20
  0.287999988         6.92553349E-20
  0.296000004         5.60772685E-20
  0.303999990         1.04482314E-19
  0.312000006         2.53182201E-19
  0.319999993         4.83203345E-19
  0.328000009         7.49100760E-19
  0.335999995         1.04811259E-18
  0.344000012         1.44957540E-18
  0.351999998         2.04710182E-18
  0.360000014         2.89064986E-18
  0.368000001         3.98512830E-18
  0.375999987         5.36072387E-18
  0.384000003         7.12725203E-18
  0.391999990         9.43978598E-18
  0.400000006         1.24081203E-17
  0.407999992         1.60488242E-17
  0.416000009         2.03281819E-17
  0.423999995         2.52397372E-17
  0.432000011         3.08216264E-17
  0.439999998         3.70882177E-17
  0.448000014         4.39494691E-17
  0.456000000         5.12084025E-17
  0.463999987         5.86389594E-17
  0.472000003         6.60524101E-17
  0.479999989         7.32731939E-17
  0.488000005         8.00563595E-17
  0.495999992         8.60567012E-17
  0.504000008         9.09066861E-17
  0.512000024         9.43328219E-17
  0.519999981         9.61883600E-17
  0.527999997         9.63701214E-17
  0.536000013         9.47207696E-17
  0.544000030         9.10409938E-17
  0.551999986         8.52137247E-17
  0.560000002         7.73091405E-17
  0.568000019         6.75544510E-17
  0.575999975         5.62069888E-17
  0.583999991         4.34818573E-17
  0.592000008         2.96172217E-17
  0.600000024         1.49950822E-17
  0.607999980         1.76046937E-19
  0.615999997        -1.41869581E-17
  0.624000013        -2.74646215E-17
  0.632000029        -3.91051090E-17
  0.639999986        -4.86307489E-17
  0.648000002        -5.56491977E-17
  0.656000018        -5.99324250E-17
  0.663999975        -6.15504763E-17
  0.671999991        -6.09859222E-17
  0.680000007        -5.91498724E-17
  0.688000023        -5.73031818E-17
  0.695999980        -5.69895083E-17
  0.703999996        -6.00569852E-17
  0.712000012        -6.86735271E-17
  0.720000029        -8.51603616E-17
  0.727999985        -1.11650827E-16
  0.736000001        -1.49807173E-16
  0.744000018        -2.00749826E-16
  0.751999974        -2.65049368E-16
  0.759999990        -3.42553173E-16
  0.768000007        -4.32095462E-16
  0.776000023        -5.31346627E-16
  0.783999979        -6.36883438E-16
  0.791999996        -7.44307915E-16
  0.800000012        -8.48320490E-16
  0.808000028        -9.42883513E-16
  0.815999985        -1.02156980E-15
  0.824000001        -1.07795880E-15
  0.832000017        -1.10594254E-15
  0.839999974        -1.10004508E-15
  0.847999990        -1.05588840E-15
  0.856000006        -9.70671700E-16
  0.864000022        -8.43440151E-16
  0.871999979        -6.75181238E-16
  0.879999995        -4.68956827E-16
  0.888000011        -2.30045387E-16
  0.896000028         3.41724524E-17
  0.903999984         3.14673905E-16
  0.912000000         6.01338177E-16
  0.920000017         8.83345673E-16
  0.927999973         1.14955098E-15
  0.935999990         1.38906066E-15
  0.944000006         1.59197503E-15
  0.952000022         1.75001920E-15
  0.959999979         1.85692746E-15
  0.967999995         1.90869706E-15
  0.976000011         1.90383424E-15
  0.984000027         1.84350601E-15
  0.991999984         1.73144059E-15
   1.00000000         1.57358372E-15
   1.00800002         1.37766944E-15
   1.01600003         1.15280189E-15
   1.02400005         9.08982396E-16
   1.03199995         6.56506597E-16
   1.03999996         4.05316912E-16
   1.04799998         1.64464827E-16
   1.05599999        -5.82793409E-17
   1.06400001        -2.56745480E-16
   1.07200003        -4.26610976E-16
   1.08000004        -5.65466384E-16
   1.08800006        -6.72662639E-16
   1.09599996        -7.49059452E-16
   1.10399997        -7.96784412E-16
   1.11199999        -8.18952905E-16
   1.12000000        -8.19273507E-16
   1.12800002        -8.01609535E-16
   1.13600004        -7.69642935E-16
   1.14400005        -7.26667924E-16
   1.15199995        -6.75431431E-16
   1.15999997        -6.18001062E-16
   1.16799998        -5.55752452E-16
   1.17600000        -4.89530675E-16
   1.18400002        -4.19913540E-16
   1.19200003        -3.47453365E-16
   1.20000005        -2.72841303E-16
   1.20799994        -1.97014887E-16
   1.21599996        -1.21244256E-16
   1.22399998        -4.72029227E-17
   1.23199999         2.30123317E-17
   1.24000001         8.69689557E-17
   1.24800003         1.42114103E-16
   1.25600004         1.86064829E-16
   1.26400006         2.16883607E-16
   1.27199996         2.33290900E-16
   1.27999997         2.34823659E-16
   1.28799999         2.21944867E-16
   1.29600000         1.96067679E-16
   1.30400002         1.59456480E-16
   1.31200004         1.15027842E-16
   1.32000005         6.61207749E-17
   1.32799995         1.62712829E-17
   1.33599997        -3.10445119E-17
   1.34399998        -7.27321318E-17
   1.35200000        -1.06408216E-16
   1.36000001        -1.30615670E-16
   1.36800003        -1.44861414E-16
   1.37600005        -1.49530630E-16
   1.38399994        -1.45760937E-16
   1.39199996        -1.35284026E-16
   1.39999998        -1.20189846E-16
   1.40799999        -1.02620113E-16
   1.41600001        -8.44760384E-17
   1.42400002        -6.72193700E-17
   1.43200004        -5.17703824E-17
   1.44000006        -3.84656587E-17
   1.44799995        -2.70741111E-17
   1.45599997        -1.69096744E-17
   1.46399999        -7.04413609E-18
   1.47200000         3.45320299E-18
   1.48000002         1.53317000E-17
   1.48800004         2.90311179E-17
   1.49600005         4.45573344E-17
   1.50399995         6.13847225E-17
   1.51199996         7.84915654E-17
   1.51999998         9.45550357E-17
   1.52800000         1.08167914E-16
   1.53600001         1.17948716E-16
   1.54400003         1.22615153E-16
   1.55200005         1.21167322E-16
   1.55999994         1.13134353E-16
   1.56799996         9.86749113E-17
   1.57599998         7.84700256E-17
   1.58399999         5.35927275E-17
   1.59200001         2.54902141E-17
   1.60000002        -4.04500584E-18
   1.60800004        -3.30783704E-17
   1.61600006        -5.98215298E-17
   1.62399995        -8.27817806E-17
   1.63199997        -1.00751075E-16
   1.63999999        -1.12826893E-16
   1.64800000        -1.18548243E-16
   1.65600002        -1.17989215E-16
   1.66400003        -1.11669594E-16
   1.67200005        -1.00382662E-16
   1.67999995        -8.51164284E-17
   1.68799996        -6.70497583E-17
   1.69599998        -4.74622074E-17
   1.70400000        -2.75380536E-17
   1.71200001        -8.23519759E-18
   1.72000003         9.68676060E-18
   1.72800004         2.56133234E-17
   1.73599994         3.91429741E-17
   1.74399996         5.01932931E-17
   1.75199997         5.89599650E-17
   1.75999999         6.57375454E-17
   1.76800001         7.07959203E-17
   1.77600002         7.43948641E-17
   1.78400004         7.68029986E-17
   1.79200006         7.82063733E-17
   1.79999995         7.85874191E-17
   1.80799997         7.77031630E-17
   1.81599998         7.51487896E-17
   1.82400000         7.04171312E-17
   1.83200002         6.29514953E-17
   1.84000003         5.22495251E-17
   1.84800005         3.80053261E-17
   1.85599995         2.02162115E-17
   1.86399996        -7.71040278E-19
   1.87199998        -2.42407628E-17
   1.88000000        -4.91060767E-17
   1.88800001        -7.39549694E-17
   1.89600003        -9.71618259E-17
   1.90400004        -1.17046136E-16
   1.91199994        -1.32048704E-16
   1.91999996        -1.40893250E-16
   1.92799997        -1.42706192E-16
   1.93599999        -1.37093050E-16
   1.94400001        -1.24189827E-16
   1.95200002        -1.04677741E-16
   1.96000004        -7.97228866E-17
   1.96800005        -5.08400954E-17
   1.97599995        -1.97416348E-17
   1.98399997         1.17832284E-17
   1.99199998         4.19769742E-17
   2.00000000         6.92413833E-17
   2.00799990         9.22585507E-17
   2.01600003         1.10052886E-16
   2.02399993         1.21985119E-16
   2.03200006         1.27718963E-16
   2.03999996         1.27196900E-16
   2.04800010         1.20622402E-16
   2.05599999         1.08426034E-16
   2.06399989         9.12103209E-17
   2.07200003         6.96986553E-17
   2.07999992         4.47176618E-17
   2.08800006         1.72120288E-17
   2.09599996        -1.17382190E-17
   2.10400009        -4.09214488E-17
   2.11199999        -6.90190570E-17
   2.11999989        -9.46469321E-17
   2.12800002        -1.16418458E-16
   2.13599992        -1.33028179E-16
   2.14400005        -1.43343372E-16
   2.15199995        -1.46497617E-16
   2.16000009        -1.41992911E-16
   2.16799998        -1.29806237E-16
   2.17600012        -1.10468866E-16
   2.18400002        -8.50755723E-17
   2.19199991        -5.52043400E-17
   2.20000005        -2.27714187E-17
   2.20799994         1.01265254E-17
   2.21600008         4.13587626E-17
   2.22399998         6.89252878E-17
   2.23200011         9.11631849E-17
   2.24000001         1.06935170E-16
   2.24799991         1.15706990E-16
   2.25600004         1.17514784E-16
   2.26399994         1.12918161E-16
   2.27200007         1.02975079E-16
   2.27999997         8.91520044E-17
   2.28800011         7.31126415E-17
   2.29600000         5.64754652E-17
   2.30399990         4.06593053E-17
   2.31200004         2.68040631E-17
   2.31999993         1.56843569E-17
   2.32800007         7.62964348E-18
   2.33599997         2.53743836E-18
   2.34400010        -2.01638619E-20
   2.35200000        -6.93669422E-19
   2.35999990        -2.96837821E-19
   2.36800003         2.77667342E-19
   2.37599993         2.11581156E-19
   2.38400006        -1.08636556E-18
   2.39199996        -3.91809483E-18
   2.40000010        -8.31604788E-18
   2.40799999        -1.40715400E-17
   2.41599989        -2.07442108E-17
   2.42400002        -2.76961146E-17
   2.43199992        -3.41856112E-17
   2.44000006        -3.94866213E-17
   2.44799995        -4.29667289E-17
   2.45600009        -4.41101308E-17
   2.46399999        -4.25412239E-17
   2.47199988        -3.80919948E-17
   2.48000002        -3.08696095E-17
   2.48799992        -2.12446104E-17
   2.49600005        -9.76233513E-18
   2.50399995         2.92806882E-18
   2.51200008         1.60697751E-17
   2.51999998         2.87809686E-17
   2.52800012         4.01119864E-17
   2.53600001         4.91606210E-17
   2.54399991         5.51513475E-17
   2.55200005         5.74442459E-17
   2.55999994         5.55421010E-17
   2.56800008         4.91573222E-17
   2.57599998         3.83011557E-17
   2.58400011         2.33127505E-17
   2.59200001         4.81363116E-18
   2.59999990        -1.63490064E-17
   2.60800004        -3.91240250E-17
   2.61599994        -6.22725189E-17
   2.62400007        -8.44278171E-17
   2.63199997        -1.04193483E-16
   2.64000010        -1.20234620E-16
   2.64800000        -1.31351001E-16
   2.65599990        -1.36561047E-16
   2.66400003        -1.35201334E-16
   2.67199993        -1.27000269E-16
   2.68000007        -1.12098498E-16
   2.68799996        -9.10413445E-17
   2.69600010        -6.47698037E-17
   2.70400000        -3.45893382E-17
   2.71199989        -2.08407824E-18
   2.72000003         3.10095321E-17
   2.72799993         6.29286518E-17
   2.73600006         9.19979358E-17
   2.74399996         1.16747478E-16
   2.75200009         1.36032552E-16
   2.75999999         1.49126662E-16
   2.76799989         1.55763430E-16
   2.77600002         1.56121791E-16
   2.78399992         1.50762680E-16
   2.79200006         1.40541308E-16
   2.79999995         1.26521113E-16
   2.80800009         1.09886411E-16
   2.81599998         9.18272918E-17
   2.82399988         7.34027833E-17
   2.83200002         5.54391203E-17
   2.83999991         3.85014227E-17
   2.84800005         2.29053657E-17
   2.85599995         8.72011320E-18
   2.86400008        -4.22270367E-18
   2.87199998        -1.62614808E-17
   2.88000011        -2.77778532E-17
   2.88800001        -3.90750228E-17
   2.89599991        -5.03134626E-17
   2.90400004        -6.14926134E-17
   2.91199994        -7.24391378E-17
   2.92000008        -8.27918061E-17
   2.92799997        -9.20087951E-17
   2.93600011        -9.94180503E-17
   2.94400001        -1.04299567E-16
   2.95199990        -1.05972874E-16
   2.96000004        -1.03879373E-16
   2.96799994        -9.76620518E-17
   2.97600007        -8.72287962E-17
   2.98399997        -7.27724651E-17
   2.99200010        -5.47495164E-17
   3.00000000        -3.38526776E-17
   3.00799990        -1.09908224E-17
   3.01600003         1.27562459E-17
   3.02399993         3.62262360E-17
   3.03200006         5.82645708E-17
   3.03999996         7.77728050E-17
   3.04800010         9.37396010E-17
   3.05599999         1.05304943E-16
   3.06399989         1.11845830E-16
   3.07200003         1.13020188E-16
   3.07999992         1.08750944E-16
   3.08800006         9.92032812E-17
   3.09599996         8.47979043E-17
   3.10400009         6.62308230E-17
   3.11199999         4.44439875E-17
   3.11999989         2.05429908E-17
   3.12800002        -4.28621460E-18
   3.13599992        -2.88220827E-17
   3.14400005        -5.18347999E-17
   3.15199995        -7.21466599E-17
   3.16000009        -8.87339870E-17
   3.16799998        -1.00819751E-16
   3.17600012        -1.07908398E-16
   3.18400002        -1.09775027E-16
   3.19199991        -1.06456596E-16
   3.20000005        -9.82601100E-17
   3.20799994        -8.57582610E-17
   3.21600008        -6.97493648E-17
   3.22399998        -5.11952040E-17
   3.23200011        -3.11590036E-17
   3.24000001        -1.07415474E-17
   3.24799991         8.99855295E-18
   3.25600004         2.71322719E-17
   3.26399994         4.29207576E-17
   3.27200007         5.58260490E-17
   3.27999997         6.54935735E-17
   3.28800011         7.17505595E-17
   3.29600000         7.46246614E-17
   3.30399990         7.43339108E-17
   3.31200004         7.12186030E-17
   3.31999993         6.56625367E-17
   3.32800007         5.80689591E-17
   3.33599997         4.88750253E-17
   3.34400010         3.85304766E-17
   3.35200000         2.74285249E-17
   3.35999990         1.58663796E-17
   3.36800003         4.08389408E-18
   3.37599993        -7.67640152E-18
   3.38400006        -1.91624528E-17
   3.39199996        -3.01412439E-17
   3.40000010        -4.03916297E-17
   3.40799999        -4.96547621E-17
   3.41599989        -5.76085570E-17
   3.42400002        -6.39012905E-17
   3.43199992        -6.81997313E-17
   3.44000006        -7.02036921E-17
   3.44799995        -6.96479260E-17
   3.45600009        -6.63407719E-17
   3.46399999        -6.02329695E-17
   3.47199988        -5.14595809E-17
   3.48000002        -4.03297499E-17
   3.48799992        -2.73000224E-17
   3.49600005        -1.29648989E-17
   3.50399995         1.95552673E-18
   3.51200008         1.66647297E-17
   3.51999998         3.03648441E-17
   3.52800012         4.23203601E-17
   3.53600001         5.19036511E-17
   3.54399991         5.86433533E-17
   3.55200005         6.22749409E-17
   3.55999994         6.27667031E-17
   3.56800008         6.03126501E-17
   3.57599998         5.53103647E-17
   3.58400011         4.83286229E-17
   3.59200001         4.00470593E-17
   3.59999990         3.11694063E-17
   3.60800004         2.23457813E-17
   3.61599994         1.41283375E-17
   3.62400007         6.94284617E-18
   3.63199997         1.05275142E-18
   3.64000010        -3.47034941E-18
   3.64800000        -6.73746508E-18
   3.65599990        -8.99246573E-18
   3.66400003        -1.05544085E-17
   3.67199993        -1.17756845E-17
   3.68000007        -1.30048153E-17
   3.68799996        -1.45324268E-17
   3.69600010        -1.65277899E-17
   3.70400000        -1.90024596E-17
   3.71199989        -2.18245202E-17
   3.72000003        -2.47625665E-17
   3.72799993        -2.75184841E-17
   3.73600006        -2.97400712E-17
   3.74399996        -3.10443862E-17
   3.75200009        -3.10736684E-17
