 -0.239999995         0.00000000    
 -0.231999993         0.00000000    
 -0.224000007         0.00000000    
 -0.216000006         0.00000000    
 -0.208000004         0.00000000    
 -0.200000003         0.00000000    
 -0.192000002         0.00000000    
 -0.184000000         0.00000000    
 -0.175999999         0.00000000    
 -0.167999998         0.00000000    
 -0.159999996         3.18539626E-35
 -0.151999995         1.94310089E-34
 -0.143999994        -1.39845418E-34
 -0.136000007        -4.71017611E-33
 -0.128000006        -1.66269371E-32
 -0.119999997        -1.01996102E-32
 -0.112000003         9.92805719E-32
 -0.104000002         3.54093717E-31
  -9.60000008E-02     4.25533986E-31
  -8.79999995E-02    -5.47356907E-31
  -7.99999982E-02    -3.06397342E-30
  -7.19999969E-02    -5.29740949E-30
  -6.40000030E-02    -2.39814521E-30
  -5.60000017E-02     9.94392763E-30
  -4.80000004E-02     2.87150798E-29
  -3.99999991E-02     3.95070794E-29
  -3.20000015E-02     1.96231332E-29
  -2.40000002E-02    -5.18120113E-29
  -1.60000008E-02    -1.72809096E-28
  -8.00000038E-03    -2.78977814E-28
   0.00000000        -2.11713410E-28
   8.00000038E-03     2.14296251E-28
   1.60000008E-02     9.71053204E-28
   2.40000002E-02     1.54591440E-27
   3.20000015E-02     1.04068376E-27
   3.99999991E-02    -1.07752006E-27
   4.80000004E-02    -3.98988551E-27
   5.60000017E-02    -5.40484737E-27
   6.40000030E-02    -3.04142992E-27
   7.19999969E-02     3.11543994E-27
   7.99999982E-02     9.91953530E-27
   8.79999995E-02     1.28521627E-26
   9.60000008E-02     9.17716481E-27
  0.104000002        -4.73041135E-28
  0.112000003        -1.32422906E-26
  0.119999997        -2.56128668E-26
  0.128000006        -3.25951132E-26
  0.136000007        -2.60864746E-26
  0.143999994         1.94437092E-27
  0.151999995         4.91278536E-26
  0.159999996         9.32147381E-26
  0.167999998         9.75363092E-26
  0.175999999         3.62214852E-26
  0.184000000        -7.66204265E-26
  0.192000002        -1.81458408E-25
  0.200000003        -2.05594421E-25
  0.208000004        -1.14737341E-25
  0.216000006         5.61873822E-26
  0.224000007         2.20426448E-25
  0.231999993         2.93441737E-25
  0.239999995         2.41884598E-25
  0.247999996         9.27330030E-26
  0.256000012        -9.54309874E-26
  0.263999999        -2.66418271E-25
  0.272000015        -3.76962878E-25
  0.280000001        -3.86478587E-25
  0.287999988        -2.54408505E-25
  0.296000004         3.26540035E-26
  0.303999990         4.15144017E-25
  0.312000006         7.38138480E-25
  0.319999993         7.94863841E-25
  0.328000009         4.40483363E-25
  0.335999995        -2.77445536E-25
  0.344000012        -1.06525154E-24
  0.351999998        -1.48116307E-24
  0.360000014        -1.17221013E-24
  0.368000001        -1.24554604E-25
  0.375999987         1.24741047E-24
  0.384000003         2.26903671E-24
  0.391999990         2.35326043E-24
  0.400000006         1.31499524E-24
  0.407999992        -5.37886238E-25
  0.416000009        -2.55582078E-24
  0.423999995        -3.99558640E-24
  0.432000011        -4.21516110E-24
  0.439999998        -2.80742186E-24
  0.448000014         2.27601631E-25
  0.456000000         4.25408508E-24
  0.463999987         7.90548358E-24
  0.472000003         9.39705783E-24
  0.479999989         7.30176044E-24
  0.488000005         1.44832910E-24
  0.495999992        -6.62570822E-24
  0.504000008        -1.40419844E-23
  0.512000024        -1.76557042E-23
  0.519999981        -1.53202562E-23
  0.527999997        -6.79884899E-24
  0.536000013         5.94859617E-24
  0.544000030         1.91179352E-23
  0.551999986         2.80037196E-23
  0.560000002         2.84701226E-23
  0.568000019         1.86738317E-23
  0.575999975         3.76222631E-25
  0.583999991        -2.09897869E-23
  0.592000008        -3.79161103E-23
  0.600000024        -4.35999541E-23
  0.607999980        -3.46723616E-23
  0.615999997        -1.26326773E-23
  0.624000013         1.64946918E-23
  0.632000029         4.38715526E-23
  0.639999986         6.01701888E-23
  0.648000002         5.80380556E-23
  0.656000018         3.45647736E-23
  0.663999975        -6.59509884E-24
  0.671999991        -5.44513512E-23
  0.680000007        -9.25799522E-23
  0.688000023        -1.04209554E-22
  0.695999980        -7.91860281E-23
  0.703999996        -1.98030609E-23
  0.712000012         5.77503044E-23
  0.720000029         1.27842760E-22
  0.727999985         1.64399559E-22
  0.736000001         1.50720560E-22
  0.744000018         8.58860004E-23
  0.751999974        -1.48730305E-23
  0.759999990        -1.25667663E-22
  0.768000007        -2.18614688E-22
  0.776000023        -2.71911923E-22
  0.783999979        -2.74325913E-22
  0.791999996        -2.25160769E-22
  0.800000012        -1.31033482E-22
  0.808000028        -2.02478625E-24
  0.815999985         1.50629468E-22
  0.824000001         3.14836659E-22
  0.832000017         4.77161994E-22
  0.839999974         6.23120093E-22
  0.847999990         7.38434341E-22
  0.856000006         8.09608326E-22
  0.864000022         8.21818277E-22
  0.871999979         7.54413205E-22
  0.879999995         5.77927476E-22
  0.888000011         2.58516408E-22
  0.896000028        -2.26499333E-22
  0.903999984        -8.64301049E-22
  0.912000000        -1.58195435E-21
  0.920000017        -2.23169836E-21
  0.927999973        -2.59172710E-21
  0.935999990        -2.37917965E-21
  0.944000006        -1.26416856E-21
  0.952000022         1.12953835E-21
  0.959999979         5.25007173E-21
  0.967999995         1.16785866E-20
  0.976000011         2.12336052E-20
  0.984000027         3.51249516E-20
  0.991999984         5.51619479E-20
   1.00000000         8.40142404E-20
   1.00800002         1.25513465E-19
   1.01600003         1.84973133E-19
   1.02400005         2.69495547E-19
   1.03199995         3.88228096E-19
   1.03999996         5.52525578E-19
   1.04799998         7.75967534E-19
   1.05599999         1.07417395E-18
   1.06400001         1.46435711E-18
   1.07200003         1.96455664E-18
   1.08000004         2.59253231E-18
   1.08800006         3.36432202E-18
   1.09599996         4.29252309E-18
   1.10399997         5.38440068E-18
   1.11199999         6.63997027E-18
   1.12000000         8.05022843E-18
   1.12800002         9.59571366E-18
   1.13600004         1.12455825E-17
   1.14400005         1.29573666E-17
   1.15199995         1.46775408E-17
   1.15999997         1.63429912E-17
   1.16799998         1.78833983E-17
   1.17600000         1.92244914E-17
   1.18400002         2.02919928E-17
   1.19200003         2.10160372E-17
   1.20000005         2.13357359E-17
   1.20799994         2.12035392E-17
   1.21599996         2.05890284E-17
   1.22399998         1.94818190E-17
   1.23199999         1.78932616E-17
   1.24000001         1.58568025E-17
   1.24800003         1.34268900E-17
   1.25600004         1.06764938E-17
   1.26400006         7.69342076E-18
   1.27199996         4.57571417E-18
   1.27999997         1.42648093E-18
   1.28799999        -1.65143032E-18
   1.29600000        -4.56053623E-18
   1.30400002        -7.21328047E-18
   1.31200004        -9.53578773E-18
   1.32000005        -1.14706666E-17
   1.32799995        -1.29787616E-17
   1.33599997        -1.40398573E-17
   1.34399998        -1.46524044E-17
   1.35200000        -1.48324105E-17
   1.36000001        -1.46116806E-17
   1.36800003        -1.40356618E-17
   1.37600005        -1.31610416E-17
   1.38399994        -1.20532590E-17
   1.39199996        -1.07839280E-17
   1.39999998        -9.42817236E-18
   1.40799999        -8.06183129E-18
   1.41600001        -6.75854785E-18
   1.42400002        -5.58678117E-18
   1.43200004        -4.60679631E-18
   1.44000006        -3.86772780E-18
   1.44799995        -3.40480961E-18
   1.45599997        -3.23697322E-18
   1.46399999        -3.36504849E-18
   1.47200000        -3.77086743E-18
   1.48000002        -4.41749809E-18
   1.48800004        -5.25071629E-18
   1.49600005        -6.20168076E-18
   1.50399995        -7.19065873E-18
   1.51199996        -8.13160480E-18
   1.51999998        -8.93737881E-18
   1.52800000        -9.52532307E-18
   1.53600001        -9.82288641E-18
   1.54400003        -9.77287507E-18
   1.55200005        -9.33787484E-18
   1.55999994        -8.50347295E-18
   1.56799996        -7.28001161E-18
   1.57599998        -5.70279862E-18
   1.58399999        -3.83079460E-18
   1.59200001        -1.74388988E-18
   1.60000002         4.61116951E-19
   1.60800004         2.67568526E-18
   1.61600006         4.78563854E-18
   1.62399995         6.67792338E-18
   1.63199997         8.24767975E-18
   1.63999999         9.40524953E-18
   1.64800000         1.00828031E-17
   1.65600002         1.02403264E-17
   1.66400003         9.87071813E-18
   1.67200005         9.00367899E-18
   1.67999995         7.70799072E-18
   1.68799996         6.09169552E-18
   1.69599998         4.29969930E-18
   1.70400000         2.50851827E-18
   1.71200001         9.18090760E-19
   1.72000003        -2.59199656E-19
   1.72800004        -8.11990061E-19
   1.73599994        -5.45527165E-19
   1.74399996         7.01154993E-19
   1.75199997         3.03721841E-18
   1.75999999         6.50221120E-18
   1.76800001         1.10497921E-17
   1.77600002         1.65343561E-17
   1.78400004         2.27018578E-17
   1.79200006         2.91858801E-17
   1.79999995         3.55098016E-17
   1.80799997         4.10956464E-17
   1.81599998         4.52800686E-17
   1.82400000         4.73376439E-17
   1.83200002         4.65110523E-17
   1.84000003         4.20473011E-17
   1.84800005         3.32386250E-17
   1.85599995         1.94662829E-17
   1.86399996         2.45295370E-19
   1.87199998        -2.47319989E-17
   1.88000000        -5.55557660E-17
   1.88800001        -9.20642360E-17
   1.89600003        -1.33817415E-16
   1.90400004        -1.80080965E-16
   1.91199994        -2.29822167E-16
   1.91999996        -2.81719347E-16
   1.92799997        -3.34185626E-16
   1.93599999        -3.85406820E-16
   1.94400001        -4.33393037E-16
   1.95200002        -4.76043157E-16
   1.96000004        -5.11220012E-16
   1.96800005        -5.36834182E-16
   1.97599995        -5.50932887E-16
   1.98399997        -5.51791196E-16
   1.99199998        -5.38000600E-16
   2.00000000        -5.08552176E-16
   2.00799990        -4.62908535E-16
   2.01600003        -4.01061710E-16
   2.02399993        -3.23573256E-16
   2.03200006        -2.31593710E-16
   2.03999996        -1.26858867E-16
   2.04800010        -1.16615501E-17
   2.05599999         1.11201913E-16
   2.06399989         2.38509840E-16
   2.07200003         3.66715450E-16
   2.07999992         4.92065897E-16
   2.08800006         6.10735637E-16
   2.09599996         7.18968977E-16
   2.10400009         8.13224898E-16
   2.11199999         8.90320672E-16
   2.11999989         9.47563794E-16
   2.12800002         9.82869398E-16
   2.13599992         9.94853961E-16
   2.14400005         9.82903067E-16
   2.15199995         9.47208358E-16
   2.16000009         8.88771555E-16
   2.16799998         8.09376086E-16
   2.17600012         7.11526152E-16
   2.18400002         5.98355456E-16
   2.19199991         4.73509152E-16
   2.20000005         3.41004453E-16
   2.20799994         2.05075319E-16
   2.21600008         7.00082194E-17
   2.22399998        -6.00239045E-17
   2.23200011        -1.81122352E-16
   2.24000001        -2.89811291E-16
   2.24799991        -3.83167609E-16
   2.25600004        -4.58926527E-16
   2.26399994        -5.15558250E-16
   2.27200007        -5.52312545E-16
   2.27999997        -5.69228746E-16
   2.28800011        -5.67110634E-16
   2.29600000        -5.47468469E-16
   2.30399990        -5.12429046E-16
   2.31200004        -4.64620706E-16
   2.31999993        -4.07037898E-16
   2.32800007        -3.42892198E-16
   2.33599997        -2.75457497E-16
   2.34400010        -2.07916466E-16
   2.35200000        -1.43216000E-16
   2.35999990        -8.39395820E-17
   2.36800003        -3.22025217E-17
   2.37599993         1.04246322E-17
   2.38400006         4.29621265E-17
   2.39199996         6.50349912E-17
   2.40000010         7.68554551E-17
   2.40799999         7.91752136E-17
   2.41599989         7.32106061E-17
   2.42400002         6.05453394E-17
   2.43199992         4.30173722E-17
   2.44000006         2.25972823E-17
   2.44799995         1.26557341E-18
   2.45600009        -1.91044327E-17
   2.46399999        -3.68525937E-17
   2.47199988        -5.06216205E-17
   2.48000002        -5.94259191E-17
   2.48799992        -6.26956318E-17
   2.49600005        -6.02934066E-17
   2.50399995        -5.25038269E-17
   2.51200008        -3.99972167E-17
   2.51999998        -2.37713924E-17
   2.52800012        -5.07557610E-18
   2.53600001         1.46789420E-17
   2.54399991         3.40164064E-17
   2.55200005         5.14965956E-17
   2.55999994         6.58109660E-17
   2.56800008         7.58684698E-17
   2.57599998         8.08656664E-17
   2.58400011         8.03369788E-17
   2.59200001         7.41829205E-17
   2.59999990         6.26750780E-17
   2.60800004         4.64381611E-17
   2.61599994         2.64103450E-17
   2.62400007         3.78422888E-18
   2.63199997        -2.00677044E-17
   2.64000010        -4.36783657E-17
   2.64800000        -6.55765232E-17
   2.65599990        -8.43768231E-17
   2.66400003        -9.88640048E-17
   2.67199993        -1.08066363E-16
   2.68000007        -1.11314648E-16
   2.68799996        -1.08283137E-16
   2.69600010        -9.90109054E-17
   2.70400000        -8.39022993E-17
   2.71199989        -6.37065126E-17
   2.72000003        -3.94774098E-17
   2.72799993        -1.25156265E-17
   2.73600006         1.57035591E-17
   2.74399996         4.36126908E-17
   2.75200009         6.96402365E-17
   2.75999999         9.22995656E-17
   2.76799989         1.10274319E-16
   2.77600002         1.22495390E-16
   2.78399992         1.28205385E-16
   2.79200006         1.27006238E-16
   2.79999995         1.18886977E-16
   2.80800009         1.04229171E-16
   2.81599998         8.37896307E-17
   2.82399988         5.86608962E-17
   2.83200002         3.02115179E-17
   2.83999991         9.23747971E-21
   2.84800005        -3.02686562E-17
   2.85599995        -5.89327144E-17
   2.86400008        -8.43803634E-17
   2.87199998        -1.05190679E-16
   2.88000011        -1.20208785E-16
   2.88800001        -1.28614528E-16
   2.89599991        -1.29970959E-16
   2.90400004        -1.24249331E-16
   2.91199994        -1.11829141E-16
   2.92000008        -9.34730768E-17
   2.92799997        -7.02790582E-17
   2.93600011        -4.36124989E-17
   2.94400001        -1.50227679E-17
   2.95199990         1.38510161E-17
   2.96000004         4.13792502E-17
   2.96799994         6.60395987E-17
   2.97600007         8.65065286E-17
   2.98399997         1.01726394E-16
   2.99200010         1.10973783E-16
   3.00000000         1.13886491E-16
   3.00799990         1.10477971E-16
   3.01600003         1.01127303E-16
   3.02399993         8.65469943E-17
   3.03200006         6.77304353E-17
   3.03999996         4.58823983E-17
   3.04800010         2.23379297E-17
   3.05599999        -1.52369285E-18
   3.06399989        -2.43636719E-17
   3.07200003        -4.49618753E-17
   3.07999992        -6.22846289E-17
   3.08800006        -7.55389938E-17
   3.09599996        -8.42104804E-17
   3.10400009        -8.80814143E-17
   3.11199999        -8.72284985E-17
   3.11999989        -8.20002405E-17
   3.12800002        -7.29773544E-17
   3.13599992        -6.09209124E-17
   3.14400005        -4.67129472E-17
   3.15199995        -3.12940624E-17
   3.16000009        -1.56014304E-17
   3.16799998        -5.10890062E-19
   3.17600012         1.32131465E-17
   3.18400002         2.49562707E-17
   3.19199991         3.42783547E-17
   3.20000005         4.09227590E-17
   3.20799994         4.48115568E-17
   3.21600008         4.60294181E-17
   3.22399998         4.47991027E-17
   3.23200011         4.14512679E-17
   3.24000001         3.63909971E-17
   3.24799991         3.00633434E-17
   3.25600004         2.29206156E-17
   3.26399994         1.53942266E-17
   3.27200007         7.87336563E-18
   3.27999997         6.91475016E-19
   3.28800011        -5.88000966E-18
   3.29600000        -1.16323142E-17
   3.30399990        -1.64162827E-17
   3.31200004        -2.01370238E-17
   3.31999993        -2.27471327E-17
   3.32800007        -2.42390290E-17
   3.33599997        -2.46373446E-17
   3.34400010        -2.39924746E-17
   3.35200000        -2.23762844E-17
   3.35999990        -1.98801693E-17
   3.36800003        -1.66146902E-17
   3.37599993        -1.27095176E-17
   3.38400006        -8.31254725E-18
   3.39199996        -3.58770276E-18
   3.40000010         1.28863024E-18
   3.40799999         6.13253798E-18
   3.41599989         1.07590878E-17
   3.42400002         1.49906220E-17
   3.43199992         1.86665498E-17
   3.44000006         2.16536346E-17
   3.44799995         2.38553231E-17
   3.45600009         2.52189435E-17
   3.46399999         2.57401335E-17
   3.47199988         2.54643168E-17
   3.48000002         2.44850391E-17
   3.48799992         2.29386531E-17
   3.49600005         2.09949524E-17
   3.50399995         1.88440280E-17
   3.51200008         1.66805669E-17
   3.51999998         1.46874686E-17
   3.52800012         1.30203332E-17
   3.53600001         1.17937311E-17
   3.54399991         1.10696850E-17
   3.55200005         1.08490867E-17
   3.55999994         1.10674003E-17
   3.56800008         1.15962880E-17
   3.57599998         1.22519718E-17
   3.58400011         1.28097769E-17
   3.59200001         1.30230546E-17
   3.59999990         1.26445393E-17
   3.60800004         1.14487992E-17
   3.61599994         9.25497811E-18
   3.62400007         5.94869833E-18
   3.63199997         1.50091653E-18
   3.64000010        -4.01933884E-18
   3.64800000        -1.04410534E-17
   3.65599990        -1.74972671E-17
   3.66400003        -2.48402603E-17
   3.67199993        -3.20639392E-17
   3.68000007        -3.87316072E-17
   3.68799996        -4.44077735E-17
   3.69600010        -4.86929099E-17
   3.70400000        -5.12589003E-17
   3.71199989        -5.18818003E-17
   3.72000003        -5.04675134E-17
   3.72799993        -4.70667919E-17
   3.73600006        -4.18774545E-17
   3.74399996        -3.52338244E-17
   3.75200009        -2.75846057E-17
