 -0.239999995         0.00000000    
 -0.231999993         0.00000000    
 -0.224000007         0.00000000    
 -0.216000006         0.00000000    
 -0.208000004         0.00000000    
 -0.200000003         0.00000000    
 -0.192000002         0.00000000    
 -0.184000000         0.00000000    
 -0.175999999         0.00000000    
 -0.167999998         0.00000000    
 -0.159999996         3.94311655E-38
 -0.151999995         1.68464397E-36
 -0.143999994         8.97593108E-36
 -0.136000007         5.39022275E-36
 -0.128000006        -1.06628829E-34
 -0.119999997        -4.12683924E-34
 -0.112000003        -3.81712885E-34
 -0.104000002         1.67089598E-33
  -9.60000008E-02     6.49992173E-33
  -8.79999995E-02     8.10172600E-33
  -7.99999982E-02    -7.96717524E-33
  -7.19999969E-02    -4.79223979E-32
  -6.40000030E-02    -7.92010184E-32
  -5.60000017E-02    -2.82191437E-32
  -4.80000004E-02     1.53221257E-31
  -3.99999991E-02     3.91397724E-31
  -3.20000015E-02     4.71904558E-31
  -2.40000002E-02     1.40353485E-31
  -1.60000008E-02    -7.56916188E-31
  -8.00000038E-03    -2.10058057E-30
   0.00000000        -3.13568328E-30
   8.00000038E-03    -2.09707177E-30
   1.60000008E-02     3.08241552E-30
   2.40000002E-02     1.19219389E-29
   3.20000015E-02     1.80227245E-29
   3.99999991E-02     1.03464019E-29
   4.80000004E-02    -1.70339837E-29
   5.60000017E-02    -5.21263833E-29
   6.40000030E-02    -6.40749249E-29
   7.19999969E-02    -2.44098365E-29
   7.99999982E-02     6.11602045E-29
   8.79999995E-02     1.41587412E-28
   9.60000008E-02     1.50888089E-28
  0.104000002         6.11614262E-29
  0.112000003        -9.06483285E-29
  0.119999997        -2.30412842E-28
  0.128000006        -2.98847103E-28
  0.136000007        -2.69070589E-28
  0.143999994        -1.17544042E-28
  0.151999995         1.87756744E-28
  0.159999996         6.17277158E-28
  0.167999998         9.73374912E-28
  0.175999999         9.03187766E-28
  0.184000000         1.35950853E-28
  0.192000002        -1.17692751E-27
  0.200000003        -2.33752159E-27
  0.208000004        -2.43100295E-27
  0.216000006        -9.81808945E-28
  0.224000007         1.53995259E-27
  0.231999993         3.81945034E-27
  0.239999995         4.43323381E-27
  0.247999996         2.74975707E-27
  0.256000012        -6.20845088E-28
  0.263999999        -4.11951446E-27
  0.272000015        -6.05719643E-27
  0.280000001        -5.44764731E-27
  0.287999988        -2.42314651E-27
  0.296000004         1.88590508E-27
  0.303999990         5.84350603E-27
  0.312000006         7.90357815E-27
  0.319999993         7.09931443E-27
  0.328000009         3.34686912E-27
  0.335999995        -2.42411140E-27
  0.344000012        -8.32377446E-27
  0.351999998        -1.18672622E-26
  0.360000014        -1.08167020E-26
  0.368000001        -4.41071083E-27
  0.375999987         5.61000128E-27
  0.384000003         1.50800854E-26
  0.391999990         1.90786010E-26
  0.400000006         1.45691685E-26
  0.407999992         2.40221435E-27
  0.416000009        -1.27840849E-26
  0.423999995        -2.47998286E-26
  0.432000011        -2.87236150E-26
  0.439999998        -2.24844648E-26
  0.448000014        -6.75601356E-27
  0.456000000         1.56423599E-26
  0.463999987         3.95317582E-26
  0.472000003         5.67497352E-26
  0.479999989         5.72163834E-26
  0.488000005         3.32430762E-26
  0.495999992        -1.43258173E-26
  0.504000008        -7.23832821E-26
  0.512000024        -1.18169170E-25
  0.519999981        -1.28255644E-25
  0.527999997        -8.94740460E-26
  0.536000013        -6.04258479E-27
  0.544000030         1.00095855E-25
  0.551999986         1.94780210E-25
  0.560000002         2.40526944E-25
  0.568000019         2.07685678E-25
  0.575999975         8.75485968E-26
  0.583999991        -9.57217381E-26
  0.592000008        -2.82402664E-25
  0.600000024        -3.92646074E-25
  0.607999980        -3.60708547E-25
  0.615999997        -1.74153925E-25
  0.624000013         1.05843563E-25
  0.632000029         3.61898223E-25
  0.639999986         4.73523570E-25
  0.648000002         3.79913193E-25
  0.656000018         1.16395157E-25
  0.663999975        -1.98428445E-25
  0.671999991        -4.19293623E-25
  0.680000007        -4.43626284E-25
  0.688000023        -2.56763230E-25
  0.695999980         6.76492415E-26
  0.703999996         4.06473425E-25
  0.712000012         6.39991167E-25
  0.720000029         6.91197460E-25
  0.727999985         5.36796624E-25
  0.736000001         1.94142860E-25
  0.744000018        -2.97964646E-25
  0.751999974        -8.85402689E-25
  0.759999990        -1.48433754E-24
  0.768000007        -1.95799832E-24
  0.776000023        -2.11129904E-24
  0.783999979        -1.72923734E-24
  0.791999996        -6.63765562E-25
  0.800000012         1.05904724E-24
  0.808000028         3.16450112E-24
  0.815999985         5.13820054E-24
  0.824000001         6.33659149E-24
  0.832000017         6.17042306E-24
  0.839999974         4.29714899E-24
  0.847999990         7.53118850E-25
  0.856000006        -4.01949401E-24
  0.864000022        -9.25699163E-24
  0.871999979        -1.40396967E-23
  0.879999995        -1.74859318E-23
  0.888000011        -1.89153904E-23
  0.896000028        -1.79354279E-23
  0.903999984        -1.44340704E-23
  0.912000000        -8.49998020E-24
  0.920000017        -3.08400117E-25
  0.927999973         1.00106891E-23
  0.935999990         2.25703092E-23
  0.944000006         3.81064561E-23
  0.952000022         5.86745212E-23
  0.959999979         8.87309673E-23
  0.967999995         1.36546723E-22
  0.976000011         2.15785643E-22
  0.984000027         3.47040334E-22
  0.991999984         5.59153344E-22
   1.00000000         8.90183361E-22
   1.00800002         1.38785831E-21
   1.01600003         2.10924049E-21
   1.02400005         3.11923084E-21
   1.03199995         4.48751339E-21
   1.03999996         6.28362380E-21
   1.04799998         8.57027292E-21
   1.05599999         1.13951012E-20
   1.06400001         1.47816335E-20
   1.07200003         1.87201442E-20
   1.08000004         2.31592929E-20
   1.08800006         2.79995177E-20
   1.09599996         3.30890598E-20
   1.10399997         3.82234151E-20
   1.11199999         4.31490850E-20
   1.12000000         4.75717451E-20
   1.12800002         5.11693345E-20
   1.13600004         5.36094980E-20
   1.14400005         5.45706947E-20
   1.15199995         5.37656121E-20
   1.15999997         5.09650500E-20
   1.16799998         4.60205294E-20
   1.17600000         3.88829527E-20
   1.18400002         2.96162616E-20
   1.19200003         1.84042468E-20
   1.20000005         5.54978818E-21
   1.20799994        -8.53426795E-21
   1.21599996        -2.33423583E-20
   1.22399998        -3.83008793E-20
   1.23199999        -5.27991711E-20
   1.24000001        -6.62238020E-20
   1.24800003        -7.79948341E-20
   1.25600004        -8.75999261E-20
   1.26400006        -9.46243310E-20
   1.27199996        -9.87742703E-20
   1.27999997        -9.98919981E-20
   1.28799999        -9.79621469E-20
   1.29600000        -9.31079409E-20
   1.30400002        -8.55805779E-20
   1.31200004        -7.57406054E-20
   1.32000005        -6.40350627E-20
   1.32799995        -5.09713863E-20
   1.33599997        -3.70901486E-20
   1.34399998        -2.29390949E-20
   1.35200000        -9.04987531E-21
   1.36000001         4.08146343E-21
   1.36800003         1.60096058E-20
   1.37600005         2.63516285E-20
   1.38399994         3.47958501E-20
   1.39199996         4.11089636E-20
   1.39999998         4.51415272E-20
   1.40799999         4.68321939E-20
   1.41600001         4.62101735E-20
   1.42400002         4.33961697E-20
   1.43200004         3.86011523E-20
   1.44000006         3.21226511E-20
   1.44799995         2.43371836E-20
   1.45599997         1.56878681E-20
   1.46399999         6.66692670E-21
   1.47200000        -2.20696210E-21
   1.48000002        -1.04149842E-20
   1.48800004        -1.74664114E-20
   1.49600005        -2.29269279E-20
   1.50399995        -2.64451581E-20
   1.51199996        -2.77756555E-20
   1.51999998        -2.67963673E-20
   1.52800000        -2.35188984E-20
   1.53600001        -1.80902025E-20
   1.54400003        -1.07855353E-20
   1.55200005        -1.99304019E-21
   1.55999994         7.80848966E-21
   1.56799996         1.80768674E-20
   1.57599998         2.82373030E-20
   1.58399999         3.77147830E-20
   1.59200001         4.59672506E-20
   1.60000002         5.25176131E-20
   1.60800004         5.69831088E-20
   1.61600006         5.90999997E-20
   1.62399995         5.87414105E-20
   1.63199997         5.59272128E-20
   1.63999999         5.08260449E-20
   1.64800000         4.37500802E-20
   1.65600002         3.51442127E-20
   1.66400003         2.55698798E-20
   1.67200005         1.56821860E-20
   1.67999995         6.19900137E-21
   1.68799996        -2.13879200E-21
   1.69599998        -8.61532842E-21
   1.70400000        -1.25925582E-20
   1.71200001        -1.35648525E-20
   1.72000003        -1.12122143E-20
   1.72800004        -5.45035283E-21
   1.73599994         3.52390694E-21
   1.74399996         1.51959654E-20
   1.75199997         2.87105473E-20
   1.75999999         4.28688291E-20
   1.76800001         5.61496791E-20
   1.77600002         6.67569716E-20
   1.78400004         7.26903122E-20
   1.79200006         7.18372241E-20
   1.79999995         6.20831814E-20
   1.80799997         4.14382041E-20
   1.81599998         8.17464875E-21
   1.82400000        -3.90278192E-20
   1.83200002        -1.00940663E-19
   1.84000003        -1.77657419E-19
   1.84800005        -2.68488067E-19
   1.85599995        -3.71882205E-19
   1.86399996        -4.85386326E-19
   1.87199998        -6.05641534E-19
   1.88000000        -7.28422020E-19
   1.88800001        -8.48721792E-19
   1.89600003        -9.60887845E-19
   1.90400004        -1.05879946E-18
   1.91199994        -1.13609814E-18
   1.91999996        -1.18644294E-18
   1.92799997        -1.20380153E-18
   1.93599999        -1.18274999E-18
   1.94400001        -1.11878184E-18
   1.95200002        -1.00860396E-18
   1.96000004        -8.50413324E-19
   1.96800005        -6.44135728E-19
   1.97599995        -3.91610566E-19
   1.98399997        -9.67001407E-20
   1.99199998         2.34680730E-19
   2.00000000         5.94630467E-19
   2.00799990         9.73418804E-19
   2.01600003         1.35973841E-18
   2.02399993         1.74104376E-18
   2.03200006         2.10396987E-18
   2.03999996         2.43481999E-18
   2.04800010         2.72010672E-18
   2.05599999         2.94712872E-18
   2.06399989         3.10452444E-18
   2.07200003         3.18283487E-18
   2.07999992         3.17497169E-18
   2.08800006         3.07663625E-18
   2.09599996         2.88663038E-18
   2.10400009         2.60705099E-18
   2.11199999         2.24337503E-18
   2.11999989         1.80436898E-18
   2.12800002         1.30187661E-18
   2.13599992         7.50453355E-19
   2.14400005         1.66880638E-19
   2.15199995        -4.30432789E-19
   2.16000009        -1.02212351E-18
   2.16799998        -1.58861422E-18
   2.17600012        -2.11087952E-18
   2.18400002        -2.57121256E-18
   2.19199991        -2.95396826E-18
   2.20000005        -3.24621324E-18
   2.20799994        -3.43830732E-18
   2.21600008        -3.52431301E-18
   2.22399998        -3.50229181E-18
   2.23200011        -3.37439170E-18
   2.24000001        -3.14680247E-18
   2.24799991        -2.82949867E-18
   2.25600004        -2.43583721E-18
   2.26399994        -1.98199092E-18
   2.27200007        -1.48626055E-18
   2.27999997        -9.68263504E-19
   2.28800011        -4.48084410E-19
   2.29600000         5.46196277E-20
   2.30399990         5.21471253E-19
   2.31200004         9.36161141E-19
   2.31999993         1.28512455E-18
   2.32800007         1.55808505E-18
   2.33599997         1.74843730E-18
   2.34400010         1.85345512E-18
   2.35200000         1.87430173E-18
   2.35999990         1.81584921E-18
   2.36800003         1.68631935E-18
   2.37599993         1.49676005E-18
   2.38400006         1.26040043E-18
   2.39199996         9.91931933E-19
   2.40000010         7.06729880E-19
   2.40799999         4.20075454E-19
   2.41599989         1.46400861E-19
   2.42400002        -1.01399800E-19
   2.43199992        -3.12552340E-19
   2.44000006        -4.78853047E-19
   2.44799995        -5.94965527E-19
   2.45600009        -6.58559845E-19
   2.46399999        -6.70294591E-19
   2.47199988        -6.33649507E-19
   2.48000002        -5.54614726E-19
   2.48799992        -4.41259032E-19
   2.49600005        -3.03199848E-19
   2.50399995        -1.51007094E-19
   2.51200008         4.42216854E-21
   2.51999998         1.52483896E-19
   2.52800012         2.83458046E-19
   2.53600001         3.89042067E-19
   2.54399991         4.62804709E-19
   2.55200005         5.00529263E-19
   2.55999994         5.00428451E-19
   2.56800008         4.63209407E-19
   2.57599998         3.91985072E-19
   2.58400011         2.92045835E-19
   2.59200001         1.70502630E-19
   2.59999990         3.58235024E-20
   2.60800004        -1.02709175E-19
   2.61599994        -2.35597143E-19
   2.62400007        -3.53740480E-19
   2.63199997        -4.49031170E-19
   2.64000010        -5.14876298E-19
   2.64800000        -5.46620026E-19
   2.65599990        -5.41833700E-19
   2.66400003        -5.00461590E-19
   2.67199993        -4.24814398E-19
   2.68000007        -3.19413028E-19
   2.68799996        -1.90695116E-19
   2.69600010        -4.65970549E-20
   2.70400000         1.03954579E-19
   2.71199989         2.51609498E-19
   2.72000003         3.87176258E-19
   2.72799993         5.02186003E-19
   2.73600006         5.89403565E-19
   2.74399996         6.43260467E-19
   2.75200009         6.60186702E-19
   2.75999999         6.38816956E-19
   2.76799989         5.80062783E-19
   2.77600002         4.87041980E-19
   2.78399992         3.64883249E-19
   2.79200006         2.20414811E-19
   2.79999995         6.17690789E-20
   2.80800009        -1.02082560E-19
   2.81599998        -2.61839913E-19
   2.82399988        -4.08409390E-19
   2.83200002        -5.33431820E-19
   2.83999991        -6.29767032E-19
   2.84800005        -6.91901893E-19
   2.85599995        -7.16259053E-19
   2.86400008        -7.01386656E-19
   2.87199998        -6.48038624E-19
   2.88000011        -5.59134028E-19
   2.88800001        -4.39599139E-19
   2.89599991        -2.96096848E-19
   2.90400004        -1.36645739E-19
   2.91199994         2.98435165E-20
   2.92000008         1.94088625E-19
   2.92799997         3.46971816E-19
   2.93600011         4.80062644E-19
   2.94400001         5.86092361E-19
   2.95199990         6.59367018E-19
   2.96000004         6.96085514E-19
   2.96799994         6.94552903E-19
   2.97600007         6.55263168E-19
   2.98399997         5.80853929E-19
   2.99200010         4.75929998E-19
   3.00000000         3.46773371E-19
   3.00799990         2.00954082E-19
   3.01600003         4.68698371E-20
   3.02399993        -1.06763064E-19
   3.03200006        -2.51432430E-19
   3.03999996        -3.79329959E-19
   3.04800010        -4.83795089E-19
   3.05599999        -5.59671695E-19
   3.06399989        -6.03567068E-19
   3.07200003        -6.13997402E-19
   3.07999992        -5.91426642E-19
   3.08800006        -5.38187126E-19
   3.09599996        -4.58287941E-19
   3.10400009        -3.57123494E-19
   3.11199999        -2.41097196E-19
   3.11999989        -1.17198465E-19
   3.12800002         7.43537708E-21
   3.13599992         1.25940588E-19
   3.14400005         2.32110861E-19
   3.15199995         3.20729641E-19
   3.16000009         3.87835443E-19
   3.16799998         4.30904050E-19
   3.17600012         4.48934596E-19
   3.18400002         4.42426650E-19
   3.19199991         4.13256436E-19
   3.20000005         3.64469142E-19
   3.20799994         3.00011351E-19
   3.21600008         2.24431885E-19
   3.22399998         1.42571106E-19
   3.23200011         5.92555937E-20
   3.24000001        -2.09828063E-20
   3.24799991        -9.41493807E-20
   3.25600004        -1.56973315E-19
   3.26399994        -2.07028521E-19
   3.27200007        -2.42787410E-19
   3.27999997        -2.63612509E-19
   3.28800011        -2.69697224E-19
   3.29600000        -2.61964946E-19
   3.30399990        -2.41938232E-19
   3.31200004        -2.11588523E-19
   3.31999993        -1.73179438E-19
   3.32800007        -1.29119171E-19
   3.33599997        -8.18316338E-20
   3.34400010        -3.36518916E-20
   3.35200000         1.32559247E-20
   3.35999990         5.69627201E-20
   3.36800003         9.58235102E-20
   3.37599993         1.28510431E-19
   3.38400006         1.54029599E-19
   3.39199996         1.71721907E-19
   3.40000010         1.81254763E-19
   3.40799999         1.82613937E-19
   3.41599989         1.76098468E-19
   3.42400002         1.62318634E-19
   3.43199992         1.42187177E-19
   3.44000006         1.16897436E-19
   3.44799995         8.78799397E-20
   3.45600009         5.67419469E-20
   3.46399999         2.51919148E-20
   3.47199988        -5.04539946E-21
   3.48000002        -3.23222957E-20
   3.48799992        -5.51681583E-20
   3.49600005        -7.23909246E-20
   3.50399995        -8.31714790E-20
   3.51200008        -8.71384627E-20
   3.51999998        -8.44140077E-20
   3.52800012        -7.56248066E-20
   3.53600001        -6.18758822E-20
   3.54399991        -4.46877573E-20
   3.55200005        -2.58964029E-20
   3.55999994        -7.51844007E-21
   3.56800008         8.41077893E-21
   3.57599998         2.00108626E-20
   3.58400011         2.57233913E-20
   3.59200001         2.44539001E-20
   3.59999990         1.56795106E-20
   3.60800004        -4.82579461E-22
   3.61599994        -2.32468674E-20
   3.62400007        -5.11766758E-20
   3.63199997        -8.22551245E-20
   3.64000010        -1.14015836E-19
   3.64800000        -1.43730322E-19
   3.65599990        -1.68633615E-19
   3.66400003        -1.86163201E-19
   3.67199993        -1.94183053E-19
   3.68000007        -1.91176484E-19
   3.68799996        -1.76396925E-19
   3.69600010        -1.49973222E-19
   3.70400000        -1.12960948E-19
   3.71199989        -6.73243722E-20
   3.72000003        -1.58357104E-20
   3.72799993         3.81126828E-20
   3.73600006         9.07702768E-20
   3.74399996         1.38337841E-19
   3.75200009         1.77289207E-19
   3.75999999         2.04673331E-19
   3.76799989         2.18373510E-19
   3.77600002         2.17307456E-19
   3.78399992         2.01553956E-19
   3.79200006         1.72391148E-19
   3.79999995         1.32238069E-19
   3.80800009         8.44920923E-20
   3.81599998         3.32725420E-20
   3.82399988        -1.69090015E-20
   3.83200002        -6.15213319E-20
   3.83999991        -9.63957512E-20
   3.84800005        -1.18084802E-19
   3.85599995        -1.24168121E-19
   3.86400008        -1.13479719E-19
   3.87199998        -8.62365063E-20
   3.88000011        -4.40553648E-20
   3.88800001         1.01437974E-20
   3.89599991         7.23414101E-20
   3.90400004         1.37710592E-19
   3.91199994         2.00977010E-19
   3.92000008         2.56817996E-19
   3.92799997         3.00274446E-19
   3.93600011         3.27144116E-19
   3.94400001         3.34321614E-19
   3.95199990         3.20056419E-19
   3.96000004         2.84102031E-19
   3.96799994         2.27746863E-19
   3.97600007         1.53728816E-19
   3.98399997         6.60476965E-20
   3.99200010        -3.03043983E-20
   4.00000000        -1.29678320E-19
   4.00799990        -2.26148620E-19
   4.01599979        -3.13918325E-19
   4.02400017        -3.87721809E-19
   4.03200006        -4.43186001E-19
   4.03999996        -4.77119018E-19
   4.04799986        -4.87701760E-19
   4.05600023        -4.74571147E-19
   4.06400013        -4.38806132E-19
   4.07200003        -3.82824409E-19
   4.07999992        -3.10201725E-19
   4.08799982        -2.25417212E-19
   4.09600019        -1.33541563E-19
   4.10400009        -3.98807555E-20
   4.11199999         5.03899688E-20
   4.11999989         1.32568721E-19
   4.12799978         2.02717592E-19
   4.13600016         2.57883301E-19
   4.14400005         2.96238917E-19
   4.15199995         3.17142288E-19
   4.15999985         3.21105051E-19
   4.16800022         3.09674760E-19
   4.17600012         2.85239043E-19
   4.18400002         2.50771151E-19
   4.19199991         2.09551913E-19
   4.19999981         1.64889149E-19
   4.20800018         1.19859453E-19
   4.21600008         7.70841341E-20
   4.22399998         3.85550984E-20
   4.23199987         5.52879484E-21
   4.23999977        -2.14954014E-20
   4.24800014        -4.27089248E-20
   4.25600004        -5.88540751E-20
   4.26399994        -7.10406168E-20
   4.27199984        -8.05498399E-20
   4.28000021        -8.86475310E-20
   4.28800011        -9.64137488E-20
   4.29600000        -1.04594688E-19
   4.30399990        -1.13488909E-19
   4.31199980        -1.22887102E-19
   4.32000017        -1.32085583E-19
   4.32800007        -1.39973926E-19
   4.33599997        -1.45183898E-19
   4.34399986        -1.46265333E-19
   4.35200024        -1.41863104E-19
   4.36000013        -1.30879050E-19
   4.36800003        -1.12613403E-19
   4.37599993        -8.68813194E-20
   4.38399982        -5.40938897E-20
   4.39200020        -1.52869375E-20
   4.40000010         2.79118527E-20
   4.40799999         7.33764198E-20
   4.41599989         1.18621306E-19
   4.42399979         1.60967551E-19
   4.43200016         1.97723463E-19
   4.44000006         2.26373277E-19
   4.44799995         2.44766155E-19
   4.45599985         2.51289896E-19
   4.46400023         2.45009760E-19
   4.47200012         2.25752530E-19
   4.48000002         1.94130527E-19
   4.48799992         1.51512669E-19
   4.49599981         9.99550383E-20
   4.50400019         4.20957965E-20
   4.51200008        -1.89849728E-20
   4.51999998        -7.99460045E-20
   4.52799988        -1.37397207E-19
   4.53599977        -1.88124045E-19
   4.54400015        -2.29295164E-19
   4.55200005        -2.58632908E-19
   4.55999994        -2.74535946E-19
   4.56799984        -2.76159262E-19
   4.57600021        -2.63454957E-19
   4.58400011        -2.37176024E-19
   4.59200001        -1.98832002E-19
   4.59999990        -1.50595158E-19
   4.60799980        -9.51575781E-20
   4.61600018        -3.55554604E-20
   4.62400007         2.50197659E-20
   4.63199997         8.34085567E-20
   4.63999987         1.36654645E-19
   4.64799976         1.82157592E-19
   4.65600014         2.17797844E-19
   4.66400003         2.42028498E-19
   4.67199993         2.53928060E-19
   4.67999983         2.53215521E-19
   4.68800020         2.40232120E-19
   4.69600010         2.15899529E-19
   4.70400000         1.81655015E-19
   4.71199989         1.39367280E-19
   4.71999979         9.12311133E-20
   4.72800016         3.96493711E-20
   4.73600006        -1.28875256E-20
   4.74399996        -6.39124331E-20
   4.75199986        -1.11077793E-19
   4.76000023        -1.52241416E-19
   4.76800013        -1.85549355E-19
   4.77600002        -2.09519757E-19
   4.78399992        -2.23120855E-19
   4.79199982        -2.25830621E-19
   4.80000019        -2.17666452E-19
   4.80800009        -1.99182804E-19
   4.81599998        -1.71440355E-19
   4.82399988        -1.35956439E-19
   4.83199978        -9.46379407E-20
   4.84000015        -4.96944392E-20
   4.84800005        -3.52637071E-21
   4.85599995         4.14106131E-20
   4.86399984         8.27544895E-20
   4.87200022         1.18383285E-19
   4.88000011         1.46544830E-19
   4.88800001         1.65960490E-19
   4.89599991         1.75898510E-19
   4.90399981         1.76213950E-19
   4.91200018         1.67349456E-19
   4.92000008         1.50293224E-19
   4.92799997         1.26493997E-19
   4.93599987         9.77423431E-20
   4.94399977         6.60343001E-20
   4.95200014         3.34295222E-20
   4.96000004         1.91382876E-21
   4.96799994        -2.67297163E-20
   4.97599983        -5.10365171E-20
   4.98400021        -6.99523380E-20
   4.99200010        -8.28883118E-20
   5.00000000        -8.97293863E-20
   5.00799990        -9.07975220E-20
   5.01599979        -8.67808041E-20
   5.02400017        -7.86452372E-20
   5.03200006        -6.75414813E-20
   5.03999996        -5.47096999E-20
   5.04799986        -4.13836296E-20
   5.05600023        -2.86936385E-20
   5.06400013        -1.75782504E-20
   5.07200003        -8.71590760E-21
   5.07999992        -2.48613657E-21
   5.08799982         1.03694491E-21
   5.09600019         2.06418620E-21
   5.10400009         1.05155961E-21
   5.11199999        -1.35352749E-21
   5.11999989        -4.37697330E-21
   5.12799978        -7.19097106E-21
   5.13600016        -8.99102836E-21
   5.14400005        -9.07061622E-21
   5.15199995        -6.88817045E-21
   5.15999985        -2.12300206E-21
   5.16800022         5.28234793E-21
   5.17600012         1.50980237E-20
   5.18400002         2.68074906E-20
   5.19199991         3.96381460E-20
   5.19999981         5.26213112E-20
   5.20800018         6.46722890E-20
   5.21600008         7.46788868E-20
   5.22399998         8.15877448E-20
   5.23199987         8.44867608E-20
   5.23999977         8.26843149E-20
   5.24800014         7.57846592E-20
   5.25600004         6.37499374E-20
   5.26399994         4.69353879E-20
   5.27199984         2.60851697E-20
   5.28000021         2.28602086E-21
   5.28800011        -2.31110030E-20
   5.29600000        -4.85877135E-20
   5.30399990        -7.25622414E-20
   5.31199980        -9.34946995E-20
   5.32000017        -1.09992649E-19
   5.32800007        -1.20913527E-19
   5.33599997        -1.25452306E-19
   5.34399986        -1.23203667E-19
   5.35200024        -1.14189673E-19
   5.36000013        -9.88521480E-20
   5.36800003        -7.80160952E-20
   5.37599993        -5.28314021E-20
   5.38399982        -2.46962284E-20
   5.39200020         4.83389608E-21
   5.40000010         3.41480869E-20
   5.40799999         6.16822831E-20
   5.41599989         8.60107054E-20
   5.42399979         1.05915896E-19
   5.43200016         1.20437756E-19
   5.44000006         1.28905423E-19
   5.44799995         1.30958175E-19
   5.45599985         1.26556062E-19
   5.46400023         1.15974276E-19
   5.47200012         9.97774077E-20
   5.48000002         7.87740576E-20
   5.48799992         5.39619997E-20
   5.49599981         2.64767880E-20
   5.50400019        -2.44890415E-21
   5.51200008        -3.15183731E-20
   5.51999998        -5.94068579E-20
   5.52799988        -8.48101044E-20
   5.53599977        -1.06506638E-19
   5.54400015        -1.23424317E-19
   5.55200005        -1.34698866E-19
   5.55999994        -1.39716815E-19
   5.56799984        -1.38142445E-19
   5.57600021        -1.29937369E-19
   5.58400011        -1.15374053E-19
   5.59200001        -9.50440864E-20
   5.59999990        -6.98503169E-20
   5.60799980        -4.09739005E-20
   5.61600018        -9.81575651E-21
   5.62400007         2.20833022E-20
   5.63199997         5.31314263E-20
   5.63999987         8.17750818E-20
   5.64799976         1.06582959E-19
   5.65600014         1.26324154E-19
   5.66400003         1.40037826E-19
   5.67199993         1.47089437E-19
   5.67999983         1.47207026E-19
   5.68800020         1.40493086E-19
   5.69600010         1.27411160E-19
   5.70400000         1.08752460E-19
   5.71199989         8.55864199E-20
   5.71999979         5.91969867E-20
   5.72800016         3.10062804E-20
   5.73600006         2.48634417E-21
   5.74399996        -2.49328699E-20
   5.75199986        -4.99491527E-20
   5.76000023        -7.14580329E-20
   5.76800013        -8.86030248E-20
   5.77600002        -1.00809367E-19
   5.78399992        -1.07805260E-19
   5.79199982        -1.09630925E-19
   5.80000019        -1.06630192E-19
   5.80800009        -9.94167634E-20
   5.81599998        -8.88132450E-20
   5.82399988        -7.57694210E-20
   5.83199978        -6.12757239E-20
   5.84000015        -4.62850075E-20
   5.84800005        -3.16493261E-20
   5.85599995        -1.80724036E-20
   5.86399984        -6.07212891E-21
   5.87200022         4.04606955E-21
   5.88000011         1.21995666E-20
   5.88800001         1.85145962E-20
   5.89599991         2.32850438E-20
   5.90399981         2.69091579E-20
   5.91200018         2.98170693E-20
   5.92000008         3.24017406E-20
   5.92799997         3.49629341E-20
   5.93599987         3.76675303E-20
   5.94399977         4.05276721E-20
   5.95200014         4.33977013E-20
   5.96000004         4.59924085E-20
   5.96799994         4.79247283E-20
   5.97599983         4.87589076E-20
   5.98400021         4.80701311E-20
   5.99200010         4.55027790E-20
   6.00000000         4.08223520E-20
   6.00799990         3.39582328E-20
   6.01599979         2.50339217E-20
   6.02400017         1.43782650E-20
   6.03200006         2.51127732E-21
   6.03999996        -9.89809572E-21
   6.04799986        -2.20953480E-20
   6.05600023        -3.33116522E-20
   6.06400013        -4.28286850E-20
   6.07200003        -5.00297511E-20
   6.07999992        -5.44385914E-20
   6.08799982        -5.57506485E-20
   6.09600019        -5.38585698E-20
   6.10400009        -4.88668579E-20
   6.11199999        -4.10867170E-20
   6.11999989        -3.10069428E-20
   6.12799978        -1.92466931E-20
   6.13600016        -6.50142111E-21
   6.14400005         6.50515311E-21
   6.15199995         1.90588892E-20
   6.15999985         3.04862552E-20
   6.16800022         4.01843146E-20
   6.17600012         4.76518007E-20
   6.18400002         5.25161881E-20
   6.19199991         5.45507455E-20
   6.19999981         5.36793301E-20
   6.20800018         4.99727855E-20
   6.21600008         4.36437164E-20
   6.22399998         3.50415259E-20
   6.23199987         2.46437655E-20