 -0.239999995         0.00000000    
 -0.231999993         0.00000000    
 -0.224000007         0.00000000    
 -0.216000006         0.00000000    
 -0.208000004        -2.20995911E-28
 -0.200000003        -1.18718251E-27
 -0.192000002        -2.56281918E-27
 -0.184000000         1.03952695E-27
 -0.175999999         1.63455677E-26
 -0.167999998         3.26565119E-26
 -0.159999996         3.12464538E-26
 -0.151999995         2.61739580E-26
 -0.143999994         1.26600843E-26
 -0.136000007        -1.21723321E-25
 -0.128000006        -3.76910986E-25
 -0.119999997        -3.07256146E-25
 -0.112000003         5.08565215E-25
 -0.104000002         1.43114958E-24
  -9.60000008E-02     1.09010312E-24
  -8.79999995E-02    -6.75841691E-25
  -7.99999982E-02    -2.21660586E-24
  -7.19999969E-02    -2.08882893E-24
  -6.40000030E-02    -5.05219163E-25
  -5.60000017E-02     1.66891650E-24
  -4.80000004E-02     3.52712135E-24
  -3.99999991E-02     3.37113200E-24
  -3.20000015E-02     1.24071143E-25
  -2.40000002E-02    -3.78652406E-24
  -1.60000008E-02    -4.24729890E-24
  -8.00000038E-03    -1.05546759E-24
   0.00000000         1.78972700E-24
   8.00000038E-03     1.88872746E-24
   1.60000008E-02     6.40823169E-25
   2.40000002E-02    -3.07876560E-25
   3.20000015E-02    -5.45841506E-25
   3.99999991E-02     4.86685418E-25
   4.80000004E-02     2.13791935E-24
   5.60000017E-02     1.67310121E-24
   6.40000030E-02    -1.24722321E-24
   7.19999969E-02    -2.83153832E-24
   7.99999982E-02    -1.59117573E-24
   8.79999995E-02    -7.55541491E-25
   9.60000008E-02    -1.04396472E-24
  0.104000002         6.65858064E-25
  0.112000003         2.85792670E-24
  0.119999997         6.41616319E-25
  0.128000006        -2.90796770E-24
  0.136000007        -6.85669221E-25
  0.143999994         3.15000442E-24
  0.151999995        -8.39383896E-25
  0.159999996        -8.00965502E-24
  0.167999998        -6.92996871E-24
  0.175999999        -1.55289557E-24
  0.184000000        -2.23500525E-24
  0.192000002        -2.94015756E-24
  0.200000003         4.70442960E-24
  0.208000004         7.20754599E-24
  0.216000006        -8.45618658E-24
  0.224000007        -2.45806770E-23
  0.231999993        -2.05788819E-23
  0.239999995        -9.89584354E-24
  0.247999996        -1.05273945E-23
  0.256000012        -7.28753333E-24
  0.263999999         1.35463321E-23
  0.272000015         2.66859086E-23
  0.280000001         1.29259585E-23
  0.287999988         2.07281013E-24
  0.296000004         1.96618090E-23
  0.303999990         3.61082273E-23
  0.312000006         2.31175010E-23
  0.319999993         8.74700095E-24
  0.328000009         1.93985724E-23
  0.335999995         2.30006770E-23
  0.344000012        -1.04474987E-23
  0.351999998        -4.74946961E-23
  0.360000014        -4.91952057E-23
  0.368000001        -3.33245044E-23
  0.375999987        -2.52953235E-23
  0.384000003        -8.06768679E-24
  0.391999990         2.96271733E-23
  0.400000006         5.80687959E-23
  0.407999992         6.36244214E-23
  0.416000009         7.85674601E-23
  0.423999995         1.18194739E-22
  0.432000011         1.49896080E-22
  0.439999998         1.49908424E-22
  0.448000014         1.28473584E-22
  0.456000000         8.61672514E-23
  0.463999987         7.86967639E-24
  0.472000003        -8.99074177E-23
  0.479999989        -1.71206773E-22
  0.488000005        -2.31621502E-22
  0.495999992        -2.82983188E-22
  0.504000008        -3.05574170E-22
  0.512000024        -2.76780570E-22
  0.519999981        -2.08511336E-22
  0.527999997        -1.10204348E-22
  0.536000013         4.21426030E-23
  0.544000030         2.40482745E-22
  0.551999986         4.09511681E-22
  0.560000002         4.88561829E-22
  0.568000019         4.86146476E-22
  0.575999975         4.05430203E-22
  0.583999991         1.99247749E-22
  0.592000008        -1.43216574E-22
  0.600000024        -5.45434131E-22
  0.607999980        -9.29774939E-22
  0.615999997        -1.27079953E-21
  0.624000013        -1.52322573E-21
  0.632000029        -1.58072549E-21
  0.639999986        -1.36991439E-21
  0.648000002        -9.00518979E-22
  0.656000018        -2.00403512E-22
  0.663999975         7.15414295E-22
  0.671999991         1.77032544E-21
  0.680000007         2.79027993E-21
  0.688000023         3.58894402E-21
  0.695999980         4.03092100E-21
  0.703999996         4.01140915E-21
  0.712000012         3.44878012E-21
  0.720000029         2.32978530E-21
  0.727999985         7.41872765E-22
  0.736000001        -1.15903009E-21
  0.744000018        -3.16733212E-21
  0.751999974        -5.02969029E-21
  0.759999990        -6.46966634E-21
  0.768000007        -7.24060109E-21
  0.776000023        -7.16046635E-21
  0.783999979        -6.13975900E-21
  0.791999996        -4.21629670E-21
  0.800000012        -1.56644178E-21
  0.808000028         1.52109175E-21
  0.815999985         4.69234722E-21
  0.824000001         7.56173458E-21
  0.832000017         9.74647367E-21
  0.839999974         1.09158615E-20
  0.847999990         1.08395662E-20
  0.856000006         9.42464791E-21
  0.864000022         6.74052477E-21
  0.871999979         3.01837721E-21
  0.879999995        -1.35879935E-21
  0.888000011        -5.89027923E-21
  0.896000028        -1.00274937E-20
  0.903999984        -1.32627983E-20
  0.912000000        -1.51879925E-20
  0.920000017        -1.55170036E-20
  0.927999973        -1.41221331E-20
  0.935999990        -1.10778346E-20
  0.944000006        -6.65268691E-21
  0.952000022        -1.25976124E-21
  0.959999979         4.57036393E-21
  0.967999995         1.02127321E-20
  0.976000011         1.50342387E-20
  0.984000027         1.84960606E-20
  0.991999984         2.01887694E-20
   1.00000000         1.98494250E-20
   1.00800002         1.74307263E-20
   1.01600003         1.31392075E-20
   1.02400005         7.36454167E-21
   1.03199995         6.08710167E-22
   1.03999996        -6.49641925E-21
   1.04799998        -1.32071219E-20
   1.05599999        -1.88075749E-20
   1.06400001        -2.27217790E-20
   1.07200003        -2.45031351E-20
   1.08000004        -2.38493167E-20
   1.08800006        -2.07194559E-20
   1.09599996        -1.53832410E-20
   1.10399997        -8.32625060E-21
   1.11199999        -1.80880656E-22
   1.12000000         8.25903491E-21
   1.12800002         1.61028752E-20
   1.13600004         2.25257582E-20
   1.14400005         2.68513603E-20
   1.15199995         2.85522746E-20
   1.15999997         2.73311073E-20
   1.16799998         2.32364938E-20
   1.17600000         1.66373276E-20
   1.18400002         8.12640490E-21
   1.19200003        -1.48021860E-21
   1.20000005        -1.11569968E-20
   1.20799994        -1.98508144E-20
   1.21599996        -2.66669135E-20
   1.22399998        -3.08819158E-20
   1.23199999        -3.19534572E-20
   1.24000001        -2.96800288E-20
   1.24800003        -2.42987068E-20
   1.25600004        -1.63673695E-20
   1.26400006        -6.65099984E-21
   1.27199996         3.85402875E-21
   1.27999997         1.39844366E-20
   1.28799999         2.26542717E-20
   1.29600000         2.90122485E-20
   1.30400002         3.24188529E-20
   1.31200004         3.24919033E-20
   1.32000005         2.92619956E-20
   1.32799995         2.31691157E-20
   1.33599997         1.48871847E-20
   1.34399998         5.25054671E-21
   1.35200000        -4.72307286E-21
   1.36000001        -1.39629638E-20
   1.36800003        -2.15683483E-20
   1.37600005        -2.68620862E-20
   1.38399994        -2.93555220E-20
   1.39199996        -2.88576012E-20
   1.39999998        -2.55902717E-20
   1.40799999        -2.00695197E-20
   1.41600001        -1.29217309E-20
   1.42400002        -4.88279869E-21
   1.43200004         3.18248956E-21
   1.44000006         1.04555234E-20
   1.44799995         1.63371338E-20
   1.45599997         2.04102551E-20
   1.46399999         2.23858031E-20
   1.47200000         2.22068591E-20
   1.48000002         2.01110548E-20
   1.48800004         1.64945856E-20
   1.49600005         1.17817718E-20
   1.50399995         6.44462110E-21
   1.51199996         1.00217081E-21
   1.51999998        -4.09467691E-21
   1.52800000        -8.52610762E-21
   1.53600001        -1.20489947E-20
   1.54400003        -1.44754184E-20
   1.55200005        -1.57259394E-20
   1.55999994        -1.58335132E-20
   1.56799996        -1.48868002E-20
   1.57599998        -1.30101027E-20
   1.58399999        -1.03683713E-20
   1.59200001        -7.13809451E-21
   1.60000002        -3.49173697E-21
   1.60800004         3.74390255E-22
   1.61600006         4.24018679E-21
   1.62399995         7.89539452E-21
   1.63199997         1.11228287E-20
   1.63999999         1.36631173E-20
   1.64800000         1.52655358E-20
   1.65600002         1.57658767E-20
   1.66400003         1.50741534E-20
   1.67200005         1.31475802E-20
   1.67999995         1.00556074E-20
   1.68799996         6.02800480E-21
   1.69599998         1.37887605E-21
   1.70400000        -3.55542341E-21
   1.71200001        -8.35888143E-21
   1.72000003        -1.25236453E-20
   1.72800004        -1.55901800E-20
   1.73599994        -1.72582527E-20
   1.74399996        -1.73514155E-20
   1.75199997        -1.58009947E-20
   1.75999999        -1.27380935E-20
   1.76800001        -8.51491806E-21
   1.77600002        -3.58035192E-21
   1.78400004         1.60910550E-21
   1.79200006         6.56431672E-21
   1.79999995         1.07767780E-20
   1.80799997         1.38250848E-20
   1.81599998         1.54426510E-20
   1.82400000         1.55061921E-20
   1.83200002         1.40421147E-20
   1.84000003         1.12558844E-20
   1.84800005         7.50650977E-21
   1.85599995         3.24002829E-21
   1.86399996        -1.06293365E-21
   1.87199998        -4.94539744E-21
   1.88000000        -8.04258662E-21
   1.88800001        -1.01069160E-20
   1.89600003        -1.10020078E-20
   1.90400004        -1.07276949E-20
   1.91199994        -9.43504583E-21
   1.91999996        -7.36839727E-21
   1.92799997        -4.81115669E-21
   1.93599999        -2.09975174E-21
   1.94400001         4.02863742E-22
   1.95200002         2.42730476E-21
   1.96000004         3.85422060E-21
   1.96800005         4.63923520E-21
   1.97599995         4.78382863E-21
   1.98399997         4.41051976E-21
   1.99199998         3.74540757E-21
   2.00000000         2.97270294E-21
   2.00799990         2.19816907E-21
   2.01600003         1.55696071E-21
   2.02399993         1.20887297E-21
   2.03200006         1.18891814E-21
   2.03999996         1.38438278E-21
   2.04800010         1.67365840E-21
   2.05599999         1.96106106E-21
   2.06399989         2.08171452E-21
   2.07200003         1.82891148E-21
   2.07999992         1.11242151E-21
   2.08800006        -7.79289814E-24
   2.09599996        -1.43038420E-21
   2.10400009        -3.04194539E-21
   2.11199999        -4.65173055E-21
   2.11999989        -6.00916019E-21
   2.12800002        -6.89925338E-21
   2.13599992        -7.17244028E-21
   2.14400005        -6.72115913E-21
   2.15199995        -5.50351130E-21
   2.16000009        -3.58624074E-21
   2.16799998        -1.14297731E-21
   2.17600012         1.56513942E-21
   2.18400002         4.21499615E-21
   2.19199991         6.48751211E-21
   2.20000005         8.12979279E-21
   2.20799994         8.95607755E-21
   2.21600008         8.85349585E-21
   2.22399998         7.83913654E-21
   2.23200011         6.06173745E-21
   2.24000001         3.71295689E-21
   2.24799991         1.00231319E-21
   2.25600004        -1.77160115E-21
   2.26399994        -4.24788950E-21
   2.27200007        -6.15535265E-21
   2.27999997        -7.36098818E-21
   2.28800011        -7.77620700E-21
   2.29600000        -7.35450402E-21
   2.30399990        -6.20127208E-21
   2.31200004        -4.55183476E-21
   2.31999993        -2.61904143E-21
   2.32800007        -5.70444632E-22
   2.33599997         1.37148817E-21
   2.34400010         2.95956661E-21
   2.35200000         4.05961504E-21
   2.35999990         4.64951518E-21
   2.36800003         4.71590450E-21
   2.37599993         4.27382493E-21
   2.38400006         3.45507405E-21
   2.39199996         2.45951937E-21
   2.40000010         1.43736354E-21
   2.40799999         4.90518962E-22
   2.41599989        -2.74325787E-22
   2.42400002        -7.80816543E-22
   2.43199992        -1.02665665E-21
   2.44000006        -1.04111595E-21
   2.44799995        -8.54175357E-22
   2.45600009        -5.34343075E-22
   2.46399999        -1.90364632E-22
   2.47199988         8.42631242E-23
   2.48000002         2.16963229E-22
   2.48799992         1.30764297E-22
   2.49600005        -2.10971181E-22
   2.50399995        -7.56161321E-22
   2.51200008        -1.41738186E-21
   2.51999998        -2.12652747E-21
   2.52800012        -2.79198640E-21
   2.53600001        -3.28015200E-21
   2.54399991        -3.49771868E-21
   2.55200005        -3.41673859E-21
   2.55999994        -2.98882024E-21
   2.56800008        -2.14076079E-21
   2.57599998        -8.92266661E-22
   2.58400011         6.23561805E-22
   2.59200001         2.27016730E-21
   2.59999990         3.92540337E-21
   2.60800004         5.39533280E-21
   2.61599994         6.44721008E-21
   2.62400007         6.94202039E-21
   2.63199997         6.83488112E-21
   2.64000010         6.07825845E-21
   2.64800000         4.65051240E-21
   2.65599990         2.65556501E-21
   2.66400003         2.89123126E-22
   2.67199993        -2.25510801E-21
   2.68000007        -4.75777244E-21
   2.68799996        -6.92536369E-21
   2.69600010        -8.47661491E-21
   2.70400000        -9.24141125E-21
   2.71199989        -9.13315802E-21
   2.72000003        -8.11570083E-21
   2.72799993        -6.26257997E-21
   2.73600006        -3.77439686E-21
   2.74399996        -8.95837815E-22
   2.75200009         2.12042338E-21
   2.75999999         4.97418720E-21
   2.76799989         7.34878000E-21
   2.77600002         9.00517282E-21
   2.78399992         9.79257930E-21
   2.79200006         9.61471769E-21
   2.79999995         8.48086795E-21
   2.80800009         6.55823080E-21
   2.81599998         4.09758376E-21
   2.82399988         1.34698275E-21
   2.83200002        -1.42174132E-21
   2.83999991        -3.90246728E-21
   2.84800005        -5.85717706E-21
   2.85599995        -7.17021804E-21
   2.86400008        -7.77375050E-21
   2.87199998        -7.62217208E-21
   2.88000011        -6.78242462E-21
   2.88800001        -5.44969085E-21
   2.89599991        -3.83353704E-21
   2.90400004        -2.10540589E-21
   2.91199994        -4.50937582E-22
   2.92000008         9.46838064E-22
   2.92799997         2.00377152E-21
   2.93600011         2.73911510E-21
   2.94400001         3.18859688E-21
   2.95199990         3.38461102E-21
   2.96000004         3.39749533E-21
   2.96799994         3.31846484E-21
   2.97600007         3.20943493E-21
   2.98399997         3.10737728E-21
   2.99200010         3.03784221E-21
   3.00000000         2.98469464E-21
   3.00799990         2.88147357E-21
   3.01600003         2.65190308E-21
   3.02399993         2.22557710E-21
   3.03200006         1.53002574E-21
   3.03999996         5.29073737E-22
   3.04800010        -7.33822244E-22
   3.05599999        -2.16651164E-21
   3.06399989        -3.66596794E-21
   3.07200003        -5.08639175E-21
   3.07999992        -6.22982798E-21
   3.08800006        -6.92167127E-21
   3.09599996        -7.05294095E-21
   3.10400009        -6.53800325E-21
   3.11199999        -5.32334022E-21
   3.11999989        -3.47236608E-21
   3.12800002        -1.16481954E-21
   3.13599992         1.39776045E-21
   3.14400005         4.00518591E-21
   3.15199995         6.38105179E-21
   3.16000009         8.23444325E-21
   3.16799998         9.37982748E-21
   3.17600012         9.72941388E-21
   3.18400002         9.21269499E-21
   3.19199991         7.81519112E-21
   3.20000005         5.66444115E-21
   3.20799994         2.98112116E-21
   3.21600008        -1.37106203E-23
   3.22399998        -3.06869730E-21
   3.23200011        -5.85839158E-21
   3.24000001        -8.07615045E-21
   3.24799991        -9.53701522E-21
   3.25600004        -1.01480174E-20
   3.26399994        -9.86266993E-21
   3.27200007        -8.72631683E-21
   3.27999997        -6.89572251E-21
   3.28800011        -4.56749222E-21
   3.29600000        -1.93978700E-21
   3.30399990         7.54574966E-22
   3.31200004         3.26126135E-21
   3.31999993         5.37080778E-21
   3.32800007         6.93211927E-21
   3.33599997         7.83761224E-21
   3.34400010         8.06005839E-21
   3.35200000         7.67177222E-21
   3.35999990         6.78157563E-21
   3.36800003         5.49660507E-21
   3.37599993         3.96016717E-21
   3.38400006         2.33767340E-21
   3.39199996         7.32730107E-22
   3.40000010        -8.05048937E-22
   3.40799999        -2.19009678E-21
   3.41599989        -3.32237921E-21
   3.42400002        -4.19213196E-21
   3.43199992        -4.85229600E-21
   3.44000006        -5.30124303E-21
   3.44799995        -5.50055236E-21
   3.45600009        -5.47179491E-21
   3.46399999        -5.25462970E-21
   3.47199988        -4.80553081E-21
   3.48000002        -4.05202016E-21
   3.48799992        -3.00332196E-21
   3.49600005        -1.71210413E-21
   3.50399995        -1.93967732E-22
   3.51200008         1.51545102E-21
   3.51999998         3.28751605E-21
   3.52800012         4.96579140E-21
   3.53600001         6.43718415E-21
   3.54399991         7.58160145E-21
   3.55200005         8.23663641E-21
   3.55999994         8.27104034E-21
   3.56800008         7.63265966E-21
   3.57599998         6.31248102E-21
   3.58400011         4.34989081E-21
   3.59200001         1.88737837E-21
   3.59999990        -8.52959426E-22
   3.60800004        -3.64519230E-21
   3.61599994        -6.26163122E-21
   3.62400007        -8.45123242E-21
   3.63199997        -9.99530156E-21
   3.64000010        -1.07569685E-20
   3.64800000        -1.06462362E-20
   3.65599990        -9.61378792E-21
   3.66400003        -7.72308650E-21
   3.67199993        -5.15572669E-21
   3.68000007        -2.12507788E-21
   3.68799996         1.13828272E-21
   3.69600010         4.33121664E-21
   3.70400000         7.13160147E-21
   3.71199989         9.31995705E-21
   3.72000003         1.07675538E-20
   3.72799993         1.13490133E-20
   3.73600006         1.09834140E-20
   3.74399996         9.72722395E-21
   3.75200009         7.72616580E-21
