 -0.239999995         0.00000000    
 -0.231999993         0.00000000    
 -0.224000007         3.94037896E-25
 -0.216000006        -5.78936814E-22
 -0.208000004         3.65488623E-20
 -0.200000003         1.90140091E-19
 -0.192000002         4.81923697E-19
 -0.184000000         8.49541321E-19
 -0.175999999         1.29079591E-18
 -0.167999998         1.89878317E-18
 -0.159999996         2.61825556E-18
 -0.151999995         3.17053386E-18
 -0.143999994         3.51147145E-18
 -0.136000007         4.20658110E-18
 -0.128000006         5.91500809E-18
 -0.119999997         8.49721946E-18
 -0.112000003         1.10966552E-17
 -0.104000002         1.32503655E-17
  -9.60000008E-02     1.54686265E-17
  -8.79999995E-02     1.84064759E-17
  -7.99999982E-02     2.18194099E-17
  -7.19999969E-02     2.47696819E-17
  -6.40000030E-02     2.66701575E-17
  -5.60000017E-02     2.76371680E-17
  -4.80000004E-02     2.78003526E-17
  -3.99999991E-02     2.66952541E-17
  -3.20000015E-02     2.35200568E-17
  -2.40000002E-02     1.77550877E-17
  -1.60000008E-02     9.36675172E-18
  -8.00000038E-03    -1.40065418E-18
   0.00000000        -1.41882006E-17
   8.00000038E-03    -2.84874816E-17
   1.60000008E-02    -4.35593344E-17
   2.40000002E-02    -5.83812363E-17
   3.20000015E-02    -7.16415504E-17
   3.99999991E-02    -8.18739201E-17
   4.80000004E-02    -8.77361425E-17
   5.60000017E-02    -8.81939572E-17
   6.40000030E-02    -8.24824802E-17
   7.19999969E-02    -7.00835987E-17
   7.99999982E-02    -5.09892890E-17
   8.79999995E-02    -2.60565516E-17
   9.60000008E-02     2.96886847E-18
  0.104000002         3.37714451E-17
  0.112000003         6.37361853E-17
  0.119999997         9.00226947E-17
  0.128000006         1.09752263E-16
  0.136000007         1.20454954E-16
  0.143999994         1.20452691E-16
  0.151999995         1.08964767E-16
  0.159999996         8.61683573E-17
  0.167999998         5.34405362E-17
  0.175999999         1.34744777E-17
  0.184000000        -3.00993191E-17
  0.192000002        -7.33094112E-17
  0.200000003        -1.12123961E-16
  0.208000004        -1.42508820E-16
  0.216000006        -1.60846302E-16
  0.224000007        -1.64724866E-16
  0.231999993        -1.53384432E-16
  0.239999995        -1.27493136E-16
  0.247999996        -8.88181609E-17
  0.256000012        -4.03461414E-17
  0.263999999         1.35641846E-17
  0.272000015         6.76655645E-17
  0.280000001         1.16786401E-16
  0.287999988         1.56514166E-16
  0.296000004         1.83327616E-16
  0.303999990         1.94651771E-16
  0.312000006         1.89198070E-16
  0.319999993         1.67330432E-16
  0.328000009         1.31077687E-16
  0.335999995         8.38162990E-17
  0.344000012         2.98709478E-17
  0.351999998        -2.58758838E-17
  0.360000014        -7.84196470E-17
  0.368000001        -1.23106710E-16
  0.375999987        -1.56074317E-16
  0.384000003        -1.74606895E-16
  0.391999990        -1.77364424E-16
  0.400000006        -1.64447754E-16
  0.407999992        -1.37337260E-16
  0.416000009        -9.87640549E-17
  0.423999995        -5.24802821E-17
  0.432000011        -2.86481618E-18
  0.439999998         4.55612471E-17
  0.448000014         8.85473619E-17
  0.456000000         1.22424994E-16
  0.463999987         1.44410899E-16
  0.472000003         1.52889023E-16
  0.479999989         1.47527821E-16
  0.488000005         1.29202104E-16
  0.495999992         9.98628816E-17
  0.504000008         6.24201277E-17
  0.512000024         2.05084444E-17
  0.519999981        -2.19426730E-17
  0.527999997        -6.11677696E-17
  0.536000013        -9.38510917E-17
  0.544000030        -1.17278183E-16
  0.551999986        -1.29528768E-16
  0.560000002        -1.29715512E-16
  0.568000019        -1.18092050E-16
  0.575999975        -9.59517268E-17
  0.583999991        -6.54389134E-17
  0.592000008        -2.93810352E-17
  0.600000024         8.91446673E-18
  0.607999980         4.59730970E-17
  0.615999997         7.85062693E-17
  0.624000013         1.03685151E-16
  0.632000029         1.19333509E-16
  0.639999986         1.24105415E-16
  0.648000002         1.17630867E-16
  0.656000018         1.00551486E-16
  0.663999975         7.44387179E-17
  0.671999991         4.16525408E-17
  0.680000007         5.15499495E-18
  0.688000023        -3.17501631E-17
  0.695999980        -6.57320066E-17
  0.703999996        -9.37386613E-17
  0.712000012        -1.13262440E-16
  0.720000029        -1.22560360E-16
  0.727999985        -1.20811025E-16
  0.736000001        -1.08194040E-16
  0.744000018        -8.59016147E-17
  0.751999974        -5.60593073E-17
  0.759999990        -2.15048480E-17
  0.768000007         1.45399823E-17
  0.776000023         4.87788937E-17
  0.783999979         7.80872660E-17
  0.791999996         9.97818047E-17
  0.800000012         1.11934398E-16
  0.808000028         1.13588878E-16
  0.815999985         1.04786108E-16
  0.824000001         8.64968804E-17
  0.832000017         6.05625447E-17
  0.839999974         2.95637627E-17
  0.847999990        -3.47333056E-18
  0.856000006        -3.54328209E-17
  0.864000022        -6.33794189E-17
  0.871999979        -8.47704486E-17
  0.879999995        -9.77039071E-17
  0.888000011        -1.01144806E-16
  0.896000028        -9.49987420E-17
  0.903999984        -8.00447128E-17
  0.912000000        -5.78384404E-17
  0.920000017        -3.05950120E-17
  0.927999973        -9.73620015E-19
  0.935999990         2.82243521E-17
  0.944000006         5.43354827E-17
  0.952000022         7.50409451E-17
  0.959999979         8.85394937E-17
  0.967999995         9.37100541E-17
  0.976000011         9.02261017E-17
  0.984000027         7.85804244E-17
  0.991999984         6.00103520E-17
   1.00000000         3.63377895E-17
   1.00800002         9.76823707E-18
   1.01600003        -1.72964558E-17
   1.02400005        -4.24323670E-17
   1.03199995        -6.34060608E-17
   1.03999996        -7.84211359E-17
   1.04799998        -8.62996739E-17
   1.05599999        -8.65304639E-17
   1.06400001        -7.92451004E-17
   1.07200003        -6.52098439E-17
   1.08000004        -4.58028136E-17
   1.08800006        -2.28818589E-17
   1.09599996         1.44761860E-18
   1.10399997         2.50483442E-17
   1.11199999         4.58941608E-17
   1.12000000         6.22067283E-17
   1.12800002         7.26355502E-17
   1.13600004         7.64129134E-17
   1.14400005         7.33978930E-17
   1.15199995         6.40299270E-17
   1.15999997         4.92644454E-17
   1.16799998         3.04986720E-17
   1.17600000         9.45260397E-18
   1.18400002        -1.19838387E-17
   1.19200003        -3.19026059E-17
   1.20000005        -4.85389617E-17
   1.20799994        -6.04541245E-17
   1.21599996        -6.66773947E-17
   1.22399998        -6.67476190E-17
   1.23199999        -6.07038933E-17
   1.24000001        -4.91061065E-17
   1.24800003        -3.30450780E-17
   1.25600004        -1.40393064E-17
   1.26400006         6.16190537E-18
   1.27199996         2.57457550E-17
   1.27999997         4.29433925E-17
   1.28799999         5.61663378E-17
   1.29600000         6.41949396E-17
   1.30400002         6.63189939E-17
   1.31200004         6.23708806E-17
   1.32000005         5.27120415E-17
   1.32799995         3.82221897E-17
   1.33599997         2.02453050E-17
   1.34399998         4.56746749E-19
   1.35200000        -1.93013828E-17
   1.36000001        -3.71787774E-17
   1.36800003        -5.14994146E-17
   1.37600005        -6.09653750E-17
   1.38399994        -6.47943147E-17
   1.39199996        -6.27410340E-17
   1.39999998        -5.50733808E-17
   1.40799999        -4.25706385E-17
   1.41600001        -2.64916900E-17
   1.42400002        -8.43759215E-18
   1.43200004         9.85044724E-18
   1.44000006         2.66641406E-17
   1.44799995         4.04691034E-17
   1.45599997         5.00617747E-17
   1.46399999         5.47067346E-17
   1.47200000         5.41721907E-17
   1.48000002         4.86854487E-17
   1.48800004         3.89061655E-17
   1.49600005         2.59119273E-17
   1.50399995         1.10860872E-17
   1.51199996        -4.09932555E-18
   1.51999998        -1.82597440E-17
   1.52800000        -3.01572780E-17
   1.53600001        -3.87546194E-17
   1.54400003        -4.33555932E-17
   1.55200005        -4.37246249E-17
   1.55999994        -4.00490809E-17
   1.56799996        -3.28140895E-17
   1.57599998        -2.27522033E-17
   1.58399999        -1.08550415E-17
   1.59200001         1.70427868E-18
   1.60000002         1.37571038E-17
   1.60800004         2.42844892E-17
   1.61600006         3.24475591E-17
   1.62399995         3.76000969E-17
   1.63199997         3.93604762E-17
   1.63999999         3.76741329E-17
   1.64800000         3.27886355E-17
   1.65600002         2.51869035E-17
   1.66400003         1.55526251E-17
   1.67200005         4.74383201E-18
   1.67999995        -6.28598205E-18
   1.68799996        -1.66002245E-17
   1.69599998        -2.53610317E-17
   1.70400000        -3.18748854E-17
   1.71200001        -3.56402645E-17
   1.72000003        -3.63967113E-17
   1.72800004        -3.41427334E-17
   1.73599994        -2.91237588E-17
   1.74399996        -2.18152144E-17
   1.75199997        -1.28924933E-17
   1.75999999        -3.16231417E-18
   1.76800001         6.52654271E-18
   1.77600002         1.53520007E-17
   1.78400004         2.25718481E-17
   1.79200006         2.75934499E-17
   1.79999995         3.00421113E-17
   1.80799997         2.97783366E-17
   1.81599998         2.68760097E-17
   1.82400000         2.16249877E-17
   1.83200002         1.45553678E-17
   1.84000003         6.40104783E-18
   1.84800005        -2.02250706E-18
   1.85599995        -9.93654516E-18
   1.86399996        -1.66416001E-17
   1.87199998        -2.15340458E-17
   1.88000000        -2.41698833E-17
   1.88800001        -2.43451927E-17
   1.89600003        -2.21149318E-17
   1.90400004        -1.77524292E-17
   1.91199994        -1.17131744E-17
   1.91999996        -4.61312424E-18
   1.92799997         2.82530528E-18
   1.93599999         9.86791316E-18
   1.94400001         1.58543557E-17
   1.95200002         2.02454440E-17
   1.96000004         2.26557937E-17
   1.96800005         2.28931383E-17
   1.97599995         2.09867732E-17
   1.98399997         1.71815571E-17
   1.99199998         1.19013737E-17
   2.00000000         5.69845510E-18
   2.00799990        -8.06532323E-19
   2.01600003        -6.99478981E-18
   2.02399993        -1.23202489E-17
   2.03200006        -1.63614290E-17
   2.03999996        -1.88432835E-17
   2.04800010        -1.96394002E-17
   2.05599999        -1.87733371E-17
   2.06399989        -1.64207031E-17
   2.07200003        -1.28934404E-17
   2.07999992        -8.59590624E-18
   2.08800006        -3.96843911E-18
   2.09599996         5.60251962E-19
   2.10400009         4.60901853E-18
   2.11199999         7.87567595E-18
   2.11999989         1.01604431E-17
   2.12800002         1.13729178E-17
   2.13599992         1.15244838E-17
   2.14400005         1.07144539E-17
   2.15199995         9.11253017E-18
   2.16000009         6.93647936E-18
   2.16799998         4.42862491E-18
   2.17600012         1.83538164E-18
   2.18400002        -6.10980829E-19
   2.19199991        -2.71105096E-18
   2.20000005        -4.31439210E-18
   2.20799994        -5.32750843E-18
   2.21600008        -5.71289684E-18
   2.22399998        -5.48444197E-18
   2.23200011        -4.70441561E-18
   2.24000001        -3.48041495E-18
   2.24799991        -1.95561627E-18
   2.25600004        -2.90543933E-19
   2.26399994         1.35633363E-18
   2.27200007         2.84153270E-18
   2.27999997         4.04296767E-18
   2.28800011         4.86381249E-18
   2.29600000         5.23826309E-18
   2.30399990         5.14397815E-18
   2.31200004         4.61605866E-18
   2.31999993         3.74192852E-18
   2.32800007         2.62884844E-18
   2.33599997         1.37492276E-18
   2.34400010         7.62838562E-20
   2.35200000        -1.15367759E-18
   2.35999990        -2.20345302E-18
   2.36800003        -3.00945533E-18
   2.37599993        -3.56470755E-18
   2.38400006        -3.88168234E-18
   2.39199996        -3.97474470E-18
   2.40000010        -3.88602752E-18
   2.40799999        -3.69261036E-18
   2.41599989        -3.46226413E-18
   2.42400002        -3.22103262E-18
   2.43199992        -2.97992022E-18
   2.44000006        -2.76240295E-18
   2.44799995        -2.57332228E-18
   2.45600009        -2.36099143E-18
   2.46399999        -2.04719447E-18
   2.47199988        -1.58830103E-18
   2.48000002        -9.79795332E-19
   2.48799992        -2.13674039E-19
   2.49600005         7.28015306E-19
   2.50399995         1.82963501E-18
   2.51200008         3.01707366E-18
   2.51999998         4.18189058E-18
   2.52800012         5.21119485E-18
   2.53600001         5.99438930E-18
   2.54399991         6.42987756E-18
   2.55200005         6.44428002E-18
   2.55999994         6.00139263E-18
   2.56800008         5.09623949E-18
   2.57599998         3.76114103E-18
   2.58400011         2.08429703E-18
   2.59200001         2.04751306E-19
   2.59999990        -1.72109774E-18
   2.60800004        -3.53818070E-18
   2.61599994        -5.08161369E-18
   2.62400007        -6.18071049E-18
   2.63199997        -6.70265195E-18
   2.64000010        -6.58818545E-18
   2.64800000        -5.83852366E-18
   2.65599990        -4.49284515E-18
   2.66400003        -2.64567681E-18
   2.67199993        -4.69930302E-19
   2.68000007         1.81350333E-18
   2.68799996         3.99134167E-18
   2.69600010         5.86596620E-18
   2.70400000         7.23025421E-18
   2.71199989         7.88900762E-18
   2.72000003         7.72639301E-18
   2.72799993         6.73169426E-18
   2.73600006         4.96158317E-18
   2.74399996         2.52024438E-18
   2.75200009        -4.08267658E-19
   2.75999999        -3.55126090E-18
   2.76799989        -6.60727720E-18
   2.77600002        -9.30256168E-18
   2.78399992        -1.13840781E-17
   2.79200006        -1.26068645E-17
   2.79999995        -1.27814534E-17
   2.80800009        -1.18338708E-17
   2.81599998        -9.80511278E-18
   2.82399988        -6.81909044E-18
   2.83200002        -3.08491405E-18
   2.83999991         1.08939283E-18
   2.84800005         5.33455188E-18
   2.85599995         9.28702971E-18
   2.86400008         1.26141553E-17
   2.87199998         1.50044359E-17
   2.88000011         1.61926031E-17
   2.88800001         1.60247814E-17
   2.89599991         1.44953708E-17
   2.90400004         1.17283855E-17
   2.91199994         7.94945963E-18
   2.92000008         3.47718440E-18
   2.92799997        -1.29531386E-18
   2.93600011        -5.94548142E-18
   2.94400001        -1.00610995E-17
   2.95199990        -1.32582221E-17
   2.96000004        -1.52113353E-17
   2.96799994        -1.57136407E-17
   2.97600007        -1.47210736E-17
   2.98399997        -1.23376263E-17
   2.99200010        -8.77525058E-18
   3.00000000        -4.34372061E-18
   3.00799990         5.44450331E-19
   3.01600003         5.41024759E-18
   3.02399993         9.78105506E-18
   3.03200006         1.32396014E-17
   3.03999996         1.54363020E-17
   3.04800010         1.61168830E-17
   3.05599999         1.51790322E-17
   3.06399989         1.26990621E-17
   3.07200003         8.89801328E-18
   3.07999992         4.09924490E-18
   3.08800006        -1.28107529E-18
   3.09599996        -6.74965690E-18
   3.10400009        -1.17955955E-17
   3.11199999        -1.59537150E-17
   3.11999989        -1.88281097E-17
   3.12800002        -2.01103687E-17
   3.13599992        -1.96332526E-17
   3.14400005        -1.74164450E-17
   3.15199995        -1.36467538E-17
   3.16000009        -8.62702643E-18
   3.16799998        -2.76132182E-18
   3.17600012         3.44305017E-18
   3.18400002         9.42399675E-18
   3.19199991         1.46520074E-17
   3.20000005         1.86824929E-17
   3.20799994         2.11627542E-17
   3.21600008         2.18528081E-17
   3.22399998         2.06743355E-17
   3.23200011         1.77329028E-17
   3.24000001         1.32893621E-17
   3.24799991         7.72360376E-18
   3.25600004         1.51823366E-18
   3.26399994        -4.76849936E-18
   3.27200007        -1.05634397E-17
   3.27999997        -1.53438066E-17
   3.28800011        -1.86781171E-17
   3.29600000        -2.02583513E-17
   3.30399990        -1.99408943E-17
   3.31200004        -1.77723593E-17
   3.31999993        -1.39718829E-17
   3.32800007        -8.88801184E-18
   3.33599997        -2.96954366E-18
   3.34400010         3.24894418E-18
   3.35200000         9.18248566E-18
   3.35999990         1.42650854E-17
   3.36800003         1.80202091E-17
   3.37599993         2.00989553E-17
   3.38400006         2.02947754E-17
   3.39199996         1.85638123E-17
   3.40000010         1.50491930E-17
   3.40799999         1.00755818E-17
   3.41599989         4.09966552E-18
   3.42400002        -2.35174603E-18
   3.43199992        -8.71917518E-18
   3.44000006        -1.44319045E-17
   3.44799995        -1.89511380E-17
   3.45600009        -2.18411714E-17
   3.46399999        -2.28283486E-17
   3.47199988        -2.18153021E-17
   3.48000002        -1.88686102E-17
   3.48799992        -1.42144884E-17
   3.49600005        -8.23864611E-18
   3.50399995        -1.45832232E-18
   3.51200008         5.53717266E-18
   3.51999998         1.21447758E-17
   3.52800012         1.77880608E-17
   3.53600001         2.19593854E-17
   3.54399991         2.42755589E-17
   3.55200005         2.45228297E-17
   3.55999994         2.26700097E-17
   3.56800008         1.88650549E-17
   3.57599998         1.34327456E-17
   3.58400011         6.85700923E-18
   3.59200001        -2.70977260E-19
   3.59999990        -7.31781790E-18
   3.60800004        -1.36552167E-17
   3.61599994        -1.86996469E-17
   3.62400007        -2.19723242E-17
   3.63199997        -2.31670939E-17
   3.64000010        -2.21846664E-17
   3.64800000        -1.91251106E-17
   3.65599990        -1.42694380E-17
   3.66400003        -8.06488359E-18
   3.67199993        -1.09541171E-18
   3.68000007         5.97296739E-18
   3.68799996         1.24572705E-17
   3.69600010         1.77232744E-17
   3.70400000         2.12556053E-17
   3.71199989         2.27193096E-17
   3.72000003         2.19851885E-17
   3.72799993         1.91204139E-17
   3.73600006         1.43778996E-17
   3.74399996         8.19308004E-18
   3.75200009         1.15381573E-18
