 -0.239999995         0.00000000    
 -0.231999993         0.00000000    
 -0.224000007         0.00000000    
 -0.216000006         0.00000000    
 -0.208000004         0.00000000    
 -0.200000003         0.00000000    
 -0.192000002         0.00000000    
 -0.184000000         0.00000000    
 -0.175999999         0.00000000    
 -0.167999998         0.00000000    
 -0.159999996         0.00000000    
 -0.151999995        -2.01122293E-37
 -0.143999994        -3.06847906E-35
 -0.136000007        -2.44525164E-34
 -0.128000006        -5.81597871E-34
 -0.119999997         1.26661307E-33
 -0.112000003         1.11450743E-32
 -0.104000002         2.52818683E-32
  -9.60000008E-02    -4.62229431E-33
  -8.79999995E-02    -1.65795015E-31
  -7.99999982E-02    -4.04007064E-31
  -7.19999969E-02    -2.21771327E-31
  -6.40000030E-02     1.14927838E-30
  -5.60000017E-02     3.38645892E-30
  -4.80000004E-02     3.36355502E-30
  -3.99999991E-02    -3.57569508E-30
  -3.20000015E-02    -1.68570103E-29
  -2.40000002E-02    -2.33963489E-29
  -1.60000008E-02    -2.65770226E-30
  -8.00000038E-03     4.94981480E-29
   0.00000000         9.64118845E-29
   8.00000038E-03     7.21751455E-29
   1.60000008E-02    -5.77920118E-29
   2.40000002E-02    -2.33618817E-28
   3.20000015E-02    -3.11704636E-28
   3.99999991E-02    -1.67430443E-28
   4.80000004E-02     1.94309492E-28
   5.60000017E-02     6.23936735E-28
   6.40000030E-02     8.99141869E-28
   7.19999969E-02     7.77728067E-28
   7.99999982E-02     1.72437400E-29
   8.79999995E-02    -1.46153932E-27
   9.60000008E-02    -3.16034877E-27
  0.104000002        -3.70740128E-27
  0.112000003        -1.42144271E-27
  0.119999997         4.03770327E-27
  0.128000006         1.00791641E-26
  0.136000007         1.16712657E-26
  0.143999994         4.76817768E-27
  0.151999995        -9.36259642E-27
  0.159999996        -2.29174678E-26
  0.167999998        -2.58168490E-26
  0.175999999        -1.31215071E-26
  0.184000000         1.03508103E-26
  0.192000002         3.26246000E-26
  0.200000003         4.26278308E-26
  0.208000004         3.67418253E-26
  0.216000006         1.81551361E-26
  0.224000007        -9.31784398E-27
  0.231999993        -4.48935934E-26
  0.239999995        -8.56681742E-26
  0.247999996        -1.16205411E-25
  0.256000012        -1.05579159E-25
  0.263999999        -2.29315209E-26
  0.272000015         1.31817560E-25
  0.280000001         3.02949532E-25
  0.287999988         3.85920197E-25
  0.296000004         2.77407153E-25
  0.303999990        -5.04431621E-26
  0.312000006        -4.96255336E-25
  0.319999993        -8.42076574E-25
  0.328000009        -8.47374860E-25
  0.335999995        -3.89168060E-25
  0.344000012         4.27137760E-25
  0.351999998         1.26307892E-24
  0.360000014         1.67865834E-24
  0.368000001         1.35417855E-24
  0.375999987         2.92418436E-25
  0.384000003        -1.11980255E-24
  0.391999990        -2.25243435E-24
  0.400000006        -2.52926082E-24
  0.407999992        -1.73425864E-24
  0.416000009        -1.50980717E-25
  0.423999995         1.56437004E-24
  0.432000011         2.72006813E-24
  0.439999998         2.93703032E-24
  0.448000014         2.28469383E-24
  0.456000000         1.11918349E-24
  0.463999987        -2.37593368E-25
  0.472000003        -1.69659388E-24
  0.479999989        -3.27611548E-24
  0.488000005        -4.73264912E-24
  0.495999992        -5.30671661E-24
  0.504000008        -3.95613073E-24
  0.512000024        -1.09516709E-25
  0.519999981         5.51240697E-24
  0.527999997         1.06981025E-23
  0.536000013         1.25760277E-23
  0.544000030         9.18859897E-24
  0.551999986         8.96121238E-25
  0.560000002        -9.35762031E-24
  0.568000019        -1.72474276E-23
  0.575999975        -1.91356483E-23
  0.583999991        -1.38395075E-23
  0.592000008        -3.12970210E-24
  0.600000024         9.19466925E-24
  0.607999980         1.89839724E-23
  0.615999997         2.32196364E-23
  0.624000013         2.07184346E-23
  0.632000029         1.20987242E-23
  0.639999986        -5.92710690E-25
  0.648000002        -1.42953208E-23
  0.656000018        -2.54176821E-23
  0.663999975        -3.05680193E-23
  0.671999991        -2.75251272E-23
  0.680000007        -1.61183373E-23
  0.688000023         1.43051011E-24
  0.695999980         2.09176693E-23
  0.703999996         3.71541653E-23
  0.712000012         4.51813110E-23
  0.720000029         4.14420472E-23
  0.727999985         2.48511333E-23
  0.736000001        -2.29674723E-24
  0.744000018        -3.39271310E-23
  0.751999974        -6.09079126E-23
  0.759999990        -7.33315379E-23
  0.768000007        -6.40428269E-23
  0.776000023        -3.21459998E-23
  0.783999979         1.52520923E-23
  0.791999996         6.43263751E-23
  0.800000012         9.87939547E-23
  0.808000028         1.05630482E-22
  0.815999985         7.99472599E-23
  0.824000001         2.70814907E-23
  0.832000017        -3.88049546E-23
  0.839999974        -9.88999839E-23
  0.847999990        -1.35111363E-22
  0.856000006        -1.35040441E-22
  0.864000022        -9.55031741E-23
  0.871999979        -2.40901870E-23
  0.879999995         6.15971057E-23
  0.888000011         1.37410545E-22
  0.896000028         1.78892562E-22
  0.903999984         1.69273319E-22
  0.912000000         1.06687745E-22
  0.920000017         7.21605228E-24
  0.927999973        -9.88353037E-23
  0.935999990        -1.77140483E-22
  0.944000006        -2.02288599E-22
  0.952000022        -1.67589953E-22
  0.959999979        -8.71081732E-23
  0.967999995         1.10702429E-23
  0.976000011         9.65801460E-23
  0.984000027         1.47499495E-22
  0.991999984         1.55466057E-22
   1.00000000         1.24375862E-22
   1.00800002         6.55081392E-23
   1.01600003        -6.59338109E-24
   1.02400005        -7.61205840E-23
   1.03199995        -1.26604135E-22
   1.03999996        -1.44005889E-22
   1.04799998        -1.22096710E-22
   1.05599999        -6.88053317E-23
   1.06400001        -8.56502967E-24
   1.07200003         2.62180983E-23
   1.08000004         1.06279522E-23
   1.08800006        -5.51052790E-23
   1.09599996        -1.38601586E-22
   1.10399997        -1.84763391E-22
   1.11199999        -1.44704479E-22
   1.12000000        -8.15241045E-24
   1.12800002         1.76734264E-22
   1.13600004         3.15405346E-22
   1.14400005         3.09855703E-22
   1.15199995         1.17125271E-22
   1.15999997        -2.08411195E-22
   1.16799998        -5.15183171E-22
   1.17600000        -6.11296823E-22
   1.18400002        -3.49829822E-22
   1.19200003         2.87665891E-22
   1.20000005         1.15611961E-21
   1.20799994         1.98174643E-21
   1.21599996         2.44951383E-21
   1.22399998         2.31896591E-21
   1.23199999         1.51247158E-21
   1.24000001         1.51451714E-22
   1.24800003        -1.46939942E-21
   1.25600004        -2.96087705E-21
   1.26400006        -3.94540474E-21
   1.27199996        -4.15789888E-21
   1.27999997        -3.51926859E-21
   1.28799999        -2.16010644E-21
   1.29600000        -3.87930996E-22
   1.30400002         1.39843819E-21
   1.31200004         2.81607682E-21
   1.32000005         3.59861694E-21
   1.32799995         3.64613055E-21
   1.33599997         3.02128567E-21
   1.34399998         1.90150223E-21
   1.35200000         5.19644817E-22
   1.36000001        -8.78592129E-22
   1.36800003        -2.05463263E-21
   1.37600005        -2.78899998E-21
   1.38399994        -2.91135567E-21
   1.39199996        -2.35436443E-21
   1.39999998        -1.20879320E-21
   1.40799999         2.58644570E-22
   1.41600001         1.65497172E-21
   1.42400002         2.57871032E-21
   1.43200004         2.75505165E-21
   1.44000006         2.13320712E-21
   1.44799995         8.98822511E-22
   1.45599997        -5.94998123E-22
   1.46399999        -1.93752781E-21
   1.47200000        -2.76125732E-21
   1.48000002        -2.80077862E-21
   1.48800004        -1.92471115E-21
   1.49600005        -1.62708178E-22
   1.50399995         2.25292232E-21
   1.51199996         4.85608859E-21
   1.51999998         6.97575143E-21
   1.52800000         7.86562006E-21
   1.53600001         6.92481116E-21
   1.54400003         3.94224304E-21
   1.55200005        -7.43108942E-22
   1.55999994        -6.24757602E-21
   1.56799996        -1.13373795E-20
   1.57599998        -1.47492087E-20
   1.58399999        -1.55330431E-20
   1.59200001        -1.33075581E-20
   1.60000002        -8.36200920E-21
   1.60800004        -1.59622725E-21
   1.61600006         5.66727206E-21
   1.62399995         1.19498453E-20
   1.63199997         1.59059933E-20
   1.63999999         1.65958587E-20
   1.64800000         1.36969574E-20
   1.65600002         7.61601750E-21
   1.66400003        -5.34503018E-22
   1.67200005        -9.10834180E-21
   1.67999995        -1.62227179E-20
   1.68799996        -2.01239601E-20
   1.69599998        -1.95500309E-20
   1.70400000        -1.40134138E-20
   1.71200001        -3.95931979E-21
   1.72000003         9.22927899E-21
   1.72800004         2.33824814E-20
   1.73599994         3.58531064E-20
   1.74399996         4.39660874E-20
   1.75199997         4.55570013E-20
   1.75999999         3.94966496E-20
   1.76800001         2.60581022E-20
   1.77600002         6.99189276E-21
   1.78400004        -1.47650511E-20
   1.79200006        -3.56974705E-20
   1.79999995        -5.24684863E-20
   1.80799997        -6.26124283E-20
   1.81599998        -6.49698479E-20
   1.82400000        -5.97835288E-20
   1.83200002        -4.84897993E-20
   1.84000003        -3.33204151E-20
   1.84800005        -1.68378252E-20
   1.85599995        -1.46881236E-21
   1.86399996         1.09185765E-20
   1.87199998         1.93759061E-20
   1.88000000         2.41074358E-20
   1.88800001         2.64644869E-20
   1.89600003         2.86220519E-20
   1.90400004         3.29380476E-20
   1.91199994         4.11448393E-20
   1.91999996         5.36141024E-20
   1.92799997         6.89684648E-20
   1.93599999         8.41697051E-20
   1.94400001         9.50746339E-20
   1.95200002         9.72764853E-20
   1.96000004         8.70092222E-20
   1.96800005         6.19524416E-20
   1.97599995         2.18486042E-20
   1.98399997        -3.10921618E-20
   1.99199998        -9.20543842E-20
   2.00000000        -1.53878238E-19
   2.00799990        -2.07799363E-19
   2.01600003        -2.44667152E-19
   2.02399993        -2.56465255E-19
   2.03200006        -2.37836165E-19
   2.03999996        -1.87281394E-19
   2.04800010        -1.07791347E-19
   2.05599999        -6.78747979E-21
   2.06399989         1.04599160E-19
   2.07200003         2.12825713E-19
   2.07999992         3.03689074E-19
   2.08800006         3.64322628E-19
   2.09599996         3.85144857E-19
   2.10400009         3.61410099E-19
   2.11199999         2.94048413E-19
   2.11999989         1.89640836E-19
   2.12800002         5.95842494E-20
   2.13599992        -8.13545639E-20
   2.14400005        -2.16811638E-19
   2.15199995        -3.30791543E-19
   2.16000009        -4.09592542E-19
   2.16799998        -4.43555338E-19
   2.17600012        -4.28371946E-19
   2.18400002        -3.65683934E-19
   2.19199991        -2.62840853E-19
   2.20000005        -1.31826986E-19
   2.20799994         1.23876226E-20
   2.21600008         1.53744299E-19
   2.22399998         2.76945627E-19
   2.23200011         3.69103370E-19
   2.24000001         4.21069544E-19
   2.24799991         4.28375177E-19
   2.25600004         3.91661852E-19
   2.26399994         3.16504842E-19
   2.27200007         2.12584797E-19
   2.27999997         9.23734950E-20
   2.28800011        -3.04743290E-20
   2.29600000        -1.42748019E-19
   2.30399990        -2.33155564E-19
   2.31200004        -2.93514106E-19
   2.31999993        -3.19583685E-19
   2.32800007        -3.11423911E-19
   2.33599997        -2.73195164E-19
   2.34400010        -2.12392012E-19
   2.35200000        -1.38652854E-19
   2.35999990        -6.23585744E-20
   2.36800003         6.69621891E-21
   2.37599993         6.04035782E-20
   2.38400006         9.31745483E-20
   2.39199996         1.02537438E-19
   2.40000010         8.95138605E-20
   2.40799999         5.87007817E-20
   2.41599989         1.78987797E-20
   2.42400002        -2.28420611E-20
   2.43199992        -5.27519411E-20
   2.44000006        -6.22408368E-20
   2.44799995        -4.47904343E-20
   2.45600009         1.58320431E-21
   2.46399999         7.36116170E-20
   2.47199988         1.62929649E-19
   2.48000002         2.57032417E-19
   2.48799992         3.40836101E-19
   2.49600005         3.98636328E-19
   2.50399995         4.16277144E-19
   2.51200008         3.83360034E-19
   2.51999998         2.95259328E-19
   2.52800012         1.54624316E-19
   2.53600001        -2.80049105E-20
   2.54399991        -2.34750859E-19
   2.55200005        -4.42193385E-19
   2.55999994        -6.24189663E-19
   2.56800008        -7.55289622E-19
   2.57599998        -8.14227843E-19
   2.58400011        -7.87033195E-19
   2.59200001        -6.69403200E-19
   2.59999990        -4.68059116E-19
   2.60800004        -2.00832448E-19
   2.61599994         1.04720303E-19
   2.62400007         4.14228528E-19
   2.63199997         6.90721092E-19
   2.64000010         8.99564086E-19
   2.64800000         1.01330514E-18
   2.65599990         1.01556790E-18
   2.66400003         9.03358053E-19
   2.67199993         6.87527244E-19
   2.68000007         3.91484732E-19
   2.68799996         4.84679791E-20
   2.69600010        -3.02272010E-19
   2.70400000        -6.20022896E-19
   2.71199989        -8.67516111E-19
   2.72000003        -1.01565506E-18
   2.72799993        -1.04735396E-18
   2.73600006        -9.59772288E-19
   2.74399996        -7.64455248E-19
   2.75200009        -4.85377900E-19
   2.75999999        -1.55407281E-19
   2.76799989         1.88004957E-19
   2.77600002         5.07142779E-19
   2.78399992         7.67878122E-19
   2.79200006         9.42924273E-19
   2.79999995         1.01445658E-18
   2.80800009         9.75957835E-19
   2.81599998         8.32958056E-19
   2.82399988         6.02334000E-19
   2.83200002         3.10107840E-19
   2.83999991        -1.18732374E-20
   2.84800005        -3.29687050E-19
   2.85599995        -6.10836486E-19
   2.86400008        -8.27136410E-19
   2.87199998        -9.56998028E-19
   2.88000011        -9.87264980E-19
   2.88800001        -9.14616705E-19
   2.89599991        -7.46271854E-19
   2.90400004        -4.99592171E-19
   2.91199994        -2.00352851E-19
   2.92000008         1.20134129E-19
   2.92799997         4.28496902E-19
   2.93600011         6.92729694E-19
   2.94400001         8.85134437E-19
   2.95199990         9.84689036E-19
   2.96000004         9.78966704E-19
   2.96799994         8.65665552E-19
   2.97600007         6.53569154E-19
   2.98399997         3.62543336E-19
   2.99200010         2.21901248E-20
   3.00000000        -3.30942555E-19
   3.00799990        -6.57323365E-19
   3.01600003        -9.18989389E-19
   3.02399993        -1.08401968E-18
   3.03200006        -1.13035120E-18
   3.03999996        -1.04855906E-18
   3.04800010        -8.43361971E-19
   3.05599999        -5.33683334E-19
   3.06399989        -1.51138021E-19
   3.07200003         2.63084122E-19
   3.07999992         6.62748170E-19
   3.08800006         1.00200999E-18
   3.09599996         1.24098557E-18
   3.10400009         1.35059900E-18
   3.11199999         1.31599731E-18
   3.11999989         1.13816878E-18
   3.12800002         8.33766521E-19
   3.13599992         4.33371219E-19
   3.14400005        -2.15369785E-20
   3.15199995        -4.82678137E-19
   3.16000009        -8.99946450E-19
   3.16799998        -1.22691389E-18
   3.17600012        -1.42628344E-18
   3.18400002        -1.47451024E-18
   3.19199991        -1.36484718E-18
   3.20000005        -1.10832152E-18
   3.20799994        -7.32556475E-19
   3.21600008        -2.78681000E-19
   3.22399998         2.03239491E-19
   3.23200011         6.59761738E-19
   3.24000001         1.04007829E-18
   3.24799991         1.30185118E-18
   3.25600004         1.41614510E-18
   3.26399994         1.37075987E-18
   3.27200007         1.17149909E-18
   3.27999997         8.41283473E-19
   3.28800011         4.17372486E-19
   3.29600000        -5.28528894E-20
   3.30399990        -5.17060209E-19
   3.31200004        -9.23637213E-19
   3.31999993        -1.22736418E-18
   3.32800007        -1.39447431E-18
   3.33599997        -1.40641022E-18
   3.34400010        -1.26171896E-18
   3.35200000        -9.75868809E-19
   3.35999990        -5.79181939E-19
   3.36800003        -1.13366034E-19
   3.37599993         3.72838194E-19
   3.38400006         8.28502654E-19
   3.39199996         1.20557087E-18
   3.40000010         1.46380063E-18
   3.40799999         1.57509602E-18
   3.41599989         1.52661517E-18
   3.42400002         1.32214347E-18
   3.43199992         9.81544923E-19
   3.44000006         5.38490236E-19
   3.44799995         3.69134486E-20
   3.45600009        -4.73331513E-19
   3.46399999        -9.41257194E-19
   3.47199988        -1.31970525E-18
   3.48000002        -1.57016809E-18
   3.48799992        -1.66699786E-18
   3.49600005        -1.60041871E-18
   3.50399995        -1.37783154E-18
   3.51200008        -1.02315924E-18
   3.51999998        -5.74328301E-19
   3.52800012        -7.92651638E-20
   3.53600001         4.09082586E-19
   3.54399991         8.38190438E-19
   3.55200005         1.16140645E-18
   3.55999994         1.34296743E-18
   3.56800008         1.36211366E-18
   3.57599998         1.21579772E-18
   3.58400011         9.19522300E-19
   3.59200001         5.06013057E-19
   3.59999990         2.17428366E-20
   3.60800004        -4.78294855E-19
   3.61599994        -9.36832709E-19
   3.62400007        -1.30071918E-18
   3.63199997        -1.52664919E-18
   3.64000010        -1.58568362E-18
   3.64800000        -1.46626821E-18
   3.65599990        -1.17560263E-18
   3.66400003        -7.39208920E-19
   3.67199993        -1.98531528E-19
   3.68000007         3.93450940E-19
   3.68799996         9.78247677E-19
   3.69600010         1.49868377E-18
   3.70400000         1.90540351E-18
   3.71199989         2.16200114E-18
   3.72000003         2.24818943E-18
   3.72799993         2.16098309E-18
   3.73600006         1.91422622E-18
   3.74399996         1.53679684E-18
   3.75200009         1.06959354E-18
   3.75999999         5.61288058E-19
   3.76799989         6.30039885E-20
   3.77600002        -3.77478005E-19
   3.78399992        -7.21033901E-19
   3.79200006        -9.41072113E-19
   3.79999995        -1.02545374E-18
   3.80800009        -9.76543272E-19
   3.81599998        -8.09868860E-19
   3.82399988        -5.51864196E-19
   3.83200002        -2.36879996E-19
   3.83999991         9.65512547E-20
   3.84800005         4.10089626E-19
   3.85599995         6.70091466E-19
   3.86400008         8.51385778E-19
   3.87199998         9.39517944E-19
   3.88000011         9.31153080E-19
   3.88800001         8.32977081E-19
   3.89599991         6.59811989E-19
   3.90400004         4.32534784E-19
   3.91199994         1.75944547E-19
   3.92000008        -8.36365742E-20
   3.92799997        -3.21193482E-19
   3.93600011        -5.16015791E-19
   3.94400001        -6.54148542E-19
   3.95199990        -7.29533699E-19
   3.96000004        -7.43522926E-19
   3.96799994        -7.03144259E-19
   3.97600007        -6.18954747E-19
   3.98399997        -5.03271574E-19
   3.99200010        -3.69078270E-19
   4.00000000        -2.29372272E-19
   4.00799990        -9.65020568E-20
   4.01599979         1.87550893E-20
   4.02400017         1.08220944E-19
   4.03200006         1.67036795E-19
   4.03999996         1.93736892E-19
   4.04799986         1.89657612E-19
   4.05600023         1.57997675E-19
   4.06400013         1.02968438E-19
   4.07200003         2.93417055E-20
   4.07999992        -5.75555308E-20
   4.08799982        -1.51582359E-19
   4.09600019        -2.45549082E-19
   4.10400009        -3.31283483E-19
   4.11199999        -4.00149474E-19
   4.11999989        -4.44005427E-19
   4.12799978        -4.56406622E-19
   4.13600016        -4.33739909E-19
   4.14400005        -3.75994430E-19
   4.15199995        -2.87020868E-19
   4.15999985        -1.74326905E-19
   4.16800022        -4.85560351E-20
   4.17600012         7.72737200E-20
   4.18400002         1.88837217E-19
   4.19199991         2.71995649E-19
   4.19999981         3.14685820E-19
   4.20800018         3.08866216E-19
   4.21600008         2.51976482E-19
   4.22399998         1.47435031E-19
   4.23199987         4.05764806E-21
   4.23999977        -1.65322941E-19
   4.24800014        -3.45579051E-19
   4.25600004        -5.21021267E-19
   4.26399994        -6.77069872E-19
   4.27199984        -8.01900060E-19
   4.28000021        -8.87945300E-19
   4.28800011        -9.32882714E-19
   4.29600000        -9.39652360E-19
   4.30399990        -9.15333044E-19
   4.31199980        -8.69178744E-19
   4.32000017        -8.10458122E-19
   4.32800007        -7.46708502E-19
   4.33599997        -6.82650343E-19
   4.34399986        -6.19651492E-19
   4.35200024        -5.55550009E-19
   4.36000013        -4.84868873E-19
   4.36800003        -3.99686305E-19
   4.37599993        -2.91358034E-19
   4.38399982        -1.52872567E-19
   4.39200020         1.88482683E-20
   4.40000010         2.21521191E-19
   4.40799999         4.47415221E-19
   4.41599989         6.84453545E-19
   4.42399979         9.17908677E-19
   4.43200016         1.13209210E-18
   4.44000006         1.31181384E-18
   4.44799995         1.44375556E-18
   4.45599985         1.51794973E-18
   4.46400023         1.52925481E-18
   4.47200012         1.47836687E-18
   4.48000002         1.37183376E-18
   4.48799992         1.22088436E-18
   4.49599981         1.03939752E-18
   4.50400019         8.41706421E-19
   4.51200008         6.40882788E-19
   4.51999998         4.47803427E-19
   4.52799988         2.70876809E-19
   4.53599977         1.16109675E-19
   4.54400015        -1.27506870E-20
   4.55200005        -1.14073325E-19
   4.55999994        -1.88130469E-19
   4.56799984        -2.36764682E-19
   4.57600021        -2.62989771E-19
   4.58400011        -2.70657477E-19
   4.59200001        -2.64299974E-19
   4.59999990        -2.49141424E-19
   4.60799980        -2.31166065E-19
   4.61600018        -2.17076620E-19
   4.62400007        -2.14028628E-19
   4.63199997        -2.29101655E-19
   4.63999987        -2.68546021E-19
   4.64799976        -3.36886546E-19
   4.65600014        -4.35986015E-19
   4.66400003        -5.64190221E-19
   4.67199993        -7.15716319E-19
   4.67999983        -8.80472447E-19
   4.68800020        -1.04447693E-18
   4.69600010        -1.19095790E-18
   4.70400000        -1.30203915E-18
   4.71199989        -1.36074013E-18
   4.71999979        -1.35291107E-18
   4.72800016        -1.26874637E-18
   4.73600006        -1.10367690E-18
   4.74399996        -8.58638808E-19
   4.75199986        -5.39843659E-19
   4.76000023        -1.58183312E-19
   4.76800013         2.71674392E-19
   4.77600002         7.32490301E-19
   4.78399992         1.20588571E-18
   4.79199982         1.67378777E-18
   4.80000019         2.11956512E-18
   4.80800009         2.52859228E-18
   4.81599998         2.88821691E-18
   4.82399988         3.18737237E-18
   4.83199978         3.41620795E-18
   4.84000015         3.56598348E-18
   4.84800005         3.62921978E-18
   4.85599995         3.59989582E-18
   4.86399984         3.47350469E-18
   4.87200022         3.24700692E-18
   4.88000011         2.91895184E-18
   4.88800001         2.49003119E-18
   4.89599991         1.96409197E-18
   4.90399981         1.34927354E-18
   4.91200018         6.58764417E-19
   4.92000008        -8.91822968E-20
   4.92799997        -8.71979370E-19
   4.93599987        -1.66385819E-18
   4.94399977        -2.43707199E-18
   4.95200014        -3.16299763E-18
   4.96000004        -3.81327657E-18
   4.96799994        -4.36126139E-18
   4.97599983        -4.78387789E-18
   4.98400021        -5.06369862E-18
   4.99200010        -5.19081518E-18
   5.00000000        -5.16407326E-18
   5.00799990        -4.99142950E-18
   5.01599979        -4.68940559E-18
   5.02400017        -4.28175362E-18
   5.03200006        -3.79747659E-18
   5.03999996        -3.26838230E-18
   5.04799986        -2.72639950E-18
   5.05600023        -2.20098203E-18
   5.06400013        -1.71691386E-18
   5.07200003        -1.29270742E-18
   5.07999992        -9.39627648E-19
   5.08799982        -6.61289644E-19
   5.09600019        -4.53834814E-19
   5.10400009        -3.06791880E-19
   5.11199999        -2.04734556E-19
   5.11999989        -1.29653724E-19
   5.12799978        -6.36788451E-20
   5.13600016         8.40714951E-21
   5.14400005         9.73648127E-20
   5.15199995         2.08646177E-19
   5.15999985         3.42444579E-19
   5.16800022         4.94426015E-19
   5.17600012         6.56925181E-19
   5.18400002         8.20431026E-19
   5.19199991         9.75176562E-19
   5.19999981         1.11258439E-18
   5.20800018         1.22632183E-18
   5.21600008         1.31285526E-18
   5.22399998         1.37159708E-18
   5.23199987         1.40482813E-18
   5.23999977         1.41746817E-18
   5.24800014         1.41655073E-18
   5.25600004         1.41018351E-18
   5.26399994         1.40599714E-18
   5.27199984         1.40948774E-18
   5.28000021         1.42289789E-18
   5.28800011         1.44508525E-18
   5.29600000         1.47225814E-18
   5.30399990         1.49892396E-18
   5.31199980         1.51834213E-18
   5.32000017         1.52229595E-18
   5.32800007         1.50070922E-18
   5.33599997         1.44195779E-18
   5.34399986         1.33435999E-18
   5.35200024         1.16851070E-18
   5.36000013         9.39493438E-19
   5.36800003         6.48057753E-19
   5.37599993         3.00553801E-19
   5.38399982        -9.17857961E-20
   5.39200020        -5.13374810E-19
   5.40000010        -9.44250657E-19
   5.40799999        -1.35996103E-18
   5.41599989        -1.73228640E-18
   5.42399979        -2.03143978E-18
   5.43200016        -2.22955657E-18
   5.44000006        -2.30450926E-18
   5.44799995        -2.24293601E-18
   5.45599985        -2.04187859E-18
   5.46400023        -1.70913981E-18
   5.47200012        -1.26283658E-18
   5.48000002        -7.30419920E-19
   5.48799992        -1.46981982E-19
   5.49599981         4.47557703E-19
   5.50400019         1.01247951E-18
   5.51200008         1.51096450E-18
   5.51999998         1.91443694E-18
   5.52799988         2.20556709E-18
   5.53599977         2.37949401E-18
   5.54400015         2.44344665E-18
   5.55200005         2.41521477E-18
   5.55999994         2.32073214E-18
   5.56799984         2.19072561E-18
   5.57600021         2.05635343E-18
   5.58400011         1.94417884E-18
   5.59200001         1.87143658E-18
   5.59999990         1.84283640E-18
   5.60799980         1.84981553E-18
   5.61600018         1.87232538E-18
   5.62400007         1.88241409E-18
   5.63199997         1.84856648E-18
   5.63999987         1.74005672E-18
   5.64799976         1.53110956E-18
   5.65600014         1.20493590E-18
   5.66400003         7.57456266E-19
   5.67199993         1.99985673E-19
   5.67999983        -4.40153247E-19
   5.68800020        -1.12178792E-18
   5.69600010        -1.79465044E-18
   5.70400000        -2.40563023E-18
   5.71199989        -2.90504735E-18
   5.71999979        -3.25180974E-18
   5.72800016        -3.41708890E-18
   5.73600006        -3.38674151E-18
   5.74399996        -3.16277512E-18
   5.75199986        -2.76374443E-18
   5.76000023        -2.22358680E-18
   5.76800013        -1.58845654E-18
   5.77600002        -9.11699239E-19
   5.78399992        -2.47831868E-19
   5.79199982         3.53242259E-19
   5.80000019         8.50771442E-19
   5.80800009         1.21607100E-18
   5.81599998         1.43401137E-18
   5.82399988         1.50344647E-18
   5.83199978         1.43672411E-18
   5.84000015         1.25811617E-18
   5.84800005         1.00097571E-18
   5.85599995         7.03748463E-19
   5.86399984         4.05408017E-19
   5.87200022         1.41109568E-19
   5.88000011        -6.12851137E-20
   5.88800001        -1.83545575E-19
   5.89599991        -2.18338536E-19
   5.90399981        -1.69564839E-19
   5.91200018        -5.17750860E-20
   5.92000008         1.11451912E-19
   5.92799997         2.90199412E-19
   5.93599987         4.51716560E-19
   5.94399977         5.64191048E-19
   5.95200014         6.00173560E-19
   5.96000004         5.39234802E-19
   5.96799994         3.69765321E-19
   5.97599983         9.00574022E-20
   5.98400021        -2.91190039E-19
   5.99200010        -7.54963144E-19
   6.00000000        -1.27278539E-18
   6.00799990        -1.80848979E-18
   6.01599979        -2.32089033E-18
   6.02400017        -2.76710423E-18
   6.03200006        -3.10614240E-18
   6.03999996        -3.30238790E-18
   6.04799986        -3.32868335E-18
   6.05600023        -3.16886978E-18
   6.06400013        -2.81967631E-18
   6.07200003        -2.29184885E-18
   6.07999992        -1.61036711E-18
   6.08799982        -8.13558964E-19
   6.09600019         4.90510833E-20
   6.10400009         9.20206482E-19
   6.11199999         1.73951058E-18
   6.11999989         2.44868126E-18
   6.12799978         2.99680629E-18
   6.13600016         3.34492215E-18
   6.14400005         3.46947094E-18
   6.15199995         3.36449965E-18
   6.15999985         3.04268421E-18
   6.16800022         2.53521904E-18
   6.17600012         1.89040218E-18
   6.18400002         1.17058371E-18
   6.19199991         4.47302621E-19
   6.19999981        -2.05090050E-19
   6.20800018        -7.16470553E-19
   6.21600008        -1.02753441E-18
   6.22399998        -1.09504362E-18
   6.23199987        -8.95366041E-19