 -0.239999995         0.00000000    
 -0.231999993         0.00000000    
 -0.224000007         0.00000000    
 -0.216000006         0.00000000    
 -0.208000004         0.00000000    
 -0.200000003         0.00000000    
 -0.192000002         0.00000000    
 -0.184000000         0.00000000    
 -0.175999999         0.00000000    
 -0.167999998         0.00000000    
 -0.159999996         0.00000000    
 -0.151999995        -2.01122293E-37
 -0.143999994        -3.06847906E-35
 -0.136000007        -2.44525164E-34
 -0.128000006        -5.81597871E-34
 -0.119999997         1.26661307E-33
 -0.112000003         1.11450743E-32
 -0.104000002         2.52818683E-32
  -9.60000008E-02    -4.62229431E-33
  -8.79999995E-02    -1.65795015E-31
  -7.99999982E-02    -4.04007064E-31
  -7.19999969E-02    -2.21771327E-31
  -6.40000030E-02     1.14927838E-30
  -5.60000017E-02     3.38645892E-30
  -4.80000004E-02     3.36355502E-30
  -3.99999991E-02    -3.57569508E-30
  -3.20000015E-02    -1.68570103E-29
  -2.40000002E-02    -2.33963489E-29
  -1.60000008E-02    -2.65770226E-30
  -8.00000038E-03     4.94981480E-29
   0.00000000         9.64118845E-29
   8.00000038E-03     7.21751455E-29
   1.60000008E-02    -5.77920118E-29
   2.40000002E-02    -2.33618817E-28
   3.20000015E-02    -3.11704636E-28
   3.99999991E-02    -1.67430443E-28
   4.80000004E-02     1.94309492E-28
   5.60000017E-02     6.23936735E-28
   6.40000030E-02     8.99141869E-28
   7.19999969E-02     7.77728067E-28
   7.99999982E-02     1.72437400E-29
   8.79999995E-02    -1.46153932E-27
   9.60000008E-02    -3.16034877E-27
  0.104000002        -3.70740128E-27
  0.112000003        -1.42144271E-27
  0.119999997         4.03770327E-27
  0.128000006         1.00791641E-26
  0.136000007         1.16712657E-26
  0.143999994         4.76817768E-27
  0.151999995        -9.36259642E-27
  0.159999996        -2.29174678E-26
  0.167999998        -2.58168490E-26
  0.175999999        -1.31215071E-26
  0.184000000         1.03508103E-26
  0.192000002         3.26246000E-26
  0.200000003         4.26278308E-26
  0.208000004         3.67418253E-26
  0.216000006         1.81551361E-26
  0.224000007        -9.31784398E-27
  0.231999993        -4.48935934E-26
  0.239999995        -8.56681742E-26
  0.247999996        -1.16205411E-25
  0.256000012        -1.05579159E-25
  0.263999999        -2.29315209E-26
  0.272000015         1.31817560E-25
  0.280000001         3.02949532E-25
  0.287999988         3.85920197E-25
  0.296000004         2.77407153E-25
  0.303999990        -5.04431621E-26
  0.312000006        -4.96255336E-25
  0.319999993        -8.42076574E-25
  0.328000009        -8.47374860E-25
  0.335999995        -3.89168060E-25
  0.344000012         4.27137760E-25
  0.351999998         1.26307892E-24
  0.360000014         1.67865834E-24
  0.368000001         1.35417855E-24
  0.375999987         2.92418436E-25
  0.384000003        -1.11980255E-24
  0.391999990        -2.25243435E-24
  0.400000006        -2.52926082E-24
  0.407999992        -1.73425883E-24
  0.416000009        -1.50980865E-25
  0.423999995         1.56436995E-24
  0.432000011         2.72006813E-24
  0.439999998         2.93703032E-24
  0.448000014         2.28469402E-24
  0.456000000         1.11918389E-24
  0.463999987        -2.37592850E-25
  0.472000003        -1.69659309E-24
  0.479999989        -3.27611429E-24
  0.488000005        -4.73264794E-24
  0.495999992        -5.30671543E-24
  0.504000008        -3.95612955E-24
  0.512000024        -1.09516364E-25
  0.519999981         5.51240539E-24
  0.527999997         1.06980977E-23
  0.536000013         1.25760237E-23
  0.544000030         9.18860055E-24
  0.551999986         8.96134550E-25
  0.560000002        -9.35759506E-24
  0.568000019        -1.72473977E-23
  0.575999975        -1.91356404E-23
  0.583999991        -1.38395501E-23
  0.592000008        -3.12980604E-24
  0.600000024         9.19453830E-24
  0.607999980         1.89839014E-23
  0.615999997         2.32197389E-23
  0.624000013         2.07187501E-23
  0.632000029         1.20991447E-23
  0.639999986        -5.92453670E-25
  0.648000002        -1.42955149E-23
  0.656000018        -2.54184126E-23
  0.663999975        -3.05689849E-23
  0.671999991        -2.75256920E-23
  0.680000007        -1.61178782E-23
  0.688000023         1.43206920E-24
  0.695999980         2.09195688E-23
  0.703999996         3.71550520E-23
  0.712000012         4.51801151E-23
  0.720000029         4.14389296E-23
  0.727999985         2.48477838E-23
  0.736000001        -2.29789265E-24
  0.744000018        -3.39245467E-23
  0.751999974        -6.09023843E-23
  0.759999990        -7.33262052E-23
  0.768000007        -6.40412871E-23
  0.776000023        -3.21498179E-23
  0.783999979         1.52447386E-23
  0.791999996         6.43200074E-23
  0.800000012         9.87925916E-23
  0.808000028         1.05634660E-22
  0.815999985         7.99537096E-23
  0.824000001         2.70854761E-23
  0.832000017        -3.88055952E-23
  0.839999974        -9.89029437E-23
  0.847999990        -1.35111640E-22
  0.856000006        -1.35034269E-22
  0.864000022        -9.54943641E-23
  0.871999979        -2.40876074E-23
  0.879999995         6.15856325E-23
  0.888000011         1.37384784E-22
  0.896000028         1.78862560E-22
  0.903999984         1.69256178E-22
  0.912000000         1.06695798E-22
  0.920000017         7.25393496E-24
  0.927999973        -9.87815223E-23
  0.935999990        -1.77090198E-22
  0.944000006        -2.02250898E-22
  0.952000022        -1.67584904E-22
  0.959999979        -8.71304443E-23
  0.967999995         1.10013366E-23
  0.976000011         9.64629591E-23
  0.984000027         1.47396035E-22
  0.991999984         1.55449585E-22
   1.00000000         1.24405435E-22
   1.00800002         6.56091639E-23
   1.01600003        -6.43950786E-24
   1.02400005        -7.60411047E-23
   1.03199995        -1.26634427E-22
   1.03999996        -1.44039362E-22
   1.04799998        -1.22083722E-22
   1.05599999        -6.89601630E-23
   1.06400001        -8.68951744E-24
   1.07200003         2.61146250E-23
   1.08000004         1.06752326E-23
   1.08800006        -5.47451861E-23
   1.09599996        -1.37786523E-22
   1.10399997        -1.83796664E-22
   1.11199999        -1.43867214E-22
   1.12000000        -7.80882918E-24
   1.12800002         1.76973901E-22
   1.13600004         3.15561578E-22
   1.14400005         3.10283051E-22
   1.15199995         1.17774813E-22
   1.15999997        -2.07927137E-22
   1.16799998        -5.15343367E-22
   1.17600000        -6.12229168E-22
   1.18400002        -3.51443718E-22
   1.19200003         2.85735896E-22
   1.20000005         1.15432772E-21
   1.20799994         1.97960153E-21
   1.21599996         2.44721788E-21
   1.22399998         2.31564527E-21
   1.23199999         1.50759755E-21
   1.24000001         1.46600838E-22
   1.24800003        -1.47341819E-21
   1.25600004        -2.96410459E-21
   1.26400006        -3.94769484E-21
   1.27199996        -4.15923053E-21
   1.27999997        -3.51964018E-21
   1.28799999        -2.15968376E-21
   1.29600000        -3.87716880E-22
   1.30400002         1.39721862E-21
   1.31200004         2.81288119E-21
   1.32000005         3.59247044E-21
   1.32799995         3.63734297E-21
   1.33599997         3.01073144E-21
   1.34399998         1.89073233E-21
   1.35200000         5.09967551E-22
   1.36000001        -8.86584338E-22
   1.36800003        -2.06025972E-21
   1.37600005        -2.79129472E-21
   1.38399994        -2.90997111E-21
   1.39199996        -2.34902997E-21
   1.39999998        -1.19960667E-21
   1.40799999         2.70664336E-22
   1.41600001         1.66891110E-21
   1.42400002         2.59291840E-21
   1.43200004         2.76760355E-21
   1.44000006         2.14156313E-21
   1.44799995         9.01132801E-22
   1.45599997        -6.00033605E-22
   1.46399999        -1.95048159E-21
   1.47200000        -2.78165169E-21
   1.48000002        -2.82765190E-21
   1.48800004        -1.95624984E-21
   1.49600005        -1.97400426E-22
   1.50399995         2.21715242E-21
   1.51199996         4.82133691E-21
   1.51999998         6.94454313E-21
   1.52800000         7.83987083E-21
   1.53600001         6.90644355E-21
   1.54400003         3.93212381E-21
   1.55200005        -7.44834641E-22
   1.55999994        -6.24248934E-21
   1.56799996        -1.13275357E-20
   1.57599998        -1.47369626E-20
   1.58399999        -1.55211540E-20
   1.59200001        -1.32979252E-20
   1.60000002        -8.35647178E-21
   1.60800004        -1.59544197E-21
   1.61600006         5.66436603E-21
   1.62399995         1.19444864E-20
   1.63199997         1.59003145E-20
   1.63999999         1.65910443E-20
   1.64800000         1.36939718E-20
   1.65600002         7.61465394E-21
   1.66400003        -5.35109368E-22
   1.67200005        -9.10865845E-21
   1.67999995        -1.62223075E-20
   1.68799996        -2.01228502E-20
   1.69599998        -1.95481213E-20
   1.70400000        -1.40105493E-20
   1.71200001        -3.95577196E-21
   1.72000003         9.23275412E-21
   1.72800004         2.33853216E-20
   1.73599994         3.58547220E-20
   1.74399996         4.39663944E-20
   1.75199997         4.55558639E-20
   1.75999999         3.94939968E-20
   1.76800001         2.60551650E-20
   1.77600002         6.99047024E-21
   1.78400004        -1.47644712E-20
   1.79200006        -3.56955221E-20
   1.79999995        -5.24668546E-20
   1.80799997        -6.26108128E-20
   1.81599998        -6.49660868E-20
   1.82400000        -5.97738159E-20
   1.83200002        -4.84730747E-20
   1.84000003        -3.32990021E-20
   1.84800005        -1.68180359E-20
   1.85599995        -1.45900473E-21
   1.86399996         1.09130560E-20
   1.87199998         1.93567986E-20
   1.88000000         2.40802148E-20
   1.88800001         2.64366940E-20
   1.89600003         2.85995338E-20
   1.90400004         3.29229742E-20
   1.91199994         4.11343283E-20
   1.91999996         5.36076206E-20
   1.92799997         6.89675988E-20
   1.93599999         8.41807686E-20
   1.94400001         9.51068487E-20
   1.95200002         9.73383299E-20
   1.96000004         8.71013559E-20
   1.96800005         6.20635229E-20
   1.97599995         2.19613367E-20
   1.98399997        -3.09943380E-20
   1.99199998        -9.19875894E-20
   2.00000000        -1.53855064E-19
   2.00799990        -2.07823171E-19
   2.01600003        -2.44725856E-19
   2.02399993        -2.56531430E-19
   2.03200006        -2.37887993E-19
   2.03999996        -1.87308691E-19
   2.04800010        -1.07796801E-19
   2.05599999        -6.78296180E-21
   2.06399989         1.04595883E-19
   2.07200003         2.12804801E-19
   2.07999992         3.03653841E-19
   2.08800006         3.64282535E-19
   2.09599996         3.85109418E-19
   2.10400009         3.61386809E-19
   2.11199999         2.94040917E-19
   2.11999989         1.89644455E-19
   2.12800002         5.95881397E-20
   2.13599992        -8.13558887E-20
   2.14400005        -2.16833636E-19
   2.15199995        -3.30838977E-19
   2.16000009        -4.09655072E-19
   2.16799998        -4.43612827E-19
   2.17600012        -4.28405395E-19
   2.18400002        -3.65689363E-19
   2.19199991        -2.62832530E-19
   2.20000005        -1.31829286E-19
   2.20799994         1.23592295E-20
   2.21600008         1.53693647E-19
   2.22399998         2.76896539E-19
   2.23200011         3.69072816E-19
   2.24000001         4.21063806E-19
   2.24799991         4.28386577E-19
   2.25600004         3.91679326E-19
   2.26399994         3.16514406E-19
   2.27200007         2.12579924E-19
   2.27999997         9.23521822E-20
   2.28800011        -3.05156169E-20
   2.29600000        -1.42811854E-19
   2.30399990        -2.33240970E-19
   2.31200004        -2.93616340E-19
   2.31999993        -3.19683154E-19
   2.32800007        -3.11495668E-19
   2.33599997        -2.73217627E-19
   2.34400010        -2.12357801E-19
   2.35200000        -1.38568637E-19
   2.35999990        -6.22423684E-20
   2.36800003         6.82213090E-21
   2.37599993         6.05229313E-20
   2.38400006         9.32767827E-20
   2.39199996         1.02614230E-19
   2.40000010         8.95565056E-20
   2.40799999         5.87028884E-20
   2.41599989         1.78627472E-20
   2.42400002        -2.29048993E-20
   2.43199992        -5.28232499E-20
   2.44000006        -6.23046590E-20
   2.44799995        -4.48373510E-20
   2.45600009         1.55413121E-21
   2.46399999         7.35977294E-20
   2.47199988         1.62928977E-19
   2.48000002         2.57042756E-19
   2.48799992         3.40854247E-19
   2.49600005         3.98659903E-19
   2.50399995         4.16305087E-19
   2.51200008         3.83393975E-19
   2.51999998         2.95302496E-19
   2.52800012         1.54677837E-19
   2.53600001        -2.79452727E-20
   2.54399991        -2.34695180E-19
   2.55200005        -4.42153111E-19
   2.55999994        -6.24170845E-19
   2.56800008        -7.55290449E-19
   2.57599998        -8.14241543E-19
   2.58400011        -7.87054701E-19
   2.59200001        -6.69431635E-19
   2.59999990        -4.68095615E-19
   2.60800004        -2.00874259E-19
   2.61599994         1.04682776E-19
   2.62400007         4.14210071E-19
   2.63199997         6.90731846E-19
   2.64000010         8.99602447E-19
   2.64800000         1.01335767E-18
   2.65599990         1.01561463E-18
   2.66400003         9.03383386E-19
   2.67199993         6.87528020E-19
   2.68000007         3.91470204E-19
   2.68799996         4.84541142E-20
   2.69600010        -3.02269580E-19
   2.70400000        -6.19992238E-19
   2.71199989        -8.67453348E-19
   2.72000003        -1.01556438E-18
   2.72799993        -1.04725026E-18
   2.73600006        -9.59678093E-19
   2.74399996        -7.64392589E-19
   2.75200009        -4.85360632E-19
   2.75999999        -1.55434914E-19
   2.76799989         1.87947701E-19
   2.77600002         5.07076760E-19
   2.78399992         7.67820736E-19
   2.79200006         9.42884155E-19
   2.79999995         1.01443538E-18
   2.80800009         9.75955663E-19
   2.81599998         8.32979562E-19
   2.82399988         6.02383631E-19
   2.83200002         3.10182984E-19
   2.83999991        -1.17876388E-20
   2.84800005        -3.29615499E-19
   2.85599995        -6.10802055E-19
   2.86400008        -8.27150679E-19
   2.87199998        -9.57054379E-19
   2.88000011        -9.87341287E-19
   2.88800001        -9.14684844E-19
   2.89599991        -7.46312541E-19
   2.90400004        -4.99599409E-19
   2.91199994        -2.00335958E-19
   2.92000008         1.20158479E-19
   2.92799997         4.28513032E-19
   2.93600011         6.92728504E-19
   2.94400001         8.85116549E-19
   2.95199990         9.84662359E-19
   2.96000004         9.78940751E-19
   2.96799994         8.65646010E-19
   2.97600007         6.53553851E-19
   2.98399997         3.62524854E-19
   2.99200010         2.21624676E-20
   3.00000000        -3.30979468E-19
   3.00799990        -6.57363897E-19
   3.01600003        -9.19026302E-19
   3.02399993        -1.08404801E-18
   3.03200006        -1.13037022E-18
   3.03999996        -1.04857075E-18
   3.04800010        -8.43367607E-19
   3.05599999        -5.33683696E-19
   3.06399989        -1.51134105E-19
   3.07200003         2.63091334E-19
   3.07999992         6.62757321E-19
   3.08800006         1.00202002E-18
   3.09599996         1.24099953E-18
   3.10400009         1.35062392E-18
   3.11199999         1.31603856E-18
   3.11999989         1.13822513E-18
   3.12800002         8.33827888E-19
   3.13599992         4.33423616E-19
   3.14400005        -2.15051385E-20
   3.15199995        -4.82671468E-19
   3.16000009        -8.99962270E-19
   3.16799998        -1.22694718E-18
   3.17600012        -1.42632862E-18
   3.18400002        -1.47456370E-18
   3.19199991        -1.36490385E-18
   3.20000005        -1.10837353E-18
   3.20799994        -7.32594733E-19
   3.21600008        -2.78700232E-19
   3.22399998         2.03236726E-19
   3.23200011         6.59766391E-19
   3.24000001         1.04008077E-18
   3.24799991         1.30184859E-18
   3.25600004         1.41614303E-18
   3.26399994         1.37076680E-18
   3.27200007         1.17151905E-18
   3.27999997         8.41310460E-19
   3.28800011         4.17391201E-19
   3.29600000        -5.28583243E-20
   3.30399990        -5.17097639E-19
   3.31200004        -9.23701837E-19
   3.31999993        -1.22744152E-18
   3.32800007        -1.39454607E-18
   3.33599997        -1.40646150E-18
   3.34400010        -1.26174439E-18
   3.35200000        -9.75872738E-19
   3.35999990        -5.79174649E-19
   3.36800003        -1.13358860E-19
   3.37599993         3.72838349E-19
   3.38400006         8.28496605E-19
   3.39199996         1.20556570E-18
   3.40000010         1.46380559E-18
   3.40799999         1.57511670E-18
   3.41599989         1.52665033E-18
   3.42400002         1.32218679E-18
   3.43199992         9.81588039E-19
   3.44000006         5.38526632E-19
   3.44799995         3.69390201E-20
   3.45600009        -4.73319364E-19
   3.46399999        -9.41260089E-19
   3.47199988        -1.31972314E-18
   3.48000002        -1.57019694E-18
   3.48799992        -1.66702826E-18
   3.49600005        -1.60043970E-18
   3.50399995        -1.37783609E-18
   3.51200008        -1.02314849E-18
   3.51999998        -5.74311137E-19
   3.52800012        -7.92526527E-20
   3.53600001         4.09083258E-19
   3.54399991         8.38178754E-19
   3.55200005         1.16138681E-18
   3.55999994         1.34294447E-18
   3.56800008         1.36209060E-18
   3.57599998         1.21577724E-18
   3.58400011         9.19508651E-19
   3.59200001         5.06011403E-19
   3.59999990         2.17552831E-20
   3.60800004        -4.78272883E-19
   3.61599994        -9.36811822E-19
   3.62400007        -1.30070987E-18
   3.63199997        -1.52665436E-18
   3.64000010        -1.58569551E-18
   3.64800000        -1.46627328E-18
   3.65599990        -1.17559157E-18
   3.66400003        -7.39183640E-19
   3.67199993        -1.98504981E-19
   3.68000007         3.93462779E-19
   3.68799996         9.78236304E-19
   3.69600010         1.49865264E-18
   3.70400000         1.90536422E-18
   3.71199989         2.16196598E-18
   3.72000003         2.24816606E-18
   3.72799993         2.16097461E-18
   3.73600006         1.91423449E-18
   3.74399996         1.53682444E-18
   3.75200009         1.06964183E-18
