 -0.239999995         0.00000000    
 -0.231999993        -4.36672384E-17
 -0.224000007        -1.20025085E-16
 -0.216000006        -2.17370346E-16
 -0.208000004        -3.41483847E-16
 -0.200000003        -5.04743598E-16
 -0.192000002        -7.16016909E-16
 -0.184000000        -9.93008064E-16
 -0.175999999        -1.37180480E-15
 -0.167999998        -1.89193724E-15
 -0.159999996        -2.58047698E-15
 -0.151999995        -3.46043113E-15
 -0.143999994        -4.56507518E-15
 -0.136000007        -5.93102549E-15
 -0.128000006        -7.58190711E-15
 -0.119999997        -9.52840915E-15
 -0.112000003        -1.17772139E-14
 -0.104000002        -1.43241284E-14
  -9.60000008E-02    -1.71351360E-14
  -8.79999995E-02    -2.01392214E-14
  -7.99999982E-02    -2.32343746E-14
  -7.19999969E-02    -2.62871034E-14
  -6.40000030E-02    -2.91232899E-14
  -5.60000017E-02    -3.15296766E-14
  -4.80000004E-02    -3.32720030E-14
  -3.99999991E-02    -3.41130458E-14
  -3.20000015E-02    -3.38215750E-14
  -2.40000002E-02    -3.21847820E-14
  -1.60000008E-02    -2.90333214E-14
  -8.00000038E-03    -2.42672466E-14
   0.00000000        -1.78698846E-14
   8.00000038E-03    -9.91561840E-15
   1.60000008E-02    -5.81988344E-16
   2.40000002E-02     9.84156231E-15
   3.20000015E-02     2.09632557E-14
   3.99999991E-02     3.23148118E-14
   4.80000004E-02     4.33780412E-14
   5.60000017E-02     5.36096842E-14
   6.40000030E-02     6.24759982E-14
   7.19999969E-02     6.94983079E-14
   7.99999982E-02     7.42923450E-14
   8.79999995E-02     7.65909553E-14
   9.60000008E-02     7.62591081E-14
  0.104000002         7.33087297E-14
  0.112000003         6.79031755E-14
  0.119999997         6.03408179E-14
  0.128000006         5.10258475E-14
  0.136000007         4.04407580E-14
  0.143999994         2.91181975E-14
  0.151999995         1.76032420E-14
  0.159999996         6.41174380E-15
  0.167999998        -4.00001696E-15
  0.175999999        -1.32532365E-14
  0.184000000        -2.10624602E-14
  0.192000002        -2.72497140E-14
  0.200000003        -3.17456565E-14
  0.208000004        -3.45763288E-14
  0.216000006        -3.58476710E-14
  0.224000007        -3.57332267E-14
  0.231999993        -3.44568971E-14
  0.239999995        -3.22677269E-14
  0.247999996        -2.94171832E-14
  0.256000012        -2.61464688E-14
  0.263999999        -2.26774827E-14
  0.272000015        -1.92009494E-14
  0.280000001        -1.58675665E-14
  0.287999988        -1.27889829E-14
  0.296000004        -1.00433137E-14
  0.303999990        -7.67678327E-15
  0.312000006        -5.70397365E-15
  0.319999993        -4.11412754E-15
  0.328000009        -2.88131026E-15
  0.335999995        -1.97006862E-15
  0.344000012        -1.33617340E-15
  0.351999998        -9.29542109E-16
  0.360000014        -7.00796521E-16
  0.368000001        -6.05189053E-16
  0.375999987        -6.01420974E-16
  0.384000003        -6.50783566E-16
  0.391999990        -7.20171287E-16
  0.400000006        -7.84832565E-16
  0.407999992        -8.26740050E-16
  0.416000009        -8.31610277E-16
  0.423999995        -7.89430419E-16
  0.432000011        -6.97230777E-16
  0.439999998        -5.59304220E-16
  0.448000014        -3.84409042E-16
  0.456000000        -1.83872814E-16
  0.463999987         2.79775313E-17
  0.472000003         2.34096190E-16
  0.479999989         4.17617021E-16
  0.488000005         5.64825604E-16
  0.495999992         6.65484670E-16
  0.504000008         7.12001814E-16
  0.512000024         7.00355428E-16
  0.519999981         6.32115436E-16
  0.527999997         5.14511741E-16
  0.536000013         3.58287340E-16
  0.544000030         1.76165476E-16
  0.551999986        -1.69804728E-17
  0.560000002        -2.04532397E-16
  0.568000019        -3.70566803E-16
  0.575999975        -5.02329978E-16
  0.583999991        -5.90588270E-16
  0.592000008        -6.28984908E-16
  0.600000024        -6.14714786E-16
  0.607999980        -5.50093848E-16
  0.615999997        -4.42595520E-16
  0.624000013        -3.02888606E-16
  0.632000029        -1.43097680E-16
  0.639999986         2.33637693E-17
  0.648000002         1.81973713E-16
  0.656000018         3.19049306E-16
  0.663999975         4.24202544E-16
  0.671999991         4.90828329E-16
  0.680000007         5.15062418E-16
  0.688000023         4.95948326E-16
  0.695999980         4.37012594E-16
  0.703999996         3.46206824E-16
  0.712000012         2.33287406E-16
  0.720000029         1.07911905E-16
  0.727999985        -1.96370262E-17
  0.736000001        -1.38118807E-16
  0.744000018        -2.37825623E-16
  0.751999974        -3.12856225E-16
  0.759999990        -3.59935481E-16
  0.768000007        -3.76523086E-16
  0.776000023        -3.62115585E-16
  0.783999979        -3.20417185E-16
  0.791999996        -2.57933788E-16
  0.800000012        -1.80825560E-16
  0.808000028        -9.49427385E-17
  0.815999985        -7.87986314E-18
  0.824000001         7.20523547E-17
  0.832000017         1.39279600E-16
  0.839999974         1.91437612E-16
  0.847999990         2.26688675E-16
  0.856000006         2.43153301E-16
  0.864000022         2.41300152E-16
  0.871999979         2.24323600E-16
  0.879999995         1.95248996E-16
  0.888000011         1.55628196E-16
  0.896000028         1.07754039E-16
  0.903999984         5.59346081E-17
  0.912000000         4.30711870E-18
  0.920000017        -4.49533455E-17
  0.927999973        -9.01037717E-17
  0.935999990        -1.28166130E-16
  0.944000006        -1.56301044E-16
  0.952000022        -1.73708882E-16
  0.959999979        -1.80731460E-16
  0.967999995        -1.77003800E-16
  0.976000011        -1.62048891E-16
  0.984000027        -1.37117257E-16
  0.991999984        -1.04867549E-16
   1.00000000        -6.74252123E-17
   1.00800002        -2.61619245E-17
   1.01600003         1.66540425E-17
   1.02400005         5.74743685E-17
   1.03199995         9.31266668E-17
   1.03999996         1.21708192E-16
   1.04799998         1.41491375E-16
   1.05599999         1.50306592E-16
   1.06400001         1.46928267E-16
   1.07200003         1.32181847E-16
   1.08000004         1.07842038E-16
   1.08800006         7.53325825E-17
   1.09599996         3.65201200E-17
   1.10399997        -5.08592082E-18
   1.11199999        -4.53207063E-17
   1.12000000        -8.12024678E-17
   1.12800002        -1.10763468E-16
   1.13600004        -1.31736387E-16
   1.14400005        -1.41981582E-16
   1.15199995        -1.41113029E-16
   1.15999997        -1.30402655E-16
   1.16799998        -1.11180777E-16
   1.17600000        -8.46258905E-17
   1.18400002        -5.30438667E-17
   1.19200003        -1.98640740E-17
   1.20000005         1.19819304E-17
   1.20799994         4.06531809E-17
   1.21599996         6.43715791E-17
   1.22399998         8.11534127E-17
   1.23199999         8.99831621E-17
   1.24000001         9.12646965E-17
   1.24800003         8.58157865E-17
   1.25600004         7.43728610E-17
   1.26400006         5.83512064E-17
   1.27199996         4.00572105E-17
   1.27999997         2.16064655E-17
   1.28799999         4.23870631E-18
   1.29600000        -1.11170899E-17
   1.30400002        -2.34320945E-17
   1.31200004        -3.21018109E-17
   1.32000005        -3.72199777E-17
   1.32799995        -3.89924537E-17
   1.33599997        -3.74278118E-17
   1.34399998        -3.28414162E-17
   1.35200000        -2.60535605E-17
   1.36000001        -1.77402746E-17
   1.36800003        -8.02851576E-18
   1.37600005         3.03508387E-18
   1.38399994         1.50969412E-17
   1.39199996         2.78454868E-17
   1.39999998         4.12825230E-17
   1.40799999         5.52884279E-17
   1.41600001         6.92281682E-17
   1.42400002         8.22734087E-17
   1.43200004         9.38102158E-17
   1.44000006         1.03219958E-16
   1.44799995         1.09523167E-16
   1.45599997         1.11607351E-16
   1.46399999         1.08701412E-16
   1.47200000         1.00429487E-16
   1.48000002         8.66798792E-17
   1.48800004         6.78432164E-17
   1.49600005         4.50925897E-17
   1.50399995         2.00521485E-17
   1.51199996        -5.79503588E-18
   1.51999998        -3.10791112E-17
   1.52800000        -5.40669204E-17
   1.53600001        -7.27433219E-17
   1.54400003        -8.55179485E-17
   1.55200005        -9.15468643E-17
   1.55999994        -9.04049647E-17
   1.56799996        -8.20316138E-17
   1.57599998        -6.72391297E-17
   1.58399999        -4.77909488E-17
   1.59200001        -2.56686122E-17
   1.60000002        -2.64867120E-18
   1.60800004         1.91992607E-17
   1.61600006         3.72399855E-17
   1.62399995         4.90781842E-17
   1.63199997         5.33360732E-17
   1.63999999         4.93002457E-17
   1.64800000         3.63845881E-17
   1.65600002         1.46341022E-17
   1.66400003        -1.45842398E-17
   1.67200005        -4.90823068E-17
   1.67999995        -8.68124597E-17
   1.68799996        -1.25728184E-16
   1.69599998        -1.63032812E-16
   1.70400000        -1.95458173E-16
   1.71200001        -2.20360081E-16
   1.72000003        -2.36019510E-16
   1.72800004        -2.41085985E-16
   1.73599994        -2.34565790E-16
   1.74399996        -2.16484813E-16
   1.75199997        -1.87951886E-16
   1.75999999        -1.50484548E-16
   1.76800001        -1.05830427E-16
   1.77600002        -5.64714020E-17
   1.78400004        -5.60059384E-18
   1.79200006         4.37091533E-17
   1.79999995         8.89832066E-17
   1.80799997         1.28042146E-16
   1.81599998         1.58906994E-16
   1.82400000         1.80351737E-16
   1.83200002         1.92209021E-16
   1.84000003         1.94951541E-16
   1.84800005         1.89346698E-16
   1.85599995         1.76715637E-16
   1.86399996         1.59134224E-16
   1.87199998         1.39026310E-16
   1.88000000         1.18673975E-16
   1.88800001         1.00192225E-16
   1.89600003         8.55973380E-17
   1.90400004         7.65024276E-17
   1.91199994         7.37515425E-17
   1.91999996         7.74310338E-17
   1.92799997         8.70145962E-17
   1.93599999         1.01249872E-16
   1.94400001         1.18030812E-16
   1.95200002         1.34697350E-16
   1.96000004         1.48569222E-16
   1.96800005         1.57181111E-16
   1.97599995         1.58232319E-16
   1.98399997         1.49723185E-16
   1.99199998         1.30345996E-16
   2.00000000         9.97021770E-17
   2.00799990         5.82236617E-17
   2.01600003         7.17364445E-18
   2.02399993        -5.11674869E-17
   2.03200006        -1.13547612E-16
   2.03999996        -1.76166879E-16
   2.04800010        -2.35034887E-16
   2.05599999        -2.86052317E-16
   2.06399989        -3.25238602E-16
   2.07200003        -3.49282400E-16
   2.07999992        -3.55902863E-16
   2.08800006        -3.43786850E-16
   2.09599996        -3.12645287E-16
   2.10400009        -2.63617061E-16
   2.11199999        -1.99346451E-16
   2.11999989        -1.23410093E-16
   2.12800002        -3.98661351E-17
   2.13599992         4.65919572E-17
   2.14400005         1.30637362E-16
   2.15199995         2.07027359E-16
   2.16000009         2.71254255E-16
   2.16799998         3.19470255E-16
   2.17600012         3.48441297E-16
   2.18400002         3.56207900E-16
   2.19199991         3.42613180E-16
   2.20000005         3.08877579E-16
   2.20799994         2.57052980E-16
   2.21600008         1.90305102E-16
   2.22399998         1.13230319E-16
   2.23200011         3.11502190E-17
   2.24000001        -5.08627072E-17
   2.24799991        -1.28013400E-16
   2.25600004        -1.95465585E-16
   2.26399994        -2.48930251E-16
   2.27200007        -2.85640765E-16
   2.27999997        -3.04346747E-16
   2.28800011        -3.04660255E-16
   2.29600000        -2.87131067E-16
   2.30399990        -2.53861465E-16
   2.31200004        -2.08265139E-16
   2.31999993        -1.54021626E-16
   2.32800007        -9.46837847E-17
   2.33599997        -3.41518258E-17
   2.34400010         2.33688582E-17
   2.35200000         7.43440222E-17
   2.35999990         1.16508813E-16
   2.36800003         1.48409159E-16
   2.37599993         1.68993251E-16
   2.38400006         1.78078142E-16
   2.39199996         1.76774400E-16
   2.40000010         1.66932909E-16
   2.40799999         1.50361887E-16
   2.41599989         1.28883236E-16
   2.42400002         1.04728001E-16
   2.43199992         8.01818196E-17
   2.44000006         5.68063705E-17
   2.44799995         3.53821809E-17
   2.45600009         1.64795306E-17
   2.46399999         5.49057158E-19
   2.47199988        -1.25476334E-17
   2.48000002        -2.35165645E-17
   2.48799992        -3.29393577E-17
   2.49600005        -4.09908327E-17
   2.50399995        -4.79431832E-17
   2.51200008        -5.44308401E-17
   2.51999998        -6.09175706E-17
   2.52800012        -6.72778285E-17
   2.53600001        -7.31760101E-17
   2.54399991        -7.84588818E-17
   2.55200005        -8.28106592E-17
   2.55999994        -8.53726956E-17
   2.56800008        -8.51684415E-17
   2.57599998        -8.17286010E-17
   2.58400011        -7.49621114E-17
   2.59200001        -6.46929751E-17
   2.59999990        -5.08246602E-17
   2.60800004        -3.38454116E-17
   2.61599994        -1.47141203E-17
   2.62400007         5.70588318E-18
   2.63199997         2.67047386E-17
   2.64000010         4.73046030E-17
   2.64800000         6.62745643E-17
   2.65599990         8.26591858E-17
   2.66400003         9.59423301E-17
   2.67199993         1.05645165E-16
   2.68000007         1.11156345E-16
   2.68799996         1.12098114E-16
   2.69600010         1.08548285E-16
   2.70400000         1.00767771E-16
   2.71199989         8.90065927E-17
   2.72000003         7.37462817E-17
   2.72799993         5.58709020E-17
   2.73600006         3.63714558E-17
   2.74399996         1.60034385E-17
   2.75200009        -4.66028925E-18
   2.75999999        -2.50283810E-17
   2.76799989        -4.45059433E-17
   2.77600002        -6.25955495E-17
   2.78399992        -7.88628834E-17
   2.79200006        -9.28845345E-17
   2.79999995        -1.04287980E-16
   2.80800009        -1.12732250E-16
   2.81599998        -1.17796912E-16
   2.82399988        -1.19002412E-16
   2.83200002        -1.15985677E-16
   2.83999991        -1.08567177E-16
   2.84800005        -9.66619970E-17
   2.85599995        -8.02807372E-17
   2.86400008        -5.96509255E-17
   2.87199998        -3.52366599E-17
   2.88000011        -7.68323982E-18
   2.88800001         2.20807593E-17
   2.89599991         5.26902536E-17
   2.90400004         8.24658109E-17
   2.91199994         1.09716760E-16
   2.92000008         1.32836471E-16
   2.92799997         1.50232516E-16
   2.93600011         1.60471080E-16
   2.94400001         1.62583316E-16
   2.95199990         1.56118469E-16
   2.96000004         1.40985855E-16
   2.96799994         1.17538831E-16
   2.97600007         8.68725792E-17
   2.98399997         5.07948519E-17
   2.99200010         1.13925361E-17
   3.00000000        -2.92351767E-17
   3.00799990        -6.88479232E-17
   3.01600003        -1.05030861E-16
   3.02399993        -1.35556241E-16
   3.03200006        -1.58714995E-16
   3.03999996        -1.73267869E-16
   3.04800010        -1.78377555E-16
   3.05599999        -1.73883317E-16
   3.06399989        -1.60525330E-16
   3.07200003        -1.39621668E-16
   3.07999992        -1.12551806E-16
   3.08800006        -8.07443620E-17
   3.09599996        -4.60233135E-17
   3.10400009        -1.05490013E-17
   3.11199999         2.37045578E-17
   3.11999989         5.51872240E-17
   3.12800002         8.25076927E-17
   3.13599992         1.04359614E-16
   3.14400005         1.19936662E-16
   3.15199995         1.29137955E-16
   3.16000009         1.32156516E-16
   3.16799998         1.29154697E-16
   3.17600012         1.20581294E-16
   3.18400002         1.07475412E-16
   3.19199991         9.10768405E-17
   3.20000005         7.23255030E-17
   3.20799994         5.20378992E-17
   3.21600008         3.12861678E-17
   3.22399998         1.11426150E-17
   3.23200011        -7.80636566E-18
   3.24000001        -2.52806032E-17
   3.24799991        -4.07900660E-17
   3.25600004        -5.37544678E-17
   3.26399994        -6.40452663E-17
   3.27200007        -7.19236520E-17
   3.27999997        -7.74357190E-17
   3.28800011        -8.03043747E-17
   3.29600000        -8.04397279E-17
   3.30399990        -7.81000773E-17
   3.31200004        -7.34421108E-17
   3.31999993        -6.63274179E-17
   3.32800007        -5.67467473E-17
   3.33599997        -4.50942044E-17
   3.34400010        -3.18357565E-17
   3.35200000        -1.72237185E-17
   3.35999990        -1.58740116E-18
   3.36800003         1.43344924E-17
   3.37599993         2.96316775E-17
   3.38400006         4.36485574E-17
   3.39199996         5.59282819E-17
   3.40000010         6.58720450E-17
   3.40799999         7.27893991E-17
   3.41599989         7.63156171E-17
   3.42400002         7.65398426E-17
   3.43199992         7.36839784E-17
   3.44000006         6.79067770E-17
   3.44799995         5.95319769E-17
   3.45600009         4.92291479E-17
   3.46399999         3.77514644E-17
   3.47199988         2.56014749E-17
   3.48000002         1.31045733E-17
   3.48799992         6.54036976E-19
   3.49600005        -1.13629114E-17
   3.50399995        -2.28138861E-17
   3.51200008        -3.37534986E-17
   3.51999998        -4.41099686E-17
   3.52800012        -5.36241967E-17
   3.53600001        -6.20666171E-17
   3.54399991        -6.92823121E-17
   3.55200005        -7.49875621E-17
   3.55999994        -7.87180607E-17
   3.56800008        -8.00356204E-17
   3.57599998        -7.86370698E-17
   3.58400011        -7.42403930E-17
   3.59200001        -6.65632834E-17
   3.59999990        -5.55261464E-17
   3.60800004        -4.13842464E-17
   3.61599994        -2.46157651E-17
   3.62400007        -5.79753975E-18
   3.63199997         1.43471284E-17
   3.64000010         3.48936712E-17
   3.64800000         5.48261001E-17
   3.65599990         7.31914618E-17
   3.66400003         8.91242508E-17
   3.67199993         1.01797459E-16
   3.68000007         1.10462195E-16
   3.68799996         1.14584857E-16
   3.69600010         1.13939193E-16
   3.70400000         1.08559726E-16
   3.71199989         9.86306737E-17
   3.72000003         8.44572383E-17
   3.72799993         6.65388783E-17
   3.73600006         4.56026326E-17
   3.74399996         2.25107162E-17
   3.75200009        -1.83873193E-18
