 -0.239999995         0.00000000    
 -0.231999993         0.00000000    
 -0.224000007         0.00000000    
 -0.216000006         0.00000000    
 -0.208000004         0.00000000    
 -0.200000003         0.00000000    
 -0.192000002         3.66773082E-26
 -0.184000000         2.03277105E-25
 -0.175999999         1.19497846E-25
 -0.167999998        -1.65853252E-24
 -0.159999996        -4.96967895E-24
 -0.151999995        -3.04314907E-24
 -0.143999994         1.23964088E-23
 -0.136000007         3.26840724E-23
 -0.128000006         3.01789278E-23
 -0.119999997        -8.68183551E-24
 -0.112000003        -6.54906076E-23
 -0.104000002        -1.24663739E-22
  -9.60000008E-02    -1.69705312E-22
  -8.79999995E-02    -8.50639821E-23
  -7.99999982E-02     3.03377249E-22
  -7.19999969E-02     8.48213134E-22
  -6.40000030E-02     8.44222987E-22
  -5.60000017E-02    -2.94438382E-22
  -4.80000004E-02    -1.88993625E-21
  -3.99999991E-02    -2.17022001E-21
  -3.20000015E-02    -3.16586391E-22
  -2.40000002E-02     2.04345034E-21
  -1.60000008E-02     2.49279339E-21
  -8.00000038E-03     9.96242416E-22
   0.00000000        -1.86026556E-24
   8.00000038E-03     6.47288115E-22
   1.60000008E-02     5.37207006E-22
   2.40000002E-02    -2.74955724E-21
   3.20000015E-02    -6.58290446E-21
   3.99999991E-02    -4.95006891E-21
   4.80000004E-02     3.30939938E-21
   5.60000017E-02     1.04641167E-20
   6.40000030E-02     7.61364582E-21
   7.19999969E-02    -3.69359246E-21
   7.99999982E-02    -1.12226510E-20
   8.79999995E-02    -5.65671703E-21
   9.60000008E-02     7.67884203E-21
  0.104000002         1.40087221E-20
  0.112000003         5.91400816E-21
  0.119999997        -8.16436231E-21
  0.128000006        -1.38559554E-20
  0.136000007        -7.37629991E-21
  0.143999994         7.11711268E-22
  0.151999995        -1.17708235E-21
  0.159999996        -1.04879118E-20
  0.167999998        -1.15269711E-20
  0.175999999         6.48406405E-21
  0.184000000         3.33925996E-20
  0.192000002         4.42273085E-20
  0.200000003         2.44573445E-20
  0.208000004        -1.27945187E-20
  0.216000006        -3.92567576E-20
  0.224000007        -4.12647320E-20
  0.231999993        -3.18861033E-20
  0.239999995        -3.07830224E-20
  0.247999996        -3.70009714E-20
  0.256000012        -2.89593994E-20
  0.263999999         7.32420369E-21
  0.272000015         5.53991808E-20
  0.280000001         8.05509838E-20
  0.287999988         6.92553349E-20
  0.296000004         5.60772685E-20
  0.303999990         1.04482314E-19
  0.312000006         2.53182201E-19
  0.319999993         4.83203345E-19
  0.328000009         7.49100760E-19
  0.335999995         1.04811259E-18
  0.344000012         1.44957540E-18
  0.351999998         2.04710182E-18
  0.360000014         2.89064986E-18
  0.368000001         3.98512830E-18
  0.375999987         5.36072387E-18
  0.384000003         7.12725203E-18
  0.391999990         9.43978598E-18
  0.400000006         1.24081203E-17
  0.407999992         1.60488242E-17
  0.416000009         2.03281819E-17
  0.423999995         2.52397372E-17
  0.432000011         3.08216264E-17
  0.439999998         3.70882144E-17
  0.448000014         4.39494724E-17
  0.456000000         5.12084058E-17
  0.463999987         5.86389660E-17
  0.472000003         6.60524101E-17
  0.479999989         7.32731873E-17
  0.488000005         8.00563595E-17
  0.495999992         8.60567012E-17
  0.504000008         9.09066795E-17
  0.512000024         9.43328153E-17
  0.519999981         9.61883534E-17
  0.527999997         9.63701280E-17
  0.536000013         9.47207762E-17
  0.544000030         9.10410004E-17
  0.551999986         8.52137247E-17
  0.560000002         7.73091405E-17
  0.568000019         6.75544642E-17
  0.575999975         5.62070020E-17
  0.583999991         4.34818507E-17
  0.592000008         2.96171919E-17
  0.600000024         1.49950540E-17
  0.607999980         1.76046911E-19
  0.615999997        -1.41869333E-17
  0.624000013        -2.74645966E-17
  0.632000029        -3.91050991E-17
  0.639999986        -4.86307588E-17
  0.648000002        -5.56492176E-17
  0.656000018        -5.99324581E-17
  0.663999975        -6.15505094E-17
  0.671999991        -6.09859619E-17
  0.680000007        -5.91498790E-17
  0.688000023        -5.73031288E-17
  0.695999980        -5.69894222E-17
  0.703999996        -6.00569124E-17
  0.712000012        -6.86734874E-17
  0.720000029        -8.51603881E-17
  0.727999985        -1.11650920E-16
  0.736000001        -1.49807279E-16
  0.744000018        -2.00749892E-16
  0.751999974        -2.65049368E-16
  0.759999990        -3.42553094E-16
  0.768000007        -4.32095382E-16
  0.776000023        -5.31346574E-16
  0.783999979        -6.36883438E-16
  0.791999996        -7.44307915E-16
  0.800000012        -8.48320490E-16
  0.808000028        -9.42883513E-16
  0.815999985        -1.02156980E-15
  0.824000001        -1.07795901E-15
  0.832000017        -1.10594254E-15
  0.839999974        -1.10004508E-15
  0.847999990        -1.05588840E-15
  0.856000006        -9.70671805E-16
  0.864000022        -8.43440363E-16
  0.871999979        -6.75181450E-16
  0.879999995        -4.68956827E-16
  0.888000011        -2.30045255E-16
  0.896000028         3.41726277E-17
  0.903999984         3.14674063E-16
  0.912000000         6.01338335E-16
  0.920000017         8.83345885E-16
  0.927999973         1.14955098E-15
  0.935999990         1.38906034E-15
  0.944000006         1.59197450E-15
  0.952000022         1.75001867E-15
  0.959999979         1.85692704E-15
  0.967999995         1.90869684E-15
  0.976000011         1.90383445E-15
  0.984000027         1.84350622E-15
  0.991999984         1.73144080E-15
   1.00000000         1.57358382E-15
   1.00800002         1.37766912E-15
   1.01600003         1.15280136E-15
   1.02400005         9.08982184E-16
   1.03199995         6.56506809E-16
   1.03999996         4.05317203E-16
   1.04799998         1.64464946E-16
   1.05599999        -5.82793078E-17
   1.06400001        -2.56745348E-16
   1.07200003        -4.26610764E-16
   1.08000004        -5.65466384E-16
   1.08800006        -6.72662851E-16
   1.09599996        -7.49059770E-16
   1.10399997        -7.96784729E-16
   1.11199999        -8.18953382E-16
   1.12000000        -8.19274142E-16
   1.12800002        -8.01610117E-16
   1.13600004        -7.69643253E-16
   1.14400005        -7.26667924E-16
   1.15199995        -6.75431378E-16
   1.15999997        -6.18001220E-16
   1.16799998        -5.55752716E-16
   1.17600000        -4.89531045E-16
   1.18400002        -4.19913884E-16
   1.19200003        -3.47453656E-16
   1.20000005        -2.72841515E-16
   1.20799994        -1.97015152E-16
   1.21599996        -1.21244614E-16
   1.22399998        -4.72032403E-17
   1.23199999         2.30122871E-17
   1.24000001         8.69691608E-17
   1.24800003         1.42114275E-16
   1.25600004         1.86064803E-16
   1.26400006         2.16883474E-16
   1.27199996         2.33290900E-16
   1.27999997         2.34823738E-16
   1.28799999         2.21944920E-16
   1.29600000         1.96067719E-16
   1.30400002         1.59456586E-16
   1.31200004         1.15027974E-16
   1.32000005         6.61208543E-17
   1.32799995         1.62713325E-17
   1.33599997        -3.10443365E-17
   1.34399998        -7.27317215E-17
   1.35200000        -1.06407647E-16
   1.36000001        -1.30615114E-16
   1.36800003        -1.44861057E-16
   1.37600005        -1.49530591E-16
   1.38399994        -1.45761241E-16
   1.39199996        -1.35284450E-16
   1.39999998        -1.20190111E-16
   1.40799999        -1.02620106E-16
   1.41600001        -8.44758598E-17
   1.42400002        -6.72191980E-17
   1.43200004        -5.17703063E-17
   1.44000006        -3.84656720E-17
   1.44799995        -2.70742600E-17
   1.45599997        -1.69100136E-17
   1.46399999        -7.04461917E-18
   1.47200000         3.45271805E-18
   1.48000002         1.53313427E-17
   1.48800004         2.90309293E-17
   1.49600005         4.45572848E-17
   1.50399995         6.13847622E-17
   1.51199996         7.84916183E-17
   1.51999998         9.45550357E-17
   1.52800000         1.08167848E-16
   1.53600001         1.17948610E-16
   1.54400003         1.22615007E-16
   1.55200005         1.21167004E-16
   1.55999994         1.13133889E-16
   1.56799996         9.86744547E-17
   1.57599998         7.84697807E-17
   1.58399999         5.35926712E-17
   1.59200001         2.54901893E-17
   1.60000002        -4.04505878E-18
   1.60800004        -3.30782744E-17
   1.61600006        -5.98211394E-17
   1.62399995        -8.27812181E-17
   1.63199997        -1.00750665E-16
   1.63999999        -1.12826827E-16
   1.64800000        -1.18548468E-16
   1.65600002        -1.17989506E-16
   1.66400003        -1.11669872E-16
   1.67200005        -1.00382953E-16
   1.67999995        -8.51167262E-17
   1.68799996        -6.70499436E-17
   1.69599998        -4.74622140E-17
   1.70400000        -2.75379791E-17
   1.71200001        -8.23518270E-18
   1.72000003         9.68667623E-18
   1.72800004         2.56131762E-17
   1.73599994         3.91427788E-17
   1.74399996         5.01930218E-17
   1.75199997         5.89596474E-17
   1.75999999         6.57372741E-17
   1.76800001         7.07957417E-17
   1.77600002         7.43947052E-17
   1.78400004         7.68028199E-17
   1.79200006         7.82062807E-17
   1.79999995         7.85875448E-17
   1.80799997         7.77034277E-17
   1.81599998         7.51489418E-17
   1.82400000         7.04170716E-17
   1.83200002         6.29514026E-17
   1.84000003         5.22495847E-17
   1.84800005         3.80054088E-17
   1.85599995         2.02160576E-17
   1.86399996        -7.71403979E-19
   1.87199998        -2.42410126E-17
   1.88000000        -4.91060171E-17
   1.88800001        -7.39547510E-17
   1.89600003        -9.71616869E-17
   1.90400004        -1.17046057E-16
   1.91199994        -1.32048453E-16
   1.91999996        -1.40892813E-16
   1.92799997        -1.42705795E-16
   1.93599999        -1.37092971E-16
   1.94400001        -1.24189972E-16
   1.95200002        -1.04677840E-16
   1.96000004        -7.97228072E-17
   1.96800005        -5.08399895E-17
   1.97599995        -1.97416745E-17
   1.98399997         1.17831076E-17
   1.99199998         4.19770007E-17
   2.00000000         6.92415752E-17
   2.00799990         9.22586367E-17
   2.01600003         1.10052609E-16
   2.02399993         1.21984550E-16
   2.03200006         1.27718407E-16
   2.03999996         1.27196555E-16
   2.04800010         1.20622230E-16
   2.05599999         1.08425941E-16
   2.06399989         9.12103342E-17
   2.07200003         6.96988737E-17
   2.07999992         4.47180324E-17
   2.08800006         1.72123663E-17
   2.09599996        -1.17380494E-17
   2.10400009        -4.09214190E-17
   2.11199999        -6.90190900E-17
   2.11999989        -9.46470182E-17
   2.12800002        -1.16418630E-16
   2.13599992        -1.33028377E-16
   2.14400005        -1.43343478E-16
   2.15199995        -1.46497630E-16
   2.16000009        -1.41992858E-16
   2.16799998        -1.29806171E-16
   2.17600012        -1.10468766E-16
   2.18400002        -8.50754598E-17
   2.19199991        -5.52043036E-17
   2.20000005        -2.27714766E-17
   2.20799994         1.01264567E-17
   2.21600008         4.13587659E-17
   2.22399998         6.89253208E-17
   2.23200011         9.11631319E-17
   2.24000001         1.06935038E-16
   2.24799991         1.15706951E-16
   2.25600004         1.17514903E-16
   2.26399994         1.12918399E-16
   2.27200007         1.02975245E-16
   2.27999997         8.91520375E-17
   2.28800011         7.31126216E-17
   2.29600000         5.64754254E-17
   2.30399990         4.06592259E-17
   2.31200004         2.68039308E-17
   2.31999993         1.56842560E-17
   2.32800007         7.62967491E-18
   2.33599997         2.53758891E-18
   2.34400010        -2.00208114E-20
   2.35200000        -6.93623359E-19
   2.35999990        -2.96857777E-19
   2.36800003         2.77646714E-19
   2.37599993         2.11539111E-19
   2.38400006        -1.08651280E-18
   2.39199996        -3.91837193E-18
   2.40000010        -8.31636883E-18
   2.40799999        -1.40717914E-17
   2.41599989        -2.07443431E-17
   2.42400002        -2.76961162E-17
   2.43199992        -3.41854921E-17
   2.44000006        -3.94864128E-17
   2.44799995        -4.29664907E-17
   2.45600009        -4.41099124E-17
   2.46399999        -4.25410552E-17
   2.47199988        -3.80919220E-17
   2.48000002        -3.08697088E-17
   2.48799992        -2.12449082E-17
   2.49600005        -9.76273218E-18
   2.50399995         2.92773712E-18
   2.51200008         1.60695832E-17
   2.51999998         2.87808660E-17
   2.52800012         4.01119202E-17
   2.53600001         4.91606474E-17
   2.54399991         5.51515163E-17
   2.55200005         5.74444444E-17
   2.55999994         5.55421341E-17
   2.56800008         4.91571336E-17
   2.57599998         3.83009207E-17
   2.58400011         2.33126579E-17
   2.59200001         4.81368576E-18
   2.59999990        -1.63489055E-17
   2.60800004        -3.91238993E-17
   2.61599994        -6.22722675E-17
   2.62400007        -8.44274068E-17
   2.63199997        -1.04193033E-16
   2.64000010        -1.20234302E-16
   2.64800000        -1.31350855E-16
   2.65599990        -1.36561021E-16
   2.66400003        -1.35201387E-16
   2.67199993        -1.27000388E-16
   2.68000007        -1.12098709E-16
   2.68799996        -9.10415827E-17
   2.69600010        -6.47699691E-17
   2.70400000        -3.45893481E-17
   2.71199989        -2.08397340E-18
   2.72000003         3.10096082E-17
   2.72799993         6.29285857E-17
   2.73600006         9.19977704E-17
   2.74399996         1.16747358E-16
   2.75200009         1.36032565E-16
   2.75999999         1.49126741E-16
   2.76799989         1.55763483E-16
   2.77600002         1.56121791E-16
   2.78399992         1.50762746E-16
   2.79200006         1.40541454E-16
   2.79999995         1.26521179E-16
   2.80800009         1.09886319E-16
   2.81599998         9.18271131E-17
   2.82399988         7.34026642E-17
   2.83200002         5.54391137E-17
   2.83999991         3.85014558E-17
   2.84800005         2.29053425E-17
   2.85599995         8.72003545E-18
   2.86400008        -4.22275496E-18
   2.87199998        -1.62614146E-17
   2.88000011        -2.77776448E-17
   2.88800001        -3.90747548E-17
   2.89599991        -5.03132608E-17
   2.90400004        -6.14925207E-17
   2.91199994        -7.24390451E-17
   2.92000008        -8.27916274E-17
   2.92799997        -9.20086098E-17
   2.93600011        -9.94180305E-17
   2.94400001        -1.04299746E-16
   2.95199990        -1.05973093E-16
   2.96000004        -1.03879485E-16
   2.96799994        -9.76621047E-17
   2.97600007        -8.72289286E-17
   2.98399997        -7.27726504E-17
   2.99200010        -5.47496289E-17
   3.00000000        -3.38526677E-17
   3.00799990        -1.09908034E-17
   3.01600003         1.27561780E-17
   3.02399993         3.62261400E-17
   3.03200006         5.82645708E-17
   3.03999996         7.77729241E-17
   3.04800010         9.37397466E-17
   3.05599999         1.05305068E-16
   3.06399989         1.11845923E-16
   3.07200003         1.13020215E-16
   3.07999992         1.08750865E-16
   3.08800006         9.92031621E-17
   3.09599996         8.47978779E-17
   3.10400009         6.62309289E-17
   3.11199999         4.44441231E-17
   3.11999989         2.05430851E-17
   3.12800002        -4.28610872E-18
   3.13599992        -2.88218941E-17
   3.14400005        -5.18346014E-17
   3.15199995        -7.21465938E-17
   3.16000009        -8.87340400E-17
   3.16799998        -1.00819771E-16
   3.17600012        -1.07908331E-16
   3.18400002        -1.09775020E-16
   3.19199991        -1.06456782E-16
   3.20000005        -9.82603747E-17
   3.20799994        -8.57583272E-17
   3.21600008        -6.97491464E-17
   3.22399998        -5.11948732E-17
   3.23200011        -3.11587886E-17
   3.24000001        -1.07414953E-17
   3.24799991         8.99855130E-18
   3.25600004         2.71322719E-17
   3.26399994         4.29207178E-17
   3.27200007         5.58259563E-17
   3.27999997         6.54934941E-17
   3.28800011         7.17505860E-17
   3.29600000         7.46247673E-17
   3.30399990         7.43340365E-17
   3.31200004         7.12186758E-17
   3.31999993         6.56625235E-17
   3.32800007         5.80688400E-17
   3.33599997         4.88748433E-17
   3.34400010         3.85303277E-17
   3.35200000         2.74284919E-17
   3.35999990         1.58664491E-17
   3.36800003         4.08398466E-18
   3.37599993        -7.67630722E-18
   3.38400006        -1.91622857E-17
   3.39199996        -3.01409858E-17
   3.40000010        -4.03914014E-17
   3.40799999        -4.96547026E-17
   3.41599989        -5.76086497E-17
   3.42400002        -6.39013832E-17
   3.43199992        -6.81997842E-17
   3.44000006        -7.02037847E-17
   3.44799995        -6.96481245E-17
   3.45600009        -6.63409770E-17
   3.46399999        -6.02330158E-17
   3.47199988        -5.14595015E-17
   3.48000002        -4.03297235E-17
   3.48799992        -2.73001333E-17
   3.49600005        -1.29650511E-17
   3.50399995         1.95545228E-18
   3.51200008         1.66647181E-17
   3.51999998         3.03648143E-17
   3.52800012         4.23203171E-17
   3.53600001         5.19036809E-17
   3.54399991         5.86434857E-17
   3.55200005         6.22750799E-17
   3.55999994         6.27668090E-17
   3.56800008         6.03127560E-17
   3.57599998         5.53105302E-17
   3.58400011         4.83288214E-17
   3.59200001         4.00472148E-17
   3.59999990         3.11694691E-17
   3.60800004         2.23457449E-17
   3.61599994         1.41282316E-17
   3.62400007         6.94271300E-18
   3.63199997         1.05263024E-18
   3.64000010        -3.47042716E-18
   3.64800000        -6.73749941E-18
   3.65599990        -8.99249054E-18
   3.66400003        -1.05544590E-17
   3.67199993        -1.17757639E-17
   3.68000007        -1.30048939E-17
   3.68799996        -1.45324649E-17
   3.69600010        -1.65277734E-17
   3.70400000        -1.90024149E-17
   3.71199989        -2.18244772E-17
   3.72000003        -2.47625251E-17
   3.72799993        -2.75184163E-17
   3.73600006        -2.97399587E-17
   3.74399996        -3.10442571E-17
   3.75200009        -3.10735393E-17
   3.75999999        -2.95614995E-17
   3.76799989        -2.63738515E-17
   3.77600002        -2.15176908E-17
   3.78399992        -1.51402011E-17
   3.79200006        -7.52590842E-18
   3.79999995         9.16391938E-19
   3.80800009         9.68254281E-18
   3.81599998         1.82144096E-17
   3.82399988         2.59530233E-17
   3.83200002         3.23989209E-17
   3.83999991         3.71588523E-17
   3.84800005         3.99618597E-17
   3.85599995         4.06598612E-17
   3.86400008         3.92411439E-17
   3.87199998         3.58516489E-17
   3.88000011         3.07886451E-17
   3.88800001         2.44544914E-17
   3.89599991         1.73007588E-17
   3.90400004         9.79049567E-18
   3.91199994         2.36975520E-18
   3.92000008        -4.57103977E-18
   3.92799997        -1.07395415E-17
   3.93600011        -1.59657356E-17
   3.94400001        -2.02005678E-17
   3.95199990        -2.34980572E-17
   3.96000004        -2.59899222E-17
   3.96799994        -2.78565380E-17
   3.97600007        -2.92950150E-17
   3.98399997        -3.04803019E-17
   3.99200010        -3.15168089E-17
   4.00000000        -3.23949901E-17
   4.00799990        -3.29792642E-17
   4.01599979        -3.30351948E-17
   4.02400017        -3.22723226E-17
   4.03200006        -3.03777646E-17
   4.03999996        -2.70445097E-17
   4.04799986        -2.20147850E-17
   4.05600023        -1.51405965E-17
   4.06400013        -6.43908656E-18
   4.07200003         3.87835955E-18
   4.07999992         1.54053224E-17
   4.08799982         2.75587265E-17
   4.09600019         3.96109201E-17
   4.10400009         5.07372074E-17
   4.11199999         6.00828197E-17
   4.11999989         6.68473571E-17
   4.12799978         7.03723178E-17
   4.13600016         7.02080464E-17
   4.14400005         6.61474763E-17
   4.15199995         5.82395105E-17
   4.15999985         4.68027327E-17
   4.16800022         3.24331728E-17
   4.17600012         1.59743813E-17
   4.18400002        -1.56346328E-18
   4.19199991        -1.91052913E-17
   4.19999981        -3.55956398E-17
   4.20800018        -5.00630022E-17
   4.21600008        -6.16825340E-17
   4.22399998        -6.98351533E-17
   4.23199987        -7.41428850E-17
   4.23999977        -7.44772380E-17
   4.24800014        -7.09562941E-17
   4.25600004        -6.39310095E-17
   4.26399994        -5.39455399E-17
   4.27199984        -4.16763239E-17
   4.28000021        -2.78773101E-17
   4.28800011        -1.33400311E-17
   4.29600000         1.15292041E-18
   4.30399990         1.48884139E-17
   4.31199980         2.72675473E-17
   4.32000017         3.78121993E-17
   4.32800007         4.61567841E-17
   4.33599997         5.20592173E-17
   4.34399986         5.54206577E-17
   4.35200024         5.62755058E-17
   4.36000013         5.47476966E-17
   4.36800003         5.10139125E-17
   4.37599993         4.52997786E-17
   4.38399982         3.78865496E-17
   4.39200020         2.90974975E-17
   4.40000010         1.92745060E-17
   4.40799999         8.77606783E-18
   4.41599989        -2.00675051E-18
   4.42399979        -1.26515289E-17
   4.43200016        -2.27340003E-17
   4.44000006        -3.18560787E-17
   4.44799995        -3.96528813E-17
   4.45599985        -4.57999913E-17
   4.46400023        -5.00397684E-17
   4.47200012        -5.22033188E-17
   4.48000002        -5.22013832E-17
   4.48799992        -5.00072271E-17
   4.49599981        -4.56724897E-17
   4.50400019        -3.93644599E-17
   4.51200008        -3.13711159E-17
   4.51999998        -2.20595636E-17
   4.52799988        -1.18341852E-17
   4.53599977        -1.12995974E-18
   4.54400015         9.58379481E-18
   4.55200005         1.98287551E-17
   4.55999994         2.91661369E-17
   4.56799984         3.72325938E-17
   4.57600021         4.37508730E-17
   4.58400011         4.85326916E-17
   4.59200001         5.14848364E-17
   4.59999990         5.26090443E-17
   4.60799980         5.19873784E-17
   4.61600018         4.97590332E-17
   4.62400007         4.60964230E-17
   4.63199997         4.11804820E-17
   4.63999987         3.51774834E-17
   4.64799976         2.82279288E-17
   4.65600014         2.04529969E-17
   4.66400003         1.19675937E-17
   4.67199993         2.88625112E-18
   4.67999983        -6.67315965E-18
   4.68800020        -1.65701829E-17
   4.69600010        -2.66048036E-17
   4.70400000        -3.64856464E-17
   4.71199989        -4.58255677E-17
   4.71999979        -5.41609576E-17
   4.72800016        -6.09755858E-17
   4.73600006        -6.57240061E-17
   4.74399996        -6.78697854E-17
   4.75199986        -6.69488555E-17
   4.76000023        -6.26449223E-17
   4.76800013        -5.48508924E-17
   4.77600002        -4.37035781E-17
   4.78399992        -2.95977135E-17
   4.79199982        -1.31869729E-17
   4.80000019         4.63475956E-18
   4.80800009         2.27854774E-17
   4.81599998         4.00817314E-17
   4.82399988         5.53442328E-17
   4.83199978         6.75039532E-17
   4.84000015         7.56976669E-17
   4.84800005         7.93443158E-17
   4.85599995         7.81931715E-17
   4.86399984         7.23426554E-17
   4.87200022         6.22378303E-17
   4.88000011         4.86467367E-17
   4.88800001         3.26004883E-17
   4.89599991         1.52905163E-17
   4.90399981        -2.05087067E-18
   4.91200018        -1.82481006E-17
   4.92000008        -3.22513883E-17
   4.92799997        -4.32053110E-17
   4.93599987        -5.05298034E-17
   4.94399977        -5.39808605E-17
   4.95200014        -5.36508452E-17
   4.96000004        -4.99159229E-17
   4.96799994        -4.33753760E-17
   4.97599983        -3.48024199E-17
   4.98400021        -2.50812808E-17
   4.99200010        -1.51123019E-17
   5.00000000        -5.71468066E-18
   5.00799990         2.43331059E-18
   5.01599979         8.82246191E-18
   5.02400017         1.31437320E-17
   5.03200006         1.53217854E-17
   5.03999996         1.55112396E-17
   5.04799986         1.40420543E-17
   5.05600023         1.13542252E-17
   5.06400013         7.95782904E-18
   5.07200003         4.40107318E-18
   5.07999992         1.21465610E-18
   5.08799982        -1.15444232E-18
   5.09600019        -2.38084294E-18
   5.10400009        -2.26779506E-18
   5.11199999        -7.55888500E-19
   5.11999989         2.05814117E-18
   5.12799978         5.92236420E-18
   5.13600016         1.04655511E-17
   5.14400005         1.52415936E-17
   5.15199995         1.97586069E-17
   5.15999985         2.35087394E-17
   5.16800022         2.60213303E-17
   5.17600012         2.69228909E-17
   5.18400002         2.59690359E-17
   5.19199991         2.30475580E-17
   5.19999981         1.81833026E-17
   5.20800018         1.15538917E-17
   5.21600008         3.48826490E-18
   5.22399998        -5.57079673E-18
   5.23199987        -1.51163485E-17
   5.23999977        -2.46059068E-17
   5.24800014        -3.34733359E-17
   5.25600004        -4.11546641E-17
   5.26399994        -4.71359872E-17
   5.27199984        -5.09981498E-17
   5.28000021        -5.24384962E-17
   5.28800011        -5.12798378E-17
   5.29600000        -4.74835619E-17
   5.30399990        -4.11629756E-17
   5.31199980        -3.25825914E-17
   5.32000017        -2.21420219E-17
   5.32800007        -1.03525368E-17
   5.33599997         2.19142437E-18
   5.34399986         1.48455114E-17
   5.35200024         2.69458022E-17
   5.36000013         3.78332295E-17
   5.36800003         4.68858644E-17
   5.37599993         5.35699701E-17
   5.38399982         5.74925003E-17
   5.39200020         5.84278430E-17
   5.40000010         5.63206434E-17
   5.40799999         5.12909651E-17
   5.41599989         4.36483258E-17
   5.42399979         3.38874721E-17
   5.43200016         2.26460313E-17
   5.44000006         1.06418341E-17
   5.44799995        -1.37879107E-18
   5.45599985        -1.26770863E-17
   5.46400023        -2.25640147E-17
   5.47200012        -3.04617929E-17
   5.48000002        -3.59676957E-17
   5.48799992        -3.88881197E-17
   5.49599981        -3.92303343E-17
   5.50400019        -3.71724843E-17
   5.51200008        -3.30403928E-17
   5.51999998        -2.72904387E-17
   5.52799988        -2.04720932E-17
   5.53599977        -1.31612170E-17
   5.54400015        -5.89267380E-18
   5.55200005         8.77859177E-19
   5.55999994         6.78844671E-18
   5.56799984         1.15837107E-17
   5.57600021         1.51247841E-17
   5.58400011         1.73786014E-17
   5.59200001         1.83879554E-17
   5.59999990         1.82449822E-17
   5.60799980         1.70799595E-17
   5.61600018         1.50567386E-17
   5.62400007         1.23668018E-17
   5.63199997         9.22389763E-18
   5.63999987         5.85835986E-18
   5.64799976         2.50556875E-18
   5.65600014        -6.07687668E-19
   5.66400003        -3.26846626E-18
   5.67199993        -5.27701485E-18
   5.67999983        -6.45595319E-18
   5.68800020        -6.67447197E-18
   5.69600010        -5.87370903E-18
   5.70400000        -4.08121650E-18
   5.71199989        -1.41866025E-18
   5.71999979         1.89060049E-18
   5.72800016         5.52094586E-18
   5.73600006         9.06327156E-18
   5.74399996         1.20640876E-17
   5.75199986         1.40748487E-17
   5.76000023         1.47025762E-17
   5.76800013         1.36578446E-17
   5.77600002         1.07955838E-17
   5.78399992         6.14281776E-18
   5.79199982        -8.87367114E-20
   5.80000019        -7.50400715E-18
   5.80800009        -1.55427700E-17
   5.81599998        -2.35224921E-17
   5.82399988        -3.07070487E-17
   5.83199978        -3.63871226E-17
   5.84000015        -3.99512189E-17
   5.84800005        -4.09370726E-17
   5.85599995        -3.90691763E-17
   5.86399984        -3.42896275E-17
   5.87200022        -2.67768588E-17
   5.88000011        -1.69384901E-17
   5.88800001        -5.37450387E-18
   5.89599991         7.17552712E-18
   5.90399981         1.98843102E-17
   5.91200018         3.18868432E-17
   5.92000008         4.23409072E-17
   5.92799997         5.05001440E-17
   5.93599987         5.57802496E-17
   5.94399977         5.77969358E-17
   5.95200014         5.63772292E-17
   5.96000004         5.15622141E-17
   5.96799994         4.36071487E-17
   5.97599983         3.29683223E-17
   5.98400021         2.02717302E-17
   5.99200010         6.27400778E-18
   6.00000000        -8.17925289E-18
   6.00799990        -2.22082543E-17
   6.01599979        -3.49685839E-17
   6.02400017        -4.57126774E-17
   6.03200006        -5.38240998E-17
   6.03999996        -5.88394878E-17
   6.04799986        -6.04822354E-17
   6.05600023        -5.86959554E-17
   6.06400013        -5.36428480E-17
   6.07200003        -4.56667093E-17
   6.07999992        -3.52619485E-17
   6.08799982        -2.30689771E-17
   6.09600019        -9.85970670E-18
   6.10400009         3.52617417E-18
   6.11199999         1.62736519E-17
   6.11999989         2.76583074E-17
   6.12799978         3.70701521E-17
   6.13600016         4.40313302E-17
   6.14400005         4.82336096E-17
   6.15199995         4.95737249E-17
   6.15999985         4.81537436E-17
   6.16800022         4.42487431E-17
   6.17600012         3.82679295E-17
   6.18400002         3.07195788E-17
   6.19199991         2.21700435E-17
   6.19999981         1.31940362E-17
   6.20800018         4.32975077E-18
   6.21600008        -3.95164899E-18
   6.22399998        -1.12676475E-17
   6.23199987        -1.73425397E-17