 -0.239999995         0.00000000    
 -0.231999993         0.00000000    
 -0.224000007         0.00000000    
 -0.216000006         0.00000000    
 -0.208000004         0.00000000    
 -0.200000003         0.00000000    
 -0.192000002         7.86993468E-36
 -0.184000000        -6.91169990E-32
 -0.175999999         1.63239490E-32
 -0.167999998         6.34129963E-30
 -0.159999996         2.10271256E-29
 -0.151999995        -2.42677104E-29
 -0.143999994        -2.22429116E-28
 -0.136000007        -2.48858099E-28
 -0.128000006         7.08098189E-28
 -0.119999997         2.07607275E-27
 -0.112000003         2.30650911E-28
 -0.104000002        -6.44887704E-27
  -9.60000008E-02    -8.57915509E-27
  -8.79999995E-02     7.10131046E-27
  -7.99999982E-02     2.90813172E-26
  -7.19999969E-02     1.58637663E-26
  -6.40000030E-02    -4.43914896E-26
  -5.60000017E-02    -7.72200471E-26
  -4.80000004E-02     4.40621802E-27
  -3.99999991E-02     1.39144365E-25
  -3.20000015E-02     1.25637451E-25
  -2.40000002E-02    -1.01945333E-25
  -1.60000008E-02    -2.81965635E-25
  -8.00000038E-03    -1.04339452E-25
   0.00000000         3.01634945E-25
   8.00000038E-03     4.02612764E-25
   1.60000008E-02    -4.77888947E-26
   2.40000002E-02    -5.51335873E-25
   3.20000015E-02    -4.14811167E-25
   3.99999991E-02     2.90220423E-25
   4.80000004E-02     7.08023912E-25
   5.60000017E-02     2.97392056E-25
   6.40000030E-02    -4.18212834E-25
   7.19999969E-02    -5.68255164E-25
   7.99999982E-02    -1.37957770E-25
   8.79999995E-02     1.29838690E-25
   9.60000008E-02    -1.44509888E-26
  0.104000002         6.02625390E-26
  0.112000003         6.65784602E-25
  0.119999997         9.48679490E-25
  0.128000006         1.42382183E-26
  0.136000007        -1.50147337E-24
  0.143999994        -1.90588834E-24
  0.151999995        -4.99019505E-25
  0.159999996         1.57138292E-24
  0.167999998         2.56533445E-24
  0.175999999         1.67861830E-24
  0.184000000        -5.76680396E-25
  0.192000002        -2.71533497E-24
  0.200000003        -3.00277655E-24
  0.208000004        -8.40963196E-25
  0.216000006         2.17685338E-24
  0.224000007         3.38120181E-24
  0.231999993         1.72861177E-24
  0.239999995        -1.07535014E-24
  0.247999996        -2.48667081E-24
  0.256000012        -1.67407506E-24
  0.263999999         1.30439013E-25
  0.272000015         1.26208821E-24
  0.280000001         1.06921083E-24
  0.287999988         3.52259181E-26
  0.296000004        -8.96575326E-25
  0.303999990        -9.39481273E-25
  0.312000006         1.62943090E-25
  0.319999993         1.75357981E-24
  0.328000009         2.20128875E-24
  0.335999995         1.68424761E-25
  0.344000012        -3.23281194E-24
  0.351999998        -4.40399547E-24
  0.360000014        -1.05086212E-24
  0.368000001         4.15321540E-24
  0.375999987         5.68779520E-24
  0.384000003         1.65086775E-24
  0.391999990        -3.65209546E-24
  0.400000006        -4.76954060E-24
  0.407999992        -1.38570518E-24
  0.416000009         2.08396146E-24
  0.423999995         2.28214857E-24
  0.432000011         3.84476606E-25
  0.439999998        -4.83037676E-25
  0.448000014         3.03922074E-25
  0.456000000         5.41876444E-25
  0.463999987        -9.60513094E-25
  0.472000003        -2.13676111E-24
  0.479999989        -5.72465118E-25
  0.488000005         2.41595081E-24
  0.495999992         2.98362617E-24
  0.504000008         5.35084352E-27
  0.512000024        -3.14912642E-24
  0.519999981        -3.03665852E-24
  0.527999997        -1.78124792E-25
  0.536000013         2.34862666E-24
  0.544000030         2.70726650E-24
  0.551999986         1.34408014E-24
  0.560000002        -4.69938641E-25
  0.568000019        -1.80455245E-24
  0.575999975        -2.30614019E-24
  0.583999991        -1.90496971E-24
  0.592000008        -3.04751956E-25
  0.600000024         2.59195081E-24
  0.607999980         4.91042090E-24
  0.615999997         3.41419710E-24
  0.624000013        -2.15958128E-24
  0.632000029        -6.77835990E-24
  0.639999986        -5.32197910E-24
  0.648000002         7.58860525E-25
  0.656000018         5.22032017E-24
  0.663999975         4.59820080E-24
  0.671999991         1.02183993E-24
  0.680000007        -2.01962907E-24
  0.688000023        -2.99625149E-24
  0.695999980        -1.75396280E-24
  0.703999996         1.09983618E-24
  0.712000012         3.22646161E-24
  0.720000029         1.92089603E-24
  0.727999985        -2.31435224E-24
  0.736000001        -5.32750901E-24
  0.744000018        -3.51591203E-24
  0.751999974         2.08711770E-24
  0.759999990         6.43149461E-24
  0.768000007         5.49574149E-24
  0.776000023         7.57085588E-25
  0.783999979        -2.60118995E-24
  0.791999996        -2.35115260E-24
  0.800000012        -1.74963038E-24
  0.808000028        -3.46196973E-24
  0.815999985        -4.23303708E-24
  0.824000001         1.65185896E-25
  0.832000017         6.42307076E-24
  0.839999974         6.35950632E-24
  0.847999990        -1.09503360E-24
  0.856000006        -7.30745838E-24
  0.864000022        -4.77456485E-24
  0.871999979         4.13464720E-24
  0.879999995         1.00686419E-23
  0.888000011         6.55463264E-24
  0.896000028        -4.25164473E-24
  0.903999984        -1.27432212E-23
  0.912000000        -9.61796886E-24
  0.920000017         4.08099834E-24
  0.927999973         1.51348171E-23
  0.935999990         1.10951614E-23
  0.944000006        -4.44306657E-24
  0.952000022        -1.51023981E-23
  0.959999979        -1.07012831E-23
  0.967999995         2.47925099E-24
  0.976000011         1.07258041E-23
  0.984000027         8.03550442E-24
  0.991999984        -9.19144439E-25
   1.00000000        -8.19144960E-24
   1.00800002        -8.85346640E-24
   1.01600003        -2.68723515E-24
   1.02400005         6.85102346E-24
   1.03199995         1.35791455E-23
   1.03999996         1.13676623E-23
   1.04799998        -8.09447019E-25
   1.05599999        -1.60258103E-23
   1.06400001        -2.17157946E-23
   1.07200003        -9.82048523E-24
   1.08000004         1.29158113E-23
   1.08800006         2.71281692E-23
   1.09599996         1.89552610E-23
   1.10399997        -4.42521938E-24
   1.11199999        -2.13649660E-23
   1.12000000        -1.86626409E-23
   1.12800002        -3.58496892E-24
   1.13600004         7.51383228E-24
   1.14400005         7.51187433E-24
   1.15199995         2.29540853E-24
   1.15999997         6.86624532E-25
   1.16799998         4.50829590E-24
   1.17600000         7.94333707E-24
   1.18400002         4.93987223E-24
   1.19200003        -3.34289590E-24
   1.20000005        -8.87680564E-24
   1.20799994        -5.63826657E-24
   1.21599996         2.74040497E-24
   1.22399998         6.10558501E-24
   1.23199999        -1.35658201E-24
   1.24000001        -1.44291873E-23
   1.24800003        -2.10103131E-23
   1.25600004        -1.24239029E-23
   1.26400006         7.34439600E-24
   1.27199996         2.27943063E-23
   1.27999997         2.09324809E-23
   1.28799999         5.66361740E-24
   1.29600000        -6.39597693E-24
   1.30400002        -5.50061034E-24
   1.31200004         2.28519120E-24
   1.32000005         7.53940084E-24
   1.32799995         8.97389864E-24
   1.33599997         7.46873626E-24
   1.34399998        -8.08399412E-25
   1.35200000        -1.55007571E-23
   1.36000001        -2.40914145E-23
   1.36800003        -1.51631120E-23
   1.37600005         4.27217405E-24
   1.38399994         1.52564500E-23
   1.39199996         9.40290013E-24
   1.39999998        -3.48898032E-24
   1.40799999        -9.62325896E-24
   1.41600001        -5.60027976E-24
   1.42400002         1.90576488E-24
   1.43200004         5.52215571E-24
   1.44000006         4.16532442E-24
   1.44799995         2.14862991E-24
   1.45599997         2.54315503E-24
   1.46399999         3.59204342E-24
   1.47200000         3.37268960E-24
   1.48000002         4.32742271E-24
   1.48800004         8.24184519E-24
   1.49600005         1.01990422E-23
   1.50399995         4.23597559E-24
   1.51199996        -7.01986730E-24
   1.51999998        -1.54750875E-23
   1.52800000        -1.85130950E-23
   1.53600001        -1.97109330E-23
   1.54400003        -1.97241606E-23
   1.55200005        -1.37981554E-23
   1.55999994         7.86942395E-25
   1.56799996         1.95564393E-23
   1.57599998         3.36660812E-23
   1.58399999         3.57923989E-23
   1.59200001         2.51036745E-23
   1.60000002         8.74084546E-24
   1.60800004        -3.79330432E-24
   1.61600006        -9.13747211E-24
   1.62399995        -1.11111011E-23
   1.63199997        -1.44634334E-23
   1.63999999        -2.16010342E-23
   1.64800000        -3.28429711E-23
   1.65600002        -4.29169867E-23
   1.66400003        -3.92350952E-23
   1.67200005        -1.30691564E-23
   1.67999995         2.65689331E-23
   1.68799996         5.77601998E-23
   1.69599998         6.55278229E-23
   1.70400000         5.16848318E-23
   1.71200001         2.73166817E-23
   1.72000003         3.65036628E-24
   1.72800004        -1.11162863E-23
   1.73599994        -1.57163117E-23
   1.74399996        -1.85734523E-23
   1.75199997        -2.98387489E-23
   1.75999999        -4.82975672E-23
   1.76800001        -6.01074712E-23
   1.77600002        -5.14020882E-23
   1.78400004        -2.03467769E-23
   1.79200006         2.13717518E-23
   1.79999995         5.55448197E-23
   1.80799997         6.79922748E-23
   1.81599998         5.67837036E-23
   1.82400000         3.15694340E-23
   1.83200002         5.07515399E-24
   1.84000003        -1.42374279E-23
   1.84800005        -2.34571829E-23
   1.85599995        -2.41718089E-23
   1.86399996        -2.11891510E-23
   1.87199998        -1.87992243E-23
   1.88000000        -1.66960722E-23
   1.88800001        -1.10272176E-23
   1.89600003         1.29004790E-25
   1.90400004         1.33385714E-23
   1.91199994         2.14630688E-23
   1.91999996         1.90065433E-23
   1.92799997         7.36561636E-24
   1.93599999        -5.24203751E-24
   1.94400001        -1.13879866E-23
   1.95200002        -1.19777074E-23
   1.96000004        -1.36132338E-23
   1.96800005        -1.84237881E-23
   1.97599995        -1.93710286E-23
   1.98399997        -6.80059947E-24
   1.99199998         2.06265543E-23
   2.00000000         5.05266830E-23
   2.00799990         6.29924555E-23
   2.01600003         4.66771112E-23
   2.02399993         1.07776733E-23
   2.03200006        -2.26198607E-23
   2.03999996        -3.98017624E-23
   2.04800010        -4.48020708E-23
   2.05599999        -4.71788330E-23
   2.06399989        -4.81292621E-23
   2.07200003        -4.27371359E-23
   2.07999992        -2.91248803E-23
   2.08800006        -8.78770222E-24
   2.09599996         1.82179348E-23
   2.10400009         5.12371059E-23
   2.11199999         8.21164065E-23
   2.11999989         9.55367670E-23
   2.12800002         7.98375956E-23
   2.13599992         3.83054384E-23
   2.14400005        -1.11664665E-23
   2.15199995        -4.94123444E-23
   2.16000009        -6.94618154E-23
   2.16799998        -7.62935086E-23
   2.17600012        -7.56734198E-23
   2.18400002        -6.73299788E-23
   2.19199991        -4.79303082E-23
   2.20000005        -1.59487102E-23
   2.20799994         2.58036055E-23
   2.21600008         6.75924927E-23
   2.22399998         9.39761035E-23
   2.23200011         9.39873937E-23
   2.24000001         7.04158007E-23
   2.24799991         3.48856822E-23
   2.25600004        -3.95407378E-24
   2.26399994        -4.16369432E-23
   2.27200007        -7.06030889E-23
   2.27999997        -8.06998017E-23
   2.28800011        -6.84473908E-23
   2.29600000        -4.10262828E-23
   2.30399990        -1.02296295E-23
   2.31200004         1.54412154E-23
   2.31999993         3.43694296E-23
   2.32800007         4.93980912E-23
   2.33599997         6.02428524E-23
   2.34400010         5.94643603E-23
   2.35200000         4.06143333E-23
   2.35999990         8.82031926E-24
   2.36800003        -2.35428895E-23
   2.37599993        -5.02229621E-23
   2.38400006        -7.11179437E-23
   2.39199996        -8.00466311E-23
   2.40000010        -6.47635429E-23
   2.40799999        -2.35700216E-23
   2.41599989         2.67223034E-23
   2.42400002         6.46411054E-23
   2.43199992         8.11917984E-23
   2.44000006         8.06392676E-23
   2.44799995         6.91175250E-23
   2.45600009         4.68331163E-23
   2.46399999         1.13604001E-23
   2.47199988        -3.30290634E-23
   2.48000002        -7.25307999E-23
   2.48799992        -9.37471129E-23
   2.49600005        -9.45012829E-23
   2.50399995        -8.01325034E-23
   2.51200008        -5.23297161E-23
   2.51999998        -1.01745300E-23
   2.52800012         3.91271380E-23
   2.53600001         8.04036885E-23
   2.54399991         1.02699851E-22
   2.55200005         1.04270328E-22
   2.55999994         8.64510268E-23
   2.56800008         5.14626475E-23
   2.57599998         6.63256973E-24
   2.58400011        -3.72387249E-23
   2.59200001        -7.28043011E-23
   2.59999990        -9.64285900E-23
   2.60800004        -1.03314973E-22
   2.61599994        -8.88708986E-23
   2.62400007        -5.46703390E-23
   2.63199997        -9.02261711E-24
   2.64000010         3.72159994E-23
   2.64800000         7.37493943E-23
   2.65599990         9.36779961E-23
   2.66400003         9.57529717E-23
   2.67199993         8.10755203E-23
   2.68000007         4.87322642E-23
   2.68799996         7.90522246E-25
   2.69600010        -4.95178119E-23
   2.70400000        -8.34016061E-23
   2.71199989        -9.22294392E-23
   2.72000003        -8.15035310E-23
   2.72799993        -5.92869928E-23
   2.73600006        -2.80464412E-23
   2.74399996         1.09045537E-23
   2.75200009         5.13753458E-23
   2.75999999         8.32735140E-23
   2.76799989         9.73878575E-23
   2.77600002         8.94408538E-23
   2.78399992         6.13205879E-23
   2.79200006         1.82751020E-23
   2.79999995        -3.31679755E-23
   2.80800009        -8.16055717E-23
   2.81599998        -1.09928777E-22
   2.82399988        -1.07091541E-22
   2.83200002        -7.96694231E-23
   2.83999991        -4.34811895E-23
   2.84800005        -5.46121739E-24
   2.85599995         3.67732560E-23
   2.86400008         7.97802044E-23
   2.87199998         1.10620311E-22
   2.88000011         1.18944536E-22
   2.88800001         1.03269131E-22
   2.89599991         6.56756049E-23
   2.90400004         1.05488097E-23
   2.91199994        -5.02513295E-23
   2.92000008        -9.96202897E-23
   2.92799997        -1.25466371E-22
   2.93600011        -1.25419746E-22
   2.94400001        -1.03020703E-22
   2.95199990        -6.38739097E-23
   2.96000004        -1.41448661E-23
   2.96799994         4.01551721E-23
   2.97600007         9.10022178E-23
   2.98399997         1.25511695E-22
   2.99200010         1.31002193E-22
   3.00000000         1.05735236E-22
   3.00799990         6.09636882E-23
   3.01600003         1.10997447E-23
   3.02399993        -3.47463631E-23
   3.03200006        -7.22862593E-23
   3.03999996        -9.87443070E-23
   3.04800010        -1.11293557E-22
   3.05599999        -1.06045259E-22
   3.06399989        -7.94651334E-23
   3.07200003        -3.34818979E-23
   3.07999992         2.20081338E-23
   3.08800006         7.33876227E-23
   3.09599996         1.08356394E-22
   3.10400009         1.18042028E-22
   3.11199999         1.00055034E-22
   3.11999989         6.14525359E-23
   3.12800002         1.46475803E-23
   3.13599992        -3.05315108E-23
   3.14400005        -6.80536924E-23
   3.15199995        -9.20970368E-23
   3.16000009        -9.83798217E-23
   3.16799998        -8.74513213E-23
   3.17600012        -6.15119024E-23
   3.18400002        -2.13568218E-23
   3.19199991         2.76896899E-23
   3.20000005         7.13896084E-23
   3.20799994         9.59549895E-23
   3.21600008         9.90343364E-23
   3.22399998         8.56256195E-23
   3.23200011         5.78608711E-23
   3.24000001         1.63381424E-23
   3.24799991        -3.17581895E-23
   3.25600004        -7.34185271E-23
   3.26399994        -9.79891336E-23
   3.27200007        -1.01156114E-22
   3.27999997        -8.39747293E-23
   3.28800011        -5.20389861E-23
   3.29600000        -1.35023547E-23
   3.30399990         2.51900894E-23
   3.31200004         6.06714311E-23
   3.31999993         8.91942937E-23
   3.32800007         1.04167202E-22
   3.33599997         9.85152659E-23
   3.34400010         6.96599646E-23
   3.35200000         2.35105320E-23
   3.35999990        -2.63852011E-23
   3.36800003        -6.65455292E-23
   3.37599993        -9.12913006E-23
   3.38400006        -1.00904461E-22
   3.39199996        -9.43730646E-23
   3.40000010        -6.95902798E-23
   3.40799999        -3.00354214E-23
   3.41599989         1.47441653E-23
   3.42400002         5.54566440E-23
   3.43199992         8.54431339E-23
   3.44000006         9.88672935E-23
   3.44799995         9.26687969E-23
   3.45600009         6.94805146E-23
   3.46399999         3.44670558E-23
   3.47199988        -7.83381714E-24
   3.48000002        -4.99167231E-23
   3.48799992        -8.00848625E-23
   3.49600005        -9.07374571E-23
   3.50399995        -8.38306391E-23
   3.51200008        -6.42035274E-23
   3.51999998        -3.34887326E-23
   3.52800012         4.97112414E-24
   3.53600001         4.20031324E-23
   3.54399991         6.88540643E-23
   3.55200005         8.25131215E-23
   3.55999994         8.17122068E-23
   3.56800008         6.41969704E-23
   3.57599998         3.17491776E-23
   3.58400011        -7.43141446E-24
   3.59200001        -4.39955521E-23
   3.59999990        -7.08229602E-23
   3.60800004        -8.15812874E-23
   3.61599994        -7.27345027E-23
   3.62400007        -4.83886585E-23
   3.63199997        -1.83453658E-23
   3.64000010         9.48141231E-24
   3.64800000         3.22499465E-23
   3.65599990         4.99090301E-23
   3.66400003         6.28248320E-23
   3.67199993         6.92944822E-23
   3.68000007         6.37291064E-23
   3.68799996         4.13796388E-23
   3.69600010         6.35386675E-24
   3.70400000        -2.97999717E-23
   3.71199989        -5.80718251E-23
   3.72000003        -7.51686182E-23
   3.72799993        -7.79672695E-23
   3.73600006        -6.34424533E-23
   3.74399996        -3.53682758E-23
   3.75200009        -3.62315018E-24
