 -0.239999995         0.00000000    
 -0.231999993         0.00000000    
 -0.224000007         3.94037896E-25
 -0.216000006        -5.78936814E-22
 -0.208000004         3.65488623E-20
 -0.200000003         1.90140091E-19
 -0.192000002         4.81923697E-19
 -0.184000000         8.49541321E-19
 -0.175999999         1.29079591E-18
 -0.167999998         1.89878317E-18
 -0.159999996         2.61825556E-18
 -0.151999995         3.17053386E-18
 -0.143999994         3.51147145E-18
 -0.136000007         4.20658110E-18
 -0.128000006         5.91500809E-18
 -0.119999997         8.49721946E-18
 -0.112000003         1.10966552E-17
 -0.104000002         1.32503655E-17
  -9.60000008E-02     1.54686265E-17
  -8.79999995E-02     1.84064759E-17
  -7.99999982E-02     2.18194099E-17
  -7.19999969E-02     2.47696819E-17
  -6.40000030E-02     2.66701575E-17
  -5.60000017E-02     2.76371680E-17
  -4.80000004E-02     2.78003526E-17
  -3.99999991E-02     2.66952541E-17
  -3.20000015E-02     2.35200568E-17
  -2.40000002E-02     1.77550877E-17
  -1.60000008E-02     9.36675172E-18
  -8.00000038E-03    -1.40065418E-18
   0.00000000        -1.41882006E-17
   8.00000038E-03    -2.84874816E-17
   1.60000008E-02    -4.35593344E-17
   2.40000002E-02    -5.83812363E-17
   3.20000015E-02    -7.16415504E-17
   3.99999991E-02    -8.18739201E-17
   4.80000004E-02    -8.77361425E-17
   5.60000017E-02    -8.81939572E-17
   6.40000030E-02    -8.24824802E-17
   7.19999969E-02    -7.00835987E-17
   7.99999982E-02    -5.09892890E-17
   8.79999995E-02    -2.60565516E-17
   9.60000008E-02     2.96886847E-18
  0.104000002         3.37714451E-17
  0.112000003         6.37361853E-17
  0.119999997         9.00226947E-17
  0.128000006         1.09752263E-16
  0.136000007         1.20454954E-16
  0.143999994         1.20452691E-16
  0.151999995         1.08964767E-16
  0.159999996         8.61683573E-17
  0.167999998         5.34405362E-17
  0.175999999         1.34744777E-17
  0.184000000        -3.00993191E-17
  0.192000002        -7.33094112E-17
  0.200000003        -1.12123961E-16
  0.208000004        -1.42508820E-16
  0.216000006        -1.60846302E-16
  0.224000007        -1.64724866E-16
  0.231999993        -1.53384432E-16
  0.239999995        -1.27493136E-16
  0.247999996        -8.88181609E-17
  0.256000012        -4.03461414E-17
  0.263999999         1.35641846E-17
  0.272000015         6.76655645E-17
  0.280000001         1.16786401E-16
  0.287999988         1.56514166E-16
  0.296000004         1.83327616E-16
  0.303999990         1.94651771E-16
  0.312000006         1.89198070E-16
  0.319999993         1.67330432E-16
  0.328000009         1.31077687E-16
  0.335999995         8.38162990E-17
  0.344000012         2.98709478E-17
  0.351999998        -2.58758838E-17
  0.360000014        -7.84196470E-17
  0.368000001        -1.23106710E-16
  0.375999987        -1.56074317E-16
  0.384000003        -1.74606895E-16
  0.391999990        -1.77364424E-16
  0.400000006        -1.64447754E-16
  0.407999992        -1.37337260E-16
  0.416000009        -9.87640549E-17
  0.423999995        -5.24802754E-17
  0.432000011        -2.86482073E-18
  0.439999998         4.55612306E-17
  0.448000014         8.85473486E-17
  0.456000000         1.22425007E-16
  0.463999987         1.44410938E-16
  0.472000003         1.52889037E-16
  0.479999989         1.47527728E-16
  0.488000005         1.29201972E-16
  0.495999992         9.98628088E-17
  0.504000008         6.24201343E-17
  0.512000024         2.05084113E-17
  0.519999981        -2.19428302E-17
  0.527999997        -6.11679350E-17
  0.536000013        -9.38510917E-17
  0.544000030        -1.17278064E-16
  0.551999986        -1.29528768E-16
  0.560000002        -1.29715737E-16
  0.568000019        -1.18092288E-16
  0.575999975        -9.59517533E-17
  0.583999991        -6.54387479E-17
  0.592000008        -2.93808565E-17
  0.600000024         8.91454614E-18
  0.607999980         4.59731268E-17
  0.615999997         7.85063289E-17
  0.624000013         1.03685270E-16
  0.632000029         1.19333668E-16
  0.639999986         1.24105587E-16
  0.648000002         1.17630973E-16
  0.656000018         1.00551480E-16
  0.663999975         7.44386517E-17
  0.671999991         4.16525209E-17
  0.680000007         5.15502142E-18
  0.688000023        -3.17501565E-17
  0.695999980        -6.57320794E-17
  0.703999996        -9.37387341E-17
  0.712000012        -1.13262427E-16
  0.720000029        -1.22560334E-16
  0.727999985        -1.20810999E-16
  0.736000001        -1.08193967E-16
  0.744000018        -8.59015353E-17
  0.751999974        -5.60594198E-17
  0.759999990        -2.15052831E-17
  0.768000007         1.45394115E-17
  0.776000023         4.87785264E-17
  0.783999979         7.80871601E-17
  0.791999996         9.97816525E-17
  0.800000012         1.11934014E-16
  0.808000028         1.13588508E-16
  0.815999985         1.04786062E-16
  0.824000001         8.64970524E-17
  0.832000017         6.05625844E-17
  0.839999974         2.95635972E-17
  0.847999990        -3.47340791E-18
  0.856000006        -3.54326521E-17
  0.864000022        -6.33791476E-17
  0.871999979        -8.47702831E-17
  0.879999995        -9.77038807E-17
  0.888000011        -1.01144919E-16
  0.896000028        -9.49989934E-17
  0.903999984        -8.00450436E-17
  0.912000000        -5.78386522E-17
  0.920000017        -3.05950484E-17
  0.927999973        -9.73633043E-19
  0.935999990         2.82242727E-17
  0.944000006         5.43354927E-17
  0.952000022         7.50411965E-17
  0.959999979         8.85398047E-17
  0.967999995         9.37100409E-17
  0.976000011         9.02256782E-17
  0.984000027         7.85799811E-17
  0.991999984         6.00103586E-17
   1.00000000         3.63381899E-17
   1.00800002         9.76855388E-18
   1.01600003        -1.72965567E-17
   1.02400005        -4.24326283E-17
   1.03199995        -6.34059086E-17
   1.03999996        -7.84204014E-17
   1.04799998        -8.62988600E-17
   1.05599999        -8.65301529E-17
   1.06400001        -7.92452659E-17
   1.07200003        -6.52099895E-17
   1.08000004        -4.58026879E-17
   1.08800006        -2.28816852E-17
   1.09599996         1.44758158E-18
   1.10399997         2.50481556E-17
   1.11199999         4.58940119E-17
   1.12000000         6.22066489E-17
   1.12800002         7.26354707E-17
   1.13600004         7.64128539E-17
   1.14400005         7.33978600E-17
   1.15199995         6.40297483E-17
   1.15999997         4.92640384E-17
   1.16799998         3.04983146E-17
   1.17600000         9.45268834E-18
   1.18400002        -1.19833622E-17
   1.19200003        -3.19021890E-17
   1.20000005        -4.85388657E-17
   1.20799994        -6.04540649E-17
   1.21599996        -6.66770439E-17
   1.22399998        -6.67471822E-17
   1.23199999        -6.07038470E-17
   1.24000001        -4.91064770E-17
   1.24800003        -3.30452103E-17
   1.25600004        -1.40387141E-17
   1.26400006         6.16287524E-18
   1.27199996         2.57463208E-17
   1.27999997         4.29432933E-17
   1.28799999         5.61660467E-17
   1.29600000         6.41949330E-17
   1.30400002         6.63191063E-17
   1.31200004         6.23707351E-17
   1.32000005         5.27117437E-17
   1.32799995         3.82221765E-17
   1.33599997         2.02455731E-17
   1.34399998         4.56770323E-19
   1.35200000        -1.93018212E-17
   1.36000001        -3.71792671E-17
   1.36800003        -5.14995933E-17
   1.37600005        -6.09654875E-17
   1.38399994        -6.47947184E-17
   1.39199996        -6.27414576E-17
   1.39999998        -5.50732550E-17
   1.40799999        -4.25700164E-17
   1.41600001        -2.64912251E-17
   1.42400002        -8.43755575E-18
   1.43200004         9.85055063E-18
   1.44000006         2.66647759E-17
   1.44799995         4.04699074E-17
   1.45599997         5.00620526E-17
   1.46399999         5.47064534E-17
   1.47200000         5.41720087E-17
   1.48000002         4.86857498E-17
   1.48800004         3.89065725E-17
   1.49600005         2.59118645E-17
   1.50399995         1.10855313E-17
   1.51199996        -4.09986570E-18
   1.51999998        -1.82599376E-17
   1.52800000        -3.01573144E-17
   1.53600001        -3.87548609E-17
   1.54400003        -4.33560200E-17
   1.55200005        -4.37248466E-17
   1.55999994        -4.00488791E-17
   1.56799996        -3.28136825E-17
   1.57599998        -2.27518989E-17
   1.58399999        -1.08548571E-17
   1.59200001         1.70443936E-18
   1.60000002         1.37571022E-17
   1.60800004         2.42841285E-17
   1.61600006         3.24470363E-17
   1.62399995         3.75997991E-17
   1.63199997         3.93604299E-17
   1.63999999         3.76740006E-17
   1.64800000         3.27883278E-17
   1.65600002         2.51867662E-17
   1.66400003         1.55528037E-17
   1.67200005         4.74395402E-18
   1.67999995        -6.28621945E-18
   1.68799996        -1.66004379E-17
   1.69599998        -2.53606561E-17
   1.70400000        -3.18741145E-17
   1.71200001        -3.56399039E-17
   1.72000003        -3.63970289E-17
   1.72800004        -3.41430908E-17
   1.73599994        -2.91235239E-17
   1.74399996        -2.18146933E-17
   1.75199997        -1.28924693E-17
   1.75999999        -3.16294572E-18
   1.76800001         6.52589296E-18
   1.77600002         1.53518882E-17
   1.78400004         2.25721046E-17
   1.79200006         2.75935243E-17
   1.79999995         3.00418532E-17
   1.80799997         2.97781182E-17
   1.81599998         2.68761354E-17
   1.82400000         2.16252061E-17
   1.83200002         1.45552156E-17
   1.84000003         6.40049486E-18
   1.84800005        -2.02295973E-18
   1.85599995        -9.93642356E-18
   1.86399996        -1.66410359E-17
   1.87199998        -2.15336058E-17
   1.88000000        -2.41699379E-17
   1.88800001        -2.43455484E-17
   1.89600003        -2.21151568E-17
   1.90400004        -1.77524060E-17
   1.91199994        -1.17131413E-17
   1.91999996        -4.61330498E-18
   1.92799997         2.82499591E-18
   1.93599999         9.86771215E-18
   1.94400001         1.58543971E-17
   1.95200002         2.02456640E-17
   1.96000004         2.26560435E-17
   1.96800005         2.28932574E-17
   1.97599995         2.09866409E-17
   1.98399997         1.71812626E-17
   1.99199998         1.19012513E-17
   2.00000000         5.69868216E-18
   2.00799990        -8.06232522E-19
   2.01600003        -6.99483365E-18
   2.02399993        -1.23205475E-17
   2.03200006        -1.63614472E-17
   2.03999996        -1.88428336E-17
   2.04800010        -1.96389602E-17
   2.05599999        -1.87733636E-17
   2.06399989        -1.64209976E-17
   2.07200003        -1.28935107E-17
   2.07999992        -8.59566553E-18
   2.08800006        -3.96823521E-18
   2.09599996         5.60202693E-19
   2.10400009         4.60886426E-18
   2.11199999         7.87557007E-18
   2.11999989         1.01603653E-17
   2.12800002         1.13728459E-17
   2.13599992         1.15244681E-17
   2.14400005         1.07144730E-17
   2.15199995         9.11247144E-18
   2.16000009         6.93636397E-18
   2.16799998         4.42859472E-18
   2.17600012         1.83554666E-18
   2.18400002        -6.10771811E-19
   2.19199991        -2.71098458E-18
   2.20000005        -4.31444173E-18
   2.20799994        -5.32751050E-18
   2.21600008        -5.71283398E-18
   2.22399998        -5.48450814E-18
   2.23200011        -4.70475227E-18
   2.24000001        -3.48092863E-18
   2.24799991        -1.95604454E-18
   2.25600004        -2.90683287E-19
   2.26399994         1.35644923E-18
   2.27200007         2.84169959E-18
   2.27999997         4.04304625E-18
   2.28800011         4.86384392E-18
   2.29600000         5.23837683E-18
   2.30399990         5.14422920E-18
   2.31200004         4.61635562E-18
   2.31999993         3.74212621E-18
   2.32800007         2.62889662E-18
   2.33599997         1.37490818E-18
   2.34400010         7.63085747E-20
   2.35200000        -1.15358505E-18
   2.35999990        -2.20335376E-18
   2.36800003        -3.00939308E-18
   2.37599993        -3.56462649E-18
   2.38400006        -3.88150739E-18
   2.39199996        -3.97451723E-18
   2.40000010        -3.88588028E-18
   2.40799999        -3.69258099E-18
   2.41599989        -3.46220519E-18
   2.42400002        -3.22085560E-18
   2.43199992        -2.97975789E-18
   2.44000006        -2.76246106E-18
   2.44799995        -2.57355968E-18
   2.45600009        -2.36114218E-18
   2.46399999        -2.04712312E-18
   2.47199988        -1.58816010E-18
   2.48000002        -9.79777134E-19
   2.48799992        -2.13740123E-19
   2.49600005         7.28006724E-19
   2.50399995         1.82968236E-18
   2.51200008         3.01704161E-18
   2.51999998         4.18174913E-18
   2.52800012         5.21106126E-18
   2.53600001         5.99430079E-18
   2.54399991         6.42972867E-18
   2.55200005         6.44403724E-18
   2.55999994         6.00118831E-18
   2.56800008         5.09618448E-18
   2.57599998         3.76115881E-18
   2.58400011         2.08425712E-18
   2.59200001         2.04683154E-19
   2.59999990        -1.72106176E-18
   2.60800004        -3.53806324E-18
   2.61599994        -5.08159756E-18
   2.62400007        -6.18084532E-18
   2.63199997        -6.70272226E-18
   2.64000010        -6.58800430E-18
   2.64800000        -5.83823787E-18
   2.65599990        -4.49278145E-18
   2.66400003        -2.64588215E-18
   2.67199993        -4.70094704E-19
   2.68000007         1.81361500E-18
   2.68799996         3.99153647E-18
   2.69600010         5.86589093E-18
   2.70400000         7.22989439E-18
   2.71199989         7.88877518E-18
   2.72000003         7.72659980E-18
   2.72799993         6.73212108E-18
   2.73600006         4.96176143E-18
   2.74399996         2.52005847E-18
   2.75200009        -4.08456927E-19
   2.75999999        -3.55114841E-18
   2.76799989        -6.60700050E-18
   2.77600002        -9.30250129E-18
   2.78399992        -1.13843313E-17
   2.79200006        -1.26071631E-17
   2.79999995        -1.27815452E-17
   2.80800009        -1.18338088E-17
   2.81599998        -9.80514173E-18
   2.82399988        -6.81934066E-18
   2.83200002        -3.08529352E-18
   2.83999991         1.08908667E-18
   2.84800005         5.33446420E-18
   2.85599995         9.28713228E-18
   2.86400008         1.26142471E-17
   2.87199998         1.50043317E-17
   2.88000011         1.61923798E-17
   2.88800001         1.60247152E-17
   2.89599991         1.44956322E-17
   2.90400004         1.17288363E-17
   2.91199994         7.94978968E-18
   2.92000008         3.47724313E-18
   2.92799997        -1.29541292E-18
   2.93600011        -5.94547729E-18
   2.94400001        -1.00608845E-17
   2.95199990        -1.32579814E-17
   2.96000004        -1.52113800E-17
   2.96799994        -1.57139633E-17
   2.97600007        -1.47212589E-17
   2.98399997        -1.23373343E-17
   2.99200010        -8.77473442E-18
   3.00000000        -4.34360026E-18
   3.00799990         5.43997088E-19
   3.01600003         5.40976410E-18
   3.02399993         9.78111792E-18
   3.03200006         1.32400853E-17
   3.03999996         1.54365799E-17
   3.04800010         1.61166779E-17
   3.05599999         1.51786766E-17
   3.06399989         1.26989669E-17
   3.07200003         8.89813653E-18
   3.07999992         4.09928502E-18
   3.08800006        -1.28124466E-18
   3.09599996        -6.74988231E-18
   3.10400009        -1.17956989E-17
   3.11199999        -1.59536521E-17
   3.11999989        -1.88279410E-17
   3.12800002        -2.01101884E-17
   3.13599992        -1.96331666E-17
   3.14400005        -1.74165111E-17
   3.15199995        -1.36469027E-17
   3.16000009        -8.62710667E-18
   3.16799998        -2.76132120E-18
   3.17600012         3.44293292E-18
   3.18400002         9.42357158E-18
   3.19199991         1.46513985E-17
   3.20000005         1.86821091E-17
   3.20799994         2.11628369E-17
   3.21600008         2.18530894E-17
   3.22399998         2.06743405E-17
   3.23200011         1.77325603E-17
   3.24000001         1.32891206E-17
   3.24799991         7.72381717E-18
   3.25600004         1.51866597E-18
   3.26399994        -4.76836660E-18
   3.27200007        -1.05637391E-17
   3.27999997        -1.53441259E-17
   3.28800011        -1.86780674E-17
   3.29600000        -2.02580387E-17
   3.30399990        -1.99407206E-17
   3.31200004        -1.77724966E-17
   3.31999993        -1.39721526E-17
   3.32800007        -8.88818720E-18
   3.33599997        -2.96958502E-18
   3.34400010         3.24897644E-18
   3.35200000         9.18257417E-18
   3.35999990         1.42651863E-17
   3.36800003         1.80201677E-17
   3.37599993         2.00987055E-17
   3.38400006         2.02945570E-17
   3.39199996         1.85639380E-17
   3.40000010         1.50495603E-17
   3.40799999         1.00757233E-17
   3.41599989         4.09941158E-18
   3.42400002        -2.35196606E-18
   3.43199992        -8.71894688E-18
   3.44000006        -1.44314959E-17
   3.44799995        -1.89511264E-17
   3.45600009        -2.18415850E-17
   3.46399999        -2.28286050E-17
   3.47199988        -2.18150887E-17
   3.48000002        -1.88683206E-17
   3.48799992        -1.42145926E-17
   3.49600005        -8.23902248E-18
   3.50399995        -1.45847720E-18
   3.51200008         5.53740469E-18
   3.51999998         1.21451075E-17
   3.52800012         1.77882279E-17
   3.53600001         2.19594565E-17
   3.54399991         2.42757178E-17
   3.55200005         2.45230944E-17
   3.55999994         2.26702595E-17
   3.56800008         1.88651889E-17
   3.57599998         1.34327398E-17
   3.58400011         6.85685661E-18
   3.59200001        -2.71252789E-19
   3.59999990        -7.31809335E-18
   3.60800004        -1.36553391E-17
   3.61599994        -1.86996089E-17
   3.62400007        -2.19723357E-17
   3.63199997        -2.31673404E-17
   3.64000010        -2.21850287E-17
   3.64800000        -1.91252429E-17
   3.65599990        -1.42691898E-17
   3.66400003        -8.06452790E-18
   3.67199993        -1.09532506E-18
   3.68000007         5.97279120E-18
   3.68799996         1.24571796E-17
   3.69600010         1.77234431E-17
   3.70400000         2.12557889E-17
   3.71199989         2.27192236E-17
   3.72000003         2.19849453E-17
   3.72799993         1.91203659E-17
   3.73600006         1.43781179E-17
   3.74399996         8.19330090E-18
   3.75200009         1.15384385E-18
