 -0.239999995         0.00000000    
 -0.231999993         0.00000000    
 -0.224000007         0.00000000    
 -0.216000006         0.00000000    
 -0.208000004         0.00000000    
 -0.200000003         0.00000000    
 -0.192000002         3.67929732E-35
 -0.184000000         7.23122115E-29
 -0.175999999        -1.07217555E-28
 -0.167999998        -2.16694294E-27
 -0.159999996        -4.88914958E-27
 -0.151999995         5.26278345E-27
 -0.143999994         4.00873320E-26
 -0.136000007         5.33441549E-26
 -0.128000006        -6.15366233E-26
 -0.119999997        -2.84238269E-25
 -0.112000003        -2.70202708E-25
 -0.104000002         3.45195523E-25
  -9.60000008E-02     1.15884732E-24
  -8.79999995E-02     8.98788475E-25
  -7.99999982E-02    -1.05828205E-24
  -7.19999969E-02    -3.04988772E-24
  -6.40000030E-02    -2.25976069E-24
  -5.60000017E-02     1.62613746E-24
  -4.80000004E-02     4.99097543E-24
  -3.99999991E-02     4.20529403E-24
  -3.20000015E-02     3.32419601E-25
  -2.40000002E-02    -2.59443257E-24
  -1.60000008E-02    -4.00333617E-24
  -8.00000038E-03    -7.33657445E-24
   0.00000000        -1.14338359E-23
   8.00000038E-03    -6.15302986E-24
   1.60000008E-02     1.50423847E-23
   2.40000002E-02     3.78873390E-23
   3.20000015E-02     3.37557463E-23
   3.99999991E-02    -7.37711559E-24
   4.80000004E-02    -5.57039487E-23
   5.60000017E-02    -6.62331592E-23
   6.40000030E-02    -2.68225961E-23
   7.19999969E-02     2.86885424E-23
   7.99999982E-02     5.91760158E-23
   8.79999995E-02     5.66924608E-23
   9.60000008E-02     4.00037360E-23
  0.104000002         1.95132066E-23
  0.112000003        -1.33358040E-23
  0.119999997        -6.18326532E-23
  0.128000006        -1.04371643E-22
  0.136000007        -1.06522980E-22
  0.143999994        -4.93943205E-23
  0.151999995         5.17823003E-23
  0.159999996         1.49483828E-22
  0.167999998         1.88499134E-22
  0.175999999         1.43711840E-22
  0.184000000         3.75141825E-23
  0.192000002        -8.68667376E-23
  0.200000003        -2.01526837E-22
  0.208000004        -2.84023878E-22
  0.216000006        -2.80400217E-22
  0.224000007        -1.25534541E-22
  0.231999993         1.65147172E-22
  0.239999995         4.45811223E-22
  0.247999996         5.29286388E-22
  0.256000012         3.43911775E-22
  0.263999999        -8.69335052E-24
  0.272000015        -3.48932641E-22
  0.280000001        -5.49892142E-22
  0.287999988        -5.72490622E-22
  0.296000004        -4.13615701E-22
  0.303999990        -7.71677306E-23
  0.312000006         3.75093086E-22
  0.319999993         7.65691467E-22
  0.328000009         8.55090385E-22
  0.335999995         5.17652394E-22
  0.344000012        -1.09427339E-22
  0.351999998        -6.78213886E-22
  0.360000014        -8.78327476E-22
  0.368000001        -6.65394303E-22
  0.375999987        -2.55274707E-22
  0.384000003         9.60654616E-23
  0.391999990         2.96428255E-22
  0.400000006         4.16610747E-22
  0.407999992         5.28424321E-22
  0.416000009         5.80968062E-22
  0.423999995         4.42671531E-22
  0.432000011         5.15472765E-23
  0.439999998        -4.79165877E-22
  0.448000014        -8.93180174E-22
  0.456000000        -9.37722517E-22
  0.463999987        -5.31511001E-22
  0.472000003         1.53682108E-22
  0.479999989         7.71406960E-22
  0.488000005         1.00922356E-21
  0.495999992         7.81022430E-22
  0.504000008         2.54654902E-22
  0.512000024        -2.81184484E-22
  0.519999981        -5.73698828E-22
  0.527999997        -4.96183563E-22
  0.536000013        -9.58108173E-23
  0.544000030         3.84291684E-22
  0.551999986         5.90601909E-22
  0.560000002         2.94308984E-22
  0.568000019        -3.72164002E-22
  0.575999975        -9.28528211E-22
  0.583999991        -8.88429338E-22
  0.592000008        -1.91137766E-22
  0.600000024         6.69712667E-22
  0.607999980         1.00621877E-21
  0.615999997         5.20604122E-22
  0.624000013        -4.12991504E-22
  0.632000029        -1.05379064E-21
  0.639999986        -9.16509151E-22
  0.648000002        -1.61475309E-22
  0.656000018         5.52507424E-22
  0.663999975         6.06103013E-22
  0.671999991        -5.79312943E-23
  0.680000007        -8.35026812E-22
  0.688000023        -9.36793454E-22
  0.695999980        -1.00116584E-22
  0.703999996         1.15439810E-21
  0.712000012         2.00584856E-21
  0.720000029         2.02395667E-21
  0.727999985         1.34579317E-21
  0.736000001         3.52389215E-22
  0.744000018        -5.85376494E-22
  0.751999974        -1.12191450E-21
  0.759999990        -1.06694636E-21
  0.768000007        -6.59052871E-22
  0.776000023        -4.78508939E-22
  0.783999979        -8.74109986E-22
  0.791999996        -1.57453506E-21
  0.800000012        -1.99153022E-21
  0.808000028        -1.78515593E-21
  0.815999985        -1.01770701E-21
  0.824000001         5.47163516E-23
  0.832000017         1.10029643E-21
  0.839999974         1.73010419E-21
  0.847999990         1.71445117E-21
  0.856000006         1.24945722E-21
  0.864000022         8.37775330E-22
  0.871999979         8.43239498E-22
  0.879999995         1.26864697E-21
  0.888000011         1.92215731E-21
  0.896000028         2.57361597E-21
  0.903999984         2.89178020E-21
  0.912000000         2.49642422E-21
  0.920000017         1.31524888E-21
  0.927999973        -2.15597023E-22
  0.935999990        -1.55300797E-21
  0.944000006        -2.64708479E-21
  0.952000022        -3.93146949E-21
  0.959999979        -5.64257054E-21
  0.967999995        -7.31962673E-21
  0.976000011        -8.11032415E-21
  0.984000027        -7.44559810E-21
  0.991999984        -5.28418000E-21
   1.00000000        -1.86932378E-21
   1.00800002         2.39562633E-21
   1.01600003         6.76675383E-21
   1.02400005         1.01946860E-20
   1.03199995         1.18646247E-20
   1.03999996         1.16840449E-20
   1.04799998         1.00981232E-20
   1.05599999         7.50332222E-21
   1.06400001         4.03352856E-21
   1.07200003        -1.18981984E-22
   1.08000004        -4.42135348E-21
   1.08800006        -8.14415859E-21
   1.09599996        -1.06815884E-20
   1.10399997        -1.16904701E-20
   1.11199999        -1.10723990E-20
   1.12000000        -8.94650762E-21
   1.12800002        -5.60739800E-21
   1.13600004        -1.47206837E-21
   1.14400005         2.86885502E-21
   1.15199995         6.57241485E-21
   1.15999997         8.75578999E-21
   1.16799998         9.01375725E-21
   1.17600000         7.70915286E-21
   1.18400002         5.62475506E-21
   1.19200003         3.32471010E-21
   1.20000005         9.28130474E-22
   1.20799994        -1.56328311E-21
   1.21599996        -3.88793306E-21
   1.22399998        -5.51188812E-21
   1.23199999        -5.89690960E-21
   1.24000001        -4.79444990E-21
   1.24800003        -2.44942174E-21
   1.25600004         3.82824958E-22
   1.26400006         2.73254975E-21
   1.27199996         3.91544933E-21
   1.27999997         3.84425404E-21
   1.28799999         2.89246925E-21
   1.29600000         1.49613133E-21
   1.30400002        -1.27892768E-22
   1.31200004        -1.97060433E-21
   1.32000005        -4.00514592E-21
   1.32799995        -5.93650481E-21
   1.33599997        -7.16240829E-21
   1.34399998        -7.08571152E-21
   1.35200000        -5.56632735E-21
   1.36000001        -3.04654719E-21
   1.36800003        -1.77820292E-22
   1.37600005         2.64825468E-21
   1.38399994         5.38485330E-21
   1.39199996         8.05698393E-21
   1.39999998         1.05082844E-20
   1.40799999         1.23590146E-20
   1.41600001         1.31074717E-20
   1.42400002         1.23349763E-20
   1.43200004         9.96896991E-21
   1.44000006         6.35655666E-21
   1.44799995         1.96983450E-21
   1.45599997        -2.94183311E-21
   1.46399999        -8.25744598E-21
   1.47200000        -1.35455430E-20
   1.48000002        -1.79269458E-20
   1.48800004        -2.04950847E-20
   1.49600005        -2.07809532E-20
   1.50399995        -1.87744101E-20
   1.51199996        -1.47042921E-20
   1.51999998        -8.98663800E-21
   1.52800000        -2.25640815E-21
   1.53600001         4.79817060E-21
   1.54400003         1.16256051E-20
   1.55200005         1.76590120E-20
   1.55999994         2.20222782E-20
   1.56799996         2.36905836E-20
   1.57599998         2.21348443E-20
   1.58399999         1.77378187E-20
   1.59200001         1.15099234E-20
   1.60000002         4.50287439E-21
   1.60800004        -2.46198738E-21
   1.61600006        -8.73407084E-21
   1.62399995        -1.37884110E-20
   1.63199997        -1.72304597E-20
   1.63999999        -1.86862879E-20
   1.64800000        -1.77503088E-20
   1.65600002        -1.42980108E-20
   1.66400003        -8.91490916E-21
   1.67200005        -2.79170327E-21
   1.67999995         2.96974521E-21
   1.68799996         7.86050188E-21
   1.69599998         1.17302281E-20
   1.70400000         1.42763167E-20
   1.71200001         1.50122053E-20
   1.72000003         1.36853914E-20
   1.72800004         1.05175037E-20
   1.73599994         6.03412384E-21
   1.74399996         8.42824747E-22
   1.75199997        -4.39929183E-21
   1.75999999        -9.01455777E-21
   1.76800001        -1.24678244E-20
   1.77600002        -1.44702017E-20
   1.78400004        -1.48754458E-20
   1.79200006        -1.35580929E-20
   1.79999995        -1.04981967E-20
   1.80799997        -5.98021977E-21
   1.81599998        -6.40880040E-22
   1.82400000         4.71539761E-21
   1.83200002         9.36549803E-21
   1.84000003         1.27840481E-20
   1.84800005         1.46043972E-20
   1.85599995         1.45727640E-20
   1.86399996         1.26242366E-20
   1.87199998         9.00728601E-21
   1.88000000         4.27419490E-21
   1.88800001        -8.81973856E-22
   1.89600003        -5.76653131E-21
   1.90400004        -9.71260693E-21
   1.91199994        -1.21315230E-20
   1.91999996        -1.26729167E-20
   1.92799997        -1.13543165E-20
   1.93599999        -8.50742012E-21
   1.94400001        -4.61234294E-21
   1.95200002        -1.89024730E-22
   1.96000004         4.21894666E-21
   1.96800005         8.04071335E-21
   1.97599995         1.07089411E-20
   1.98399997         1.17659511E-20
   1.99199998         1.10525143E-20
   2.00000000         8.84180869E-21
   2.00799990         5.72061269E-21
   2.01600003         2.26091039E-21
   2.02399993        -1.19470427E-21
   2.03200006        -4.43186166E-21
   2.03999996        -7.15228987E-21
   2.04800010        -8.98220887E-21
   2.05599999        -9.70785468E-21
   2.06399989        -9.42887024E-21
   2.07200003        -8.42568030E-21
   2.07999992        -6.90361627E-21
   2.08800006        -4.92574019E-21
   2.09599996        -2.59060427E-21
   2.10400009        -1.76449100E-22
   2.11199999         1.98766089E-21
   2.11999989         3.77200458E-21
   2.12800002         5.26513102E-21
   2.13599992         6.51787182E-21
   2.14400005         7.36271686E-21
   2.15199995         7.55719559E-21
   2.16000009         7.05296923E-21
   2.16799998         6.04422368E-21
   2.17600012         4.76132350E-21
   2.18400002         3.26687773E-21
   2.19199991         1.45092427E-21
   2.20000005        -7.95116509E-22
   2.20799994        -3.36598411E-21
   2.21600008        -5.85443500E-21
   2.22399998        -7.68978763E-21
   2.23200011        -8.42396455E-21
   2.24000001        -7.92921037E-21
   2.24799991        -6.36622474E-21
   2.25600004        -4.03300834E-21
   2.26399994        -1.27000719E-21
   2.27200007         1.57308851E-21
   2.27999997         4.20171683E-21
   2.28800011         6.44049651E-21
   2.29600000         8.16553280E-21
   2.30399990         9.12377146E-21
   2.31200004         8.88003268E-21
   2.31999993         7.07644048E-21
   2.32800007         3.83359278E-21
   2.33599997        -1.32756846E-22
   2.34400010        -3.88663978E-21
   2.35200000        -6.82130534E-21
   2.35999990        -8.84280874E-21
   2.36800003        -1.00438249E-20
   2.37599993        -1.02976757E-20
   2.38400006        -9.25680537E-21
   2.39199996        -6.73397760E-21
   2.40000010        -3.02329445E-21
   2.40799999         1.15544348E-21
   2.41599989         4.98678676E-21
   2.42400002         7.85846785E-21
   2.43199992         9.45494097E-21
   2.44000006         9.68794660E-21
   2.44799995         8.60174618E-21
   2.45600009         6.35065855E-21
   2.46399999         3.23566964E-21
   2.47199988        -2.93360129E-22
   2.48000002        -3.72357534E-21
   2.48799992        -6.58432981E-21
   2.49600005        -8.47308405E-21
   2.50399995        -9.02891307E-21
   2.51200008        -7.98584397E-21
   2.51999998        -5.34369702E-21
   2.52800012        -1.50606153E-21
   2.53600001         2.78771236E-21
   2.54399991         6.71594159E-21
   2.55200005         9.62069779E-21
   2.55999994         1.11008769E-20
   2.56800008         1.09851015E-20
   2.57599998         9.29564731E-21
   2.58400011         6.23342549E-21
   2.59200001         2.13658026E-21
   2.59999990        -2.58421462E-21
   2.60800004        -7.45101597E-21
   2.61599994        -1.18385160E-20
   2.62400007        -1.49392147E-20
   2.63199997        -1.59356846E-20
   2.64000010        -1.43512783E-20
   2.64800000        -1.03302524E-20
   2.65599990        -4.61297100E-21
   2.66400003         1.78011671E-21
   2.67199993         7.91023692E-21
   2.68000007         1.30839245E-20
   2.68799996         1.67770614E-20
   2.69600010         1.84878243E-20
   2.70400000         1.77312917E-20
   2.71199989         1.42442343E-20
   2.72000003         8.26056083E-21
   2.72799993         6.25376967E-22
   2.73600006        -7.38019105E-21
   2.74399996        -1.44163606E-20
   2.75200009        -1.94318814E-20
   2.75999999        -2.17994242E-20
   2.76799989        -2.12571006E-20
   2.77600002        -1.78337232E-20
   2.78399992        -1.18857437E-20
   2.79200006        -4.17730329E-21
   2.79999995         4.17293353E-21
   2.80800009         1.19359925E-20
   2.81599998         1.80683323E-20
   2.82399988         2.18735037E-20
   2.83200002         2.29801017E-20
   2.83999991         2.12541974E-20
   2.84800005         1.68053277E-20
   2.85599995         1.01169149E-20
   2.86400008         2.13729092E-21
   2.87199998        -5.86926206E-21
   2.88000011        -1.26845489E-20
   2.88800001        -1.74439531E-20
   2.89599991        -1.97030367E-20
   2.90400004        -1.93730514E-20
   2.91199994        -1.67015520E-20
   2.92000008        -1.22496474E-20
   2.92799997        -6.73439160E-21
   2.93600011        -8.33014498E-22
   2.94400001         4.83584205E-21
   2.95199990         9.60082445E-21
   2.96000004         1.27789606E-20
   2.96799994         1.39533317E-20
   2.97600007         1.32183195E-20
   2.98399997         1.11211218E-20
   2.99200010         8.33972622E-21
   3.00000000         5.35169822E-21
   3.00799990         2.31262312E-21
   3.01600003        -7.96206828E-22
   3.02399993        -3.89060201E-21
   3.03200006        -6.65721581E-21
   3.03999996        -8.73393271E-21
   3.04800010        -9.99961679E-21
   3.05599999        -1.06180458E-20
   3.06399989        -1.07728384E-20
   3.07200003        -1.04074370E-20
   3.07999992        -9.25726743E-21
   3.08800006        -7.09616114E-21
   3.09599996        -3.90584103E-21
   3.10400009         1.63649018E-22
   3.11199999         4.89656753E-21
   3.11999989         9.98150929E-21
   3.12800002         1.48671385E-20
   3.13599992         1.87295485E-20
   3.14400005         2.07062921E-20
   3.15199995         2.02582542E-20
   3.16000009         1.73514640E-20
   3.16799998         1.23296812E-20
   3.17600012         5.67425423E-21
   3.18400002        -2.06917271E-21
   3.19199991        -1.01657775E-20
   3.20000005        -1.76074004E-20
   3.20799994        -2.32764149E-20
   3.21600008        -2.62697360E-20
   3.22399998        -2.61011996E-20
   3.23200011        -2.26719963E-20
   3.24000001        -1.62112811E-20
   3.24799991        -7.38284627E-21
   3.25600004         2.60038200E-21
   3.26399994         1.21802709E-20
   3.27200007         1.99617083E-20
   3.27999997         2.50987891E-20
   3.28800011         2.72446830E-20
   3.29600000         2.62565043E-20
   3.30399990         2.20811793E-20
   3.31200004         1.49584547E-20
   3.31999993         5.67338706E-21
   3.32800007        -4.47192984E-21
   3.33599997        -1.40131537E-20
   3.34400010        -2.17381272E-20
   3.35200000        -2.68582427E-20
   3.35999990        -2.89145862E-20
   3.36800003        -2.76821065E-20
   3.37599993        -2.32639636E-20
   3.38400006        -1.62335617E-20
   3.39199996        -7.56229519E-21
   3.40000010         1.66176183E-21
   3.40799999         1.04693043E-20
   3.41599989         1.80540424E-20
   3.42400002         2.37367635E-20
   3.43199992         2.69952396E-20
   3.44000006         2.75489563E-20
   3.44799995         2.53981930E-20
   3.45600009         2.07724358E-20
   3.46399999         1.40420323E-20
   3.47199988         5.70122443E-21
   3.48000002        -3.53125786E-21
   3.48799992        -1.26263393E-20
   3.49600005        -2.03936905E-20
   3.50399995        -2.58668473E-20
   3.51200008        -2.85984578E-20
   3.51999998        -2.85696357E-20
   3.52800012        -2.58474328E-20
   3.53600001        -2.04211296E-20
   3.54399991        -1.24241365E-20
   3.55200005        -2.48992896E-21
   3.55999994         8.16162874E-21
   3.56800008         1.80352370E-20
   3.57599998         2.58306453E-20
   3.58400011         3.07256174E-20
   3.59200001         3.23322186E-20
   3.59999990         3.04988407E-20
   3.60800004         2.52441613E-20
   3.61599994         1.69086315E-20
   3.62400007         6.32364796E-21
   3.63199997        -5.23273890E-21
   3.64000010        -1.62895563E-20
   3.64800000        -2.54622607E-20
   3.65599990        -3.16428347E-20
   3.66400003        -3.41224055E-20
   3.67199993        -3.26610811E-20
   3.68000007        -2.74646614E-20
   3.68799996        -1.90982352E-20
   3.69600010        -8.45171629E-21
   3.70400000         3.23557291E-21
   3.71199989         1.44617812E-20
   3.72000003         2.37609844E-20
   3.72799993         3.00405471E-20
   3.73600006         3.27125278E-20
   3.74399996         3.16252183E-20
   3.75200009         2.69946257E-20
