 -0.239999995         0.00000000    
 -0.231999993         0.00000000    
 -0.224000007        -2.50166532E-27
 -0.216000006         1.45676745E-21
 -0.208000004         3.35855221E-21
 -0.200000003         1.16516662E-22
 -0.192000002        -8.50880953E-21
 -0.184000000        -1.11782159E-20
 -0.175999999        -6.08925847E-22
 -0.167999998         1.10486959E-20
 -0.159999996         7.93215236E-21
 -0.151999995        -5.02462058E-21
 -0.143999994        -1.27528148E-20
 -0.136000007        -1.89804621E-20
 -0.128000006        -3.84493550E-20
 -0.119999997        -6.10846645E-20
 -0.112000003        -5.49065301E-20
 -0.104000002        -1.47775509E-20
  -9.60000008E-02     1.85033308E-20
  -8.79999995E-02     3.55218376E-21
  -7.99999982E-02    -5.71170152E-20
  -7.19999969E-02    -1.31206303E-19
  -6.40000030E-02    -1.92238480E-19
  -5.60000017E-02    -2.22890046E-19
  -4.80000004E-02    -2.08480094E-19
  -3.99999991E-02    -1.59683844E-19
  -3.20000015E-02    -1.27598775E-19
  -2.40000002E-02    -1.58197801E-19
  -1.60000008E-02    -2.31048321E-19
  -8.00000038E-03    -2.76215640E-19
   0.00000000        -2.58957524E-19
   8.00000038E-03    -2.17660403E-19
   1.60000008E-02    -2.07403260E-19
   2.40000002E-02    -2.37576663E-19
   3.20000015E-02    -2.84533380E-19
   3.99999991E-02    -3.35236527E-19
   4.80000004E-02    -3.85348034E-19
   5.60000017E-02    -4.13599560E-19
   6.40000030E-02    -3.97074482E-19
   7.19999969E-02    -3.46887315E-19
   7.99999982E-02    -2.93997102E-19
   8.79999995E-02    -2.38528955E-19
   9.60000008E-02    -1.42156249E-19
  0.104000002         2.96244494E-20
  0.112000003         2.90328401E-19
  0.119999997         6.56198554E-19
  0.128000006         1.14073707E-18
  0.136000007         1.70413909E-18
  0.143999994         2.24525563E-18
  0.151999995         2.67439714E-18
  0.159999996         2.97111716E-18
  0.167999998         3.14353241E-18
  0.175999999         3.15441687E-18
  0.184000000         2.92172290E-18
  0.192000002         2.37734272E-18
  0.200000003         1.49710540E-18
  0.208000004         2.95704791E-19
  0.216000006        -1.15534674E-18
  0.224000007        -2.70267472E-18
  0.231999993        -4.14757624E-18
  0.239999995        -5.32743647E-18
  0.247999996        -6.14225404E-18
  0.256000012        -6.50399294E-18
  0.263999999        -6.30505973E-18
  0.272000015        -5.46720146E-18
  0.280000001        -4.00575819E-18
  0.287999988        -2.03077741E-18
  0.296000004         2.89918145E-19
  0.303999990         2.74494592E-18
  0.312000006         5.08128282E-18
  0.319999993         7.04032444E-18
  0.328000009         8.41208190E-18
  0.335999995         9.05277464E-18
  0.344000012         8.86739106E-18
  0.351999998         7.81212945E-18
  0.360000014         5.93184990E-18
  0.368000001         3.38465928E-18
  0.375999987         4.17187663E-19
  0.384000003        -2.68603970E-18
  0.391999990        -5.64038950E-18
  0.400000006        -8.17795669E-18
  0.407999992        -1.00598265E-17
  0.416000009        -1.10921620E-17
  0.423999995        -1.11473407E-17
  0.432000011        -1.01893721E-17
  0.439999998        -8.29127961E-18
  0.448000014        -5.62671414E-18
  0.456000000        -2.43646194E-18
  0.463999987         1.00547236E-18
  0.472000003         4.40647591E-18
  0.479999989         7.46038992E-18
  0.488000005         9.86427191E-18
  0.495999992         1.13529522E-17
  0.504000008         1.17405508E-17
  0.512000024         1.09554414E-17
  0.519999981         9.05867988E-18
  0.527999997         6.23651375E-18
  0.536000013         2.76865416E-18
  0.544000030        -1.00811438E-18
  0.551999986        -4.72248744E-18
  0.560000002        -7.98446591E-18
  0.568000019        -1.04180718E-17
  0.575999975        -1.17138800E-17
  0.583999991        -1.16771706E-17
  0.592000008        -1.02536167E-17
  0.600000024        -7.54142136E-18
  0.607999980        -3.79842164E-18
  0.615999997         5.72484206E-19
  0.624000013         5.07515589E-18
  0.632000029         9.19042990E-18
  0.639999986         1.24316420E-17
  0.648000002         1.43845865E-17
  0.656000018         1.47558830E-17
  0.663999975         1.34291333E-17
  0.671999991         1.04958144E-17
  0.680000007         6.24211583E-18
  0.688000023         1.10963126E-18
  0.695999980        -4.34968789E-18
  0.703999996        -9.52896432E-18
  0.712000012        -1.38387143E-17
  0.720000029        -1.67800354E-17
  0.727999985        -1.79995825E-17
  0.736000001        -1.73287456E-17
  0.744000018        -1.48140421E-17
  0.751999974        -1.07241783E-17
  0.759999990        -5.51435116E-18
  0.768000007         2.41658800E-19
  0.776000023         5.91954145E-18
  0.783999979         1.09016350E-17
  0.791999996         1.46415634E-17
  0.800000012         1.67419106E-17
  0.808000028         1.70131531E-17
  0.815999985         1.54815438E-17
  0.824000001         1.23578732E-17
  0.832000017         8.00553007E-18
  0.839999974         2.91700135E-18
  0.847999990        -2.32924693E-18
  0.856000006        -7.14542270E-18
  0.864000022        -1.10161838E-17
  0.871999979        -1.35524320E-17
  0.879999995        -1.45191853E-17
  0.888000011        -1.38550858E-17
  0.896000028        -1.16791624E-17
  0.903999984        -8.26933120E-18
  0.912000000        -4.01971355E-18
  0.920000017         6.02255935E-19
  0.927999973         5.09827642E-18
  0.935999990         8.99443690E-18
  0.944000006         1.19003100E-17
  0.952000022         1.35446764E-17
  0.959999979         1.37843760E-17
  0.967999995         1.26105653E-17
  0.976000011         1.01599501E-17
  0.984000027         6.70665137E-18
  0.991999984         2.62118936E-18
   1.00000000        -1.68002109E-18
   1.00800002        -5.77081065E-18
   1.01600003        -9.24713561E-18
   1.02400005        -1.17719531E-17
   1.03199995        -1.31189679E-17
   1.03999996        -1.31889978E-17
   1.04799998        -1.20027290E-17
   1.05599999        -9.69481321E-18
   1.06400001        -6.51228915E-18
   1.07200003        -2.79620031E-18
   1.08000004         1.06018953E-18
   1.08800006         4.65842065E-18
   1.09599996         7.63489029E-18
   1.10399997         9.69936022E-18
   1.11199999         1.06702080E-17
   1.12000000         1.04900010E-17
   1.12800002         9.21794855E-18
   1.13600004         7.01803110E-18
   1.14400005         4.15168526E-18
   1.15199995         9.57440880E-19
   1.15999997        -2.19491300E-18
   1.16799998        -4.95718712E-18
   1.17600000        -7.03882725E-18
   1.18400002        -8.22829891E-18
   1.19200003        -8.41316633E-18
   1.20000005        -7.59473067E-18
   1.20799994        -5.88494504E-18
   1.21599996        -3.48951146E-18
   1.22399998        -6.88480363E-19
   1.23199999         2.18928466E-18
   1.24000001         4.80705880E-18
   1.24800003         6.86786928E-18
   1.25600004         8.14961831E-18
   1.26400006         8.52342123E-18
   1.27199996         7.96342409E-18
   1.27999997         6.54796669E-18
   1.28799999         4.44541957E-18
   1.29600000         1.88950737E-18
   1.30400002        -8.44001537E-19
   1.31200004        -3.46000055E-18
   1.32000005        -5.67583584E-18
   1.32799995        -7.25942308E-18
   1.33599997        -8.05847294E-18
   1.34399998        -8.01370840E-18
   1.35200000        -7.16087361E-18
   1.36000001        -5.62321599E-18
   1.36800003        -3.59139075E-18
   1.37600005        -1.29640481E-18
   1.38399994         1.01268300E-18
   1.39199996         3.08684862E-18
   1.39999998         4.70291511E-18
   1.40799999         5.69716387E-18
   1.41600001         5.98906970E-18
   1.42400002         5.58371646E-18
   1.43200004         4.56240028E-18
   1.44000006         3.07319869E-18
   1.44799995         1.31612345E-18
   1.45599997        -4.86544431E-19
   1.46399999        -2.12586265E-18
   1.47200000        -3.42859292E-18
   1.48000002        -4.26346217E-18
   1.48800004        -4.54665779E-18
   1.49600005        -4.25457991E-18
   1.50399995        -3.43295216E-18
   1.51199996        -2.19116856E-18
   1.51999998        -6.85984811E-19
   1.52800000         8.97344554E-19
   1.53600001         2.36777741E-18
   1.54400003         3.55643037E-18
   1.55200005         4.33936426E-18
   1.55999994         4.64481518E-18
   1.56799996         4.45095672E-18
   1.57599998         3.78665004E-18
   1.58399999         2.73305479E-18
   1.59200001         1.41386932E-18
   1.60000002        -2.56850631E-20
   1.60800004        -1.43741894E-18
   1.61600006        -2.67994959E-18
   1.62399995        -3.62758651E-18
   1.63199997        -4.18431546E-18
   1.63999999        -4.29762721E-18
   1.64800000        -3.96541287E-18
   1.65600002        -3.23502790E-18
   1.66400003        -2.19537291E-18
   1.67200005        -9.63335058E-19
   1.67999995         3.29959761E-19
   1.68799996         1.54886096E-18
   1.69599998         2.56399644E-18
   1.70400000         3.26982552E-18
   1.71200001         3.60100631E-18
   1.72000003         3.53468586E-18
   1.72800004         3.08228238E-18
   1.73599994         2.28674494E-18
   1.74399996         1.22785832E-18
   1.75199997         2.05812828E-20
   1.75999999        -1.20123355E-18
   1.76800001        -2.30475080E-18
   1.77600002        -3.17139455E-18
   1.78400004        -3.70738918E-18
   1.79200006        -3.85588547E-18
   1.79999995        -3.60364501E-18
   1.80799997        -2.97692335E-18
   1.81599998        -2.03457169E-18
   1.82400000        -8.66294675E-19
   1.83200002         4.10270494E-19
   1.84000003         1.66278916E-18
   1.84800005         2.76286534E-18
   1.85599995         3.59903224E-18
   1.86399996         4.08469231E-18
   1.87199998         4.16892163E-18
   1.88000000         3.84724309E-18
   1.88800001         3.16052911E-18
   1.89600003         2.18146263E-18
   1.90400004         1.00307840E-18
   1.91199994        -2.62189526E-19
   1.91999996        -1.48368305E-18
   1.92799997        -2.52763875E-18
   1.93599999        -3.28219105E-18
   1.94400001        -3.67547986E-18
   1.95200002        -3.67863927E-18
   1.96000004        -3.30077697E-18
   1.96800005        -2.58526512E-18
   1.97599995        -1.60788588E-18
   1.98399997        -4.72138770E-19
   1.99199998         7.00443101E-19
   2.00000000         1.78349094E-18
   2.00799990         2.66008464E-18
   2.01600003         3.23598887E-18
   2.02399993         3.45028014E-18
   2.03200006         3.28241542E-18
   2.03999996         2.75419463E-18
   2.04800010         1.92476967E-18
   2.05599999         8.80354781E-19
   2.06399989        -2.75367650E-19
   2.07200003        -1.42689111E-18
   2.07999992        -2.45347415E-18
   2.08800006        -3.24293512E-18
   2.09599996        -3.70977311E-18
   2.10400009        -3.80794622E-18
   2.11199999        -3.53364940E-18
   2.11999989        -2.92164142E-18
   2.12800002        -2.03886021E-18
   2.13599992        -9.75327626E-19
   2.14400005         1.66455054E-19
   2.15199995         1.27997959E-18
   2.16000009         2.26121835E-18
   2.16799998         3.01807579E-18
   2.17600012         3.48366991E-18
   2.18400002         3.62573901E-18
   2.19199991         3.44537331E-18
   2.20000005         2.96924980E-18
   2.20799994         2.24530154E-18
   2.21600008         1.34396253E-18
   2.22399998         3.56732056E-19
   2.23200011        -6.15154007E-19
   2.24000001        -1.47844679E-18
   2.24799991        -2.16163635E-18
   2.25600004        -2.61843795E-18
   2.26399994        -2.82360956E-18
   2.27200007        -2.76814441E-18
   2.27999997        -2.45867381E-18
   2.28800011        -1.92093383E-18
   2.29600000        -1.20337584E-18
   2.30399990        -3.76248685E-19
   2.31200004         4.75974045E-19
   2.31999993         1.26682959E-18
   2.32800007         1.92013601E-18
   2.33599997         2.37826813E-18
   2.34400010         2.60511021E-18
   2.35200000         2.58493673E-18
   2.35999990         2.31992481E-18
   2.36800003         1.82887090E-18
   2.37599993         1.14812814E-18
   2.38400006         3.33460467E-19
   2.39199996        -5.40407589E-19
   2.40000010        -1.38607078E-18
   2.40799999        -2.11615031E-18
   2.41599989        -2.65755636E-18
   2.42400002        -2.95994050E-18
   2.43199992        -2.99621361E-18
   2.44000006        -2.76071922E-18
   2.44799995        -2.27063415E-18
   2.45600009        -1.56853183E-18
   2.46399999        -7.20528804E-19
   2.47199988         1.90787399E-19
   2.48000002         1.07563475E-18
   2.48799992         1.84757056E-18
   2.49600005         2.43478463E-18
   2.50399995         2.78753001E-18
   2.51200008         2.87834038E-18
   2.51999998         2.70064027E-18
   2.52800012         2.27287974E-18
   2.53600001         1.64335186E-18
   2.54399991         8.84304672E-19
   2.55200005         7.61855445E-20
   2.55999994        -7.04224402E-19
   2.56800008        -1.38576069E-18
   2.57599998        -1.90460921E-18
   2.58400011        -2.21331219E-18
   2.59200001        -2.28957100E-18
   2.59999990        -2.13583039E-18
   2.60800004        -1.77397464E-18
   2.61599994        -1.24382280E-18
   2.62400007        -6.02887177E-19
   2.63199997         8.08394565E-20
   2.64000010         7.41331724E-19
   2.64800000         1.32220096E-18
   2.65599990         1.77644006E-18
   2.66400003         2.06532296E-18
   2.67199993         2.16200031E-18
   2.68000007         2.05741780E-18
   2.68799996         1.76386939E-18
   2.69600010         1.31412912E-18
   2.70400000         7.55635900E-19
   2.71199989         1.40839907E-19
   2.72000003        -4.81408311E-19
   2.72799993        -1.06815869E-18
   2.73600006        -1.57940956E-18
   2.74399996        -1.97633425E-18
   2.75200009        -2.22436332E-18
   2.75999999        -2.29880358E-18
   2.76799989        -2.18956735E-18
   2.77600002        -1.90388832E-18
   2.78399992        -1.46643510E-18
   2.79200006        -9.15961908E-19
   2.79999995        -2.99631701E-19
   2.80800009         3.32105442E-19
   2.81599998         9.28760253E-19
   2.82399988         1.44212643E-18
   2.83200002         1.82855388E-18
   2.83999991         2.05170508E-18
   2.84800005         2.08706788E-18
   2.85599995         1.92819461E-18
   2.86400008         1.59105337E-18
   2.87199998         1.11254696E-18
   2.88000011         5.43961881E-19
   2.88800001        -5.64034233E-20
   2.89599991        -6.28913950E-19
   2.90400004        -1.11702646E-18
   2.91199994        -1.47149196E-18
   2.92000008        -1.65516152E-18
   2.92799997        -1.64875397E-18
   2.93600011        -1.45535398E-18
   2.94400001        -1.09961627E-18
   2.95199990        -6.21685581E-19
   2.96000004        -7.14754489E-20
   2.96799994         4.93361433E-19
   2.97600007         1.01031189E-18
   2.98399997         1.42084286E-18
   2.99200010         1.68158012E-18
   3.00000000         1.76957115E-18
   3.00799990         1.68015189E-18
   3.01600003         1.42368071E-18
   3.02399993         1.02531467E-18
   3.03200006         5.24979120E-19
   3.03999996        -2.65420319E-20
   3.04800010        -5.74620968E-19
   3.05599999        -1.06715667E-18
   3.06399989        -1.45864450E-18
   3.07200003        -1.71332566E-18
   3.07999992        -1.80869948E-18
   3.08800006        -1.73855973E-18
   3.09599996        -1.51392395E-18
   3.10400009        -1.16136561E-18
   3.11199999        -7.19213380E-19
   3.11999989        -2.32041895E-19
   3.12800002         2.55422129E-19
   3.13599992         7.02425956E-19
   3.14400005         1.07293101E-18
   3.15199995         1.33557585E-18
   3.16000009         1.46682832E-18
   3.16799998         1.45684073E-18
   3.17600012         1.31294036E-18
   3.18400002         1.05744195E-18
   3.19199991         7.21817396E-19
   3.20000005         3.41387779E-19
   3.20799994        -4.73981438E-20
   3.21600008        -4.07983857E-19
   3.22399998        -7.05524161E-19
   3.23200011        -9.11285959E-19
   3.24000001        -1.00775331E-18
   3.24799991        -9.90278399E-19
   3.25600004        -8.64932929E-19
   3.26399994        -6.47062758E-19
   3.27200007        -3.62139672E-19
   3.27999997        -4.39169057E-20
   3.28800011         2.72778989E-19
   3.29600000         5.58349447E-19
   3.30399990         7.87904940E-19
   3.31200004         9.38712993E-19
   3.31999993         9.93285924E-19
   3.32800007         9.45363422E-19
   3.33599997         8.00446394E-19
   3.34400010         5.71645393E-19
   3.35200000         2.78600221E-19
   3.35999990        -5.04671874E-20
   3.36800003        -3.81470056E-19
   3.37599993        -6.82727632E-19
   3.38400006        -9.29909517E-19
   3.39199996        -1.10410341E-18
   3.40000010        -1.19052611E-18
   3.40799999        -1.18273086E-18
   3.41599989        -1.08614739E-18
   3.42400002        -9.15111256E-19
   3.43199992        -6.88181855E-19
   3.44000006        -4.28191207E-19
   3.44799995        -1.63612357E-19
   3.45600009         7.56441678E-20
   3.46399999         2.66022035E-19
   3.47199988         3.94114442E-19
   3.48000002         4.55286465E-19
   3.48799992         4.52145401E-19
   3.49600005         3.94170587E-19
   3.50399995         2.95460565E-19
   3.51200008         1.71494910E-19
   3.51999998         3.93389586E-20
   3.52800012        -8.00904186E-20
   3.53600001        -1.64666237E-19
   3.54399991        -1.99300160E-19
   3.55200005        -1.81136967E-19
   3.55999994        -1.16223193E-19
   3.56800008        -1.32855102E-20
   3.57599998         1.18035972E-19
   3.58400011         2.65781609E-19
   3.59200001         4.16163769E-19
   3.59999990         5.55553731E-19
   3.60800004         6.70616312E-19
   3.61599994         7.47905742E-19
   3.62400007         7.76656576E-19
   3.63199997         7.53286707E-19
   3.64000010         6.82219071E-19
   3.64800000         5.72044611E-19
   3.65599990         4.31835765E-19
   3.66400003         2.71062977E-19
   3.67199993         1.01316920E-19
   3.68000007        -6.32831749E-20
   3.68799996        -2.07374490E-19
   3.69600010        -3.16152049E-19
   3.70400000        -3.77377632E-19
   3.71199989        -3.83684548E-19
   3.72000003        -3.34260222E-19
   3.72799993        -2.34945247E-19
   3.73600006        -9.74483708E-20
   3.74399996         6.08772554E-20
   3.75200009         2.17343050E-19
