 -0.239999995         0.00000000    
 -0.231999993         0.00000000    
 -0.224000007         0.00000000    
 -0.216000006         0.00000000    
 -0.208000004         0.00000000    
 -0.200000003         0.00000000    
 -0.192000002         0.00000000    
 -0.184000000        -3.60799625E-37
 -0.175999999         1.19654504E-36
 -0.167999998         3.26059240E-32
 -0.159999996        -1.42714324E-31
 -0.151999995        -1.53792860E-30
 -0.143999994        -1.94799614E-30
 -0.136000007         1.16053161E-29
 -0.128000006         4.03671185E-29
 -0.119999997         7.73295855E-30
 -0.112000003        -1.92294535E-28
 -0.104000002        -3.58533141E-28
  -9.60000008E-02     1.66909431E-28
  -8.79999995E-02     1.48346092E-27
  -7.99999982E-02     1.65245560E-27
  -7.19999969E-02    -1.85355215E-27
  -6.40000030E-02    -6.81742839E-27
  -5.60000017E-02    -4.63527041E-27
  -4.80000004E-02     9.11282026E-27
  -3.99999991E-02     2.10766578E-26
  -3.20000015E-02     8.42639032E-27
  -2.40000002E-02    -2.78609864E-26
  -1.60000008E-02    -4.69875415E-26
  -8.00000038E-03    -9.63843967E-27
   0.00000000         5.93214773E-26
   8.00000038E-03     7.78535887E-26
   1.60000008E-02     3.58123938E-27
   2.40000002E-02    -9.27590169E-26
   3.20000015E-02    -9.40432640E-26
   3.99999991E-02     1.45285422E-26
   4.80000004E-02     1.08443809E-25
   5.60000017E-02     7.23517215E-26
   6.40000030E-02    -4.58127119E-26
   7.19999969E-02    -9.10733814E-26
   7.99999982E-02    -9.88183638E-27
   8.79999995E-02     7.40519262E-26
   9.60000008E-02     3.56596776E-26
  0.104000002        -6.50077839E-26
  0.112000003        -6.22690129E-26
  0.119999997         6.73258455E-26
  0.128000006         1.42746230E-25
  0.136000007         9.45862560E-27
  0.143999994        -2.34015193E-25
  0.151999995        -3.08538168E-25
  0.159999996        -4.59389851E-26
  0.167999998         4.09121409E-25
  0.175999999         6.68421567E-25
  0.184000000         3.94756277E-25
  0.192000002        -3.63668107E-25
  0.200000003        -1.07381314E-24
  0.208000004        -1.06512581E-24
  0.216000006        -1.51744815E-25
  0.224000007         1.05513657E-24
  0.231999993         1.57387986E-24
  0.239999995         9.16088984E-25
  0.247999996        -4.26123087E-25
  0.256000012        -1.36148350E-24
  0.263999999        -1.13367851E-24
  0.272000015        -7.51030711E-27
  0.280000001         8.94973445E-25
  0.287999988         5.62209088E-25
  0.296000004        -8.53177031E-25
  0.303999990        -1.87203891E-24
  0.312000006        -8.66353966E-25
  0.319999993         2.17634141E-24
  0.328000009         4.96645645E-24
  0.335999995         4.42107707E-24
  0.344000012        -4.86688722E-25
  0.351999998        -7.04627363E-24
  0.360000014        -1.02360848E-23
  0.368000001        -6.55092933E-24
  0.375999987         2.80479593E-24
  0.384000003         1.21302810E-23
  0.391999990         1.49328372E-23
  0.400000006         8.45969307E-24
  0.407999992        -4.17714747E-24
  0.416000009        -1.56779321E-23
  0.423999995        -1.88503756E-23
  0.432000011        -1.09304851E-23
  0.439999998         4.38309460E-24
  0.448000014         1.83699972E-23
  0.456000000         2.20202854E-23
  0.463999987         1.19852213E-23
  0.472000003        -6.14266108E-24
  0.479999989        -2.05921632E-23
  0.488000005        -2.14227548E-23
  0.495999992        -8.08407143E-24
  0.504000008         9.78723159E-24
  0.512000024         1.94985022E-23
  0.519999981         1.48894246E-23
  0.527999997         6.83531606E-25
  0.536000013        -1.18031372E-23
  0.544000030        -1.38414339E-23
  0.551999986        -5.65578796E-24
  0.560000002         4.97072655E-24
  0.568000019         9.79233236E-24
  0.575999975         6.41006047E-24
  0.583999991        -9.60632606E-25
  0.592000008        -5.82987654E-24
  0.600000024        -4.75168315E-24
  0.607999980         2.45819856E-25
  0.615999997         3.85306645E-24
  0.624000013         2.37428752E-24
  0.632000029        -2.67155891E-24
  0.639999986        -5.90209439E-24
  0.648000002        -3.17651449E-24
  0.656000018         4.13235279E-24
  0.663999975         9.78787057E-24
  0.671999991         7.86068811E-24
  0.680000007        -1.64354732E-24
  0.688000023        -1.18609647E-23
  0.695999980        -1.39593875E-23
  0.703999996        -4.82649359E-24
  0.712000012         9.33077300E-24
  0.720000029         1.73503614E-23
  0.727999985         1.21712923E-23
  0.736000001        -2.85897352E-24
  0.744000018        -1.65953016E-23
  0.751999974        -1.88108127E-23
  0.759999990        -7.74418519E-24
  0.768000007         8.71876840E-24
  0.776000023         1.95837213E-23
  0.783999979         1.81062211E-23
  0.791999996         5.96813704E-24
  0.800000012        -8.78802014E-24
  0.808000028        -1.70934388E-23
  0.815999985        -1.42130694E-23
  0.824000001        -2.48020492E-24
  0.832000017         1.05990176E-23
  0.839999974         1.73373436E-23
  0.847999990         1.44666156E-23
  0.856000006         4.45820875E-24
  0.864000022        -7.18973745E-24
  0.871999979        -1.54741583E-23
  0.879999995        -1.79708794E-23
  0.888000011        -1.46576273E-23
  0.896000028        -6.94508566E-24
  0.903999984         3.14632735E-24
  0.912000000         1.28083472E-23
  0.920000017         1.83477403E-23
  0.927999973         1.65900620E-23
  0.935999990         7.82146989E-24
  0.944000006        -2.70900751E-24
  0.952000022        -8.12090256E-24
  0.959999979        -5.76951961E-24
  0.967999995         2.09910463E-26
  0.976000011         1.78498160E-24
  0.984000027        -3.76068098E-24
  0.991999984        -1.17173313E-23
   1.00000000        -1.20158197E-23
   1.00800002         1.71898885E-24
   1.01600003         2.42919334E-23
   1.02400005         3.97021640E-23
   1.03199995         3.20622922E-23
   1.03999996        -6.59957336E-25
   1.04799998        -4.05341850E-23
   1.05599999        -5.94877547E-23
   1.06400001        -3.92157239E-23
   1.07200003         1.34649216E-23
   1.08000004         6.76792233E-23
   1.08800006         8.98601428E-23
   1.09599996         6.60058978E-23
   1.10399997         1.14731520E-23
   1.11199999        -4.09215094E-23
   1.12000000        -6.41809596E-23
   1.12800002        -5.34092470E-23
   1.13600004        -2.42001195E-23
   1.14400005         1.66762572E-24
   1.15199995         1.51846558E-23
   1.15999997         2.10608018E-23
   1.16799998         2.97447356E-23
   1.17600000         4.74724944E-23
   1.18400002         6.79191632E-23
   1.19200003         7.49276244E-23
   1.20000005         5.65605948E-23
   1.20799994         1.72076564E-23
   1.21599996        -2.25020617E-23
   1.22399998        -3.72109823E-23
   1.23199999        -2.03151704E-23
   1.24000001         8.70954662E-24
   1.24800003         2.02774203E-23
   1.25600004        -5.63498925E-24
   1.26400006        -5.66822624E-23
   1.27199996        -9.65482697E-23
   1.27999997        -9.03269465E-23
   1.28799999        -2.68571135E-23
   1.29600000         6.36926547E-23
   1.30400002         1.26268497E-22
   1.31200004         1.22032680E-22
   1.32000005         5.29622847E-23
   1.32799995        -3.65386077E-23
   1.33599997        -8.90397401E-23
   1.34399998        -7.69963269E-23
   1.35200000        -2.89186626E-23
   1.36000001         1.22111073E-24
   1.36800003        -2.20043267E-23
   1.37600005        -8.56707802E-23
   1.38399994        -1.32121176E-22
   1.39199996        -1.05996438E-22
   1.39999998        -3.93619740E-24
   1.40799999         1.16100900E-22
   1.41600001         1.72710518E-22
   1.42400002         1.24613391E-22
   1.43200004         1.23787807E-25
   1.44000006        -1.17611575E-22
   1.44799995        -1.53677804E-22
   1.45599997        -9.57997164E-23
   1.46399999         4.62609413E-24
   1.47200000         7.55825682E-23
   1.48000002         7.95263868E-23
   1.48800004         3.58545675E-23
   1.49600005        -4.97185936E-24
   1.50399995        -1.16145088E-23
   1.51199996        -7.22750072E-25
   1.51999998        -1.72818094E-23
   1.52800000        -8.63949609E-23
   1.53600001        -1.79520483E-22
   1.54400003        -2.24528317E-22
   1.55200005        -1.59400844E-22
   1.55999994         1.38712860E-23
   1.56799996         2.16910193E-22
   1.57599998         3.39739900E-22
   1.58399999         3.11446122E-22
   1.59200001         1.47315508E-22
   1.60000002        -6.31818957E-23
   1.60800004        -2.14525839E-22
   1.61600006        -2.47714441E-22
   1.62399995        -1.76476692E-22
   1.63199997        -6.01988655E-23
   1.63999999         4.27453432E-23
   1.64800000         1.06324452E-22
   1.65600002         1.37597928E-22
   1.66400003         1.53858270E-22
   1.67200005         1.62600060E-22
   1.67999995         1.58371476E-22
   1.68799996         1.33892137E-22
   1.69599998         8.98796119E-23
   1.70400000         3.35911394E-23
   1.71200001        -2.82256136E-23
   1.72000003        -9.20175259E-23
   1.72800004        -1.53233277E-22
   1.73599994        -2.01909138E-22
   1.74399996        -2.25994664E-22
   1.75199997        -2.20254610E-22
   1.75999999        -1.87871781E-22
   1.76800001        -1.33911991E-22
   1.77600002        -5.72239764E-23
   1.78400004         4.48957623E-23
   1.79200006         1.59268025E-22
   1.79999995         2.43804417E-22
   1.80799997         2.39600357E-22
   1.81599998         1.10323207E-22
   1.82400000        -1.17132238E-22
   1.83200002        -3.49014935E-22
   1.84000003        -4.71190027E-22
   1.84800005        -4.19906697E-22
   1.85599995        -2.23813420E-22
   1.86399996         1.92408271E-23
   1.87199998         2.12763915E-22
   1.88000000         3.26420798E-22
   1.88800001         3.99948793E-22
   1.89600003         4.84037175E-22
   1.90400004         5.70717111E-22
   1.91199994         5.80034555E-22
   1.91999996         4.19602158E-22
   1.92799997         7.14943629E-23
   1.93599999        -3.67334406E-22
   1.94400001        -7.30811597E-22
   1.95200002        -8.84908469E-22
   1.96000004        -8.06646954E-22
   1.96800005        -5.81769797E-22
   1.97599995        -3.26991327E-22
   1.98399997        -1.05365639E-22
   1.99199998         9.68235632E-23
   2.00000000         3.22294790E-22
   2.00799990         5.73731291E-22
   2.01600003         7.86165147E-22
   2.02399993         8.63808901E-22
   2.03200006         7.46918042E-22
   2.03999996         4.53427050E-22
   2.04800010         6.46967295E-23
   2.05599999        -3.24066811E-22
   2.06399989        -6.46051939E-22
   2.07200003        -8.68586293E-22
   2.07999992        -9.67678128E-22
   2.08800006        -9.08136371E-22
   2.09599996        -6.61258552E-22
   2.10400009        -2.42508464E-22
   2.11199999         2.59469756E-22
   2.11999989         7.02727846E-22
   2.12800002         9.51410781E-22
   2.13599992         9.40430443E-22
   2.14400005         7.00277606E-22
   2.15199995         3.27192569E-22
   2.16000009        -7.53371505E-23
   2.16799998        -4.41023531E-22
   2.17600012        -7.42160491E-22
   2.18400002        -9.58031962E-22
   2.19199991        -1.04375885E-21
   2.20000005        -9.34621802E-22
   2.20799994        -5.87333475E-22
   2.21600008        -2.95667118E-23
   2.22399998         6.20962628E-22
   2.23200011         1.18679769E-21
   2.24000001         1.49734171E-21
   2.24799991         1.45237184E-21
   2.25600004         1.05246626E-21
   2.26399994         3.88176717E-22
   2.27200007        -3.96047428E-22
   2.27999997        -1.13947320E-21
   2.28800011        -1.69485713E-21
   2.29600000        -1.94909440E-21
   2.30399990        -1.84272455E-21
   2.31200004        -1.38135154E-21
   2.31999993        -6.35626959E-22
   2.32800007         2.75704236E-22
   2.33599997         1.20997278E-21
   2.34400010         2.01719342E-21
   2.35200000         2.54830416E-21
   2.35999990         2.66508021E-21
   2.36800003         2.27037834E-21
   2.37599993         1.35902543E-21
   2.38400006         6.27306988E-23
   2.39199996        -1.35284703E-21
   2.40000010        -2.55861686E-21
   2.40799999        -3.27466244E-21
   2.41599989        -3.36354679E-21
   2.42400002        -2.85182532E-21
   2.43199992        -1.87729407E-21
   2.44000006        -6.12408346E-22
   2.44799995         7.79129517E-22
   2.45600009         2.13111554E-21
   2.46399999         3.24307367E-21
   2.47199988         3.88473339E-21
   2.48000002         3.86028349E-21
   2.48799992         3.10296370E-21
   2.49600005         1.73404400E-21
   2.50399995         3.78720887E-23
   2.51200008        -1.63455372E-21
   2.51999998        -2.97647898E-21
   2.52800012        -3.78843833E-21
   2.53600001        -3.97883205E-21
   2.54399991        -3.53449146E-21
   2.55200005        -2.50870248E-21
   2.55999994        -1.03784903E-21
   2.56800008         6.43304936E-22
   2.57599998         2.22490461E-21
   2.58400011         3.39399960E-21
   2.59200001         3.92364480E-21
   2.59999990         3.73263474E-21
   2.60800004         2.89099059E-21
   2.61599994         1.58154702E-21
   2.62400007         4.79549680E-23
   2.63199997        -1.44774732E-21
   2.64000010        -2.65657111E-21
   2.64800000        -3.37435527E-21
   2.65599990        -3.47797742E-21
   2.66400003        -2.95491311E-21
   2.67199993        -1.91036615E-21
   2.68000007        -5.44917547E-22
   2.68799996         8.87211892E-22
   2.69600010         2.12534264E-21
   2.70400000         2.94423266E-21
   2.71199989         3.19251912E-21
   2.72000003         2.82766745E-21
   2.72799993         1.93448323E-21
   2.73600006         7.09378714E-22
   2.74399996        -5.92450948E-22
   2.75200009        -1.72576452E-21
   2.75999999        -2.50874388E-21
   2.76799989        -2.83870716E-21
   2.77600002        -2.67916732E-21
   2.78399992        -2.04601105E-21
   2.79200006        -1.01562138E-21
   2.79999995         2.53166593E-22
   2.80800009         1.51741729E-21
   2.81599998         2.49576648E-21
   2.82399988         2.95829877E-21
   2.83200002         2.81154207E-21
   2.83999991         2.12746007E-21
   2.84800005         1.09808135E-21
   2.85599995        -5.12204009E-23
   2.86400008        -1.13379047E-21
   2.87199998        -2.01711910E-21
   2.88000011        -2.59512488E-21
   2.88800001        -2.76459412E-21
   2.89599991        -2.44608717E-21
   2.90400004        -1.64201420E-21
   2.91199994        -4.84516046E-22
   2.92000008         7.78267147E-22
   2.92799997         1.86130279E-21
   2.93600011         2.54681277E-21
   2.94400001         2.74879933E-21
   2.95199990         2.50479094E-21
   2.96000004         1.91520241E-21
   2.96799994         1.08416095E-21
   2.97600007         1.06206123E-22
   2.98399997        -9.05082306E-22
   2.99200010        -1.79061358E-21
   3.00000000        -2.36475831E-21
   3.00799990        -2.48508947E-21
   3.01600003        -2.12714402E-21
   3.02399993        -1.40643332E-21
   3.03200006        -5.26024215E-22
   3.03999996         3.16503920E-22
   3.04800010         1.00092459E-21
   3.05599999         1.49226472E-21
   3.06399989         1.79439386E-21
   3.07200003         1.89564391E-21
   3.07999992         1.75867383E-21
   3.08800006         1.35905623E-21
   3.09599996         7.36028732E-22
   3.10400009         5.46818342E-24
   3.11199999        -6.81926152E-22
   3.11999989        -1.20818574E-21
   3.12800002        -1.53166748E-21
   3.13599992        -1.67778784E-21
   3.14400005        -1.68856230E-21
   3.15199995        -1.57416540E-21
   3.16000009        -1.30185607E-21
   3.16799998        -8.30073927E-22
   3.17600012        -1.58644863E-22
   3.18400002         6.40014742E-22
   3.19199991         1.42978684E-21
   3.20000005         2.05347284E-21
   3.20799994         2.38444081E-21
   3.21600008         2.36276609E-21
   3.22399998         2.00079258E-21
   3.23200011         1.36244674E-21
   3.24000001         5.32995171E-22
   3.24799991        -4.02393480E-22
   3.25600004        -1.35981839E-21
   3.26399994        -2.23977508E-21
   3.27200007        -2.91015246E-21
   3.27999997        -3.21474799E-21
   3.28800011        -3.01906666E-21
   3.29600000        -2.27880565E-21
   3.30399990        -1.08876871E-21
   3.31200004         3.24734604E-22
   3.31999993         1.67663835E-21
   3.32800007         2.72116613E-21
   3.33599997         3.31838427E-21
   3.34400010         3.43381534E-21
   3.35200000         3.08926937E-21
   3.35999990         2.31945341E-21
   3.36800003         1.17676499E-21
   3.37599993        -2.22934338E-22
   3.38400006        -1.66590035E-21
   3.39199996        -2.86901032E-21
   3.40000010        -3.57339399E-21
   3.40799999        -3.64611157E-21
   3.41599989        -3.12048534E-21
   3.42400002        -2.15197196E-21
   3.43199992        -9.30292937E-22
   3.44000006         3.82201190E-22
   3.44799995         1.64698223E-21
   3.45600009         2.70763700E-21
   3.46399999         3.37182264E-21
   3.47199988         3.46011185E-21
   3.48000002         2.90135821E-21
   3.48799992         1.80397247E-21
   3.49600005         4.40819765E-22
   3.50399995        -8.54044595E-22
   3.51200008        -1.81637675E-21
   3.51999998        -2.33051312E-21
   3.52800012        -2.41750845E-21
   3.53600001        -2.16163196E-21
   3.54399991        -1.64204237E-21
   3.55200005        -9.19747394E-22
   3.55999994        -7.37386785E-23
   3.56800008         7.64167868E-22
   3.57599998         1.42129663E-21
   3.58400011         1.74627480E-21
   3.59200001         1.67873256E-21
   3.59999990         1.27529672E-21
   3.60800004         6.75291996E-22
   3.61599994         3.34335912E-23
   3.62400007        -5.33168644E-22
   3.63199997        -9.53604042E-22
   3.64000010        -1.17935538E-21
   3.64800000        -1.16629205E-21
   3.65599990        -8.87290147E-22
   3.66400003        -3.68280256E-22
   3.67199993         2.87727915E-22
   3.68000007         9.18890224E-22
   3.68799996         1.36275593E-21
   3.69600010         1.51861687E-21
   3.70400000         1.37492826E-21
   3.71199989         9.88818793E-22
   3.72000003         4.43017469E-22
   3.72799993        -1.83126032E-22
   3.73600006        -8.12405664E-22
   3.74399996        -1.35382567E-21
   3.75200009        -1.70202125E-21
