 -0.239999995         0.00000000    
 -0.231999993         0.00000000    
 -0.224000007         0.00000000    
 -0.216000006         0.00000000    
 -0.208000004         0.00000000    
 -0.200000003         0.00000000    
 -0.192000002         0.00000000    
 -0.184000000         1.32083330E-29
 -0.175999999        -5.64784493E-29
 -0.167999998        -6.07464930E-28
 -0.159999996        -1.20483837E-27
 -0.151999995         1.89813146E-27
 -0.143999994         1.23587641E-26
 -0.136000007         1.93713146E-26
 -0.128000006        -6.36362229E-27
 -0.119999997        -7.52970384E-26
 -0.112000003        -1.31437625E-25
 -0.104000002        -8.17125668E-26
  -9.60000008E-02     1.06996680E-25
  -8.79999995E-02     3.83838984E-25
  -7.99999982E-02     6.59552453E-25
  -7.19999969E-02     6.86478100E-25
  -6.40000030E-02    -1.13998499E-25
  -5.60000017E-02    -2.11553759E-24
  -4.80000004E-02    -4.12526370E-24
  -3.99999991E-02    -3.13397339E-24
  -3.20000015E-02     2.73734636E-24
  -2.40000002E-02     1.01781776E-23
  -1.60000008E-02     1.15062605E-23
  -8.00000038E-03     2.38286855E-24
   0.00000000        -1.14100281E-23
   8.00000038E-03    -1.81628913E-23
   1.60000008E-02    -1.28618217E-23
   2.40000002E-02    -2.64685198E-24
   3.20000015E-02     3.67203195E-24
   3.99999991E-02     8.69904057E-24
   4.80000004E-02     2.15885529E-23
   5.60000017E-02     3.80654890E-23
   6.40000030E-02     3.43601305E-23
   7.19999969E-02    -7.18623412E-24
   7.99999982E-02    -6.61409193E-23
   8.79999995E-02    -9.04702226E-23
   9.60000008E-02    -4.70437832E-23
  0.104000002         3.60702957E-23
  0.112000003         8.92899226E-23
  0.119999997         6.99007502E-23
  0.128000006         5.85777855E-24
  0.136000007        -3.57603807E-23
  0.143999994        -2.19642700E-23
  0.151999995         1.39887300E-23
  0.159999996         1.81457067E-23
  0.167999998        -1.50138279E-23
  0.175999999        -3.43495187E-23
  0.184000000         4.44566212E-25
  0.192000002         5.43742763E-23
  0.200000003         4.08829846E-23
  0.208000004        -7.88456062E-23
  0.216000006        -2.28267770E-22
  0.224000007        -2.63950335E-22
  0.231999993        -1.02031011E-22
  0.239999995         2.00456788E-22
  0.247999996         4.84504787E-22
  0.256000012         6.01213287E-22
  0.263999999         4.90704603E-22
  0.272000015         1.77695576E-22
  0.280000001        -2.73464275E-22
  0.287999988        -7.74866689E-22
  0.296000004        -1.18921158E-21
  0.303999990        -1.31926876E-21
  0.312000006        -9.77315610E-22
  0.319999993        -1.27144650E-22
  0.328000009         1.00237014E-21
  0.335999995         1.95539984E-21
  0.344000012         2.26644176E-21
  0.351999998         1.73240903E-21
  0.360000014         5.43801984E-22
  0.368000001        -8.27154864E-22
  0.375999987        -1.89159646E-21
  0.384000003        -2.35587743E-21
  0.391999990        -2.14710520E-21
  0.400000006        -1.31097081E-21
  0.407999992         4.94872641E-23
  0.416000009         1.71696765E-21
  0.423999995         3.29631252E-21
  0.432000011         4.31387574E-21
  0.439999998         4.48353743E-21
  0.448000014         3.92032073E-21
  0.456000000         3.06407874E-21
  0.463999987         2.32356367E-21
  0.472000003         1.73336586E-21
  0.479999989         9.34273946E-22
  0.488000005        -4.98444931E-22
  0.495999992        -2.65518373E-21
  0.504000008        -5.09580497E-21
  0.512000024        -6.84857645E-21
  0.519999981        -6.37602368E-21
  0.527999997        -1.38602008E-21
  0.536000013         1.13578013E-20
  0.544000030         3.60133081E-20
  0.551999986         7.74930134E-20
  0.560000002         1.41513491E-19
  0.568000019         2.35129062E-19
  0.575999975         3.67574223E-19
  0.583999991         5.50915419E-19
  0.592000008         8.00182782E-19
  0.600000024         1.13316051E-18
  0.607999980         1.57028566E-18
  0.615999997         2.13484377E-18
  0.624000013         2.85312336E-18
  0.632000029         3.75397516E-18
  0.639999986         4.86748931E-18
  0.648000002         6.22291697E-18
  0.656000018         7.84617124E-18
  0.663999975         9.75706682E-18
  0.671999991         1.19661800E-17
  0.680000007         1.44711112E-17
  0.688000023         1.72522579E-17
  0.695999980         2.02687904E-17
  0.703999996         2.34559239E-17
  0.712000012         2.67243213E-17
  0.720000029         2.99619277E-17
  0.727999985         3.30381859E-17
  0.736000001         3.58104983E-17
  0.744000018         3.81327549E-17
  0.751999974         3.98651193E-17
  0.759999990         4.08843514E-17
  0.768000007         4.10940483E-17
  0.776000023         4.04343817E-17
  0.783999979         3.88902208E-17
  0.791999996         3.64959762E-17
  0.800000012         3.33359279E-17
  0.808000028         2.95398505E-17
  0.815999985         2.52747749E-17
  0.824000001         2.07337751E-17
  0.832000017         1.61226336E-17
  0.839999974         1.16453274E-17
  0.847999990         7.48929906E-18
  0.856000006         3.81154983E-18
  0.864000022         7.26832799E-19
  0.871999979        -1.70051201E-18
  0.879999995        -3.45994864E-18
  0.888000011        -4.59338026E-18
  0.896000028        -5.18999214E-18
  0.903999984        -5.37818855E-18
  0.912000000        -5.31491833E-18
  0.920000017        -5.17246294E-18
  0.927999973        -5.12326141E-18
  0.935999990        -5.32389655E-18
  0.944000006        -5.89949390E-18
  0.952000022        -6.92965595E-18
  0.959999979        -8.43699658E-18
  0.967999995        -1.03793027E-17
  0.976000011        -1.26461597E-17
  0.984000027        -1.50606263E-17
  0.991999984        -1.73864348E-17
   1.00000000        -1.93414498E-17
   1.00800002        -2.06182527E-17
   1.01600003        -2.09123137E-17
   1.02400005        -1.99570310E-17
   1.03199995        -1.75634896E-17
   1.03999996        -1.36615826E-17
   1.04799998        -8.33864728E-18
   1.05599999        -1.87193909E-18
   1.06400001         5.24823558E-18
   1.07200003         1.23076658E-17
   1.08000004         1.83725284E-17
   1.08800006         2.23121531E-17
   1.09599996         2.28425413E-17
   1.10399997         1.85910944E-17
   1.11199999         8.17969874E-18
   1.12000000        -9.67887509E-18
   1.12800002        -3.60774427E-17
   1.13600004        -7.18096467E-17
   1.14400005        -1.17270467E-16
   1.15199995        -1.72367936E-16
   1.15999997        -2.36453032E-16
   1.16799998        -3.08274571E-16
   1.17600000        -3.85964565E-16
   1.18400002        -4.67058361E-16
   1.19200003        -5.48550977E-16
   1.20000005        -6.26988611E-16
   1.20799994        -6.98593017E-16
   1.21599996        -7.59413795E-16
   1.22399998        -8.05503928E-16
   1.23199999        -8.33111061E-16
   1.24000001        -8.38875967E-16
   1.24800003        -8.20029166E-16
   1.25600004        -7.74573461E-16
   1.26400006        -7.01441801E-16
   1.27199996        -6.00619681E-16
   1.27999997        -4.73223596E-16
   1.28799999        -3.21529233E-16
   1.29600000        -1.48945860E-16
   1.30400002         4.00650555E-17
   1.31200004         2.40126667E-16
   1.32000005         4.45135401E-16
   1.32799995         6.48494989E-16
   1.33599997         8.43384406E-16
   1.34399998         1.02304555E-15
   1.35200000         1.18107585E-15
   1.36000001         1.31171078E-15
   1.36800003         1.41008412E-15
   1.37600005         1.47245275E-15
   1.38399994         1.49637370E-15
   1.39199996         1.48082503E-15
   1.39999998         1.42625981E-15
   1.40799999         1.33459316E-15
   1.41600001         1.20912259E-15
   1.42400002         1.05438820E-15
   1.43200004         8.75980669E-16
   1.44000006         6.80304147E-16
   1.44799995         4.74305310E-16
   1.45599997         2.65178937E-16
   1.46399999         6.00652967E-17
   1.47200000        -1.34246331E-16
   1.48000002        -3.11593113E-16
   1.48800004        -4.66681696E-16
   1.49600005        -5.95289673E-16
   1.50399995        -6.94415186E-16
   1.51199996        -7.62370681E-16
   1.51999998        -7.98813426E-16
   1.52800000        -8.04713011E-16
   1.53600001        -7.82257797E-16
   1.54400003        -7.34706532E-16
   1.55200005        -6.66192737E-16
   1.55999994        -5.81493836E-16
   1.56799996        -4.85775460E-16
   1.57599998        -3.84326244E-16
   1.58399999        -2.82297976E-16
   1.59200001        -1.84464916E-16
   1.60000002        -9.50142334E-17
   1.60800004        -1.73762837E-17
   1.61600006         4.58980486E-17
   1.62399995         9.32067908E-17
   1.63199997         1.23910756E-16
   1.63999999         1.38293508E-16
   1.64800000         1.37473778E-16
   1.65600002         1.23279650E-16
   1.66400003         9.80955672E-17
   1.67200005         6.46918766E-17
   1.67999995         2.60464451E-17
   1.68799996        -1.48326487E-17
   1.69599998        -5.50734900E-17
   1.70400000        -9.20858354E-17
   1.71200001        -1.23677716E-16
   1.72000003        -1.48138783E-16
   1.72800004        -1.64290060E-16
   1.73599994        -1.71502175E-16
   1.74399996        -1.69684946E-16
   1.75199997        -1.59251128E-16
   1.75999999        -1.41057747E-16
   1.76800001        -1.16329295E-16
   1.77600002        -8.65679120E-17
   1.78400004        -5.34569276E-17
   1.79200006        -1.87636873E-17
   1.79999995         1.57524372E-17
   1.80799997         4.84231431E-17
   1.81599998         7.77432713E-17
   1.82400000         1.02431072E-16
   1.83200002         1.21476224E-16
   1.84000003         1.34174201E-16
   1.84800005         1.40145585E-16
   1.85599995         1.39339395E-16
   1.86399996         1.32021109E-16
   1.87199998         1.18747799E-16
   1.88000000         1.00333845E-16
   1.88800001         7.78089495E-17
   1.89600003         5.23689270E-17
   1.90400004         2.53187842E-17
   1.91199994        -1.99099230E-18
   1.91999996        -2.82316511E-17
   1.92799997        -5.21617447E-17
   1.93599999        -7.26863589E-17
   1.94400001        -8.89076156E-17
   1.95200002        -1.00165835E-16
   1.96000004        -1.06070766E-16
   1.96800005        -1.06520349E-16
   1.97599995        -1.01703544E-16
   1.98399997        -9.20844060E-17
   1.99199998        -7.83679581E-17
   2.00000000        -6.14517771E-17
   2.00799990        -4.23684689E-17
   2.01600003        -2.22228242E-17
   2.02399993        -2.12616788E-18
   2.03200006         1.68700971E-17
   2.03999996         3.38376593E-17
   2.04800010         4.80256034E-17
   2.05599999         5.88999183E-17
   2.06399989         6.61649794E-17
   2.07200003         6.97663915E-17
   2.07999992         6.98772138E-17
   2.08800006         6.68694925E-17
   2.09599996         6.12726495E-17
   2.10400009         5.37211026E-17
   2.11199999         4.48954693E-17
   2.11999989         3.54631354E-17
   2.12800002         2.60245000E-17
   2.13599992         1.70695386E-17
   2.14400005         8.94751260E-18
   2.15199995         1.85146720E-18
   2.16000009        -4.18130494E-18
   2.16799998        -9.25220375E-18
   2.17600012        -1.35691361E-17
   2.18400002        -1.74030082E-17
   2.19199991        -2.10390494E-17
   2.20000005        -2.47289598E-17
   2.20799994        -2.86487355E-17
   2.21600008        -3.28654706E-17
   2.22399998        -3.73159670E-17
   2.23200011        -4.18002058E-17
   2.24000001        -4.59922909E-17
   2.24799991        -4.94692983E-17
   2.25600004        -5.17552219E-17
   2.26399994        -5.23745948E-17
   2.27200007        -5.09088937E-17
   2.27999997        -4.70498877E-17
   2.28800011        -4.06449587E-17
   2.29600000        -3.17307079E-17
   2.30399990        -2.05513453E-17
   2.31200004        -7.55890548E-18
   2.31999993         6.60647773E-18
   2.32800007         2.11552136E-17
   2.33599997         3.52022360E-17
   2.34400010         4.78312127E-17
   2.35200000         5.81634562E-17
   2.35999990         6.54262542E-17
   2.36800003         6.90153975E-17
   2.37599993         6.85465515E-17
   2.38400006         6.38909871E-17
   2.39199996         5.51924915E-17
   2.40000010         4.28641817E-17
   2.40799999         2.75655259E-17
   2.41599989         1.01612182E-17
   2.42400002        -8.33531788E-18
   2.43199992        -2.68296842E-17
   2.44000006        -4.42203311E-17
   2.44799995        -5.94725655E-17
   2.45600009        -7.16871313E-17
   2.46399999        -8.01586784E-17
   2.47199988        -8.44206372E-17
   2.48000002        -8.42739284E-17
   2.48799992        -7.97970814E-17
   2.49600005        -7.13362082E-17
   2.50399995        -5.94752257E-17
   2.51200008        -4.49894866E-17
   2.51999998        -2.87877217E-17
   2.52800012        -1.18475474E-17
   2.53600001         4.85156525E-18
   2.54399991         2.03942720E-17
   2.55200005         3.39901815E-17
   2.55999994         4.50242481E-17
   2.56800008         5.30913038E-17
   2.57599998         5.80113874E-17
   2.58400011         5.98256856E-17
   2.59200001         5.87757419E-17
   2.59999990         5.52694623E-17
   2.60800004         4.98373043E-17
   2.61599994         4.30810883E-17
   2.62400007         3.56193302E-17
   2.63199997         2.80340410E-17
   2.64000010         2.08251653E-17
   2.64800000         1.43775025E-17
   2.65599990         8.94236257E-18
   2.66400003         4.63363129E-18
   2.67199993         1.43660521E-18
   2.68000007        -7.72095450E-19
   2.68799996        -2.19498352E-18
   2.69600010        -3.07686310E-18
   2.70400000        -3.66469218E-18
   2.71199989        -4.16965824E-18
   2.72000003        -4.73684440E-18
   2.72799993        -5.42619935E-18
   2.73600006        -6.20601147E-18
   2.74399996        -6.95849891E-18
   2.75200009        -7.49611337E-18
   2.75999999        -7.58674424E-18
   2.76799989        -6.98535664E-18
   2.77600002        -5.46887360E-18
   2.78399992        -2.87058928E-18
   2.79200006         8.89748140E-19
   2.79999995         5.78378498E-18
   2.80800009         1.16629555E-17
   2.81599998         1.82588275E-17
   2.82399988         2.51953606E-17
   2.83200002         3.20116018E-17
   2.83999991         3.81925402E-17
   2.84800005         4.32054235E-17
   2.85599995         4.65390044E-17
   2.86400008         4.77433396E-17
   2.87199998         4.64674003E-17
   2.88000011         4.24912490E-17
   2.88800001         3.57493696E-17
   2.89599991         2.63426601E-17
   2.90400004         1.45386968E-17
   2.91199994         7.61482258E-19
   2.92000008        -1.44274609E-17
   2.92799997        -3.03556723E-17
   2.93600011        -4.62740386E-17
   2.94400001        -6.13986655E-17
   2.95199990        -7.49583527E-17
   2.96000004        -8.62436705E-17
   2.96799994        -9.46528746E-17
   2.97600007        -9.97310158E-17
   2.98399997        -1.01200400E-16
   2.99200010        -9.89816100E-17
   3.00000000        -9.32037005E-17
   3.00799990        -8.42013748E-17
   3.01600003        -7.24969213E-17
   3.02399993        -5.87668944E-17
   3.03200006        -4.37959974E-17
   3.03999996        -2.84229879E-17
   3.04800010        -1.34833236E-17
   3.05599999         2.47983371E-19
   3.06399989         1.21102807E-17
   3.07200003         2.16045282E-17
   3.07999992         2.84290727E-17
   3.08800006         3.24991719E-17
   3.09599996         3.39476115E-17
   3.10400009         3.31071132E-17
   3.11199999         3.04778005E-17
   3.11999989         2.66836323E-17
   3.12800002         2.24210134E-17
   3.13599992         1.84022474E-17
   3.14400005         1.52973108E-17
   3.15199995         1.36786614E-17
   3.16000009         1.39745167E-17
   3.16799998         1.64350200E-17
   3.17600012         2.11134741E-17
   3.18400002         2.78630429E-17
   3.19199991         3.63478911E-17
   3.20000005         4.60675776E-17
   3.20799994         5.63926942E-17
   3.21600008         6.66089173E-17
   3.22399998         7.59659381E-17
   3.23200011         8.37271951E-17
   3.24000001         8.92173781E-17
   3.24799991         9.18649583E-17
   3.25600004         9.12382730E-17
   3.26399994         8.70733525E-17
   3.27200007         7.92919784E-17
   3.27999997         6.80088775E-17
   3.28800011         5.35278831E-17
   3.29600000         3.63279759E-17
   3.30399990         1.70408123E-17
   3.31200004        -3.57891810E-18
   3.31999993        -2.46888829E-17
   3.32800007        -4.53986598E-17
   3.33599997        -6.48118509E-17
   3.34400010        -8.20690289E-17
   3.35200000        -9.63899936E-17
   3.35999990        -1.07113278E-16
   3.36800003        -1.13730518E-16
   3.37599993        -1.15913256E-16
   3.38400006        -1.13530274E-16
   3.39199996        -1.06655014E-16
   3.40000010        -9.55636799E-17
   3.40799999        -8.07246685E-17
   3.41599989        -6.27793490E-17
   3.42400002        -4.25137615E-17
   3.43199992        -2.08209748E-17
   3.44000006         1.34361925E-18
   3.44799995         2.30100901E-17
   3.45600009         4.32402312E-17
   3.46399999         6.11693247E-17
   3.47199988         7.60429056E-17
   3.48000002         8.72490324E-17
   3.48799992         9.43456068E-17
   3.49600005         9.70800541E-17
   3.50399995         9.53982040E-17
   3.51200008         8.94409618E-17
   3.51999998         7.95307358E-17
   3.52800012         6.61516585E-17
   3.53600001         4.99265075E-17
   3.54399991         3.15907820E-17
   3.55200005         1.19621814E-17
   3.55999994        -8.09516336E-18
   3.56800008        -2.77099252E-17
   3.57599998        -4.60421732E-17
   3.58400011        -6.23176896E-17
   3.59200001        -7.58568032E-17
   3.59999990        -8.60988014E-17
   3.60800004        -9.26233175E-17
   3.61599994        -9.51683074E-17
   3.62400007        -9.36421922E-17
   3.63199997        -8.81276173E-17
   3.64000010        -7.88760058E-17
   3.64800000        -6.62942777E-17
   3.65599990        -5.09260560E-17
   3.66400003        -3.34288832E-17
   3.67199993        -1.45477578E-17
   3.68000007         4.91521018E-18
   3.68799996         2.41344105E-17
   3.69600010         4.22959649E-17
   3.70400000         5.86321765E-17
   3.71199989         7.24531800E-17
   3.72000003         8.31744135E-17
   3.72799993         9.03393792E-17
   3.73600006         9.36374674E-17
   3.74399996         9.29171122E-17
   3.75200009         8.81938646E-17
