 -0.239999995         0.00000000    
 -0.231999993         0.00000000    
 -0.224000007         0.00000000    
 -0.216000006         0.00000000    
 -0.208000004        -6.24866645E-26
 -0.200000003         1.43731640E-25
 -0.192000002         1.12220079E-24
 -0.184000000         1.29998785E-24
 -0.175999999        -2.70046908E-24
 -0.167999998        -9.57268036E-24
 -0.159999996        -1.03910099E-23
 -0.151999995         1.02126120E-24
 -0.143999994         1.79793565E-23
 -0.136000007         2.86110037E-23
 -0.128000006         2.67015438E-23
 -0.119999997         4.60343449E-24
 -0.112000003        -4.84206326E-23
 -0.104000002        -1.13294878E-22
  -9.60000008E-02    -1.20172874E-22
  -8.79999995E-02    -1.09407742E-23
  -7.99999982E-02     1.62773130E-22
  -7.19999969E-02     2.51603866E-22
  -6.40000030E-02     1.57113160E-22
  -5.60000017E-02    -5.42745706E-23
  -4.80000004E-02    -2.18547313E-22
  -3.99999991E-02    -2.37932793E-22
  -3.20000015E-02    -1.47904175E-22
  -2.40000002E-02    -4.17314897E-23
  -1.60000008E-02     2.63838695E-23
  -8.00000038E-03     6.15609632E-23
   0.00000000         9.00123046E-23
   8.00000038E-03     1.21578965E-22
   1.60000008E-02     1.43336241E-22
   2.40000002E-02     1.42974261E-22
   3.20000015E-02     1.28163972E-22
   3.99999991E-02     1.00123217E-22
   4.80000004E-02     8.43833624E-24
   5.60000017E-02    -2.20817061E-22
   6.40000030E-02    -5.72470275E-22
   7.19999969E-02    -8.79053480E-22
   7.99999982E-02    -9.12196947E-22
   8.79999995E-02    -5.43642142E-22
   9.60000008E-02     1.83861730E-22
  0.104000002         1.11341681E-21
  0.112000003         2.09468102E-21
  0.119999997         3.11210974E-21
  0.128000006         4.34238237E-21
  0.136000007         6.04825457E-21
  0.143999994         8.39659731E-21
  0.151999995         1.14731906E-20
  0.159999996         1.55406768E-20
  0.167999998         2.11643207E-20
  0.175999999         2.89421578E-20
  0.184000000         3.91941762E-20
  0.192000002         5.20997059E-20
  0.200000003         6.80808935E-20
  0.208000004         8.77848139E-20
  0.216000006         1.11611157E-19
  0.224000007         1.39453682E-19
  0.231999993         1.70979060E-19
  0.239999995         2.05910238E-19
  0.247999996         2.43798380E-19
  0.256000012         2.83586439E-19
  0.263999999         3.23529363E-19
  0.272000015         3.61424316E-19
  0.280000001         3.94747546E-19
  0.287999988         4.20718613E-19
  0.296000004         4.36621134E-19
  0.303999990         4.40296556E-19
  0.312000006         4.30330245E-19
  0.319999993         4.05836289E-19
  0.328000009         3.66348134E-19
  0.335999995         3.12139525E-19
  0.344000012         2.44532916E-19
  0.351999998         1.65569673E-19
  0.360000014         7.71118705E-20
  0.368000001        -1.98576936E-20
  0.375999987        -1.25298993E-19
  0.384000003        -2.39999605E-19
  0.391999990        -3.65912443E-19
  0.400000006        -5.06636545E-19
  0.407999992        -6.67073653E-19
  0.416000009        -8.52112250E-19
  0.423999995        -1.06541421E-18
  0.432000011        -1.30897785E-18
  0.439999998        -1.58261106E-18
  0.448000014        -1.88236074E-18
  0.456000000        -2.19879434E-18
  0.463999987        -2.51682585E-18
  0.472000003        -2.81687114E-18
  0.479999989        -3.07561592E-18
  0.488000005        -3.26606743E-18
  0.495999992        -3.35879624E-18
  0.504000008        -3.32520961E-18
  0.512000024        -3.14094168E-18
  0.519999981        -2.78760507E-18
  0.527999997        -2.25396729E-18
  0.536000013        -1.53849731E-18
  0.544000030        -6.52352371E-19
  0.551999986         3.79727574E-19
  0.560000002         1.52104494E-18
  0.568000019         2.72485743E-18
  0.575999975         3.93544742E-18
  0.583999991         5.09007865E-18
  0.592000008         6.12343237E-18
  0.600000024         6.97316813E-18
  0.607999980         7.58400545E-18
  0.615999997         7.91021901E-18
  0.624000013         7.91874228E-18
  0.632000029         7.59357014E-18
  0.639999986         6.93887074E-18
  0.648000002         5.97848800E-18
  0.656000018         4.75328751E-18
  0.663999975         3.31945801E-18
  0.671999991         1.74729931E-18
  0.680000007         1.17135702E-19
  0.688000023        -1.48802885E-18
  0.695999980        -2.98899274E-18
  0.703999996        -4.31358270E-18
  0.712000012        -5.39953436E-18
  0.720000029        -6.19977039E-18
  0.727999985        -6.68716092E-18
  0.736000001        -6.85470677E-18
  0.744000018        -6.71288583E-18
  0.751999974        -6.28853225E-18
  0.759999990        -5.62452707E-18
  0.768000007        -4.77613052E-18
  0.776000023        -3.80418916E-18
  0.783999979        -2.77004279E-18
  0.791999996        -1.73348901E-18
  0.800000012        -7.50027202E-19
  0.808000028         1.34021780E-19
  0.815999985         8.84857228E-19
  0.824000001         1.48078689E-18
  0.832000017         1.91091894E-18
  0.839999974         2.17539568E-18
  0.847999990         2.28514889E-18
  0.856000006         2.25899861E-18
  0.864000022         2.12002689E-18
  0.871999979         1.89378059E-18
  0.879999995         1.60729372E-18
  0.888000011         1.28690123E-18
  0.896000028         9.55773800E-19
  0.903999984         6.33269159E-19
  0.912000000         3.35542326E-19
  0.920000017         7.54132745E-20
  0.927999973        -1.38502295E-19
  0.935999990        -3.01666178E-19
  0.944000006        -4.12261647E-19
  0.952000022        -4.70251351E-19
  0.959999979        -4.77698768E-19
  0.967999995        -4.39234043E-19
  0.976000011        -3.61455154E-19
  0.984000027        -2.51794347E-19
  0.991999984        -1.18206798E-19
   1.00000000         3.02182519E-20
   1.00800002         1.83084189E-19
   1.01600003         3.29700673E-19
   1.02400005         4.60242879E-19
   1.03199995         5.65884752E-19
   1.03999996         6.38568233E-19
   1.04799998         6.71819085E-19
   1.05599999         6.62272748E-19
   1.06400001         6.10217549E-19
   1.07200003         5.18832237E-19
   1.08000004         3.93603736E-19
   1.08800006         2.42651520E-19
   1.09599996         7.68448333E-20
   1.10399997        -9.12712251E-20
   1.11199999        -2.49067262E-19
   1.12000000        -3.84909059E-19
   1.12800002        -4.88773424E-19
   1.13600004        -5.52984043E-19
   1.14400005        -5.73140005E-19
   1.15199995        -5.48839920E-19
   1.15999997        -4.83794676E-19
   1.16799998        -3.85163107E-19
   1.17600000        -2.62525129E-19
   1.18400002        -1.27227538E-19
   1.19200003         7.99517156E-21
   1.20000005         1.30142252E-19
   1.20799994         2.27938743E-19
   1.21599996         2.93199416E-19
   1.22399998         3.20699164E-19
   1.23199999         3.07893400E-19
   1.24000001         2.55767115E-19
   1.24800003         1.69596027E-19
   1.25600004         5.78988689E-20
   1.26400006        -6.95032887E-20
   1.27199996        -2.02185327E-19
   1.27999997        -3.28837562E-19
   1.28799999        -4.38059343E-19
   1.29600000        -5.20299035E-19
   1.30400002        -5.68846679E-19
   1.31200004        -5.79246355E-19
   1.32000005        -5.48935408E-19
   1.32799995        -4.78088370E-19
   1.33599997        -3.70221925E-19
   1.34399998        -2.31351173E-19
   1.35200000        -6.87603125E-20
   1.36000001         1.09199848E-19
   1.36800003         2.92803067E-19
   1.37600005         4.71477750E-19
   1.38399994         6.35061298E-19
   1.39199996         7.74518366E-19
   1.39999998         8.81762952E-19
   1.40799999         9.49599311E-19
   1.41600001         9.72486261E-19
   1.42400002         9.47446470E-19
   1.43200004         8.74104294E-19
   1.44000006         7.54105202E-19
   1.44799995         5.91164374E-19
   1.45599997         3.91948806E-19
   1.46399999         1.66389745E-19
   1.47200000        -7.34851165E-20
   1.48000002        -3.14958738E-19
   1.48800004        -5.44768072E-19
   1.49600005        -7.48840870E-19
   1.50399995        -9.13544162E-19
   1.51199996        -1.02797292E-18
   1.51999998        -1.08489152E-18
   1.52800000        -1.08003432E-18
   1.53600001        -1.01214016E-18
   1.54400003        -8.84552722E-19
   1.55200005        -7.05979886E-19
   1.55999994        -4.88827760E-19
   1.56799996        -2.47178912E-19
   1.57599998         3.41102870E-21
   1.58399999         2.45766966E-19
   1.59200001         4.62991239E-19
   1.60000002         6.41301497E-19
   1.60800004         7.70924731E-19
   1.61600006         8.45252855E-19
   1.62399995         8.61019693E-19
   1.63199997         8.19902922E-19
   1.63999999         7.28895477E-19
   1.64800000         5.98367824E-19
   1.65600002         4.40131068E-19
   1.66400003         2.67238507E-19
   1.67200005         9.38784790E-20
   1.67999995        -6.65321400E-20
   1.68799996        -2.03720432E-19
   1.69599998        -3.11005538E-19
   1.70400000        -3.84351565E-19
   1.71200001        -4.22398513E-19
   1.72000003        -4.27531169E-19
   1.72800004        -4.05680443E-19
   1.73599994        -3.64285172E-19
   1.74399996        -3.10665903E-19
   1.75199997        -2.52089935E-19
   1.75999999        -1.95839960E-19
   1.76800001        -1.47837752E-19
   1.77600002        -1.11263327E-19
   1.78400004        -8.69075760E-20
   1.79200006        -7.42045504E-20
   1.79999995        -7.10978668E-20
   1.80799997        -7.34276921E-20
   1.81599998        -7.57186011E-20
   1.82400000        -7.29553913E-20
   1.83200002        -6.13744750E-20
   1.84000003        -3.81729700E-20
   1.84800005        -1.77058212E-21
   1.85599995         4.71876877E-20
   1.86399996         1.05612114E-19
   1.87199998         1.68918152E-19
   1.88000000         2.31835694E-19
   1.88800001         2.88548463E-19
   1.89600003         3.33137505E-19
   1.90400004         3.60694794E-19
   1.91199994         3.68127710E-19
   1.91999996         3.54129436E-19
   1.92799997         3.19029707E-19
   1.93599999         2.65002896E-19
   1.94400001         1.96092845E-19
   1.95200002         1.17636948E-19
   1.96000004         3.54967338E-20
   1.96800005        -4.44779571E-20
   1.97599995        -1.16878785E-19
   1.98399997        -1.77252850E-19
   1.99199998        -2.22589288E-19
   2.00000000        -2.51609395E-19
   2.00799990        -2.64766271E-19
   2.01600003        -2.63909312E-19
   2.02399993        -2.51791685E-19
   2.03200006        -2.31710764E-19
   2.03999996        -2.07214779E-19
   2.04800010        -1.81525535E-19
   2.05599999        -1.56799375E-19
   2.06399989        -1.33834088E-19
   2.07200003        -1.12362495E-19
   2.07999992        -9.13615364E-20
   2.08800006        -6.90735426E-20
   2.09599996        -4.31871095E-20
   2.10400009        -1.15246325E-20
   2.11199999         2.71921829E-20
   2.11999989         7.30687151E-20
   2.12800002         1.25143793E-19
   2.13599992         1.81360603E-19
   2.14400005         2.38309856E-19
   2.15199995         2.91251431E-19
   2.16000009         3.34785223E-19
   2.16799998         3.63791810E-19
   2.17600012         3.73929452E-19
   2.18400002         3.61678648E-19
   2.19199991         3.24693387E-19
   2.20000005         2.62661019E-19
   2.20799994         1.77740835E-19
   2.21600008         7.39726038E-20
   2.22399998        -4.34383074E-20
   2.23200011        -1.67969906E-19
   2.24000001        -2.91500878E-19
   2.24799991        -4.05177802E-19
   2.25600004        -5.00933238E-19
   2.26399994        -5.72090416E-19
   2.27200007        -6.13093087E-19
   2.27999997        -6.19837194E-19
   2.28800011        -5.90785060E-19
   2.29600000        -5.27395263E-19
   2.30399990        -4.33365015E-19
   2.31200004        -3.13964415E-19
   2.31999993        -1.76165973E-19
   2.32800007        -2.85643948E-20
   2.33599997         1.19641388E-19
   2.34400010         2.59746913E-19
   2.35200000         3.83899615E-19
   2.35999990         4.85268970E-19
   2.36800003         5.58709942E-19
   2.37599993         6.01425549E-19
   2.38400006         6.12931993E-19
   2.39199996         5.94634034E-19
   2.40000010         5.49637581E-19
   2.40799999         4.82677620E-19
   2.41599989         3.99692819E-19
   2.42400002         3.07095869E-19
   2.43199992         2.11121166E-19
   2.44000006         1.17359584E-19
   2.44799995         3.04286466E-20
   2.45600009        -4.62236733E-20
   2.46399999        -1.10428004E-19
   2.47199988        -1.61375700E-19
   2.48000002        -1.99506839E-19
   2.48799992        -2.26049359E-19
   2.49600005        -2.42520438E-19
   2.50399995        -2.50595918E-19
   2.51200008        -2.52144658E-19
   2.51999998        -2.48937446E-19
   2.52800012        -2.42208151E-19
   2.53600001        -2.32693765E-19
   2.54399991        -2.21094495E-19
   2.55200005        -2.08208676E-19
   2.55999994        -1.94563013E-19
   2.56800008        -1.80248885E-19
   2.57599998        -1.65326082E-19
   2.58400011        -1.50169225E-19
   2.59200001        -1.35209146E-19
   2.59999990        -1.20490333E-19
   2.60800004        -1.05677997E-19
   2.61599994        -9.03362913E-20
   2.62400007        -7.39055827E-20
   2.63199997        -5.54116660E-20
   2.64000010        -3.34509352E-20
   2.64800000        -6.60286463E-21
   2.65599990         2.61553637E-20
   2.66400003         6.53352290E-20
   2.67199993         1.10895878E-19
   2.68000007         1.61956962E-19
   2.68799996         2.16401292E-19
   2.69600010         2.70817588E-19
   2.70400000         3.20915808E-19
   2.71199989         3.62020170E-19
   2.72000003         3.89304749E-19
   2.72799993         3.98020208E-19
   2.73600006         3.84141979E-19
   2.74399996         3.45233832E-19
   2.75200009         2.80888461E-19
   2.75999999         1.92656698E-19
   2.76799989         8.40580357E-20
   2.77600002        -3.91521289E-20
   2.78399992        -1.69103027E-19
   2.79200006        -2.96699294E-19
   2.79999995        -4.12659961E-19
   2.80800009        -5.08054022E-19
   2.81599998        -5.74690607E-19
   2.82399988        -6.06019504E-19
   2.83200002        -5.98260808E-19
   2.83999991        -5.50902443E-19
   2.84800005        -4.66451077E-19
   2.85599995        -3.50093389E-19
   2.86400008        -2.09560793E-19
   2.87199998        -5.47070762E-20
   2.88000011         1.03521835E-19
   2.88800001         2.54300265E-19
   2.89599991         3.87730727E-19
   2.90400004         4.95274030E-19
   2.91199994         5.70242908E-19
   2.92000008         6.08474576E-19
   2.92799997         6.08766105E-19
   2.93600011         5.72719487E-19
   2.94400001         5.04205874E-19
   2.95199990         4.08928161E-19
   2.96000004         2.94134957E-19
   2.96799994         1.68089498E-19
   2.97600007         3.91856039E-20
   2.98399997        -8.48400122E-20
   2.99200010        -1.97262090E-19
   3.00000000        -2.92545167E-19
   3.00799990        -3.66666341E-19
   3.01600003        -4.17372900E-19
   3.02399993        -4.44052525E-19
   3.03200006        -4.47401676E-19
   3.03999996        -4.29254367E-19
   3.04800010        -3.92475255E-19
   3.05599999        -3.40627341E-19
   3.06399989        -2.77552545E-19
   3.07200003        -2.07179689E-19
   3.07999992        -1.33438760E-19
   3.08800006        -5.99874547E-20
   3.09599996         1.00768855E-20
   3.10400009         7.41884333E-20
   3.11199999         1.30193227E-19
   3.11999989         1.76562762E-19
   3.12800002         2.12683684E-19
   3.13599992         2.38630931E-19
   3.14400005         2.54625864E-19
   3.15199995         2.60966720E-19
   3.16000009         2.58432963E-19
   3.16799998         2.48305144E-19
   3.17600012         2.31761739E-19
   3.18400002         2.09528727E-19
   3.19199991         1.82287226E-19
   3.20000005         1.51078089E-19
   3.20799994         1.16988464E-19
   3.21600008         8.06775553E-20
   3.22399998         4.26062574E-20
   3.23200011         3.65456190E-21
   3.24000001        -3.48067488E-20
   3.24799991        -7.14028573E-20
   3.25600004        -1.04993486E-19
   3.26399994        -1.34429231E-19
   3.27200007        -1.58420765E-19
   3.27999997        -1.75840232E-19
   3.28800011        -1.86040946E-19
   3.29600000        -1.88819769E-19
   3.30399990        -1.84218564E-19
   3.31200004        -1.72503967E-19
   3.31999993        -1.54332632E-19
   3.32800007        -1.30880833E-19
   3.33599997        -1.03779514E-19
   3.34400010        -7.48621977E-20
   3.35200000        -4.59082849E-20
   3.35999990        -1.85491714E-20
   3.36800003         5.76471539E-21
   3.37599993         2.59705018E-20
   3.38400006         4.16790655E-20
   3.39199996         5.31833578E-20
   3.40000010         6.11865370E-20
   3.40799999         6.66656198E-20
   3.41599989         7.09688783E-20
   3.42400002         7.57049074E-20
   3.43199992         8.22313818E-20
   3.44000006         9.12172904E-20
   3.44799995         1.02667622E-19
   3.45600009         1.16099633E-19
   3.46399999         1.30460238E-19
   3.47199988         1.43982495E-19
   3.48000002         1.54394799E-19
   3.48799992         1.59374633E-19
   3.49600005         1.56838885E-19
   3.50399995         1.45028155E-19
   3.51200008         1.22685529E-19
   3.51999998         8.93966658E-20
   3.52800012         4.58302746E-20
   3.53600001        -6.28017735E-21
   3.54399991        -6.42819438E-20
   3.55200005        -1.24728613E-19
   3.55999994        -1.83548354E-19
   3.56800008        -2.36384722E-19
   3.57599998        -2.79060883E-19
   3.58400011        -3.07972835E-19
   3.59200001        -3.20336807E-19
   3.59999990        -3.14413884E-19
   3.60800004        -2.89772587E-19
   3.61599994        -2.47410342E-19
   3.62400007        -1.89577932E-19
   3.63199997        -1.19478446E-19
   3.64000010        -4.10921550E-20
   3.64800000         4.09527815E-20
   3.65599990         1.21722173E-19
   3.66400003         1.96474266E-19
   3.67199993         2.60994276E-19
   3.68000007         3.11698095E-19
   3.68799996         3.45758575E-19
   3.69600010         3.61342865E-19
   3.70400000         3.57755718E-19
   3.71199989         3.35369109E-19
   3.72000003         2.95516452E-19
   3.72799993         2.40483971E-19
   3.73600006         1.73469584E-19
   3.74399996         9.83590385E-20
   3.75200009         1.93865076E-20
   3.75999999        -5.91333842E-20
   3.76799989        -1.32945360E-19
   3.77600002        -1.98000168E-19
   3.78399992        -2.50738891E-19
   3.79200006        -2.88431753E-19
   3.79999995        -3.09336882E-19
   3.80800009        -3.12659356E-19
   3.81599998        -2.98568748E-19
   3.82399988        -2.68368643E-19
   3.83200002        -2.24508218E-19
   3.83999991        -1.70237725E-19
   3.84800005        -1.09253421E-19
   3.85599995        -4.56555263E-20
   3.86400008         1.61182265E-20
   3.87199998         7.18070578E-20
   3.88000011         1.17954637E-19
   3.88800001         1.52045400E-19
   3.89599991         1.72345433E-19
   3.90400004         1.78088354E-19
   3.91199994         1.69886819E-19
   3.92000008         1.49664438E-19
   3.92799997         1.20112221E-19
   3.93600011         8.43983688E-20
   3.94400001         4.62661310E-20
   3.95199990         9.83358532E-21
   3.96000004        -2.11212750E-20
   3.96799994        -4.37206280E-20
   3.97600007        -5.60116498E-20
   3.98399997        -5.69457952E-20
   3.99200010        -4.66719859E-20
   4.00000000        -2.67196528E-20
   4.00799990         3.08907480E-22
   4.01599979         3.11930391E-20
   4.02400017         6.22939380E-20
   4.03200006         8.97164745E-20
   4.03999996         1.09760314E-19
   4.04799986         1.19461515E-19
   4.05600023         1.16875399E-19
   4.06400013         1.01175530E-19
   4.07200003         7.28030221E-20
   4.07999992         3.35669343E-20
   4.08799982        -1.35370797E-20
   4.09600019        -6.47027267E-20
   4.10400009        -1.15632379E-19
   4.11199999        -1.61824316E-19
   4.11999989        -1.99031197E-19
   4.12799978        -2.23819176E-19
   4.13600016        -2.33908738E-19
   4.14400005        -2.28223344E-19
   4.15199995        -2.06922836E-19
   4.15999985        -1.71530027E-19
   4.16800022        -1.24839158E-19
   4.17600012        -7.04119466E-20
   4.18400002        -1.20306497E-20
   4.19199991         4.64818636E-20
   4.19999981         1.01324416E-19
   4.20800018         1.49141453E-19
   4.21600008         1.87596769E-19
   4.22399998         2.15453834E-19
   4.23199987         2.32202212E-19
   4.23999977         2.37916480E-19
   4.24800014         2.33467489E-19
   4.25600004         2.20420782E-19
   4.26399994         2.00435504E-19
   4.27199984         1.74871151E-19
   4.28000021         1.44968288E-19
   4.28800011         1.11978231E-19
   4.29600000         7.68075391E-20
   4.30399990         3.97605590E-20
   4.31199980         9.03046262E-22
   4.32000017        -3.94632878E-20
   4.32800007        -8.08385970E-20
   4.33599997        -1.22715914E-19
   4.34399986        -1.64319455E-19
   4.35200024        -2.04176816E-19
   4.36000013        -2.40170753E-19
   4.36800003        -2.69935452E-19
   4.37599993        -2.91014883E-19
   4.38399982        -3.00826202E-19
   4.39200020        -2.96936773E-19
   4.40000010        -2.77649040E-19
   4.40799999        -2.42374466E-19
   4.41599989        -1.91630722E-19
   4.42399979        -1.27010093E-19
   4.43200016        -5.12825226E-20
   4.44000006         3.16229856E-20
   4.44799995         1.16927343E-19
   4.45599985         1.99404579E-19
   4.46400023         2.73686199E-19
   4.47200012         3.34568760E-19
   4.48000002         3.77485294E-19
   4.48799992         3.99029265E-19
   4.49599981         3.97280295E-19
   4.50400019         3.71897095E-19
   4.51200008         3.24164973E-19
   4.51999998         2.57041800E-19
   4.52799988         1.75008463E-19
   4.53599977         8.36202633E-20
   4.54400015        -1.10144543E-20
   4.55200005        -1.02633365E-19
   4.55999994        -1.85230632E-19
   4.56799984        -2.53632394E-19
   4.57600021        -3.04019998E-19
   4.58400011        -3.34111950E-19
   4.59200001        -3.43108754E-19
   4.59999990        -3.31688129E-19
   4.60799980        -3.01992423E-19
   4.61600018        -2.57365124E-19
   4.62400007        -2.01887426E-19
   4.63199997        -1.39976201E-19
   4.63999987        -7.60794909E-20
   4.64799976        -1.43429208E-20
   4.65600014         4.17085435E-20
   4.66400003         8.93505634E-20
   4.67199993         1.26761202E-19
   4.67999983         1.53109658E-19
   4.68800020         1.68506772E-19
   4.69600010         1.73777657E-19
   4.70400000         1.70280144E-19
   4.71199989         1.59843348E-19
   4.71999979         1.44560979E-19
   4.72800016         1.26371807E-19
   4.73600006         1.06814382E-19
   4.74399996         8.71513293E-20
   4.75199986         6.84762277E-20
   4.76000023         5.15178070E-20
   4.76800013         3.64824681E-20
   4.77600002         2.32638812E-20
   4.78399992         1.17191209E-20
   4.79199982         1.63039591E-21
   4.80000019        -7.43438754E-21
   4.80800009        -1.60079918E-20
   4.81599998        -2.45192522E-20
   4.82399988        -3.33146701E-20
   4.83199978        -4.27733124E-20
   4.84000015        -5.32333473E-20
   4.84800005        -6.48291237E-20
   4.85599995        -7.74550147E-20
   4.86399984        -9.07681248E-20
   4.87200022        -1.04109779E-19
   4.88000011        -1.16500389E-19
   4.88800001        -1.26788848E-19
   4.89599991        -1.33731065E-19
   4.90399981        -1.35932917E-19
   4.91200018        -1.31958314E-19
   4.92000008        -1.20687306E-19
   4.92799997        -1.01546398E-19
   4.93599987        -7.44522199E-20
   4.94399977        -3.98400039E-20
   4.95200014         1.06560926E-21
   4.96000004         4.61716999E-20
   4.96799994         9.28614281E-20
   4.97599983         1.38304288E-19
   4.98400021         1.79413846E-19
   4.99200010         2.12875021E-19
   5.00000000         2.35616685E-19
   5.00799990         2.45338306E-19
   5.01599979         2.40638808E-19
   5.02400017         2.20999292E-19
   5.03200006         1.86994750E-19
   5.03999996         1.40482384E-19
   5.04799986         8.43901293E-20
   5.05600023         2.23401079E-20
   5.06400013        -4.15337725E-20
   5.07200003        -1.02770095E-19
   5.07999992        -1.57062173E-19
   5.08799982        -2.00767488E-19
   5.09600019        -2.31072103E-19
   5.10400009        -2.46019541E-19
   5.11199999        -2.44757548E-19
   5.11999989        -2.27778580E-19
   5.12799978        -1.96753995E-19
   5.13600016        -1.54149010E-19
   5.14400005        -1.03081846E-19
   5.15199995        -4.73581742E-20
   5.15999985         8.77177864E-21
   5.16800022         6.11602869E-20
   5.17600012         1.06186248E-19
   5.18400002         1.40878242E-19
   5.19199991         1.63022629E-19
   5.19999981         1.71445163E-19
   5.20800018         1.66231004E-19
   5.21600008         1.48612794E-19
   5.22399998         1.20665644E-19
   5.23199987         8.51371380E-20
   5.23999977         4.54190237E-20
   5.24800014         5.32425828E-21
   5.25600004        -3.14509449E-20
   5.26399994        -6.18233885E-20
   5.27199984        -8.34594413E-20
   5.28000021        -9.47649711E-20
   5.28800011        -9.50860787E-20
   5.29600000        -8.49801353E-20
   5.30399990        -6.61421696E-20
   5.31199980        -4.10230693E-20
   5.32000017        -1.25520595E-20
   5.32800007         1.59732728E-20
   5.33599997         4.11743981E-20
   5.34399986         6.01271836E-20
   5.35200024         7.07874737E-20
   5.36000013         7.21172700E-20
   5.36800003         6.41030078E-20
   5.37599993         4.77822012E-20
   5.38399982         2.51375002E-20
   5.39200020        -1.19618960E-21
   5.40000010        -2.82736085E-20
   5.40799999        -5.31644069E-20
   5.41599989        -7.32840017E-20
   5.42399979        -8.66532502E-20
   5.43200016        -9.20323864E-20
   5.44000006        -8.90486619E-20
   5.44799995        -7.83422500E-20
   5.45599985        -6.14780729E-20
   5.46400023        -4.05294234E-20
   5.47200012        -1.76843040E-20
   5.48000002         4.86863403E-21
   5.48799992         2.50608632E-20
   5.49599981         4.13529076E-20
   5.50400019         5.31043879E-20
   5.51200008         6.04727124E-20
   5.51999998         6.40594322E-20
   5.52799988         6.48125284E-20
   5.53599977         6.41009334E-20
   5.54400015         6.34582851E-20
   5.55200005         6.39989575E-20
   5.55999994         6.60893334E-20
   5.56799984         6.95161359E-20
   5.57600021         7.36868322E-20
   5.58400011         7.74956371E-20
   5.59200001         7.92150871E-20
   5.59999990         7.68754778E-20
   5.60799980         6.88658362E-20
   5.61600018         5.41389162E-20
   5.62400007         3.20737861E-20
   5.63199997         2.62320076E-21
   5.63999987        -3.31934752E-20
   5.64799976        -7.31633109E-20
   5.65600014        -1.14395731E-19
   5.66400003        -1.53789419E-19
   5.67199993        -1.87972503E-19
   5.67999983        -2.13309653E-19
   5.68800020        -2.26557842E-19
   5.69600010        -2.25602733E-19
   5.70400000        -2.09492033E-19
   5.71199989        -1.78133216E-19
   5.71999979        -1.32487089E-19
   5.72800016        -7.50182117E-20
   5.73600006        -9.51962747E-21
   5.74399996         5.96212205E-20
   5.75199986         1.27834767E-19
   5.76000023         1.90328003E-19
   5.76800013         2.42336338E-19
   5.77600002         2.79861438E-19
   5.78399992         3.00182500E-19
   5.79199982         3.01789479E-19
   5.80000019         2.84271578E-19
   5.80800009         2.48538642E-19
   5.81599998         1.96980940E-19
   5.82399988         1.33177410E-19
   5.83199978         6.14249589E-20
   5.84000015        -1.35155391E-20
   5.84800005        -8.65805294E-20
   5.85599995        -1.52801856E-19
   5.86399984        -2.07870850E-19
   5.87200022        -2.48505503E-19
   5.88000011        -2.72517083E-19
   5.88800001        -2.78839741E-19
   5.89599991        -2.67706588E-19
   5.90399981        -2.40751227E-19
   5.91200018        -2.00749006E-19
   5.92000008        -1.51132089E-19
   5.92799997        -9.56885441E-20
   5.93599987        -3.84873924E-20
   5.94399977         1.63667636E-20
   5.95200014         6.52796464E-20
   5.96000004         1.05572577E-19
   5.96799994         1.35438728E-19
   5.97599983         1.53801918E-19
   5.98400021         1.60472289E-19
   5.99200010         1.56334344E-19
   6.00000000         1.43120211E-19
   6.00799990         1.22939977E-19
   6.01599979         9.80736935E-20
   6.02400017         7.10067735E-20
   6.03200006         4.42671715E-20
   6.03999996         2.00043453E-20
   6.04799986        -2.79763096E-22
   6.05600023        -1.56701208E-20
   6.06400013        -2.57343304E-20
   6.07200003        -3.05833714E-20
   6.07999992        -3.09214524E-20
   6.08799982        -2.78842843E-20
   6.09600019        -2.27647730E-20
   6.10400009        -1.68317942E-20
   6.11199999        -1.12687905E-20
   6.11999989        -7.11864446E-21
   6.12799978        -5.17902144E-21
   6.13600016        -5.89866817E-21
   6.14400005        -9.34582018E-21
   6.15199995        -1.52606180E-20
   6.15999985        -2.31371158E-20
   6.16800022        -3.22736827E-20
   6.17600012        -4.17944314E-20
   6.18400002        -5.06933955E-20
   6.19199991        -5.79219395E-20
   6.19999981        -6.24827807E-20
   6.20800018        -6.35047559E-20
   6.21600008        -6.03287701E-20
   6.22399998        -5.26308334E-20
   6.23199987        -4.05333557E-20