 -0.239999995         0.00000000    
 -0.231999993         0.00000000    
 -0.224000007         0.00000000    
 -0.216000006         0.00000000    
 -0.208000004         0.00000000    
 -0.200000003         0.00000000    
 -0.192000002         0.00000000    
 -0.184000000         0.00000000    
 -0.175999999         0.00000000    
 -0.167999998         4.83684587E-35
 -0.159999996         1.65591740E-34
 -0.151999995        -8.82327988E-34
 -0.143999994        -6.41648808E-33
 -0.136000007        -1.08462349E-32
 -0.128000006         2.50908035E-32
 -0.119999997         1.46808935E-31
 -0.112000003         2.34684367E-31
 -0.104000002        -1.42830874E-31
  -9.60000008E-02    -1.31107634E-30
  -8.79999995E-02    -2.40080860E-30
  -7.99999982E-02    -9.90280640E-31
  -7.19999969E-02     4.71089047E-30
  -6.40000030E-02     1.22584681E-29
  -5.60000017E-02     1.43678888E-29
  -4.80000004E-02     3.21456290E-30
  -3.99999991E-02    -2.45202404E-29
  -3.20000015E-02    -6.39724775E-29
  -2.40000002E-02    -9.29124818E-29
  -1.60000008E-02    -5.92131254E-29
  -8.00000038E-03     9.89174291E-29
   0.00000000         3.62593386E-28
   8.00000038E-03     5.28816548E-28
   1.60000008E-02     2.67207396E-28
   2.40000002E-02    -5.59449234E-28
   3.20000015E-02    -1.52979398E-27
   3.99999991E-02    -1.72992247E-27
   4.80000004E-02    -4.66447425E-28
   5.60000017E-02     1.88164627E-27
   6.40000030E-02     3.79781560E-27
   7.19999969E-02     3.68475581E-27
   7.99999982E-02     1.18565457E-27
   8.79999995E-02    -2.52788898E-27
   9.60000008E-02    -5.74925949E-27
  0.104000002        -7.29826222E-27
  0.112000003        -6.44996712E-27
  0.119999997        -2.26841152E-27
  0.128000006         5.83829100E-27
  0.136000007         1.58708445E-26
  0.143999994         2.17940528E-26
  0.151999995         1.61854613E-26
  0.159999996        -3.28515346E-27
  0.167999998        -2.88027353E-26
  0.175999999        -4.47489823E-26
  0.184000000        -3.76933703E-26
  0.192000002        -6.92784888E-27
  0.200000003         3.31653333E-26
  0.208000004         6.12987201E-26
  0.216000006         6.19091074E-26
  0.224000007         3.33249020E-26
  0.231999993        -1.26605812E-26
  0.239999995        -5.71637824E-26
  0.247999996        -8.15575063E-26
  0.256000012        -7.34284981E-26
  0.263999999        -3.14556530E-26
  0.272000015         3.13867478E-26
  0.280000001         8.94101606E-26
  0.287999988         1.13193466E-25
  0.296000004         8.39058528E-26
  0.303999990         5.92426297E-27
  0.312000006        -9.00629307E-26
  0.319999993        -1.57153726E-25
  0.328000009        -1.53012071E-25
  0.335999995        -6.32835188E-26
  0.344000012         8.38009343E-26
  0.351999998         2.22395518E-25
  0.360000014         2.76775349E-25
  0.368000001         2.01232439E-25
  0.375999987         9.68560415E-27
  0.384000003        -2.25568514E-25
  0.391999990        -4.07541789E-25
  0.400000006        -4.59054037E-25
  0.407999992        -3.49823450E-25
  0.416000009        -9.59446776E-26
  0.423999995         2.52572308E-25
  0.432000011         6.14610850E-25
  0.439999998         8.72342604E-25
  0.448000014         8.85688355E-25
  0.456000000         5.51176769E-25
  0.463999987        -1.13102649E-25
  0.472000003        -9.18798819E-25
  0.479999989        -1.55327314E-24
  0.488000005        -1.71669977E-24
  0.495999992        -1.27400957E-24
  0.504000008        -3.26627044E-25
  0.512000024         8.35773576E-25
  0.519999981         1.86047756E-24
  0.527999997         2.45090780E-24
  0.536000013         2.42740744E-24
  0.544000030         1.73979959E-24
  0.551999986         4.72967078E-25
  0.560000002        -1.13825194E-24
  0.568000019        -2.71468830E-24
  0.575999975        -3.80160827E-24
  0.583999991        -4.00542113E-24
  0.592000008        -3.14908264E-24
  0.600000024        -1.37421709E-24
  0.607999980         8.59189038E-25
  0.615999997         2.88215854E-24
  0.624000013         4.00928458E-24
  0.632000029         3.76865518E-24
  0.639999986         2.10061077E-24
  0.648000002        -5.66058926E-25
  0.656000018        -3.44081405E-24
  0.663999975        -5.70508703E-24
  0.671999991        -6.93486044E-24
  0.680000007        -7.40076958E-24
  0.688000023        -8.04697367E-24
  0.695999980        -1.00811746E-23
  0.703999996        -1.42886975E-23
  0.712000012        -2.03144826E-23
  0.720000029        -2.61739441E-23
  0.727999985        -2.81608292E-23
  0.736000001        -2.11599947E-23
  0.744000018         8.00688100E-25
  0.751999974         4.40665212E-23
  0.759999990         1.15299266E-22
  0.768000007         2.22123389E-22
  0.776000023         3.74540429E-22
  0.783999979         5.86925135E-22
  0.791999996         8.80269614E-22
  0.800000012         1.28433351E-21
  0.808000028         1.83948045E-21
  0.815999985         2.59795135E-21
  0.824000001         3.62426035E-21
  0.832000017         4.99410537E-21
  0.839999974         6.79118676E-21
  0.847999990         9.10158299E-21
  0.856000006         1.20058190E-20
  0.864000022         1.55692387E-20
  0.871999979         1.98315276E-20
  0.879999995         2.47958649E-20
  0.888000011         3.04180936E-20
  0.896000028         3.65965641E-20
  0.903999984         4.31634185E-20
  0.912000000         4.98790943E-20
  0.920000017         5.64322130E-20
  0.927999973         6.24460229E-20
  0.935999990         6.74930137E-20
  0.944000006         7.11168338E-20
  0.952000022         7.28609635E-20
  0.959999979         7.23029849E-20
  0.967999995         6.90915144E-20
  0.976000011         6.29827985E-20
  0.984000027         5.38732587E-20
  0.991999984         4.18232211E-20
   1.00000000         2.70696972E-20
   1.00800002         1.00260526E-20
   1.01600003        -8.73209175E-21
   1.02400005        -2.84928598E-20
   1.03199995        -4.84457745E-20
   1.03999996        -6.77286180E-20
   1.04799998        -8.54802823E-20
   1.05599999        -1.00896202E-19
   1.06400001        -1.13280291E-19
   1.07200003        -1.22088239E-19
   1.08000004        -1.26958873E-19
   1.08800006        -1.27729947E-19
   1.09599996        -1.24439720E-19
   1.10399997        -1.17314903E-19
   1.11199999        -1.06748156E-19
   1.12000000        -9.32668371E-20
   1.12800002        -7.74965095E-20
   1.13600004        -6.01205597E-20
   1.14400005        -4.18393576E-20
   1.15199995        -2.33326406E-20
   1.15999997        -5.22878596E-21
   1.16799998         1.19159253E-20
   1.17600000         2.76274156E-20
   1.18400002         4.15160043E-20
   1.19200003         5.32743379E-20
   1.20000005         6.26746349E-20
   1.20799994         6.95663548E-20
   1.21599996         7.38724891E-20
   1.22399998         7.55839581E-20
   1.23199999         7.47519953E-20
   1.24000001         7.14812391E-20
   1.24800003         6.59264887E-20
   1.25600004         5.82933759E-20
   1.26400006         4.88399035E-20
   1.27199996         3.78748619E-20
   1.27999997         2.57502132E-20
   1.28799999         1.28494826E-20
   1.29600000        -4.24692722E-22
   1.30400002        -1.36598587E-20
   1.31200004        -2.64391529E-20
   1.32000005        -3.83448136E-20
   1.32799995        -4.89622196E-20
   1.33599997        -5.78842510E-20
   1.34399998        -6.47149340E-20
   1.35200000        -6.90703889E-20
   1.36000001        -7.05795477E-20
   1.36800003        -6.88886354E-20
   1.37600005        -6.36760921E-20
   1.38399994        -5.46809424E-20
   1.39199996        -4.17447941E-20
   1.39999998        -2.48638262E-20
   1.40799999        -4.24646698E-21
   1.41600001         1.96269070E-20
   1.42400002         4.59463837E-20
   1.43200004         7.35219196E-20
   1.44000006         1.00748628E-19
   1.44799995         1.25598936E-19
   1.45599997         1.45652224E-19
   1.46399999         1.58170168E-19
   1.47200000         1.60218577E-19
   1.48000002         1.48830963E-19
   1.48800004         1.21203221E-19
   1.49600005         7.49079059E-20
   1.50399995         8.11602879E-21
   1.51199996        -8.01831727E-20
   1.51999998        -1.89976309E-19
   1.52800000        -3.20047734E-19
   1.53600001        -4.67848391E-19
   1.54400003        -6.29429077E-19
   1.55200005        -7.99452123E-19
   1.55999994        -9.71285815E-19
   1.56799996        -1.13717368E-18
   1.57599998        -1.28847825E-18
   1.58399999        -1.41598576E-18
   1.59200001        -1.51026791E-18
   1.60000002        -1.56210618E-18
   1.60800004        -1.56295684E-18
   1.61600006        -1.50544504E-18
   1.62399995        -1.38384949E-18
   1.63199997        -1.19456192E-18
   1.63999999        -9.36480950E-19
   1.64800000        -6.11327263E-19
   1.65600002        -2.23870151E-19
   1.66400003         2.17972922E-19
   1.67200005         7.03165973E-19
   1.67999995         1.21774728E-18
   1.68799996         1.74518545E-18
   1.69599998         2.26690315E-18
   1.70400000         2.76294455E-18
   1.71200001         3.21276743E-18
   1.72000003         3.59612139E-18
   1.72800004         3.89397631E-18
   1.73599994         4.08945398E-18
   1.74399996         4.16874627E-18
   1.75199997         4.12189724E-18
   1.75999999         3.94351202E-18
   1.76800001         3.63322789E-18
   1.77600002         3.19599366E-18
   1.78400004         2.64210008E-18
   1.79200006         1.98694760E-18
   1.79999995         1.25057073E-18
   1.80799997         4.56935656E-19
   1.81599998        -3.66961360E-19
   1.82400000        -1.19216475E-18
   1.83200002        -1.98895661E-18
   1.84000003        -2.72812210E-18
   1.84800005        -3.38222055E-18
   1.85599995        -3.92680959E-18
   1.86399996        -4.34153437E-18
   1.87199998        -4.61105298E-18
   1.88000000        -4.72576018E-18
   1.88800001        -4.68224841E-18
   1.89600003        -4.48352696E-18
   1.90400004        -4.13894171E-18
   1.91199994        -3.66378063E-18
   1.91999996        -3.07862789E-18
   1.92799997        -2.40843810E-18
   1.93599999        -1.68142647E-18
   1.94400001        -9.27801034E-19
   1.95200002        -1.78409080E-19
   1.96000004         5.36656428E-19
   1.96800005         1.18941800E-18
   1.97599995         1.75527933E-18
   1.98399997         2.21412303E-18
   1.99199998         2.55117452E-18
   2.00000000         2.75759517E-18
   2.00799990         2.83078246E-18
   2.01600003         2.77435550E-18
   2.02399993         2.59784674E-18
   2.03200006         2.31609538E-18
   2.03999996         1.94839147E-18
   2.04800010         1.51739986E-18
   2.05599999         1.04793206E-18
   2.06399989         5.65627395E-19
   2.07200003         9.56206248E-20
   2.07999992        -3.38736613E-19
   2.08800006        -7.17026883E-19
   2.09599996        -1.02273552E-18
   2.10400009        -1.24398141E-18
   2.11199999        -1.37398288E-18
   2.11999989        -1.41123640E-18
   2.12800002        -1.35940423E-18
   2.13599992        -1.22691575E-18
   2.14400005        -1.02631649E-18
   2.15199995        -7.73393710E-19
   2.16000009        -4.86144127E-19
   2.16799998        -1.83654220E-19
   2.17600012         1.15044189E-19
   2.18400002         3.92065076E-19
   2.19199991         6.31660396E-19
   2.20000005         8.21056064E-19
   2.20799994         9.51087409E-19
   2.21600008         1.01660001E-18
   2.22399998         1.01659463E-18
   2.23200011         9.54109823E-19
   2.24000001         8.35870041E-19
   2.24799991         6.71724321E-19
   2.25600004         4.73917622E-19
   2.26399994         2.56250731E-19
   2.27200007         3.31744630E-20
   2.27999997        -1.81121625E-19
   2.28800011        -3.73573971E-19
   2.29600000        -5.33009286E-19
   2.30399990        -6.50766873E-19
   2.31200004        -7.21148931E-19
   2.31999993        -7.41676710E-19
   2.32800007        -7.13137377E-19
   2.33599997        -6.39424107E-19
   2.34400010        -5.27178645E-19
   2.35200000        -3.85267099E-19
   2.35999990        -2.24131463E-19
   2.36800003        -5.50649093E-20
   2.37599993         1.10540087E-19
   2.38400006         2.61929739E-19
   2.39199996         3.89665839E-19
   2.40000010         4.86206838E-19
   2.40799999         5.46350520E-19
   2.41599989         5.67506439E-19
   2.42400002         5.49778822E-19
   2.43199992         4.95857347E-19
   2.44000006         4.10736275E-19
   2.44799995         3.01289862E-19
   2.45600009         1.75745817E-19
   2.46399999         4.30913019E-20
   2.47199988        -8.75438136E-20
   2.48000002        -2.07496434E-19
   2.48799992        -3.09128924E-19
   2.49600005        -3.86299989E-19
   2.50399995        -4.34716861E-19
   2.51200008        -4.52140438E-19
   2.51999998        -4.38442379E-19
   2.52800012        -3.95513696E-19
   2.53600001        -3.27052222E-19
   2.54399991        -2.38248799E-19
   2.55200005        -1.35400277E-19
   2.55999994        -2.54761224E-20
   2.56800008         8.43367439E-20
   2.57599998         1.87082173E-19
   2.58400011         2.76451128E-19
   2.59200001         3.47138157E-19
   2.59999990         3.95123783E-19
   2.60800004         4.17867683E-19
   2.61599994         4.14409474E-19
   2.62400007         3.85375098E-19
   2.63199997         3.32893513E-19
   2.64000010         2.60429492E-19
   2.64800000         1.72546877E-19
   2.65599990         7.46173200E-20
   2.66400003        -2.75091547E-20
   2.67199993        -1.27849010E-19
   2.68000007        -2.20634557E-19
   2.68799996        -3.00643627E-19
   2.69600010        -3.63496042E-19
   2.70400000        -4.05894295E-19
   2.71199989        -4.25794348E-19
   2.72000003        -4.22496172E-19
   2.72799993        -3.96647554E-19
   2.73600006        -3.50171273E-19
   2.74399996        -2.86124385E-19
   2.75200009        -2.08501497E-19
   2.75999999        -1.21995518E-19
   2.76799989        -3.17227028E-20
   2.77600002         5.70758952E-20
   2.78399992         1.39345179E-19
   2.79200006         2.10516652E-19
   2.79999995         2.66779267E-19
   2.80800009         3.05297087E-19
   2.81599998         3.24363962E-19
   2.82399988         3.23487099E-19
   2.83200002         3.03405170E-19
   2.83999991         2.66042973E-19
   2.84800005         2.14400084E-19
   2.85599995         1.52374837E-19
   2.86400008         8.45244622E-20
   2.87199998         1.57718705E-20
   2.88000011        -4.89271064E-20
   2.88800001        -1.04928584E-19
   2.89599991        -1.48238973E-19
   2.90400004        -1.75817769E-19
   2.91199994        -1.85822622E-19
   2.92000008        -1.77771440E-19
   2.92799997        -1.52608994E-19
   2.93600011        -1.12668953E-19
   2.94400001        -6.15367769E-20
   2.95199990        -3.81571025E-21
   2.96000004         5.51958365E-20
   2.96799994         1.09908793E-19
   2.97600007         1.54908298E-19
   2.98399997         1.85441511E-19
   2.99200010         1.97870805E-19
   3.00000000         1.90038270E-19
   3.00799990         1.61503176E-19
   3.01600003         1.13637814E-19
   3.02399993         4.95889446E-20
   3.03200006        -2.58902265E-20
   3.03999996        -1.06735877E-19
   3.04800010        -1.86001836E-19
   3.05599999        -2.56406784E-19
   3.06399989        -3.10959526E-19
   3.07200003        -3.43595084E-19
   3.07999992        -3.49746749E-19
   3.08800006        -3.26794710E-19
   3.09599996        -2.74360222E-19
   3.10400009        -1.94430535E-19
   3.11199999        -9.13109233E-20
   3.11999989         2.86005322E-20
   3.12800002         1.57216713E-19
   3.13599992         2.85323286E-19
   3.14400005         4.03259648E-19
   3.15199995         5.01658779E-19
   3.16000009         5.72181044E-19
   3.16799998         6.08184907E-19
   3.17600012         6.05282331E-19
   3.18400002         5.61739181E-19
   3.19199991         4.78682855E-19
   3.20000005         3.60097570E-19
   3.20799994         2.12604766E-19
   3.21600008         4.50464790E-20
   3.22399998        -1.32092459E-19
   3.23200011        -3.07385718E-19
   3.24000001        -4.69247929E-19
   3.24799991        -6.06751920E-19
   3.25600004        -7.10423811E-19
   3.26399994        -7.72950393E-19
   3.27200007        -7.89729080E-19
   3.27999997        -7.59217747E-19
   3.28800011        -6.83058091E-19
   3.29600000        -5.65975070E-19
   3.30399990        -4.15472763E-19
   3.31200004        -2.41342920E-19
   3.31999993        -5.50086998E-20
   3.32800007         1.31260044E-19
   3.33599997         3.05210000E-19
   3.34400010         4.55475889E-19
   3.35200000         5.72384220E-19
   3.35999990         6.48625044E-19
   3.36800003         6.79744199E-19
   3.37599993         6.64427916E-19
   3.38400006         6.04569508E-19
   3.39199996         5.05110758E-19
   3.40000010         3.73662893E-19
   3.40799999         2.19934400E-19
   3.41599989         5.50069420E-20
   3.42400002        -1.09473683E-19
   3.43199992        -2.62125885E-19
   3.44000006        -3.92617090E-19
   3.44799995        -4.92354651E-19
   3.45600009        -5.55046256E-19
   3.46399999        -5.77086949E-19
   3.47199988        -5.57747621E-19
   3.48000002        -4.99142030E-19
   3.48799992        -4.05974609E-19
   3.49600005        -2.85108529E-19
   3.50399995        -1.45001582E-19
   3.51200008         4.92755893E-21
   3.51999998         1.54958949E-19
   3.52800012         2.95720145E-19
   3.53600001         4.18792083E-19
   3.54399991         5.17234641E-19
   3.55200005         5.85983586E-19
   3.55999994         6.22086763E-19
   3.56800008         6.24758815E-19
   3.57599998         5.95271222E-19
   3.58400011         5.36711901E-19
   3.59200001         4.53655575E-19
   3.59999990         3.51771092E-19
   3.60800004         2.37394322E-19
   3.61599994         1.17089871E-19
   3.62400007        -2.76832330E-21
   3.63199997        -1.16365533E-19
   3.64000010        -2.18736307E-19
   3.64800000        -3.05965320E-19
   3.65599990        -3.75299211E-19
   3.66400003        -4.25172799E-19
   3.67199993        -4.55158148E-19
   3.68000007        -4.65843616E-19
   3.68799996        -4.58664205E-19
   3.69600010        -4.35707565E-19
   3.70400000        -3.99521127E-19
   3.71199989        -3.52935737E-19
   3.72000003        -2.98901146E-19
   3.72799993        -2.40329133E-19
   3.73600006        -1.79941949E-19
   3.74399996        -1.20144145E-19
   3.75200009        -6.29372001E-20
   3.75999999        -9.88783108E-21
   3.76799989         3.78612457E-20
   3.77600002         7.95595302E-20
   3.78399992         1.14817115E-19
   3.79200006         1.43574799E-19
   3.79999995         1.66063371E-19
   3.80800009         1.82740211E-19
   3.81599998         1.94203732E-19
   3.82399988         2.01101462E-19
   3.83200002         2.04051834E-19
   3.83999991         2.03590565E-19
   3.84800005         2.00138844E-19
   3.85599995         1.93987657E-19
   3.86400008         1.85291559E-19
   3.87199998         1.74073374E-19
   3.88000011         1.60245034E-19
   3.88800001         1.43638750E-19
   3.89599991         1.24045698E-19
   3.90400004         1.01257053E-19
   3.91199994         7.51099900E-20
   3.92000008         4.55435144E-20
   3.92799997         1.26646974E-20
   3.93600011        -2.31859501E-20
   3.94400001        -6.13849569E-20
   3.95199990        -1.01003451E-19
   3.96000004        -1.40813011E-19
   3.96799994        -1.79310927E-19
   3.97600007        -2.14758201E-19
   3.98399997        -2.45233176E-19
   3.99200010        -2.68711302E-19
   4.00000000        -2.83184404E-19
   4.00799990        -2.86812340E-19
   4.01599979        -2.78097967E-19
   4.02400017        -2.56057688E-19
   4.03200006        -2.20368489E-19
   4.03999996        -1.71478302E-19
   4.04799986        -1.10670019E-19
   4.05600023        -4.00723480E-20
   4.06400013         3.73872260E-20
   4.07200003         1.18093177E-19
   4.07999992         1.97913986E-19
   4.08799982         2.72428057E-19
   4.09600019         3.37190716E-19
   4.10400009         3.88026341E-19
   4.11199999         4.21325143E-19
   4.11999989         4.34320125E-19
   4.12799978         4.25316884E-19
   4.13600016         3.93854837E-19
   4.14400005         3.40786754E-19
   4.15199995         2.68269459E-19
   4.15999985         1.79676127E-19
   4.16800022         7.94317050E-20
   4.17600012        -2.72203814E-20
   4.18400002        -1.34512802E-19
   4.19199991        -2.36495900E-19
   4.19999981        -3.27404678E-19
   4.20800018        -4.02022857E-19
   4.21600008        -4.56015469E-19
   4.22399998        -4.86204770E-19
   4.23199987        -4.90767963E-19
   4.23999977        -4.69351275E-19
   4.24800014        -4.23090967E-19
   4.25600004        -3.54548119E-19
   4.26399994        -2.67558212E-19
   4.27199984        -1.67007417E-19
   4.28000021        -5.85396624E-20
   4.28800011         5.17895778E-20
   4.29600000         1.57890180E-19
   4.30399990         2.54014035E-19
   4.31199980         3.35097251E-19
   4.32000017         3.97043954E-19
   4.32800007         4.36937634E-19
   4.33599997         4.53177723E-19
   4.34399986         4.45540933E-19
   4.35200024         4.15161458E-19
   4.36000013         3.64423518E-19
   4.36800003         2.96769036E-19
   4.37599993         2.16438515E-19
   4.38399982         1.28175513E-19
   4.39200020         3.69246672E-20
   4.40000010        -5.24573194E-20
   4.40799999        -1.35468506E-19
   4.41599989        -2.08200675E-19
   4.42399979        -2.67534302E-19
   4.43200016        -3.11268969E-19
   4.44000006        -3.38173122E-19
   4.44799995        -3.47957221E-19
   4.45599985        -3.41190625E-19
   4.46400023        -3.19193360E-19
   4.47200012        -2.83913641E-19
   4.48000002        -2.37792894E-19
   4.48799992        -1.83607833E-19
   4.49599981        -1.24293645E-19
   4.50400019        -6.27677057E-20
   4.51200008        -1.78615133E-21
   4.51999998         5.61476435E-20
   4.52799988         1.08827966E-19
   4.53599977         1.54369118E-19
   4.54400015         1.91231853E-19
   4.55200005         2.18263263E-19
   4.55999994         2.34738736E-19
   4.56799984         2.40386751E-19
   4.57600021         2.35384040E-19
   4.58400011         2.20328086E-19
   4.59200001         1.96201994E-19
   4.59999990         1.64341465E-19
   4.60799980         1.26404701E-19
   4.61600018         8.43271537E-20
   4.62400007         4.02476812E-20
   4.63199997        -3.59878416E-21
   4.63999987        -4.50138377E-20
   4.64799976        -8.19732756E-20
   4.65600014        -1.12753248E-19
   4.66400003        -1.36033419E-19
   4.67199993        -1.50973697E-19
   4.67999983        -1.57262984E-19
   4.68800020        -1.55137491E-19
   4.69600010        -1.45361690E-19
   4.70400000        -1.29167277E-19
   4.71199989        -1.08152153E-19
   4.71999979        -8.41476749E-20
   4.72800016        -5.90697559E-20
   4.73600006        -3.47654673E-20
   4.74399996        -1.28670715E-20
   4.75199986         5.33882401E-21
   4.76000023         1.90173847E-20
   4.76800013         2.78521018E-20
   4.77600002         3.20592070E-20
   4.78399992         3.23444228E-20
   4.79199982         2.98095763E-20
   4.80000019         2.58262266E-20
   4.80800009         2.18935903E-20
   4.81599998         1.94899553E-20
   4.82399988         1.99202782E-20
   4.83199978         2.41627971E-20
   4.84000015         3.27288679E-20
   4.84800005         4.55600257E-20
   4.85599995         6.19871315E-20
   4.86399984         8.07628002E-20
   4.87200022         1.00161601E-19
   4.88000011         1.18128707E-19
   4.88800001         1.32459572E-19
   4.89599991         1.40998144E-19
   4.90399981         1.41845746E-19
   4.91200018         1.33567710E-19
   4.92000008         1.15375126E-19
   4.92799997         8.72570533E-20
   4.93599987         5.00422169E-20
   4.94399977         5.38654199E-21
   4.95200014        -4.43104078E-20
   4.96000004        -9.60514372E-20
   4.96799994        -1.46445464E-19
   4.97599983        -1.91959488E-19
   4.98400021        -2.29201305E-19
   4.99200010        -2.55199927E-19
   5.00000000        -2.67649435E-19
   5.00799990        -2.65090836E-19
   5.01599979        -2.47026039E-19
   5.02400017        -2.13969226E-19
   5.03200006        -1.67442397E-19
   5.03999996        -1.09909685E-19
   5.04799986        -4.46396322E-20
   5.05600023         2.45080675E-20
   5.06400013         9.33563859E-20
   5.07200003         1.57710062E-19
   5.07999992         2.13641779E-19
   5.08799982         2.57738105E-19
   5.09600019         2.87298335E-19
   5.10400009         3.00491323E-19
   5.11199999         2.96471406E-19
   5.11999989         2.75447706E-19
   5.12799978         2.38687024E-19
   5.13600016         1.88437947E-19
   5.14400005         1.27776670E-19
   5.15199995         6.03901882E-20
   5.15999985        -9.67461559E-21
   5.16800022        -7.82727539E-20
   5.17600012        -1.41415754E-19
   5.18400002        -1.95510510E-19
   5.19199991        -2.37575087E-19
   5.19999981        -2.65420778E-19
   5.20800018        -2.77782966E-19
   5.21600008        -2.74386563E-19
   5.22399998        -2.55935110E-19
   5.23199987        -2.24028531E-19
   5.23999977        -1.81022441E-19
   5.24800014        -1.29843678E-19
   5.25600004        -7.37810662E-20
   5.26399994        -1.62592786E-20
   5.27199984         3.93901307E-20
   5.28000021         9.01452449E-20
   5.28800011         1.33477431E-19
   5.29600000         1.67484351E-19
   5.30399990         1.90964803E-19
   5.31199980         2.03436864E-19
   5.32000017         2.05111181E-19
   5.32800007         1.96825972E-19
   5.33599997         1.79944883E-19
   5.34399986         1.56220620E-19
   5.35200024         1.27628734E-19
   5.36000013         9.61939514E-20
   5.36800003         6.38334891E-20
   5.37599993         3.22390736E-20
   5.38399982         2.80439310E-21
   5.39200020        -2.34103309E-20
   5.40000010        -4.56893147E-20
   5.40799999        -6.36545402E-20
   5.41599989        -7.72389009E-20
   5.42399979        -8.66346581E-20
   5.43200016        -9.22190448E-20
   5.44000006        -9.44699584E-20
   5.44799995        -9.38907187E-20
   5.45599985        -9.09572778E-20
   5.46400023        -8.60927449E-20
   5.47200012        -7.96630571E-20
   5.48000002        -7.19846044E-20
   5.48799992        -6.33377236E-20
   5.49599981        -5.39813221E-20
   5.50400019        -4.41663265E-20
   5.51200008        -3.41453210E-20
   5.51999998        -2.41746959E-20
   5.52799988        -1.45091922E-20
   5.53599977        -5.38931272E-21
   5.54400015         2.97511239E-21
   5.55200005         1.04251503E-20
   5.55999994         1.68748496E-20
   5.56799984         2.23324694E-20
   5.57600021         2.69137090E-20
   5.58400011         3.08375356E-20
   5.59200001         3.43985546E-20
   5.59999990         3.79174358E-20
   5.60799980         4.16785485E-20
   5.61600018         4.58688646E-20
   5.62400007         5.05287575E-20
   5.63199997         5.55207569E-20
   5.63999987         6.05163591E-20
   5.64799976         6.50006862E-20
   5.65600014         6.82958248E-20
   5.66400003         6.96066475E-20
   5.67199993         6.80916016E-20
   5.67999983         6.29582480E-20
   5.68800020         5.35743492E-20
   5.69600010         3.95808282E-20
   5.70400000         2.09891991E-20
   5.71199989        -1.75327333E-21
   5.71999979        -2.77405067E-20
   5.72800016        -5.56303842E-20
   5.73600006        -8.37105681E-20
   5.74399996        -1.10002704E-19
   5.75199986        -1.32399925E-19
   5.76000023        -1.48832139E-19
   5.76800013        -1.57451309E-19
   5.77600002        -1.56820041E-19
   5.78399992        -1.46084710E-19
   5.79199982        -1.25108922E-19
   5.80000019        -9.45488960E-20
   5.80800009        -5.58598428E-20
   5.81599998        -1.12291036E-20
   5.82399988         3.65598580E-20
   5.83199978         8.43240970E-20
   5.84000015         1.28723340E-19
   5.84800005         1.66526812E-19
   5.85599995         1.94878518E-19
   5.86399984         2.11536785E-19
   5.87200022         2.15065680E-19
   5.88000011         2.04965753E-19
   5.88800001         1.81732602E-19
   5.89599991         1.46838233E-19
   5.90399981         1.02628984E-19
   5.91200018         5.21459763E-20
   5.92000008        -1.11917264E-21
   5.92799997        -5.35061391E-20
   5.93599987        -1.01474427E-19
   5.94399977        -1.41870160E-19
   5.95200014        -1.72151485E-19
   5.96000004        -1.90561036E-19
   5.96799994        -1.96237524E-19
   5.97599983        -1.89260023E-19
   5.98400021        -1.70617698E-19
   5.99200010        -1.42106501E-19
   6.00000000        -1.06161368E-19
   6.00799990        -6.56418610E-20
   6.01599979        -2.35957406E-20
   6.02400017         1.69785057E-20
   6.03200006         5.33509103E-20
   6.03999996         8.32463776E-20
   6.04799986         1.04986196E-19
   6.05600023         1.17575866E-19
   6.06400013         1.20735554E-19
   6.07200003         1.14875380E-19
   6.07999992         1.01023478E-19
   6.08799982         8.07147784E-20
   6.09600019         5.58512285E-20
   6.10400009         2.85427007E-20
   6.11199999         9.40905325E-22
   6.11999989        -2.49186673E-20
   6.12799978        -4.72518136E-20
   6.13600016        -6.46271560E-20
   6.14400005        -7.60305516E-20
   6.15199995        -8.08963511E-20
   6.15999985        -7.91106620E-20
   6.16800022        -7.09921169E-20
   6.17600012        -5.72507341E-20
   6.18400002        -3.89264475E-20
   6.19199991        -1.73110824E-20
   6.19999981         6.13982363E-21
   6.20800018         2.98968018E-20
   6.21600008         5.24413703E-20
   6.22399998         7.23436654E-20
   6.23199987         8.83325238E-20