 -0.239999995         0.00000000    
 -0.231999993         0.00000000    
 -0.224000007         0.00000000    
 -0.216000006         0.00000000    
 -0.208000004         0.00000000    
 -0.200000003         0.00000000    
 -0.192000002         0.00000000    
 -0.184000000         0.00000000    
 -0.175999999         0.00000000    
 -0.167999998         0.00000000    
 -0.159999996         0.00000000    
 -0.151999995         5.24436903E-38
 -0.143999994        -1.03771689E-37
 -0.136000007        -8.33196597E-38
 -0.128000006         3.78055438E-37
 -0.119999997         8.26204857E-37
 -0.112000003        -2.17617284E-36
 -0.104000002        -1.39385706E-35
  -9.60000008E-02    -2.11442046E-35
  -8.79999995E-02     2.57258201E-35
  -7.99999982E-02     1.53152347E-34
  -7.19999969E-02     2.39755527E-34
  -6.40000030E-02     4.80625718E-35
  -5.60000017E-02    -4.91564876E-34
  -4.80000004E-02    -1.22509158E-33
  -3.99999991E-02    -2.13174450E-33
  -3.20000015E-02    -2.56827351E-33
  -2.40000002E-02     1.29196123E-33
  -1.60000008E-02     1.48376598E-32
  -8.00000038E-03     3.13251083E-32
   0.00000000         1.85311189E-32
   8.00000038E-03    -5.58018218E-32
   1.60000008E-02    -1.50915748E-31
   2.40000002E-02    -1.22808820E-31
   3.20000015E-02     1.37854290E-31
   3.99999991E-02     4.63444948E-31
   4.80000004E-02     4.04955876E-31
   5.60000017E-02    -2.83436538E-31
   6.40000030E-02    -1.06421726E-30
   7.19999969E-02    -8.43359645E-31
   7.99999982E-02     7.30461311E-31
   8.79999995E-02     2.19327554E-30
   9.60000008E-02     1.26672089E-30
  0.104000002        -2.24654499E-30
  0.112000003        -4.85372376E-30
  0.119999997        -2.16710490E-30
  0.128000006         5.46729381E-30
  0.136000007         1.08833444E-29
  0.143999994         6.05554655E-30
  0.151999995        -8.22347335E-30
  0.159999996        -1.98321357E-29
  0.167999998        -1.55676408E-29
  0.175999999         4.39344568E-30
  0.184000000         2.38302805E-29
  0.192000002         2.51740184E-29
  0.200000003         7.58115164E-30
  0.208000004        -1.19019236E-29
  0.216000006        -1.70650679E-29
  0.224000007        -1.05154699E-29
  0.231999993        -8.74377311E-30
  0.239999995        -1.82424054E-29
  0.247999996        -2.19589717E-29
  0.256000012         2.67779212E-30
  0.263999999         5.03548407E-29
  0.272000015         7.99190209E-29
  0.280000001         5.04315800E-29
  0.287999988        -3.09543255E-29
  0.296000004        -1.03354104E-28
  0.303999990        -1.03809502E-28
  0.312000006        -2.82257492E-29
  0.319999993         6.23743588E-29
  0.328000009         9.89543648E-29
  0.335999995         6.50621145E-29
  0.344000012        -1.50693110E-30
  0.351999998        -5.86727215E-29
  0.360000014        -9.40741245E-29
  0.368000001        -1.01493065E-28
  0.375999987        -4.35362121E-29
  0.384000003         1.20821434E-28
  0.391999990         3.43230472E-28
  0.400000006         4.38946542E-28
  0.407999992         1.96478209E-28
  0.416000009        -3.98794321E-28
  0.423999995        -1.03152394E-27
  0.432000011        -1.19637420E-27
  0.439999998        -5.65908418E-28
  0.448000014         6.90195514E-28
  0.456000000         1.91302506E-27
  0.463999987         2.32129332E-27
  0.472000003         1.49397901E-27
  0.479999989        -3.42692752E-28
  0.488000005        -2.37696502E-27
  0.495999992        -3.56692433E-27
  0.504000008        -3.13108311E-27
  0.512000024        -9.97389044E-28
  0.519999981         1.99245214E-27
  0.527999997         4.33389126E-27
  0.536000013         4.61286183E-27
  0.544000030         2.43736276E-27
  0.551999986        -1.09429962E-27
  0.560000002        -3.90171182E-27
  0.568000019        -4.25852963E-27
  0.575999975        -2.06662125E-27
  0.583999991         9.62377852E-28
  0.592000008         2.51390287E-27
  0.600000024         1.45032357E-27
  0.607999980        -1.21907774E-27
  0.615999997        -3.02946604E-27
  0.624000013        -1.98300603E-27
  0.632000029         1.75076411E-27
  0.639999986         5.72421200E-27
  0.648000002         6.88139468E-27
  0.656000018         3.82221675E-27
  0.663999975        -2.03548435E-27
  0.671999991        -7.31182847E-27
  0.680000007        -8.94968937E-27
  0.688000023        -6.24797790E-27
  0.695999980        -1.15075759E-27
  0.703999996         3.34474366E-27
  0.712000012         5.33279679E-27
  0.720000029         4.99540891E-27
  0.727999985         3.80426708E-27
  0.736000001         2.86435221E-27
  0.744000018         2.02162844E-27
  0.751999974         5.00133962E-28
  0.759999990        -1.76174846E-27
  0.768000007        -3.64910261E-27
  0.776000023        -3.93978706E-27
  0.783999979        -2.83348090E-27
  0.791999996        -2.14037319E-27
  0.800000012        -3.52513666E-27
  0.808000028        -6.28699916E-27
  0.815999985        -7.02696802E-27
  0.824000001        -2.10814179E-27
  0.832000017         8.77196532E-27
  0.839999974         2.09417117E-26
  0.847999990         2.68054997E-26
  0.856000006         2.05110722E-26
  0.864000022         2.10146960E-27
  0.871999979        -2.15843976E-26
  0.879999995        -3.98322464E-26
  0.888000011        -4.31744221E-26
  0.896000028        -2.82302534E-26
  0.903999984        -7.40443026E-30
  0.912000000         2.96676720E-26
  0.920000017         4.74509449E-26
  0.927999973         4.54250453E-26
  0.935999990         2.58929725E-26
  0.944000006         2.04539923E-28
  0.952000022        -1.85743109E-26
  0.959999979        -2.44094888E-26
  0.967999995        -2.19204539E-26
  0.976000011        -2.15990917E-26
  0.984000027        -2.93592952E-26
  0.991999984        -3.98933677E-26
   1.00000000        -3.91663215E-26
   1.00800002        -1.59210127E-26
   1.01600003         2.87212299E-26
   1.02400005         7.71433365E-26
   1.03199995         1.05258869E-25
   1.03999996         9.54562124E-26
   1.04799998         4.41032411E-26
   1.05599999        -3.36659827E-26
   1.06400001        -1.14215078E-25
   1.07200003        -1.71381314E-25
   1.08000004        -1.84226582E-25
   1.08800006        -1.50077126E-25
   1.09599996        -7.66869743E-26
   1.10399997         1.43591420E-26
   1.11199999         1.06439967E-25
   1.12000000         1.78476476E-25
   1.12800002         2.20833475E-25
   1.13600004         2.35537744E-25
   1.14400005         2.09628101E-25
   1.15199995         1.50452033E-25
   1.15999997         4.83903303E-26
   1.16799998        -8.32351053E-26
   1.17600000        -2.15404140E-25
   1.18400002        -3.14867569E-25
   1.19200003        -3.67547922E-25
   1.20000005        -3.48837891E-25
   1.20799994        -2.48162699E-25
   1.21599996        -7.07823443E-26
   1.22399998         1.64181688E-25
   1.23199999         4.23157069E-25
   1.24000001         6.31023939E-25
   1.24800003         7.34957547E-25
   1.25600004         6.97230570E-25
   1.26400006         5.14016737E-25
   1.27199996         2.18353740E-25
   1.27999997        -1.49046751E-25
   1.28799999        -5.45117726E-25
   1.29600000        -9.21316666E-25
   1.30400002        -1.20349054E-24
   1.31200004        -1.30190488E-24
   1.32000005        -1.14382830E-24
   1.32799995        -7.31711236E-25
   1.33599997        -1.30637067E-25
   1.34399998         5.27885898E-25
   1.35200000         1.10984732E-24
   1.36000001         1.52695989E-24
   1.36800003         1.71066992E-24
   1.37600005         1.62283203E-24
   1.38399994         1.23763579E-24
   1.39199996         5.75458204E-25
   1.39999998        -2.71865430E-25
   1.40799999        -1.13472346E-24
   1.41600001        -1.82255860E-24
   1.42400002        -2.20925368E-24
   1.43200004        -2.23842418E-24
   1.44000006        -1.92793582E-24
   1.44799995        -1.30621709E-24
   1.45599997        -4.01155270E-25
   1.46399999         7.17833003E-25
   1.47200000         1.90366592E-24
   1.48000002         2.92576854E-24
   1.48800004         3.54323660E-24
   1.49600005         3.60463601E-24
   1.50399995         3.09208074E-24
   1.51199996         2.09167475E-24
   1.51999998         7.19848987E-25
   1.52800000        -9.19274404E-25
   1.53600001        -2.69756232E-24
   1.54400003        -4.40504899E-24
   1.55200005        -5.73879545E-24
   1.55999994        -6.36466073E-24
   1.56799996        -6.03831608E-24
   1.57599998        -4.69353148E-24
   1.58399999        -2.46690965E-24
   1.59200001         3.60553339E-25
   1.60000002         3.43702437E-24
   1.60800004         6.37687467E-24
   1.61600006         8.79345697E-24
   1.62399995         1.02922643E-23
   1.63199997         1.05399335E-23
   1.63999999         9.31891327E-24
   1.64800000         6.57750172E-24
   1.65600002         2.47029544E-24
   1.66400003        -2.61855278E-24
   1.67200005        -8.07202395E-24
   1.67999995        -1.30774608E-23
   1.68799996        -1.67482049E-23
   1.69599998        -1.82741743E-23
   1.70400000        -1.71430897E-23
   1.71200001        -1.32584452E-23
   1.72000003        -6.96978962E-24
   1.72800004         1.00768224E-24
   1.73599994         9.67102133E-24
   1.74399996         1.78482225E-23
   1.75199997         2.43254064E-23
   1.75999999         2.79414217E-23
   1.76800001         2.77735837E-23
   1.77600002         2.33846314E-23
   1.78400004         1.49367436E-23
   1.79200006         3.29105473E-24
   1.79999995        -1.00217584E-23
   1.80799997        -2.30450883E-23
   1.81599998        -3.36868913E-23
   1.82400000        -4.00693724E-23
   1.83200002        -4.08055911E-23
   1.84000003        -3.52034228E-23
   1.84800005        -2.35833013E-23
   1.85599995        -7.17277931E-24
   1.86399996         1.20062957E-23
   1.87199998         3.11979405E-23
   1.88000000         4.73696616E-23
   1.88800001         5.75591539E-23
   1.89600003         5.95278289E-23
   1.90400004         5.20546403E-23
   1.91199994         3.55496980E-23
   1.91999996         1.18471454E-23
   1.92799997        -1.62408159E-23
   1.93599999        -4.46897875E-23
   1.94400001        -6.95126370E-23
   1.95200002        -8.65712997E-23
   1.96000004        -9.23627252E-23
   1.96800005        -8.47194897E-23
   1.97599995        -6.33583607E-23
   1.98399997        -3.02293361E-23
   1.99199998         1.03767679E-23
   2.00000000         5.30787648E-23
   2.00799990         9.19520757E-23
   2.01600003         1.21153005E-22
   2.02399993         1.36092049E-22
   2.03200006         1.33465344E-22
   2.03999996         1.11930262E-22
   2.04800010         7.31429307E-23
   2.05599999         2.12097908E-23
   2.06399989        -3.72280753E-23
   2.07200003        -9.41646160E-23
   2.07999992        -1.42060445E-22
   2.08800006        -1.73683253E-22
   2.09599996        -1.84220743E-22
   2.10400009        -1.71042185E-22
   2.11199999        -1.35095257E-22
   2.11999989        -7.98488921E-23
   2.12800002        -1.21653356E-23
   2.13599992         5.89109144E-23
   2.14400005         1.24448500E-22
   2.15199995         1.75341325E-22
   2.16000009         2.04240102E-22
   2.16799998         2.06770452E-22
   2.17600012         1.81648893E-22
   2.18400002         1.32057285E-22
   2.19199991         6.37775740E-23
   2.20000005        -1.30688819E-23
   2.20799994        -8.77767044E-23
   2.21600008        -1.49805367E-22
   2.22399998        -1.90329177E-22
   2.23200011        -2.03553806E-22
   2.24000001        -1.86876340E-22
   2.24799991        -1.41452315E-22
   2.25600004        -7.24539774E-23
   2.26399994         1.13786748E-23
   2.27200007         9.81494427E-23
   2.27999997         1.75119106E-22
   2.28800011         2.30109691E-22
   2.29600000         2.54065011E-22
   2.30399990         2.42103810E-22
   2.31200004         1.93790194E-22
   2.31999993         1.13279896E-22
   2.32800007         8.83811438E-24
   2.33599997        -1.07603897E-22
   2.34400010        -2.21700611E-22
   2.35200000        -3.18484832E-22
   2.35999990        -3.84175917E-22
   2.36800003        -4.08694598E-22
   2.37599993        -3.87036137E-22
   2.38400006        -3.19644773E-22
   2.39199996        -2.12471519E-22
   2.40000010        -7.60742558E-23
   2.40799999         7.53355980E-23
   2.41599989         2.25296958E-22
   2.42400002         3.56950447E-22
   2.43199992         4.55117509E-22
   2.44000006         5.08463439E-22
   2.44799995         5.10929482E-22
   2.45600009         4.62427132E-22
   2.46399999         3.68562530E-22
   2.47199988         2.39974820E-22
   2.48000002         9.10390860E-23
   2.48799992        -6.16023690E-23
   2.49600005        -2.01005760E-22
   2.50399995        -3.12105585E-22
   2.51200008        -3.83486289E-22
   2.51999998        -4.08836896E-22
   2.52800012        -3.87516901E-22
   2.53600001        -3.24316041E-22
   2.54399991        -2.28812753E-22
   2.55200005        -1.14270061E-22
   2.55999994         3.91809423E-24
   2.56800008         1.09851431E-22
   2.57599998         1.89452684E-22
   2.58400011         2.32120138E-22
   2.59200001         2.32241206E-22
   2.59999990         1.89639675E-22
   2.60800004         1.09518960E-22
   2.61599994         1.59510978E-24
   2.62400007        -1.20745436E-22
   2.63199997        -2.41750754E-22
   2.64000010        -3.44785378E-22
   2.64800000        -4.14174770E-22
   2.65599990        -4.37279458E-22
   2.66400003        -4.06192280E-22
   2.67199993        -3.19151287E-22
   2.68000007        -1.80925728E-22
   2.68799996        -2.41847418E-24
   2.69600010         2.00278114E-22
   2.70400000         4.07492803E-22
   2.71199989         5.97710946E-22
   2.72000003         7.49722600E-22
   2.72799993         8.44597652E-22
   2.73600006         8.67896236E-22
   2.74399996         8.11697128E-22
   2.75200009         6.75900567E-22
   2.75999999         4.68879737E-22
   2.76799989         2.07049999E-22
   2.77600002        -8.68253823E-23
   2.78399992        -3.85602001E-22
   2.79200006        -6.60604744E-22
   2.79999995        -8.84312822E-22
   2.80800009        -1.03326753E-21
   2.81599998        -1.09052081E-21
   2.82399988        -1.04775268E-21
   2.83200002        -9.06698398E-22
   2.83999991        -6.79381804E-22
   2.84800005        -3.87106062E-22
   2.85599995        -5.82593090E-23
   2.86400008         2.74519657E-22
   2.87199998         5.77393373E-22
   2.88000011         8.18987819E-22
   2.88800001         9.73388623E-22
   2.89599991         1.02338600E-21
   2.90400004         9.62614171E-22
   2.91199994         7.96531864E-22
   2.92000008         5.41745241E-22
   2.92799997         2.24057979E-22
   2.93600011        -1.24149137E-22
   2.94400001        -4.66892211E-22
   2.95199990        -7.67682325E-22
   2.96000004        -9.93056478E-22
   2.96799994        -1.11601619E-21
   2.97600007        -1.11961844E-21
   2.98399997        -9.99139668E-22
   2.99200010        -7.62653053E-22
   3.00000000        -4.29904505E-22
   3.00799990        -3.03241792E-23
   3.01600003         3.99569105E-22
   3.02399993         8.19016243E-22
   3.03200006         1.18622920E-21
   3.03999996         1.46250339E-21
   3.04800010         1.61643703E-21
   3.05599999         1.62765052E-21
   3.06399989         1.48908555E-21
   3.07200003         1.20748185E-21
   3.07999992         8.02710829E-22
   3.08800006         3.06122561E-22
   3.09599996        -2.41537951E-22
   3.10400009        -7.92979491E-22
   3.11199999        -1.29847969E-21
   3.11999989        -1.71057720E-21
   3.12800002        -1.98919449E-21
   3.13599992        -2.10576738E-21
   3.14400005        -2.04588786E-21
   3.15199995        -1.81050611E-21
   3.16000009        -1.41595721E-21
   3.16799998        -8.92934100E-22
   3.17600012        -2.84508706E-22
   3.18400002         3.57260336E-22
   3.19199991         9.75888441E-22
   3.20000005         1.51596205E-21
   3.20799994         1.92840176E-21
   3.21600008         2.17528872E-21
   3.22399998         2.23306959E-21
   3.23200011         2.09457075E-21
   3.24000001         1.76970869E-21
   3.24799991         1.28480748E-21
   3.25600004         6.80779843E-22
   3.26399994         9.89244749E-24
   3.27200007        -6.68714739E-22
   3.27999997        -1.29431218E-21
   3.28800011        -1.81017673E-21
   3.29600000        -2.16882031E-21
   3.30399990        -2.33593947E-21
   3.31200004        -2.29341843E-21
   3.31999993        -2.04090842E-21
   3.32800007        -1.59621907E-21
   3.33599997        -9.94309466E-22
   3.34400010        -2.84778156E-22
   3.35200000         4.72358702E-22
   3.35999990         1.21206860E-21
   3.36800003         1.87004857E-21
   3.37599993         2.38791170E-21
   3.38400006         2.71757710E-21
   3.39199996         2.82495407E-21
   3.40000010         2.69321526E-21
   3.40799999         2.32544825E-21
   3.41599989         1.74576892E-21
   3.42400002         9.97881934E-22
   3.43199992         1.41097719E-22
   3.44000006        -7.55466820E-22
   3.44799995        -1.61887031E-21
   3.45600009        -2.37765474E-21
   3.46399999        -2.96652433E-21
   3.47199988        -3.33125928E-21
   3.48000002        -3.43405324E-21
   3.48799992        -3.25839631E-21
   3.49600005        -2.81195929E-21
   3.50399995        -2.12619567E-21
   3.51200008        -1.25298203E-21
   3.51999998        -2.59688719E-22
   3.52800012         7.76041928E-22
   3.53600001         1.77130186E-21
   3.54399991         2.64356685E-21
   3.55200005         3.31741088E-21
   3.55999994         3.73198891E-21
   3.56800008         3.84762537E-21
   3.57599998         3.64990133E-21
   3.58400011         3.15050861E-21
   3.59200001         2.38570218E-21
   3.59999990         1.41330745E-21
   3.60800004         3.09083856E-22
   3.61599994        -8.38214820E-22
   3.62400007        -1.93348440E-21
   3.63199997        -2.88347265E-21
   3.64000010        -3.60548763E-21
   3.64800000        -4.03514738E-21
   3.65599990        -4.13164720E-21
   3.66400003        -3.88106964E-21
   3.67199993        -3.29747918E-21
   3.68000007        -2.42263975E-21
   3.68799996        -1.32357854E-21
   3.69600010        -8.79555676E-23
   3.70400000         1.18311597E-21
   3.71199989         2.38370754E-21
   3.72000003         3.41226301E-21
   3.72799993         4.17997224E-21
   3.73600006         4.61795105E-21
   3.74399996         4.68292956E-21
   3.75200009         4.36125445E-21
   3.75999999         3.67077755E-21
   3.76799989         2.66032877E-21
   3.77600002         1.40634740E-21
   3.78399992         7.04651502E-24
   3.79200006        -1.42541597E-21
   3.79999995        -2.77403258E-21
   3.80800009        -3.92649712E-21
   3.81599998        -4.78443932E-21
   3.82399988        -5.27164103E-21
   3.83200002        -5.34061044E-21
   3.83999991        -4.97702094E-21
   3.84800005        -4.20173501E-21
   3.85599995        -3.07005358E-21
   3.86400008        -1.66800678E-21
   3.87199998        -1.05788557E-22
   3.88000011         1.49123731E-21
   3.88800001         2.99281317E-21
   3.89599991         4.27442633E-21
   3.90400004         5.22734163E-21
   3.91199994         5.76763355E-21
   3.92000008         5.84363925E-21
   3.92799997         5.44148084E-21
   3.93600011         4.58731103E-21
   3.94400001         3.34609361E-21
   3.95199990         1.81630243E-21
   3.96000004         1.21570483E-22
   3.96799994        -1.59938835E-21
   3.97600007        -3.20383773E-21
   3.98399997        -4.55646180E-21
   3.99200010        -5.54055066E-21
   4.00000000        -6.06855846E-21
   4.00799990        -6.09059588E-21
   4.01599979        -5.59935601E-21
   4.02400017        -4.63118715E-21
   4.03200006        -3.26278161E-21
   4.03999996        -1.60495879E-21
   4.04799986         2.06178403E-22
   4.05600023         2.01969475E-21
   4.06400013         3.68205798E-21
   4.07200003         5.05035163E-21
   4.07999992         6.00517898E-21
   4.08799982         6.46165504E-21
   4.09600019         6.37692962E-21
   4.10400009         5.75370476E-21
   4.11199999         4.63974936E-21
   4.11999989         3.12430237E-21
   4.12799978         1.33123936E-21
   4.13600016        -5.90539153E-22
   4.14400005        -2.47954174E-21
   4.15199995        -4.17580726E-21
   4.15999985        -5.53507907E-21
   4.16800022        -6.44152644E-21
   4.17600012        -6.81746428E-21
   4.18400002        -6.62955857E-21
   4.19199991        -5.89170014E-21
   4.19999981        -4.66423277E-21
   4.20800018        -3.04944838E-21
   4.21600008        -1.18335760E-21
   4.22399998         7.76213988E-22
   4.23199987         2.66378370E-21
   4.23999977         4.32089627E-21
   4.24800014         5.60973737E-21
   4.25600004         6.42439718E-21
   4.26399994         6.69912212E-21
   4.27199984         6.41361839E-21
   4.28000021         5.59502462E-21
   4.28800011         4.31600064E-21
   4.29600000         2.68874412E-21
   4.30399990         8.54986180E-22
   4.31199980        -1.02691484E-21
   4.32000017        -2.79623277E-21
   4.32800007        -4.30384415E-21
   4.33599997        -5.42457776E-21
   4.34399986        -6.06742553E-21
   4.35200024        -6.18298727E-21
   4.36000013        -5.76757337E-21
   4.36800003        -4.86349686E-21
   4.37599993        -3.55504456E-21
   4.38399982        -1.96037201E-21
   4.39200020        -2.20314336E-22
   4.40000010         1.51434112E-21
   4.40799999         3.09571900E-21
   4.41599989         4.39084675E-21
   4.42399979         5.29228298E-21
   4.43200016         5.72698053E-21
   4.44000006         5.66258646E-21
   4.44799995         5.11033596E-21
   4.45599985         4.12369326E-21
   4.46400023         2.79262940E-21
   4.47200012         1.23454364E-21
   4.48000002        -4.16702760E-22
   4.48799992        -2.02231220E-21
   4.49599981        -3.44977169E-21
   4.50400019        -4.58340172E-21
   4.51200008        -5.33370260E-21
   4.51999998        -5.64497373E-21
   4.52799988        -5.49970377E-21
   4.53599977        -4.91926491E-21
   4.54400015        -3.96064619E-21
   4.55200005        -2.71008522E-21
   4.55999994        -1.27486799E-21
   4.56799984         2.25846712E-22
   4.57600021         1.67076670E-21
   4.58400011         2.94631394E-21
   4.59200001         3.95604257E-21
   4.59999990         4.62861392E-21
   4.60799980         4.92296744E-21
   4.61600018         4.83042176E-21
   4.62400007         4.37353089E-21
   4.63199997         3.60273427E-21
   4.63999987         2.59129917E-21
   4.64799976         1.42886807E-21
   4.65600014         2.13759596E-22
   4.66400003        -9.55333427E-22
   4.67199993        -1.98763019E-21
   4.67999983        -2.80716585E-21
   4.68800020        -3.35793949E-21
   4.69600010        -3.60715936E-21
   4.70400000        -3.54684061E-21
   4.71199989        -3.19392024E-21
   4.71999979        -2.58831337E-21
   4.72800016        -1.78900607E-21
   4.73600006        -8.68269638E-22
   4.74399996         9.50836326E-23
   4.75199986         1.02226569E-21
   4.76000023         1.84033994E-21
   4.76800013         2.48725213E-21
   4.77600002         2.91628321E-21
   4.78399992         3.09959298E-21
   4.79199982         3.03022391E-21
   4.80000019         2.72177540E-21
   4.80800009         2.20589319E-21
   4.81599998         1.52844832E-21
   4.82399988         7.45209457E-22
   4.83199978        -8.22506391E-23
   4.84000015        -8.90863624E-22
   4.84800005        -1.62094018E-21
   4.85599995        -2.22129377E-21
   4.86399984        -2.65357057E-21
   4.87200022        -2.89467877E-21
   4.88000011        -2.93698474E-21
   4.88800001        -2.78690033E-21
   4.89599991        -2.46312414E-21
   4.90399981        -1.99489549E-21
   4.91200018        -1.42025881E-21
   4.92000008        -7.83416528E-22
   4.92799997        -1.31087099E-22
   4.93599987         4.91617308E-22
   4.94399977         1.04467378E-21
   4.95200014         1.49561000E-21
   4.96000004         1.82075398E-21
   4.96799994         2.00605738E-21
   4.97599983         2.04750123E-21
   4.98400021         1.95104381E-21
   4.99200010         1.73159417E-21
   5.00000000         1.41105471E-21
   5.00799990         1.01596389E-21
   5.01599979         5.75263726E-22
   5.02400017         1.18610248E-22
   5.03200006        -3.25093820E-22
   5.03999996        -7.29232613E-22
   5.04799986        -1.07110640E-21
   5.05600023        -1.33329751E-21
   5.06400013        -1.50416453E-21
   5.07200003        -1.57759862E-21
   5.07999992        -1.55239203E-21
   5.08799982        -1.43179178E-21
   5.09600019        -1.22351413E-21
   5.10400009        -9.39846409E-22
   5.11199999        -5.97442759E-22
   5.11999989        -2.16500591E-22
   5.12799978         1.80512996E-22
   5.13600016         5.70179322E-22
   5.14400005         9.29192318E-22
   5.15199995         1.23517079E-21
   5.15999985         1.46748475E-21
   5.16800022         1.60830801E-21
   5.17600012         1.64412285E-21
   5.18400002         1.56744637E-21
   5.19199991         1.37842843E-21
   5.19999981         1.08575796E-21
   5.20800018         7.06527808E-22
   5.21600008         2.65080791E-22
   5.22399998        -2.08811519E-22
   5.23199987        -6.81966087E-22
   5.23999977        -1.11984685E-21
   5.24800014        -1.48890006E-21
   5.25600004        -1.75941518E-21
   5.26399994        -1.90873017E-21
   5.27199984        -1.92403523E-21
   5.28000021        -1.80390825E-21
   5.28800011        -1.55812312E-21
   5.29600000        -1.20632155E-21
   5.30399990        -7.76269625E-22
   5.31199980        -3.02194059E-22
   5.32000017         1.77246153E-22
   5.32800007         6.22085511E-22
   5.33599997         9.95415235E-22
   5.34399986         1.26800709E-21
   5.35200024         1.42162742E-21
   5.36000013         1.45002146E-21
   5.36800003         1.35795814E-21
   5.37599993         1.15955929E-21
   5.38399982         8.76983711E-22
   5.39200020         5.39335492E-22
   5.40000010         1.80766631E-22
   5.40799999        -1.63053864E-22
   5.41599989        -4.59582689E-22
   5.42399979        -6.83683053E-22
   5.43200016        -8.19979890E-22
   5.44000006        -8.63120762E-22
   5.44799995        -8.16751897E-22
   5.45599985        -6.92465485E-22
   5.46400023        -5.08867891E-22
   5.47200012        -2.90193074E-22
   5.48000002        -6.36072243E-23
   5.48799992         1.44609728E-22
   5.49599981         3.12887479E-22
   5.50400019         4.26868110E-22
   5.51200008         4.80199449E-22
   5.51999998         4.74019223E-22
   5.52799988         4.16127384E-22
   5.53599977         3.20075705E-22
   5.54400015         2.03894366E-22
   5.55200005         8.79037552E-23
   5.55999994        -8.30034711E-24
   5.56799984        -6.88805511E-23
   5.57600021        -8.39100301E-23
   5.58400011        -5.03361289E-23
   5.59200001         2.79024078E-23
   5.59999990         1.40182867E-22
   5.60799980         2.69665853E-22
   5.61600018         3.94571110E-22
   5.62400007         4.90429246E-22
   5.63199997         5.33374480E-22
   5.63999987         5.03845233E-22
   5.64799976         3.89726317E-22
   5.65600014         1.88383379E-22
   5.66400003        -9.25122680E-23
   5.67199993        -4.35282492E-22
   5.67999983        -8.13471195E-22
   5.68800020        -1.19385619E-21
   5.69600010        -1.53934081E-21
   5.70400000        -1.81236948E-21
   5.71199989        -1.97860027E-21
   5.71999979        -2.01051842E-21
   5.72800016        -1.89057703E-21
   5.73600006        -1.61359007E-21
   5.74399996        -1.18794970E-21
   5.75199986        -6.35436471E-22
   5.76000023         1.04903307E-23
   5.76800013         7.07684367E-22
   5.77600002         1.40910126E-21
   5.78399992         2.06699450E-21
   5.79199982         2.63709319E-21
   5.80000019         3.08258529E-21
   5.80800009         3.37753838E-21
   5.81599998         3.50932021E-21
   5.82399988         3.47971942E-21
   5.83199978         3.30463683E-21
   5.84000015         3.01236581E-21
   5.84800005         2.64094172E-21
   5.85599995         2.23457107E-21
   5.86399984         1.83955012E-21
   5.87200022         1.49985051E-21
   5.88000011         1.25294447E-21
   5.88800001         1.12627729E-21
   5.89599991         1.13481859E-21
   5.90399981         1.27977594E-21
   5.91200018         1.54829086E-21
   5.92000008         1.91409291E-21
   5.92799997         2.33913187E-21
   5.93599987         2.77626068E-21
   5.94399977         3.17282693E-21
   5.95200014         3.47481046E-21
   5.96000004         3.63090041E-21
   5.96799994         3.59613338E-21
   5.97599983         3.33488587E-21
   5.98400021         2.82326376E-21
   5.99200010         2.05092122E-21
   6.00000000         1.02222580E-21
   6.00799990        -2.43257213E-22
   6.01599979        -1.71094151E-21
   6.02400017        -3.33198246E-21
   6.03200006        -5.04458762E-21
   6.03999996        -6.77610969E-21
   6.04799986        -8.44613202E-21
   6.05600023        -9.97050552E-21
   6.06400013        -1.12659673E-20
   6.07200003        -1.22547365E-20
   6.07999992        -1.28687444E-20
   6.08799982        -1.30534036E-20
   6.09600019        -1.27713181E-20
   6.10400009        -1.20059321E-20
   6.11199999        -1.07646652E-20
   6.11999989        -9.08084289E-21
   6.12799978        -7.01358283E-21
   6.13600016        -4.64575328E-21
   6.14400005        -2.08025322E-21
   6.15199995         5.64761754E-22
   6.15999985         3.16144835E-21
   6.16800022         5.57880897E-21
   6.17600012         7.69023999E-21
   6.18400002         9.38176134E-21
   6.19199991         1.05601254E-20
   6.19999981         1.11596762E-20
   6.20800018         1.11474220E-20
   6.21600008         1.05259541E-20
   6.22399998         9.33438828E-21
   6.23199987         7.64723791E-21