 -0.239999995         0.00000000    
 -0.231999993         0.00000000    
 -0.224000007         0.00000000    
 -0.216000006         0.00000000    
 -0.208000004        -1.76342961E-33
 -0.200000003         8.05153165E-28
 -0.192000002         9.07183416E-27
 -0.184000000         2.24011383E-26
 -0.175999999        -4.63680692E-27
 -0.167999998        -9.16087283E-26
 -0.159999996        -7.31595828E-26
 -0.151999995         2.42737332E-25
 -0.143999994         5.20031900E-25
 -0.136000007        -5.09942276E-26
 -0.128000006        -1.42201674E-24
 -0.119999997        -1.78023128E-24
 -0.112000003         6.15211863E-25
 -0.104000002         4.22687056E-24
  -9.60000008E-02     4.40896727E-24
  -8.79999995E-02    -1.34915538E-24
  -7.99999982E-02    -8.55549234E-24
  -7.19999969E-02    -8.61133896E-24
  -6.40000030E-02     1.23508047E-24
  -5.60000017E-02     1.21688831E-23
  -4.80000004E-02     1.20103734E-23
  -3.99999991E-02    -4.49574911E-26
  -3.20000015E-02    -1.14687083E-23
  -2.40000002E-02    -1.17017323E-23
  -1.60000008E-02    -3.93195728E-24
  -8.00000038E-03     3.01999936E-24
   0.00000000         7.56799389E-24
   8.00000038E-03     1.12775705E-23
   1.60000008E-02     8.65151486E-24
   2.40000002E-02    -4.92385796E-24
   3.20000015E-02    -1.80490854E-23
   3.99999991E-02    -1.30805547E-23
   4.80000004E-02     7.08740326E-24
   5.60000017E-02     1.85706866E-23
   6.40000030E-02     7.99088960E-24
   7.19999969E-02    -1.04321814E-23
   7.99999982E-02    -1.57799539E-23
   8.79999995E-02    -5.13822973E-24
   9.60000008E-02     9.32516341E-24
  0.104000002         1.60281484E-23
  0.112000003         1.04843850E-23
  0.119999997        -3.33541632E-24
  0.128000006        -1.35983827E-23
  0.136000007        -1.16637250E-23
  0.143999994        -3.10126643E-24
  0.151999995         2.12407189E-24
  0.159999996         5.69385484E-24
  0.167999998         1.26383721E-23
  0.175999999         1.46548505E-23
  0.184000000         2.72845057E-24
  0.192000002        -1.01845572E-23
  0.200000003        -4.33276251E-24
  0.208000004         1.37105603E-23
  0.216000006         2.02014041E-23
  0.224000007         1.18951247E-23
  0.231999993         5.17868883E-24
  0.239999995         3.00894150E-24
  0.247999996        -4.07185821E-24
  0.256000012        -9.05149810E-24
  0.263999999         1.99978093E-24
  0.272000015         1.55358393E-23
  0.280000001         7.04790342E-24
  0.287999988        -1.04092658E-23
  0.296000004        -5.94337667E-25
  0.303999990         3.06869416E-23
  0.312000006         3.49753946E-23
  0.319999993        -3.20621274E-24
  0.328000009        -3.82314117E-23
  0.335999995        -2.93497404E-23
  0.344000012         4.90969791E-24
  0.351999998         1.88153865E-23
  0.360000014        -3.33765314E-24
  0.368000001        -3.78951866E-23
  0.375999987        -5.00200607E-23
  0.384000003        -2.81024629E-23
  0.391999990        -6.42091677E-24
  0.400000006        -4.00563594E-23
  0.407999992        -1.31767287E-22
  0.416000009        -2.07324662E-22
  0.423999995        -2.01257716E-22
  0.432000011        -1.39708276E-22
  0.439999998        -8.94736325E-23
  0.448000014        -5.52541023E-23
  0.456000000         5.56712394E-24
  0.463999987         8.66550956E-23
  0.472000003         1.31802931E-22
  0.479999989         1.31357962E-22
  0.488000005         1.45020566E-22
  0.495999992         2.10643154E-22
  0.504000008         2.87442335E-22
  0.512000024         3.09302440E-22
  0.519999981         2.54658815E-22
  0.527999997         1.54332142E-22
  0.536000013         6.51476298E-23
  0.544000030         3.71538435E-23
  0.551999986         7.36763395E-23
  0.560000002         1.20263372E-22
  0.568000019         1.17295854E-22
  0.575999975         5.87183377E-23
  0.583999991        -1.43966658E-23
  0.592000008        -5.79559320E-23
  0.600000024        -5.11285050E-23
  0.607999980        -1.91420254E-23
  0.615999997        -4.70521893E-23
  0.624000013        -2.14293345E-22
  0.632000029        -4.72917695E-22
  0.639999986        -6.46202592E-22
  0.648000002        -6.05473792E-22
  0.656000018        -4.11093568E-22
  0.663999975        -2.26308543E-22
  0.671999991        -1.30059359E-22
  0.680000007        -7.36738278E-23
  0.688000023         1.31487919E-23
  0.695999980         1.46155844E-22
  0.703999996         3.01919207E-22
  0.712000012         4.35947659E-22
  0.720000029         4.77987963E-22
  0.727999985         3.68498209E-22
  0.736000001         1.27926317E-22
  0.744000018        -1.37275240E-22
  0.751999974        -3.23575976E-22
  0.759999990        -4.17384361E-22
  0.768000007        -4.78018558E-22
  0.776000023        -5.33716581E-22
  0.783999979        -5.16327057E-22
  0.791999996        -3.22415858E-22
  0.800000012         6.44658078E-23
  0.808000028         5.37697236E-22
  0.815999985         9.56259562E-22
  0.824000001         1.24384053E-21
  0.832000017         1.39745581E-21
  0.839999974         1.43671296E-21
  0.847999990         1.36621399E-21
  0.856000006         1.16005275E-21
  0.864000022         7.68009784E-22
  0.871999979         1.68556452E-22
  0.879999995        -5.61845720E-22
  0.888000011        -1.25699717E-21
  0.896000028        -1.76033405E-21
  0.903999984        -2.00611736E-21
  0.912000000        -2.01032717E-21
  0.920000017        -1.82104660E-21
  0.927999973        -1.48479001E-21
  0.935999990        -1.02032214E-21
  0.944000006        -4.12544819E-22
  0.952000022         3.29502606E-22
  0.959999979         1.09469256E-21
  0.967999995         1.68900487E-21
  0.976000011         1.95626902E-21
  0.984000027         1.86214370E-21
  0.991999984         1.46277501E-21
   1.00000000         8.36969152E-22
   1.00800002         6.79525226E-23
   1.01600003        -7.48828827E-22
   1.02400005        -1.51630062E-21
   1.03199995        -2.14298788E-21
   1.03999996        -2.52399745E-21
   1.04799998        -2.53799187E-21
   1.05599999        -2.10185786E-21
   1.06400001        -1.24255281E-21
   1.07200003        -1.03375577E-22
   1.08000004         1.13085283E-21
   1.08800006         2.30889050E-21
   1.09599996         3.31082615E-21
   1.10399997         4.00370118E-21
   1.11199999         4.25446091E-21
   1.12000000         4.00280494E-21
   1.12800002         3.28465767E-21
   1.13600004         2.17266298E-21
   1.14400005         7.47228033E-22
   1.15199995        -8.44483803E-22
   1.15999997        -2.36442389E-21
   1.16799998        -3.58322201E-21
   1.17600000        -4.37716071E-21
   1.18400002        -4.69255684E-21
   1.19200003        -4.48056273E-21
   1.20000005        -3.74742665E-21
   1.20799994        -2.62868648E-21
   1.21599996        -1.32522311E-21
   1.22399998         1.66791969E-23
   1.23199999         1.29216355E-21
   1.24000001         2.34339238E-21
   1.24800003         2.98608889E-21
   1.25600004         3.14088940E-21
   1.26400006         2.86556629E-21
   1.27199996         2.25677429E-21
   1.27999997         1.39371744E-21
   1.28799999         3.82684276E-22
   1.29600000        -6.20540051E-22
   1.30400002        -1.46109651E-21
   1.31200004        -2.02047932E-21
   1.32000005        -2.21139446E-21
   1.32799995        -2.00238656E-21
   1.33599997        -1.46078733E-21
   1.34399998        -7.22631880E-22
   1.35200000         9.40236623E-23
   1.36000001         9.18630720E-22
   1.36800003         1.68751257E-21
   1.37600005         2.32320784E-21
   1.38399994         2.75022185E-21
   1.39199996         2.89233900E-21
   1.39999998         2.67521378E-21
   1.40799999         2.09314560E-21
   1.41600001         1.27007242E-21
   1.42400002         3.96369485E-22
   1.43200004        -4.04753095E-22
   1.44000006        -1.11435335E-21
   1.44799995        -1.74069356E-21
   1.45599997        -2.26447034E-21
   1.46399999        -2.65368406E-21
   1.47200000        -2.86663460E-21
   1.48000002        -2.83305967E-21
   1.48800004        -2.50031678E-21
   1.49600005        -1.92540040E-21
   1.50399995        -1.26962167E-21
   1.51199996        -6.67105261E-22
   1.51999998        -1.29114505E-22
   1.52800000         4.00469719E-22
   1.53600001         9.30797101E-22
   1.54400003         1.39508433E-21
   1.55200005         1.70989461E-21
   1.55999994         1.83259906E-21
   1.56799996         1.77468915E-21
   1.57599998         1.58803562E-21
   1.58399999         1.33568767E-21
   1.59200001         1.05447585E-21
   1.60000002         7.40792392E-22
   1.60800004         3.82336723E-22
   1.61600006         3.25113817E-24
   1.62399995        -3.34427698E-22
   1.63199997        -5.77640154E-22
   1.63999999        -7.19635773E-22
   1.64800000        -7.84047061E-22
   1.65600002        -7.84200643E-22
   1.66400003        -7.11585858E-22
   1.67200005        -5.54718810E-22
   1.67999995        -3.11601774E-22
   1.68799996         8.13246805E-24
   1.69599998         3.70505728E-22
   1.70400000         7.13165700E-22
   1.71200001         9.80969664E-22
   1.72000003         1.16096021E-21
   1.72800004         1.25422260E-21
   1.73599994         1.22345899E-21
   1.74399996         1.00962453E-21
   1.75199997         5.98854227E-22
   1.75999999         3.22817786E-23
   1.76800001        -6.43848227E-22
   1.77600002        -1.38355439E-21
   1.78400004        -2.09426965E-21
   1.79200006        -2.64676773E-21
   1.79999995        -2.95401525E-21
   1.80799997        -2.99625235E-21
   1.81599998        -2.75794476E-21
   1.82400000        -2.19705451E-21
   1.83200002        -1.30590008E-21
   1.84000003        -1.65524399E-22
   1.84800005         1.08004625E-21
   1.85599995         2.27284433E-21
   1.86399996         3.25939615E-21
   1.87199998         3.90820544E-21
   1.88000000         4.13969161E-21
   1.88800001         3.92922544E-21
   1.89600003         3.28598387E-21
   1.90400004         2.25620984E-21
   1.91199994         9.46408823E-22
   1.91999996        -4.79834427E-22
   1.92799997        -1.83008298E-21
   1.93599999        -2.91254615E-21
   1.94400001        -3.58100018E-21
   1.95200002        -3.78408837E-21
   1.96000004        -3.54926358E-21
   1.96800005        -2.90707557E-21
   1.97599995        -1.88038247E-21
   1.98399997        -5.75002910E-22
   1.99199998         7.80427237E-22
   2.00000000         1.94302747E-21
   2.00799990         2.77649393E-21
   2.01600003         3.23645300E-21
   2.02399993         3.29733256E-21
   2.03200006         2.95944523E-21
   2.03999996         2.29318881E-21
   2.04800010         1.40715781E-21
   2.05599999         3.81926414E-22
   2.06399989        -7.16355778E-22
   2.07200003        -1.77050397E-21
   2.07999992        -2.61731194E-21
   2.08800006        -3.13396479E-21
   2.09599996        -3.29642379E-21
   2.10400009        -3.14948857E-21
   2.11199999        -2.74482539E-21
   2.11999989        -2.12264784E-21
   2.12800002        -1.33697358E-21
   2.13599992        -4.64725659E-22
   2.14400005         4.28430686E-22
   2.15199995         1.31213534E-21
   2.16000009         2.15283529E-21
   2.16799998         2.86386851E-21
   2.17600012         3.33295525E-21
   2.18400002         3.49759388E-21
   2.19199991         3.35501468E-21
   2.20000005         2.90472712E-21
   2.20799994         2.13914601E-21
   2.21600008         1.10438972E-21
   2.22399998        -8.05509531E-23
   2.23200011        -1.28243944E-21
   2.24000001        -2.38861266E-21
   2.24799991        -3.27781384E-21
   2.25600004        -3.81765219E-21
   2.26399994        -3.92115559E-21
   2.27200007        -3.56985626E-21
   2.27999997        -2.77462530E-21
   2.28800011        -1.57193357E-21
   2.29600000        -8.48127078E-23
   2.30399990         1.46143074E-21
   2.31200004         2.82020990E-21
   2.31999993         3.80317935E-21
   2.32800007         4.28748714E-21
   2.33599997         4.20828339E-21
   2.34400010         3.58132168E-21
   2.35200000         2.50373920E-21
   2.35999990         1.10871989E-21
   2.36800003        -4.59208933E-22
   2.37599993        -2.01780815E-21
   2.38400006        -3.34083023E-21
   2.39199996        -4.22096413E-21
   2.40000010        -4.54412397E-21
   2.40799999        -4.30381952E-21
   2.41599989        -3.56717156E-21
   2.42400002        -2.44484378E-21
   2.43199992        -1.08086243E-21
   2.44000006         3.56168603E-22
   2.44799995         1.69433065E-21
   2.45600009         2.78640475E-21
   2.46399999         3.52757473E-21
   2.47199988         3.85592504E-21
   2.48000002         3.75202906E-21
   2.48799992         3.25075135E-21
   2.49600005         2.44516366E-21
   2.50399995         1.46008071E-21
   2.51200008         4.16018231E-22
   2.51999998        -5.82952356E-22
   2.52800012        -1.44831066E-21
   2.53600001        -2.11919129E-21
   2.54399991        -2.57003865E-21
   2.55200005        -2.78798741E-21
   2.55999994        -2.75052760E-21
   2.56800008        -2.44492940E-21
   2.57599998        -1.90162421E-21
   2.58400011        -1.18708031E-21
   2.59200001        -3.69886756E-22
   2.59999990         4.86763125E-22
   2.60800004         1.30804437E-21
   2.61599994         2.00917849E-21
   2.62400007         2.51795394E-21
   2.63199997         2.78468778E-21
   2.64000010         2.77594887E-21
   2.64800000         2.47316340E-21
   2.65599990         1.87872427E-21
   2.66400003         1.02463121E-21
   2.67199993        -1.13467015E-23
   2.68000007        -1.09808671E-21
   2.68799996        -2.08415991E-21
   2.69600010        -2.85111870E-21
   2.70400000        -3.32398450E-21
   2.71199989        -3.44100915E-21
   2.72000003        -3.15693077E-21
   2.72799993        -2.49164309E-21
   2.73600006        -1.54242143E-21
   2.74399996        -4.30232974E-22
   2.75200009         7.39472255E-22
   2.75999999         1.85486831E-21
   2.76799989         2.77935251E-21
   2.77600002         3.38499876E-21
   2.78399992         3.58936003E-21
   2.79200006         3.35846456E-21
   2.79999995         2.71371847E-21
   2.80800009         1.75274604E-21
   2.81599998         6.29138610E-22
   2.82399988        -5.09260429E-22
   2.83200002        -1.54524811E-21
   2.83999991        -2.36666733E-21
   2.84800005        -2.86772815E-21
   2.85599995        -2.99214936E-21
   2.86400008        -2.74270796E-21
   2.87199998        -2.14941670E-21
   2.88000011        -1.27587692E-21
   2.88800001        -2.59704799E-22
   2.89599991         7.12879337E-22
   2.90400004         1.49944439E-21
   2.91199994         2.03986374E-21
   2.92000008         2.30852114E-21
   2.92799997         2.28482149E-21
   2.93600011         1.98318228E-21
   2.94400001         1.46085084E-21
   2.95199990         7.79884047E-22
   2.96000004         5.39720566E-24
   2.96799994        -7.50083684E-22
   2.97600007        -1.33937172E-21
   2.98399997        -1.67274832E-21
   2.99200010        -1.76985511E-21
   3.00000000        -1.70307542E-21
   3.00799990        -1.51871764E-21
   3.01600003        -1.22939375E-21
   3.02399993        -8.53325760E-22
   3.03200006        -4.33118160E-22
   3.03999996        -2.20431576E-23
   3.04800010         3.36433626E-22
   3.05599999         6.19011655E-22
   3.06399989         8.20510459E-22
   3.07200003         9.48994469E-22
   3.07999992         1.02782512E-21
   3.08800006         1.08912171E-21
   3.09599996         1.14102477E-21
   3.10400009         1.14230785E-21
   3.11199999         1.03347988E-21
   3.11999989         7.96814239E-22
   3.12800002         4.66535167E-22
   3.13599992         8.26377868E-23
   3.14400005        -3.38228266E-22
   3.15199995        -7.81246744E-22
   3.16000009        -1.20474565E-21
   3.16799998        -1.54086542E-21
   3.17600012        -1.71697613E-21
   3.18400002        -1.68248405E-21
   3.19199991        -1.42784813E-21
   3.20000005        -9.78075441E-22
   3.20799994        -3.74433018E-22
   3.21600008         3.16644728E-22
   3.22399998         9.82485691E-22
   3.23200011         1.49226583E-21
   3.24000001         1.76288223E-21
   3.24799991         1.77692209E-21
   3.25600004         1.54283886E-21
   3.26399994         1.08177554E-21
   3.27200007         4.57530591E-22
   3.27999997        -2.28479589E-22
   3.28800011        -8.84491749E-22
   3.29600000        -1.43419406E-21
   3.30399990        -1.78265399E-21
   3.31200004        -1.83916501E-21
   3.31999993        -1.59265872E-21
   3.32800007        -1.12307257E-21
   3.33599997        -5.33037378E-22
   3.34400010         9.04224934E-23
   3.35200000         6.57507562E-22
   3.35999990         1.08446387E-21
   3.36800003         1.33236996E-21
   3.37599993         1.39237014E-21
   3.38400006         1.24013801E-21
   3.39199996         8.66101823E-22
   3.40000010         3.51697668E-22
   3.40799999        -1.48103359E-22
   3.41599989        -5.13593181E-22
   3.42400002        -7.10611558E-22
   3.43199992        -7.41487700E-22
   3.44000006        -6.11279960E-22
   3.44799995        -3.56142451E-22
   3.45600009        -5.01264528E-23
   3.46399999         2.41268198E-22
   3.47199988         4.82030263E-22
   3.48000002         6.30315565E-22
   3.48799992         6.22172299E-22
   3.49600005         4.19482681E-22
   3.50399995         6.42493002E-23
   3.51200008        -3.29088182E-22
   3.51999998        -6.39042159E-22
   3.52800012        -8.03680686E-22
   3.53600001        -8.32351956E-22
   3.54399991        -7.54572997E-22
   3.55200005        -5.69023067E-22
   3.55999994        -2.61029656E-22
   3.56800008         1.38420779E-22
   3.57599998         5.41814509E-22
   3.58400011         8.55918071E-22
   3.59200001         1.01826620E-21
   3.59999990         9.88864837E-22
   3.60800004         7.51797014E-22
   3.61599994         3.47800569E-22
   3.62400007        -1.21204931E-22
   3.63199997        -5.46374302E-22
   3.64000010        -8.68311139E-22
   3.64800000        -1.07822195E-21
   3.65599990        -1.17727986E-21
   3.66400003        -1.14186841E-21
   3.67199993        -9.28299202E-22
   3.68000007        -5.23416657E-22
   3.68799996         9.62167532E-25
   3.69600010         5.03578712E-22
   3.70400000         8.64773407E-22
   3.71199989         1.05239629E-21
   3.72000003         1.09078466E-21
   3.72799993         1.00078605E-21
   3.73600006         8.04061258E-22
   3.74399996         5.55611169E-22
   3.75200009         3.17301061E-22
   3.75999999         1.02929315E-22
   3.76799989        -1.07347372E-22
   3.77600002        -2.98868221E-22
   3.78399992        -4.12534116E-22
   3.79200006        -4.14373008E-22
   3.79999995        -3.42547639E-22
   3.80800009        -2.70392387E-22
   3.81599998        -2.43597370E-22
   3.82399988        -2.63136785E-22
   3.83200002        -3.08807616E-22
   3.83999991        -3.61486384E-22
   3.84800005        -4.06028248E-22
   3.85599995        -4.22625225E-22
   3.86400008        -3.85525589E-22
   3.87199998        -2.81557937E-22
   3.88000011        -1.27073148E-22
   3.88800001         5.17279730E-23
   3.89599991         2.54603330E-22
   3.90400004         4.94108039E-22
   3.91199994         7.36669615E-22
   3.92000008         8.91320532E-22
   3.92799997         8.84393299E-22
   3.93600011         7.24864672E-22
   3.94400001         4.73159528E-22
   3.95199990         1.70701359E-22
   3.96000004        -1.66109747E-22
   3.96799994        -5.00062437E-22
   3.97600007        -7.64715905E-22
   3.98399997        -9.06849354E-22
   3.99200010        -9.10429697E-22
   4.00000000        -7.73387317E-22
   4.00799990        -4.87280971E-22
   4.01599979        -5.98271479E-23
   4.02400017         4.51279329E-22
   4.03200006         9.48557049E-22
   4.03999996         1.34923599E-21
   4.04799986         1.62298844E-21
   4.05600023         1.76876418E-21
   4.06400013         1.76901076E-21
   4.07200003         1.59288975E-21
   4.07999992         1.24455523E-21
   4.08799982         7.80999357E-22
   4.09600019         2.74329144E-22
   4.10400009        -2.19365809E-22
   4.11199999        -6.47733765E-22
   4.11999989        -9.52925394E-22
   4.12799978        -1.09833854E-21
   4.13600016        -1.08897914E-21
   4.14400005        -9.53302129E-22
   4.15199995        -7.22087831E-22
   4.15999985        -4.32151131E-22
   4.16800022        -1.28668023E-22
   4.17600012         1.46404153E-22
   4.18400002         3.54588610E-22
   4.19199991         4.54870728E-22
   4.19999981         4.24358548E-22
   4.20800018         2.84687733E-22
   4.21600008         8.27869193E-23
   4.22399998        -1.52059970E-22
   4.23199987        -4.09229559E-22
   4.23999977        -6.66932443E-22
   4.24800014        -8.93195118E-22
   4.25600004        -1.06847572E-21
   4.26399994        -1.17838765E-21
   4.27199984        -1.19645859E-21
   4.28000021        -1.10710269E-21
   4.28800011        -9.36623110E-22
   4.29600000        -7.32920999E-22
   4.30399990        -5.23679140E-22
   4.31199980        -3.13608813E-22
   4.32000017        -1.01853246E-22
   4.32800007         1.20356218E-22
   4.33599997         3.64420669E-22
   4.34399986         6.12505635E-22
   4.35200024         8.15238091E-22
   4.36000013         9.41071024E-22
   4.36800003         1.00047768E-21
   4.37599993         1.00610113E-21
   4.38399982         9.44826153E-22
   4.39200020         8.07476861E-22
   4.40000010         6.09676540E-22
   4.40799999         3.67470166E-22
   4.41599989         9.23999720E-23
   4.42399979        -1.73751802E-22
   4.43200016        -3.63361601E-22
   4.44000006        -4.42315143E-22
   4.44799995        -4.28497127E-22
   4.45599985        -3.40849657E-22
   4.46400023        -1.74320918E-22
   4.47200012         6.13070762E-23
   4.48000002         3.22823491E-22
   4.48799992         5.70273026E-22
   4.49599981         7.82272137E-22
   4.50400019         9.22873555E-22
   4.51200008         9.37589534E-22
   4.51999998         8.03721883E-22
   4.52799988         5.53440123E-22
   4.53599977         2.34026783E-22
   4.54400015        -1.23296738E-22
   4.55200005        -4.83985578E-22
   4.55999994        -7.94207035E-22
   4.56799984        -1.00645858E-21
   4.57600021        -1.10421059E-21
   4.58400011        -1.08858190E-21
   4.59200001        -9.56858036E-22
   4.59999990        -7.09985871E-22
   4.60799980        -3.77325323E-22
   4.61600018        -2.42570216E-23
   4.62400007         2.71486291E-22
   4.63199997         4.59038994E-22
   4.63999987         5.35951645E-22
   4.64799976         5.31465967E-22
   4.65600014         4.71322151E-22
   4.66400003         3.63315027E-22
   4.67199993         2.12141914E-22
   4.67999983         3.71818323E-23
   4.68800020        -1.28280458E-22
   4.69600010        -2.54316286E-22
   4.70400000        -3.32063337E-22
   4.71199989        -3.72546694E-22
   4.71999979        -3.85053661E-22
   4.72800016        -3.66282734E-22
   4.73600006        -3.21767427E-22
   4.74399996        -2.82782199E-22
   4.75199986        -2.77115022E-22
   4.76000023        -2.92389237E-22
   4.76800013        -2.96488512E-22
   4.77600002        -2.84188744E-22
   4.78399992        -2.67459137E-22
   4.79199982        -2.26695021E-22
   4.80000019        -1.16774689E-22
   4.80800009         7.23457647E-23
   4.81599998         2.99061158E-22
   4.82399988         5.19054976E-22
   4.83199978         7.12786694E-22
   4.84000015         8.58142128E-22
   4.84800005         9.16256009E-22
   4.85599995         8.61558186E-22
   4.86399984         7.01835941E-22
   4.87200022         4.63110930E-22
   4.88000011         1.79104129E-22
   4.88800001        -1.04252096E-22
   4.89599991        -3.40294501E-22
   4.90399981        -4.97863825E-22
   4.91200018        -5.48550700E-22
   4.92000008        -4.57279215E-22
   4.92799997        -2.22354418E-22
   4.93599987         8.79495722E-23
   4.94399977         3.80209449E-22
   4.95200014         6.11358922E-22
   4.96000004         7.83617871E-22
   4.96799994         8.79414160E-22
   4.97599983         8.54554212E-22
   4.98400021         6.98213946E-22
   4.99200010         4.51626074E-22
   5.00000000         1.58437096E-22
   5.00799990        -1.59745747E-22
   5.01599979        -4.65432125E-22
   5.02400017        -6.86766855E-22
   5.03200006        -7.66739024E-22
   5.03999996        -7.11392492E-22
   5.04799986        -5.70392226E-22
   5.05600023        -3.85982876E-22
   5.06400013        -1.79077736E-22
   5.07200003         2.45042285E-23
   5.07999992         1.76020011E-22
   5.08799982         2.24289311E-22
   5.09600019         1.57003313E-22
   5.10400009         1.64792302E-23
   5.11199999        -1.34803215E-22
   5.11999989        -2.61710121E-22
   5.12799978        -3.58171755E-22
   5.13600016        -4.11284914E-22
   5.14400005        -3.96281991E-22
   5.15199995        -3.17290711E-22
   5.15999985        -2.22958673E-22
   5.16800022        -1.59084606E-22
   5.17600012        -1.25217760E-22
   5.18400002        -1.02177606E-22
   5.19199991        -1.08805363E-22
   5.19999981        -2.01617184E-22
   5.20800018        -4.11843655E-22
   5.21600008        -6.94777592E-22
   5.22399998        -9.47885974E-22
   5.23199987        -1.07970233E-21
   5.23999977        -1.06392411E-21
   5.24800014        -9.30757216E-22
   5.25600004        -7.16591906E-22
   5.26399994        -4.39577328E-22
   5.27199984        -1.22736988E-22
   5.28000021         1.90173500E-22
   5.28800011         4.60675886E-22
   5.29600000         6.73270594E-22
   5.30399990         8.04765957E-22
   5.31199980         8.03963767E-22
   5.32000017         6.42454986E-22
   5.32800007         3.77063295E-22
   5.33599997         1.26397555E-22
   5.34399986        -1.71505461E-23
   5.35200024        -3.38009070E-23
   5.36000013         5.34631988E-23
   5.36800003         2.25732510E-22
   5.37599993         4.82681597E-22
   5.38399982         8.25772881E-22
   5.39200020         1.22771001E-21
   5.40000010         1.61673763E-21
   5.40799999         1.90576718E-21
   5.41599989         2.04316237E-21
   5.42399979         2.02083717E-21
   5.43200016         1.83838973E-21
   5.44000006         1.49572077E-21
   5.44799995         1.02914213E-21
   5.45599985         5.13259007E-22
   5.46400023         4.81326755E-24
   5.47200012        -4.81826648E-22
   5.48000002        -9.22617384E-22
   5.48799992        -1.24864065E-21
   5.49599981        -1.40327000E-21
   5.50400019        -1.41236798E-21
   5.51200008        -1.35993905E-21
   5.51999998        -1.30537926E-21
   5.52799988        -1.25455733E-21
   5.53599977        -1.19945864E-21
   5.54400015        -1.14743461E-21
   5.55200005        -1.10569541E-21
   5.55999994        -1.06593178E-21
   5.56799984        -1.02014846E-21
   5.57600021        -9.76916863E-22
   5.58400011        -9.44345314E-22
   5.59200001        -9.00526249E-22
   5.59999990        -7.98025980E-22
   5.60799980        -6.06742432E-22
   5.61600018        -3.45896902E-22
   5.62400007        -6.62079851E-23
   5.63199997         1.93743115E-22
   5.63999987         4.24633248E-22
   5.64799976         6.26815951E-22
   5.65600014         7.89105313E-22
   5.66400003         8.90518192E-22
   5.67199993         9.16363850E-22
   5.67999983         8.72467236E-22
   5.68800020         7.87149292E-22
   5.69600010         6.94801826E-22
   5.70400000         6.12829358E-22
   5.71199989         5.39481652E-22
   5.71999979         4.73910574E-22
   5.72800016         4.23942989E-22
   5.73600006         3.89658084E-22
   5.74399996         3.57988815E-22
   5.75199986         3.24118687E-22
   5.76000023         2.99027508E-22
   5.76800013         2.80187111E-22
   5.77600002         2.32974430E-22
   5.78399992         1.23837834E-22
   5.79199982        -3.66042504E-23
   5.80000019        -2.01814248E-22
   5.80800009        -3.33583074E-22
   5.81599998        -4.21847042E-22
   5.82399988        -4.68580954E-22
   5.83199978        -4.73672730E-22
   5.84000015        -4.39986577E-22
   5.84800005        -3.77874143E-22
   5.85599995        -2.97302111E-22
   5.86399984        -2.01622699E-22
   5.87200022        -9.59843225E-23
   5.88000011        -1.69712794E-24
   5.88800001         4.35229518E-23
   5.89599991         6.54535130E-24
   5.90399981        -1.16825706E-22
   5.91200018        -2.99061486E-22
   5.92000008        -4.99426249E-22
   5.92799997        -6.79798121E-22
   5.93599987        -8.07380936E-22
   5.94399977        -8.57963909E-22
   5.95200014        -8.23229543E-22
   5.96000004        -7.05592636E-22
   5.96799994        -5.02753399E-22
   5.97599983        -2.11406619E-22
   5.98400021         1.45145307E-22
   5.99200010         5.06036323E-22
   6.00000000         8.03439610E-22
   6.00799990         9.99812358E-22
   6.01599979         1.08851506E-21
   6.02400017         1.07013311E-21
   6.03200006         9.46481827E-22
   6.03999996         7.37465040E-22
   6.04799986         4.89039992E-22
   6.05600023         2.57194479E-22
   6.06400013         8.63281727E-23
   6.07200003         5.46114895E-25
   6.07999992         5.74475135E-24
   6.08799982         9.39100222E-23
   6.09600019         2.46803099E-22
   6.10400009         4.36826185E-22
   6.11199999         6.23783140E-22
   6.11999989         7.55256188E-22
   6.12799978         7.79856632E-22
   6.13600016         6.66451806E-22
   6.14400005         4.12388865E-22
   6.15199995         3.90171172E-23
   6.15999985        -4.11291326E-22
   6.16800022        -8.74577597E-22
   6.17600012        -1.27626638E-21
   6.18400002        -1.55461720E-21
   6.19199991        -1.67419983E-21
   6.19999981        -1.62017742E-21
   6.20800018        -1.39508211E-21
   6.21600008        -1.03014905E-21
   6.22399998        -5.86062008E-22
   6.23199987        -1.24641058E-22