 -0.239999995         0.00000000    
 -0.231999993        -3.63893657E-19
 -0.224000007        -9.70455429E-19
 -0.216000006        -1.67960523E-18
 -0.208000004        -2.49554931E-18
 -0.200000003        -3.47745571E-18
 -0.192000002        -4.67078658E-18
 -0.184000000        -6.21903543E-18
 -0.175999999        -8.40327242E-18
 -0.167999998        -1.14648995E-17
 -0.159999996        -1.54867881E-17
 -0.151999995        -2.05242237E-17
 -0.143999994        -2.67315806E-17
 -0.136000007        -3.42493372E-17
 -0.128000006        -4.30570438E-17
 -0.119999997        -5.30447104E-17
 -0.112000003        -6.41384730E-17
 -0.104000002        -7.62116041E-17
  -9.60000008E-02    -8.88977754E-17
  -8.79999995E-02    -1.01591232E-16
  -7.99999982E-02    -1.13582221E-16
  -7.19999969E-02    -1.24064095E-16
  -6.40000030E-02    -1.32025106E-16
  -5.60000017E-02    -1.36283326E-16
  -4.80000004E-02    -1.35703228E-16
  -3.99999991E-02    -1.29352360E-16
  -3.20000015E-02    -1.16497920E-16
  -2.40000002E-02    -9.66296113E-17
  -1.60000008E-02    -6.96251156E-17
  -8.00000038E-03    -3.58989768E-17
   0.00000000         3.62071182E-18
   8.00000038E-03     4.75822082E-17
   1.60000008E-02     9.42069051E-17
   2.40000002E-02     1.41275156E-16
   3.20000015E-02     1.86280597E-16
   3.99999991E-02     2.26714271E-16
   4.80000004E-02     2.60270884E-16
   5.60000017E-02     2.84943472E-16
   6.40000030E-02     2.99166161E-16
   7.19999969E-02     3.02044379E-16
   7.99999982E-02     2.93486619E-16
   8.79999995E-02     2.74136231E-16
   9.60000008E-02     2.45245790E-16
  0.104000002         2.08622283E-16
  0.112000003         1.66537199E-16
  0.119999997         1.21482802E-16
  0.128000006         7.58879648E-17
  0.136000007         3.19701105E-17
  0.143999994        -8.32795597E-18
  0.151999995        -4.34671500E-17
  0.159999996        -7.24624312E-17
  0.167999998        -9.48836117E-17
  0.175999999        -1.10724345E-16
  0.184000000        -1.20317510E-16
  0.192000002        -1.24327456E-16
  0.200000003        -1.23671826E-16
  0.208000004        -1.19339822E-16
  0.216000006        -1.12265945E-16
  0.224000007        -1.03331693E-16
  0.231999993        -9.33648419E-17
  0.239999995        -8.30503629E-17
  0.247999996        -7.28624160E-17
  0.256000012        -6.31138344E-17
  0.263999999        -5.40348291E-17
  0.272000015        -4.57692665E-17
  0.280000001        -3.83457407E-17
  0.287999988        -3.17240838E-17
  0.296000004        -2.58731028E-17
  0.303999990        -2.07742341E-17
  0.312000006        -1.63736763E-17
  0.319999993        -1.25866193E-17
  0.328000009        -9.35120817E-18
  0.335999995        -6.63991774E-18
  0.344000012        -4.41556083E-18
  0.351999998        -2.61374019E-18
  0.360000014        -1.17808469E-18
  0.368000001        -8.14239243E-20
  0.375999987         7.01590452E-19
  0.384000003         1.21702122E-18
  0.391999990         1.51046664E-18
  0.400000006         1.60380870E-18
  0.407999992         1.51342785E-18
  0.416000009         1.28047156E-18
  0.423999995         9.64888607E-19
  0.432000011         6.15214598E-19
  0.439999998         2.59716463E-19
  0.448000014        -7.68457445E-20
  0.456000000        -3.65917484E-19
  0.463999987        -5.88933778E-19
  0.472000003        -7.45293920E-19
  0.479999989        -8.38902279E-19
  0.488000005        -8.65043409E-19
  0.495999992        -8.18699995E-19
  0.504000008        -7.09336068E-19
  0.512000024        -5.56887043E-19
  0.519999981        -3.75666996E-19
  0.527999997        -1.72537300E-19
  0.536000013         3.97429556E-20
  0.544000030         2.39209699E-19
  0.551999986         4.08580668E-19
  0.560000002         5.43208888E-19
  0.568000019         6.40263075E-19
  0.575999975         6.88827676E-19
  0.583999991         6.78857564E-19
  0.592000008         6.14488592E-19
  0.600000024         5.09687394E-19
  0.607999980         3.73471581E-19
  0.615999997         2.08283871E-19
  0.624000013         2.28126105E-20
  0.632000029        -1.62956674E-19
  0.639999986        -3.29801615E-19
  0.648000002        -4.69915102E-19
  0.656000018        -5.79498956E-19
  0.663999975        -6.46381316E-19
  0.671999991        -6.55576049E-19
  0.680000007        -6.06386875E-19
  0.688000023        -5.12508028E-19
  0.695999980        -3.82898545E-19
  0.703999996        -2.15936029E-19
  0.712000012        -1.91177385E-20
  0.720000029         1.79813452E-19
  0.727999985         3.53268936E-19
  0.736000001         4.92966765E-19
  0.744000018         5.95131480E-19
  0.751999974         6.41046828E-19
  0.759999990         6.13589188E-19
  0.768000007         5.24006924E-19
  0.776000023         3.99803118E-19
  0.783999979         2.52926292E-19
  0.791999996         8.37679409E-20
  0.800000012        -8.98431495E-20
  0.808000028        -2.36856008E-19
  0.815999985        -3.46421948E-19
  0.824000001        -4.29800927E-19
  0.832000017        -4.86824483E-19
  0.839999974        -4.98408941E-19
  0.847999990        -4.58023864E-19
  0.856000006        -3.83380662E-19
  0.864000022        -2.88225630E-19
  0.871999979        -1.68511515E-19
  0.879999995        -2.80643286E-20
  0.888000011         1.06437388E-19
  0.896000028         2.11346133E-19
  0.903999984         2.87576190E-19
  0.912000000         3.42138212E-19
  0.920000017         3.66999203E-19
  0.927999973         3.53289098E-19
  0.935999990         3.11363035E-19
  0.944000006         2.58377076E-19
  0.952000022         1.96422722E-19
  0.959999979         1.19968886E-19
  0.967999995         3.62402948E-20
  0.976000011        -3.98026483E-20
  0.984000027        -1.05767494E-19
  0.991999984        -1.69654679E-19
   1.00000000        -2.29007744E-19
   1.00800002        -2.68647790E-19
   1.01600003        -2.80704697E-19
   1.02400005        -2.72076661E-19
   1.03199995        -2.48375610E-19
   1.03999996        -2.04768923E-19
   1.04799998        -1.39618769E-19
   1.05599999        -6.47414620E-20
   1.06400001         7.34102033E-21
   1.07200003         7.64514702E-20
   1.08000004         1.44737569E-19
   1.08800006         2.02547141E-19
   1.09599996         2.36975898E-19
   1.10399997         2.48261123E-19
   1.11199999         2.44569648E-19
   1.12000000         2.25307429E-19
   1.12800002         1.83753300E-19
   1.13600004         1.23378034E-19
   1.14400005         5.69808599E-20
   1.15199995        -9.37035529E-21
   1.15999997        -7.73894154E-20
   1.16799998        -1.41804994E-19
   1.17600000        -1.89187464E-19
   1.18400002        -2.13441911E-19
   1.19200003        -2.19451714E-19
   1.20000005        -2.09501792E-19
   1.20799994        -1.79299321E-19
   1.21599996        -1.30340878E-19
   1.22399998        -7.36337505E-20
   1.23199999        -1.74058947E-20
   1.24000001         3.76810787E-20
   1.24800003         8.81204295E-20
   1.25600004         1.24277231E-19
   1.26400006         1.42019841E-19
   1.27199996         1.47382053E-19
   1.27999997         1.45243429E-19
   1.28799999         1.32682316E-19
   1.29600000         1.07612534E-19
   1.30400002         7.49917032E-20
   1.31200004         4.00886880E-20
   1.32000005         3.73234717E-21
   1.32799995        -3.16054823E-20
   1.33599997        -5.88525500E-20
   1.34399998        -7.40652480E-20
   1.35200000        -8.05701123E-20
   1.36000001        -8.15476330E-20
   1.36800003        -7.50268196E-20
   1.37600005        -6.02304067E-20
   1.38399994        -4.24240580E-20
   1.39199996        -2.66620587E-20
   1.39999998        -1.21200442E-20
   1.40799999         2.63868515E-21
   1.41600001         1.39082665E-20
   1.42400002         1.78155882E-20
   1.43200004         1.70072712E-20
   1.44000006         1.66746444E-20
   1.44799995         1.68373179E-20
   1.45599997         1.40615082E-20
   1.46399999         8.39549225E-21
   1.47200000         2.79291273E-21
   1.48000002        -2.51817043E-21
   1.48800004        -8.70742012E-21
   1.49600005        -1.22478501E-20
   1.50399995        -7.12068575E-21
   1.51199996         6.00024619E-21
   1.51999998         1.92247179E-20
   1.52800000         2.78623543E-20
   1.53600001         3.51289906E-20
   1.54400003         4.39977400E-20
   1.55200005         5.08884227E-20
   1.55999994         5.15086886E-20
   1.56799996         4.70908817E-20
   1.57599998         3.97133677E-20
   1.58399999         2.65730786E-20
   1.59200001         4.96291727E-21
   1.60000002        -2.10601493E-20
   1.60800004        -4.52058438E-20
   1.61600006        -6.68228100E-20
   1.62399995        -8.79936447E-20
   1.63199997        -1.05889982E-19
   1.63999999        -1.14914477E-19
   1.64800000        -1.14183275E-19
   1.65600002        -1.05963433E-19
   1.66400003        -8.86713060E-20
   1.67200005        -5.90139213E-20
   1.67999995        -2.02206078E-20
   1.68799996         1.93468660E-20
   1.69599998         5.58062312E-20
   1.70400000         9.10480285E-20
   1.71200001         1.24249792E-19
   1.72000003         1.49247578E-19
   1.72800004         1.61574107E-19
   1.73599994         1.61695289E-19
   1.74399996         1.49925077E-19
   1.75199997         1.24515821E-19
   1.75999999         8.69664156E-20
   1.76800001         4.35358210E-20
   1.77600002        -1.07812411E-21
   1.78400004        -4.68161091E-20
   1.79200006        -9.28749926E-20
   1.79999995        -1.34073957E-19
   1.80799997        -1.65250511E-19
   1.81599998        -1.85034642E-19
   1.82400000        -1.92428913E-19
   1.83200002        -1.83579321E-19
   1.84000003        -1.55525736E-19
   1.84800005        -1.10653204E-19
   1.85599995        -5.44719694E-20
   1.86399996         8.88110381E-21
   1.87199998         7.61597727E-20
   1.88000000         1.41885088E-19
   1.88800001         1.98749568E-19
   1.89600003         2.40642091E-19
   1.90400004         2.63594570E-19
   1.91199994         2.64831463E-19
   1.91999996         2.42962230E-19
   1.92799997         1.98722930E-19
   1.93599999         1.34112628E-19
   1.94400001         5.14331534E-20
   1.95200002        -4.52789135E-20
   1.96000004        -1.48266645E-19
   1.96800005        -2.46992590E-19
   1.97599995        -3.31102020E-19
   1.98399997        -3.91855438E-19
   1.99199998        -4.21989731E-19
   2.00000000        -4.16719660E-19
   2.00799990        -3.75507867E-19
   2.01600003        -3.01629161E-19
   2.02399993        -2.00053554E-19
   2.03200006        -7.72614609E-20
   2.03999996         5.72087741E-20
   2.04800010         1.91597002E-19
   2.05599999         3.15228243E-19
   2.06399989         4.19513204E-19
   2.07200003         4.96045479E-19
   2.07999992         5.37031606E-19
   2.08800006         5.38900363E-19
   2.09599996         5.02873752E-19
   2.10400009         4.31033839E-19
   2.11199999         3.25267838E-19
   2.11999989         1.91836639E-19
   2.12800002         4.32616850E-20
   2.13599992        -1.07109918E-19
   2.14400005        -2.49583707E-19
   2.15199995        -3.75311283E-19
   2.16000009        -4.73636484E-19
   2.16799998        -5.36438621E-19
   2.17600012        -5.62078118E-19
   2.18400002        -5.51386292E-19
   2.19199991        -5.03291116E-19
   2.20000005        -4.18903675E-19
   2.20799994        -3.06595089E-19
   2.21600008        -1.77770200E-19
   2.22399998        -4.01412592E-20
   2.23200011         9.98559058E-20
   2.24000001         2.31079703E-19
   2.24799991         3.40698582E-19
   2.25600004         4.21921385E-19
   2.26399994         4.73144674E-19
   2.27200007         4.91160409E-19
   2.27999997         4.71850188E-19
   2.28800011         4.17177763E-19
   2.29600000         3.35174799E-19
   2.30399990         2.32915526E-19
   2.31200004         1.15657091E-19
   2.31999993        -6.81602237E-21
   2.32800007        -1.20048477E-19
   2.33599997        -2.13486980E-19
   2.34400010        -2.84008224E-19
   2.35200000        -3.29396322E-19
   2.35999990        -3.44583487E-19
   2.36800003        -3.27750310E-19
   2.37599993        -2.84967857E-19
   2.38400006        -2.24669802E-19
   2.39199996        -1.51604732E-19
   2.40000010        -7.02747833E-20
   2.40799999         9.89230303E-21
   2.41599989         7.85046100E-20
   2.42400002         1.31234569E-19
   2.43199992         1.68110216E-19
   2.44000006         1.86963963E-19
   2.44799995         1.84229071E-19
   2.45600009         1.61342212E-19
   2.46399999         1.24691648E-19
   2.47199988         7.90901569E-20
   2.48000002         2.66728185E-20
   2.48799992        -2.71455248E-20
   2.49600005        -7.25672433E-20
   2.50399995        -1.02774878E-19
   2.51200008        -1.18070559E-19
   2.51999998        -1.20607224E-19
   2.52800012        -1.09805370E-19
   2.53600001        -8.61972540E-20
   2.54399991        -5.53426094E-20
   2.55200005        -2.33318780E-20
   2.55999994         8.81508607E-21
   2.56800008         4.21345092E-20
   2.57599998         7.37278875E-20
   2.58400011         9.84339113E-20
   2.59200001         1.14692586E-19
   2.59999990         1.24022744E-19
   2.60800004         1.25800200E-19
   2.61599994         1.17359998E-19
   2.62400007         9.89446695E-20
   2.63199997         7.40481034E-20
   2.64000010         4.47778489E-20
   2.64800000         1.11893982E-20
   2.65599990        -2.44268212E-20
   2.66400003        -5.69845499E-20
   2.67199993        -8.33635723E-20
   2.68000007        -1.04001561E-19
   2.68799996        -1.18934355E-19
   2.69600010        -1.26300114E-19
   2.70400000        -1.26113649E-19
   2.71199989        -1.21486957E-19
   2.72000003        -1.14025271E-19
   2.72799993        -1.01380342E-19
   2.73600006        -8.15362399E-20
   2.74399996        -5.65610787E-20
   2.75200009        -2.99812485E-20
   2.75999999        -3.21235207E-21
   2.76799989         2.31954756E-20
   2.77600002         4.73668660E-20
   2.78399992         6.76204447E-20
   2.79200006         8.42663430E-20
   2.79999995         9.79034623E-20
   2.80800009         1.07808297E-19
   2.81599998         1.13782403E-19
   2.82399988         1.17583168E-19
   2.83200002         1.20472756E-19
   2.83999991         1.20849963E-19
   2.84800005         1.15983892E-19
   2.85599995         1.04735826E-19
   2.86400008         8.72918983E-20
   2.87199998         6.38247520E-20
   2.88000011         3.48922683E-20
   2.88800001         1.93142594E-21
   2.89599991        -3.37670603E-20
   2.90400004        -7.14155429E-20
   2.91199994        -1.09282786E-19
   2.92000008        -1.44142749E-19
   2.92799997        -1.72768368E-19
   2.93600011        -1.92724914E-19
   2.94400001        -2.01503278E-19
   2.95199990        -1.96773744E-19
   2.96000004        -1.78277533E-19
   2.96799994        -1.47989113E-19
   2.97600007        -1.07835569E-19
   2.98399997        -5.89031631E-20
   2.99200010        -3.65205733E-21
   3.00000000         5.27359468E-20
   3.00799990         1.04441582E-19
   3.01600003         1.47526887E-19
   3.02399993         1.79802208E-19
   3.03200006         1.99716607E-19
   3.03999996         2.06745988E-19
   3.04800010         2.01886276E-19
   3.05599999         1.86189864E-19
   3.06399989         1.59364061E-19
   3.07200003         1.21472391E-19
   3.07999992         7.58403905E-20
   3.08800006         2.83901925E-20
   3.09599996        -1.63348429E-20
   3.10400009        -5.68606990E-20
   3.11199999        -9.22012088E-20
   3.11999989        -1.19992125E-19
   3.12800002        -1.38584819E-19
   3.13599992        -1.48765706E-19
   3.14400005        -1.51338432E-19
   3.15199995        -1.44974854E-19
   3.16000009        -1.28983565E-19
   3.16799998        -1.06339218E-19
   3.17600012        -8.08840209E-20
   3.18400002        -5.31097452E-20
   3.19199991        -2.21601848E-20
   3.20000005         9.45450073E-21
   3.20799994         3.72278839E-20
   3.21600008         5.97575889E-20
   3.22399998         7.81386408E-20
   3.23200011         9.09491546E-20
   3.24000001         9.47034172E-20
   3.24799991         8.94476021E-20
   3.25600004         7.91375970E-20
   3.26399994         6.58093005E-20
   3.27200007         4.80414318E-20
   3.27999997         2.62818561E-20
   3.28800011         5.06613875E-21
   3.29600000        -1.18631053E-20
   3.30399990        -2.46939278E-20
   3.31200004        -3.40302621E-20
   3.31999993        -3.81058585E-20
   3.32800007        -3.57979891E-20
   3.33599997        -2.91809351E-20
   3.34400010        -2.06633659E-20
   3.35200000        -1.02572965E-20
   3.35999990         2.04020625E-21
   3.36800003         1.36813896E-20
   3.37599993         2.19849517E-20
   3.38400006         2.72297130E-20
   3.39199996         3.08728103E-20
   3.40000010         3.22638308E-20
   3.40799999         2.96837608E-20
   3.41599989         2.34771209E-20
   3.42400002         1.54824720E-20
   3.43199992         5.94917909E-21
   3.44000006        -6.37869707E-21
   3.44799995        -2.12063567E-20
   3.45600009        -3.61758167E-20
   3.46399999        -4.97335946E-20
   3.47199988        -6.21803299E-20
   3.48000002        -7.31467221E-20
   3.48799992        -8.03007745E-20
   3.49600005        -8.18728313E-20
   3.50399995        -7.85450126E-20
   3.51200008        -7.11904658E-20
   3.51999998        -5.84104607E-20
   3.52800012        -3.83903020E-20
   3.53600001        -1.20333518E-20
   3.54399991         1.78791341E-20
   3.55200005         4.96685413E-20
   3.55999994         8.24471208E-20
   3.56800008         1.13361859E-19
   3.57599998         1.37840873E-19
   3.58400011         1.52891722E-19
   3.59200001         1.58042071E-19
   3.59999990         1.52809921E-19
   3.60800004         1.35661537E-19
   3.61599994         1.06435113E-19
   3.62400007         6.79427414E-20
   3.63199997         2.40626372E-20
   3.64000010        -2.22884947E-20
   3.64800000        -6.82284936E-20
   3.65599990        -1.09499559E-19
   3.66400003        -1.41784883E-19
   3.67199993        -1.63046785E-19
   3.68000007        -1.73410854E-19
   3.68799996        -1.73138195E-19
   3.69600010        -1.61951883E-19
   3.70400000        -1.40354029E-19
   3.71199989        -1.10504906E-19
   3.72000003        -7.53883492E-20
   3.72799993        -3.76882551E-20
   3.73600006         2.89918045E-22
   3.74399996         3.62758345E-20
   3.75200009         6.81937714E-20
