 -0.239999995         0.00000000    
 -0.231999993         0.00000000    
 -0.224000007         0.00000000    
 -0.216000006         0.00000000    
 -0.208000004         3.00926554E-34
 -0.200000003         7.58350323E-27
 -0.192000002        -2.45475968E-27
 -0.184000000        -1.31427025E-25
 -0.175999999        -3.00721074E-25
 -0.167999998         1.04608983E-25
 -0.159999996         1.49413371E-24
 -0.151999995         2.27632243E-24
 -0.143999994        -5.83613448E-25
 -0.136000007        -6.49364186E-24
 -0.128000006        -7.88550252E-24
 -0.119999997         2.38075618E-24
 -0.112000003         1.80080442E-23
 -0.104000002         2.03364476E-23
  -9.60000008E-02    -2.22763029E-25
  -8.79999995E-02    -2.74191674E-23
  -7.99999982E-02    -3.37975464E-23
  -7.19999969E-02    -1.25804311E-23
  -6.40000030E-02     1.54473417E-23
  -5.60000017E-02     3.02376822E-23
  -4.80000004E-02     3.49044697E-23
  -3.99999991E-02     3.87373019E-23
  -3.20000015E-02     2.87548004E-23
  -2.40000002E-02    -1.81523757E-23
  -1.60000008E-02    -8.89631196E-23
  -8.00000038E-03    -1.22732545E-22
   0.00000000        -6.84397988E-23
   8.00000038E-03     4.93823677E-23
   1.60000008E-02     1.44047377E-22
   2.40000002E-02     1.50674591E-22
   3.20000015E-02     8.13343992E-23
   3.99999991E-02    -6.80522298E-24
   4.80000004E-02    -7.51910092E-23
   5.60000017E-02    -1.19637484E-22
   6.40000030E-02    -1.41142741E-22
   7.19999969E-02    -1.28262737E-22
   7.99999982E-02    -6.85225030E-23
   8.79999995E-02     3.52527360E-23
   9.60000008E-02     1.54183937E-22
  0.104000002         2.31158283E-22
  0.112000003         2.09679494E-22
  0.119999997         8.77380691E-23
  0.128000006        -7.07791753E-23
  0.136000007        -1.98456830E-22
  0.143999994        -2.75697117E-22
  0.151999995        -2.94113220E-22
  0.159999996        -2.10645110E-22
  0.167999998        -6.76925803E-24
  0.175999999         2.20342003E-22
  0.184000000         3.10013753E-22
  0.192000002         2.09315040E-22
  0.200000003         3.32933381E-23
  0.208000004        -7.68435971E-23
  0.216000006        -1.05979550E-22
  0.224000007        -1.41168148E-22
  0.231999993        -2.38450967E-22
  0.239999995        -3.51262091E-22
  0.247999996        -3.64053880E-22
  0.256000012        -1.79179619E-22
  0.263999999         1.78496844E-22
  0.272000015         5.10756311E-22
  0.280000001         5.62406531E-22
  0.287999988         2.66601160E-22
  0.296000004        -1.44282874E-22
  0.303999990        -3.40646825E-22
  0.312000006        -2.16042395E-22
  0.319999993         3.25778696E-23
  0.328000009         1.38685635E-22
  0.335999995         3.42068832E-23
  0.344000012        -1.18203221E-22
  0.351999998        -1.05802378E-22
  0.360000014         1.53869819E-22
  0.368000001         5.79664434E-22
  0.375999987         1.01279299E-21
  0.384000003         1.30899252E-21
  0.391999990         1.37621468E-21
  0.400000006         1.18739879E-21
  0.407999992         8.00334502E-22
  0.416000009         3.48956976E-22
  0.423999995        -3.40644591E-23
  0.432000011        -3.05716367E-22
  0.439999998        -5.17436158E-22
  0.448000014        -7.40578074E-22
  0.456000000        -1.00772661E-21
  0.463999987        -1.30731917E-21
  0.472000003        -1.58960274E-21
  0.479999989        -1.77496501E-21
  0.488000005        -1.80405083E-21
  0.495999992        -1.71112589E-21
  0.504000008        -1.62208725E-21
  0.512000024        -1.64780840E-21
  0.519999981        -1.77501852E-21
  0.527999997        -1.86408887E-21
  0.536000013        -1.74529899E-21
  0.544000030        -1.31977212E-21
  0.551999986        -5.86916704E-22
  0.560000002         3.96983333E-22
  0.568000019         1.56422378E-21
  0.575999975         2.83027480E-21
  0.583999991         4.06421098E-21
  0.592000008         5.10228832E-21
  0.600000024         5.79545073E-21
  0.607999980         6.01508091E-21
  0.615999997         5.62375138E-21
  0.624000013         4.51863969E-21
  0.632000029         2.76589083E-21
  0.639999986         6.55195607E-22
  0.648000002        -1.44626260E-21
  0.656000018        -3.29748523E-21
  0.663999975        -4.80854348E-21
  0.671999991        -5.88705573E-21
  0.680000007        -6.34653275E-21
  0.688000023        -6.02088572E-21
  0.695999980        -4.95149143E-21
  0.703999996        -3.42778314E-21
  0.712000012        -1.83780711E-21
  0.720000029        -4.73545755E-22
  0.727999985         5.69150547E-22
  0.736000001         1.36044594E-21
  0.744000018         2.01242663E-21
  0.751999974         2.53712793E-21
  0.759999990         2.80246106E-21
  0.768000007         2.66392103E-21
  0.776000023         2.16733660E-21
  0.783999979         1.57976119E-21
  0.791999996         1.16630538E-21
  0.800000012         9.59166912E-22
  0.808000028         7.88578177E-22
  0.815999985         4.99941015E-22
  0.824000001         7.17847647E-23
  0.832000017        -4.41890748E-22
  0.839999974        -9.65903305E-22
  0.847999990        -1.37956500E-21
  0.856000006        -1.54991382E-21
  0.864000022        -1.45685146E-21
  0.871999979        -1.22811421E-21
  0.879999995        -9.95425534E-22
  0.888000011        -7.58525833E-22
  0.896000028        -4.33558913E-22
  0.903999984         8.82791362E-24
  0.912000000         4.99226623E-22
  0.920000017         9.20646771E-22
  0.927999973         1.14845425E-21
  0.935999990         1.07626467E-21
  0.944000006         6.79860271E-22
  0.952000022         7.51961400E-23
  0.959999979        -5.20709438E-22
  0.967999995        -9.02811396E-22
  0.976000011        -9.53392198E-22
  0.984000027        -6.36622918E-22
  0.991999984         2.98226309E-23
   1.00000000         9.80535778E-22
   1.00800002         2.10766690E-21
   1.01600003         3.28352959E-21
   1.02400005         4.36552767E-21
   1.03199995         5.15890051E-21
   1.03999996         5.39493981E-21
   1.04799998         4.80132867E-21
   1.05599999         3.23440625E-21
   1.06400001         7.55463892E-22
   1.07200003        -2.39237314E-21
   1.08000004        -5.83168431E-21
   1.08800006        -9.07940501E-21
   1.09599996        -1.16203310E-20
   1.10399997        -1.30434920E-20
   1.11199999        -1.31213447E-20
   1.12000000        -1.17595671E-20
   1.12800002        -8.93987160E-21
   1.13600004        -4.78438803E-21
   1.14400005         3.44974503E-22
   1.15199995         5.87110463E-21
   1.15999997         1.11236680E-20
   1.16799998         1.54271107E-20
   1.17600000         1.81605209E-20
   1.18400002         1.88785509E-20
   1.19200003         1.74436768E-20
   1.20000005         1.40341773E-20
   1.20799994         9.04302361E-21
   1.21599996         3.00735810E-21
   1.22399998        -3.40425091E-21
   1.23199999        -9.44770637E-21
   1.24000001        -1.44264548E-20
   1.24800003        -1.77867096E-20
   1.25600004        -1.91391079E-20
   1.26400006        -1.82700674E-20
   1.27199996        -1.51947892E-20
   1.27999997        -1.02241794E-20
   1.28799999        -3.98317474E-21
   1.29600000         2.67161122E-21
   1.30400002         8.83879805E-21
   1.31200004         1.37708883E-20
   1.32000005         1.69568649E-20
   1.32799995         1.80883559E-20
   1.33599997         1.70395733E-20
   1.34399998         1.39179907E-20
   1.35200000         9.09134824E-21
   1.36000001         3.13157029E-21
   1.36800003        -3.25101651E-21
   1.37600005        -9.24967497E-21
   1.38399994        -1.40730548E-20
   1.39199996        -1.71432423E-20
   1.39999998        -1.82105767E-20
   1.40799999        -1.72786301E-20
   1.41600001        -1.44848049E-20
   1.42400002        -1.01027219E-20
   1.43200004        -4.59559657E-21
   1.44000006         1.42894027E-21
   1.44799995         7.32227952E-21
   1.45599997         1.24338752E-20
   1.46399999         1.61311012E-20
   1.47200000         1.79232897E-20
   1.48000002         1.76301576E-20
   1.48800004         1.54128224E-20
   1.49600005         1.16488978E-20
   1.50399995         6.80937665E-21
   1.51199996         1.42322594E-21
   1.51999998        -3.93888140E-21
   1.52800000        -8.71698601E-21
   1.53600001        -1.24173882E-20
   1.54400003        -1.46510650E-20
   1.55200005        -1.51830617E-20
   1.55999994        -1.39861717E-20
   1.56799996        -1.12508616E-20
   1.57599998        -7.34854493E-21
   1.58399999        -2.78536310E-21
   1.59200001         1.85871381E-21
   1.60000002         6.03261771E-21
   1.60800004         9.31749328E-21
   1.61600006         1.14504722E-20
   1.62399995         1.22762198E-20
   1.63199997         1.17221413E-20
   1.63999999         9.84271904E-21
   1.64800000         6.86843444E-21
   1.65600002         3.18776990E-21
   1.66400003        -7.26796560E-22
   1.67200005        -4.40214698E-21
   1.67999995        -7.44545189E-21
   1.68799996        -9.61045981E-21
   1.69599998        -1.07965754E-20
   1.70400000        -1.09642596E-20
   1.71200001        -1.00684626E-20
   1.72000003        -8.11877610E-21
   1.72800004        -5.29737087E-21
   1.73599994        -1.95439211E-21
   1.74399996         1.53468004E-21
   1.75199997         4.85999629E-21
   1.75999999         7.72711415E-21
   1.76800001         9.82494516E-21
   1.77600002         1.09303460E-20
   1.78400004         1.09995634E-20
   1.79200006         1.00890961E-20
   1.79999995         8.23976903E-21
   1.80799997         5.52803107E-21
   1.81599998         2.19477149E-21
   1.82400000        -1.37722432E-21
   1.83200002        -4.80897201E-21
   1.84000003        -7.78448850E-21
   1.84800005        -1.00129615E-20
   1.85599995        -1.12566122E-20
   1.86399996        -1.14142790E-20
   1.87199998        -1.04991781E-20
   1.88000000        -8.53735534E-21
   1.88800001        -5.58525274E-21
   1.89600003        -1.87037997E-21
   1.90400004         2.17045044E-21
   1.91199994         6.03881348E-21
   1.91999996         9.32612779E-21
   1.92799997         1.17248853E-20
   1.93599999         1.29784493E-20
   1.94400001         1.28897196E-20
   1.95200002         1.13802370E-20
   1.96000004         8.53710896E-21
   1.96800005         4.62536013E-21
   1.97599995         6.20197774E-23
   1.98399997        -4.64520317E-21
   1.99199998        -8.96481061E-21
   2.00000000        -1.23957199E-20
   2.00799990        -1.45311981E-20
   2.01600003        -1.51296649E-20
   2.02399993        -1.41366411E-20
   2.03200006        -1.16451359E-20
   2.03999996        -7.86761207E-21
   2.04800010        -3.16026736E-21
   2.05599999         1.96611623E-21
   2.06399989         6.91445686E-21
   2.07200003         1.11149576E-20
   2.07999992         1.41142216E-20
   2.08800006         1.56212897E-20
   2.09599996         1.55220200E-20
   2.10400009         1.38627716E-20
   2.11199999         1.08165586E-20
   2.11999989         6.66558495E-21
   2.12800002         1.81099199E-21
   2.13599992        -3.22703412E-21
   2.14400005        -7.86602395E-21
   2.15199995        -1.15792167E-20
   2.16000009        -1.40097529E-20
   2.16799998        -1.49933805E-20
   2.17600012        -1.44884287E-20
   2.18400002        -1.25245929E-20
   2.19199991        -9.24842209E-21
   2.20000005        -4.98812285E-21
   2.20799994        -2.22119780E-22
   2.21600008         4.52580119E-21
   2.22399998         8.76426051E-21
   2.23200011         1.20748926E-20
   2.24000001         1.41587698E-20
   2.24799991         1.48551621E-20
   2.25600004         1.40928086E-20
   2.26399994         1.18578498E-20
   2.27200007         8.26597547E-21
   2.27999997         3.65066147E-21
   2.28800011        -1.47242703E-21
   2.29600000        -6.52888124E-21
   2.30399990        -1.09674100E-20
   2.31200004        -1.42994842E-20
   2.31999993        -1.61692500E-20
   2.32800007        -1.64092455E-20
   2.33599997        -1.50010690E-20
   2.34400010        -1.20139324E-20
   2.35200000        -7.64398897E-21
   2.35999990        -2.29739277E-21
   2.36800003         3.43380928E-21
   2.37599993         8.89717082E-21
   2.38400006         1.34779896E-20
   2.39199996         1.66466092E-20
   2.40000010         1.80310203E-20
   2.40799999         1.74994227E-20
   2.41599989         1.51576114E-20
   2.42400002         1.12675934E-20
   2.43199992         6.19658889E-21
   2.44000006         4.29202482E-22
   2.44799995        -5.43673141E-21
   2.45600009        -1.07587028E-20
   2.46399999        -1.49391000E-20
   2.47199988        -1.74919393E-20
   2.48000002        -1.80991722E-20
   2.48799992        -1.66713503E-20
   2.49600005        -1.33854973E-20
   2.50399995        -8.66011896E-21
   2.51200008        -3.06540998E-21
   2.51999998         2.78373963E-21
   2.52800012         8.29170693E-21
   2.53600001         1.28937303E-20
   2.54399991         1.60715280E-20
   2.55200005         1.74222138E-20
   2.55999994         1.67523703E-20
   2.56800008         1.41293063E-20
   2.57599998         9.86809992E-21
   2.58400011         4.48463522E-21
   2.59200001        -1.36822126E-21
   2.59999990        -6.99037169E-21
   2.60800004        -1.17411018E-20
   2.61599994        -1.51215256E-20
   2.62400007        -1.68049949E-20
   2.63199997        -1.66332757E-20
   2.64000010        -1.46210216E-20
   2.64800000        -1.09834520E-20
   2.65599990        -6.14629567E-21
   2.66400003        -6.85210691E-22
   2.67199993         4.78696610E-21
   2.68000007         9.69967657E-21
   2.68799996         1.35364828E-20
   2.69600010         1.58550846E-20
   2.70400000         1.63788207E-20
   2.71199989         1.50904659E-20
   2.72000003         1.22223650E-20
   2.72799993         8.16475571E-21
   2.73600006         3.39391398E-21
   2.74399996        -1.56531016E-21
   2.75200009        -6.20067552E-21
   2.75999999        -1.00821975E-20
   2.76799989        -1.28718496E-20
   2.77600002        -1.43009010E-20
   2.78399992        -1.42076073E-20
   2.79200006        -1.26172315E-20
   2.79999995        -9.75344008E-21
   2.80800009        -5.96945471E-21
   2.81599998        -1.69383830E-21
   2.82399988         2.59330230E-21
   2.83200002         6.42755606E-21
   2.83999991         9.45525359E-21
   2.84800005         1.14527381E-20
   2.85599995         1.22755138E-20
   2.86400008         1.18526371E-20
   2.87199998         1.02386017E-20
   2.88000011         7.61903461E-21
   2.88800001         4.26037638E-21
   2.89599991         4.97990901E-22
   2.90400004        -3.25172191E-21
   2.91199994        -6.56609266E-21
   2.92000008        -9.14322555E-21
   2.92799997        -1.08177307E-20
   2.93600011        -1.14656829E-20
   2.94400001        -1.09824108E-20
   2.95199990        -9.37850997E-21
   2.96000004        -6.82690820E-21
   2.96799994        -3.58872632E-21
   2.97600007         4.47146240E-23
   2.98399997         3.72346548E-21
   2.99200010         7.04716200E-21
   3.00000000         9.67122124E-21
   3.00799990         1.13779033E-20
   3.01600003         1.20291367E-20
   3.02399993         1.15205943E-20
   3.03200006         9.83630436E-21
   3.03999996         7.11091953E-21
   3.04800010         3.60050031E-21
   3.05599999        -3.69713585E-22
   3.06399989        -4.39725740E-21
   3.07200003        -8.00721900E-21
   3.07999992        -1.07591382E-20
   3.08800006        -1.23742997E-20
   3.09599996        -1.27428595E-20
   3.10400009        -1.18364804E-20
   3.11199999        -9.67625622E-21
   3.11999989        -6.40021346E-21
   3.12800002        -2.32236349E-21
   3.13599992         2.09747093E-21
   3.14400005         6.33071332E-21
   3.15199995         9.85122349E-21
   3.16000009         1.22217325E-20
   3.16799998         1.31934177E-20
   3.17600012         1.27284897E-20
   3.18400002         1.09102837E-20
   3.19199991         7.87264544E-21
   3.20000005         3.86633185E-21
   3.20799994        -6.48609413E-22
   3.21600008        -5.07432654E-21
   3.22399998        -8.86879465E-21
   3.23200011        -1.16471586E-20
   3.24000001        -1.31465075E-20
   3.24799991        -1.32147192E-20
   3.25600004        -1.18749063E-20
   3.26399994        -9.33157716E-21
   3.27200007        -5.88046736E-21
   3.27999997        -1.86314173E-21
   3.28800011         2.29158938E-21
   3.29600000         6.08853600E-21
   3.30399990         9.10396759E-21
   3.31200004         1.10810698E-20
   3.31999993         1.18902891E-20
   3.32800007         1.14818727E-20
   3.33599997         9.92858992E-21
   3.34400010         7.45665679E-21
   3.35200000         4.37543769E-21
   3.35999990         9.97665748E-22
   3.36800003        -2.35896643E-21
   3.37599993        -5.36003101E-21
   3.38400006        -7.71278632E-21
   3.39199996        -9.23251905E-21
   3.40000010        -9.83579706E-21
   3.40799999        -9.50074287E-21
   3.41599989        -8.26616207E-21
   3.42400002        -6.25538213E-21
   3.43199992        -3.67750081E-21
   3.44000006        -8.04058279E-22
   3.44799995         2.06459535E-21
   3.45600009         4.64212588E-21
   3.46399999         6.69290171E-21
   3.47199988         8.04113098E-21
   3.48000002         8.56738910E-21
   3.48799992         8.21831646E-21
   3.49600005         7.01965582E-21
   3.50399995         5.07651970E-21
   3.51200008         2.57315896E-21
   3.51999998        -2.30758905E-22
   3.52800012        -3.03996832E-21
   3.53600001        -5.58474020E-21
   3.54399991        -7.63389397E-21
   3.55200005        -8.95886606E-21
   3.55999994        -9.34655689E-21
   3.56800008        -8.69559644E-21
   3.57599998        -7.08703873E-21
   3.58400011        -4.73967180E-21
   3.59200001        -1.91738628E-21
   3.59999990         1.10476292E-21
   3.60800004         4.02913941E-21
   3.61599994         6.55218851E-21
   3.62400007         8.40810433E-21
   3.63199997         9.39499623E-21
   3.64000010         9.39432091E-21
   3.64800000         8.41327582E-21
   3.65599990         6.61149510E-21
   3.66400003         4.25550013E-21
   3.67199993         1.63182580E-21
   3.68000007        -9.96610164E-22
   3.68799996        -3.37904452E-21
   3.69600010        -5.27810297E-21
   3.70400000        -6.51450494E-21
   3.71199989        -7.00322772E-21
   3.72000003        -6.73905176E-21
   3.72799993        -5.76887311E-21
   3.73600006        -4.20058067E-21
   3.74399996        -2.22303760E-21
   3.75200009        -8.02813204E-23
   3.75999999         1.98589021E-21
   3.76799989         3.76052099E-21
   3.77600002         5.04872231E-21
   3.78399992         5.70637654E-21
   3.79200006         5.70851639E-21
   3.79999995         5.15718718E-21
   3.80800009         4.19151682E-21
   3.81599998         2.90757721E-21
   3.82399988         1.38003150E-21
   3.83200002        -2.79107950E-22
   3.83999991        -1.92257858E-21
   3.84800005        -3.39887342E-21
   3.85599995        -4.54405773E-21
   3.86400008        -5.18633520E-21
   3.87199998        -5.23003198E-21
   3.88000011        -4.72519372E-21
   3.88800001        -3.79804421E-21
   3.89599991        -2.52780276E-21
   3.90400004        -9.54304399E-22
   3.91199994         8.11348767E-22
   3.92000008         2.56925873E-21
   3.92799997         4.13058132E-21
   3.93600011         5.35883507E-21
   3.94400001         6.10967798E-21
   3.95199990         6.23514650E-21
   3.96000004         5.70090657E-21
   3.96799994         4.63007441E-21
   3.97600007         3.18158725E-21
   3.98399997         1.44737473E-21
   3.99200010        -4.80353283E-22
   4.00000000        -2.40869683E-21
   4.00799990        -4.09172120E-21
   4.01599979        -5.35043765E-21
   4.02400017        -6.08970932E-21
   4.03200006        -6.23814180E-21
   4.03999996        -5.75584501E-21
   4.04799986        -4.70034680E-21
   4.05600023        -3.22217545E-21
   4.06400013        -1.48883503E-21
   4.07200003         3.42518003E-22
   4.07999992         2.08763160E-21
   4.08799982         3.54446044E-21
   4.09600019         4.57455153E-21
   4.10400009         5.13971016E-21
   4.11199999         5.23842052E-21
   4.11999989         4.84904342E-21
   4.12799978         3.96893415E-21
   4.13600016         2.67263530E-21
   4.14400005         1.08711000E-21
   4.15199995        -6.63415663E-22
   4.15999985        -2.43770995E-21
   4.16800022        -4.02884820E-21
   4.17600012        -5.21383168E-21
   4.18400002        -5.87149641E-21
   4.19199991        -6.00618024E-21
   4.19999981        -5.65376131E-21
   4.20800018        -4.82833725E-21
   4.21600008        -3.57673301E-21
   4.22399998        -2.01479124E-21
   4.23199987        -2.75800717E-22
   4.23999977         1.51280752E-21
   4.24800014         3.16216749E-21
   4.25600004         4.40445444E-21
   4.26399994         5.01729147E-21
   4.27199984         4.93929860E-21
   4.28000021         4.22623054E-21
   4.28800011         2.95009866E-21
   4.29600000         1.20349650E-21
   4.30399990        -8.45567307E-22
   4.31199980        -2.98439576E-21
   4.32000017        -5.02590174E-21
   4.32800007        -6.79361418E-21
   4.33599997        -8.06645288E-21
   4.34399986        -8.61586156E-21
   4.35200024        -8.31149060E-21
   4.36000013        -7.16320962E-21
   4.36800003        -5.28304626E-21
   4.37599993        -2.85389065E-21
   4.38399982        -1.17612837E-22
   4.39200020         2.67045022E-21
   4.40000010         5.29796379E-21
   4.40799999         7.58904123E-21
   4.41599989         9.35106114E-21
   4.42399979         1.03693003E-20
   4.43200016         1.04803242E-20
   4.44000006         9.65537394E-21
   4.44799995         8.02167204E-21
   4.45599985         5.81357236E-21
   4.46400023         3.29582724E-21
   4.47200012         7.11324234E-22
   4.48000002        -1.72308709E-21
   4.48799992        -3.79851717E-21
   4.49599981        -5.31520816E-21
   4.50400019        -6.11045993E-21
   4.51200008        -6.09306126E-21
   4.51999998        -5.27248356E-21
   4.52799988        -3.77416099E-21
   4.53599977        -1.81967618E-21
   4.54400015         3.31171331E-22
   4.55200005         2.43657601E-21
   4.55999994         4.28848557E-21
   4.56799984         5.69922838E-21
   4.57600021         6.49752027E-21
   4.58400011         6.55270267E-21
   4.59200001         5.81938323E-21
   4.59999990         4.37653628E-21
   4.60799980         2.42180793E-21
   4.61600018         2.04565656E-22
   4.62400007        -2.05659981E-21
   4.63199997        -4.20139008E-21
   4.63999987        -6.09043553E-21
   4.64799976        -7.56577031E-21
   4.65600014        -8.46380250E-21
   4.66400003        -8.67217851E-21
   4.67199993        -8.18274042E-21
   4.67999983        -7.10166787E-21
   4.68800020        -5.60823689E-21
   4.69600010        -3.88685546E-21
   4.70400000        -2.07611893E-21
   4.71199989        -2.64866246E-22
   4.71999979         1.47282709E-21
   4.72800016         3.04180625E-21
   4.73600006         4.32725967E-21
   4.74399996         5.23706544E-21
   4.75199986         5.74376890E-21
   4.76000023         5.88341460E-21
   4.76800013         5.72479585E-21
   4.77600002         5.35596619E-21
   4.78399992         4.88580530E-21
   4.79199982         4.41647319E-21
   4.80000019         4.00057906E-21
   4.80800009         3.65602966E-21
   4.81599998         3.43622176E-21
   4.82399988         3.44779946E-21
   4.83199978         3.76903877E-21
   4.84000015         4.37114426E-21
   4.84800005         5.13646849E-21
   4.85599995         5.92059087E-21
   4.86399984         6.57216847E-21
   4.87200022         6.93588036E-21
   4.88000011         6.89147110E-21
   4.88800001         6.38101907E-21
   4.89599991         5.36642510E-21
   4.90399981         3.78457102E-21
   4.91200018         1.59384254E-21
   4.92000008        -1.13887836E-21
   4.92799997        -4.23098683E-21
   4.93599987        -7.45021625E-21
   4.94399977        -1.05516048E-20
   4.95200014        -1.32735306E-20
   4.96000004        -1.53691951E-20
   4.96799994        -1.66688849E-20
   4.97599983        -1.70847499E-20
   4.98400021        -1.65610978E-20
   4.99200010        -1.50786221E-20
   5.00000000        -1.27342622E-20
   5.00799990        -9.77648482E-21
   5.01599979        -6.52665133E-21
   5.02400017        -3.27769490E-21
   5.03200006        -2.68114182E-22
   5.03999996         2.30296433E-21
   5.04799986         4.28692572E-21
   5.05600023         5.59984836E-21
   5.06400013         6.20093482E-21
   5.07200003         6.08089993E-21
   5.07999992         5.30574001E-21
   5.08799982         4.05485350E-21
   5.09600019         2.57799401E-21
   5.10400009         1.11419653E-21
   5.11199999        -1.37819844E-22
   5.11999989        -1.01006023E-21
   5.12799978        -1.38745088E-21
   5.13600016        -1.24774904E-21
   5.14400005        -6.48012100E-22
   5.15199995         3.28683579E-22
   5.15999985         1.58451535E-21
   5.16800022         2.97467457E-21
   5.17600012         4.31292335E-21
   5.18400002         5.42823221E-21
   5.19199991         6.19241341E-21
   5.19999981         6.49462635E-21
   5.20800018         6.24294413E-21
   5.21600008         5.42628220E-21
   5.22399998         4.14613215E-21
   5.23199987         2.55612885E-21
   5.23999977         7.97372727E-22
   5.24800014        -9.72808627E-22
   5.25600004        -2.52617243E-21
   5.26399994        -3.61084007E-21
   5.27199984        -4.06568278E-21
   5.28000021        -3.85071195E-21
   5.28800011        -2.97777003E-21
   5.29600000        -1.48362275E-21
   5.30399990         5.06776312E-22
   5.31199980         2.75516232E-21
   5.32000017         4.99115612E-21
   5.32800007         6.98277035E-21
   5.33599997         8.51011007E-21
   5.34399986         9.34444047E-21
   5.35200024         9.32521175E-21
   5.36000013         8.43595382E-21
   5.36800003         6.77008032E-21
   5.37599993         4.46992934E-21
   5.38399982         1.74952274E-21
   5.39200020        -1.08005170E-21
   5.40000010        -3.69645811E-21
   5.40799999        -5.87089986E-21
   5.41599989        -7.44533152E-21
   5.42399979        -8.25963348E-21
   5.43200016        -8.20242554E-21
   5.44000006        -7.33656858E-21
   5.44799995        -5.89955633E-21
   5.45599985        -4.16802659E-21
   5.46400023        -2.37131114E-21
   5.47200012        -7.19048457E-22
   5.48000002         5.83342318E-22
   5.48799992         1.39305465E-21
   5.49599981         1.66418743E-21
   5.50400019         1.40509269E-21
   5.51200008         6.48958885E-22
   5.51999998        -5.05071312E-22
   5.52799988        -1.86268109E-21
   5.53599977        -3.19131753E-21
   5.54400015        -4.30140987E-21
   5.55200005        -5.06423882E-21
   5.55999994        -5.39217352E-21
   5.56799984        -5.25328351E-21
   5.57600021        -4.70247049E-21
   5.58400011        -3.85421737E-21
   5.59200001        -2.80738698E-21
   5.59999990        -1.61811361E-21
   5.60799980        -3.47595566E-22
   5.61600018         9.09596256E-22
   5.62400007         2.07832623E-21
   5.63199997         3.15300106E-21
   5.63999987         4.15071719E-21
   5.64799976         5.03101992E-21
   5.65600014         5.71096400E-21
   5.66400003         6.15455495E-21
   5.67199993         6.39544344E-21
   5.67999983         6.46184447E-21
   5.68800020         6.32315924E-21
   5.69600010         5.92476717E-21
   5.70400000         5.23639982E-21
   5.71199989         4.25243052E-21
   5.71999979         2.98672382E-21
   5.72800016         1.49322802E-21
   5.73600006        -1.38121971E-22
   5.74399996        -1.82905082E-21
   5.75199986        -3.53224862E-21
   5.76000023        -5.18590949E-21
   5.76800013        -6.68012403E-21
   5.77600002        -7.89870647E-21
   5.78399992        -8.77848575E-21
   5.79199982        -9.30367274E-21
   5.80000019        -9.45912373E-21
   5.80800009        -9.22001279E-21
   5.81599998        -8.58268306E-21
   5.82399988        -7.57800516E-21
   5.83199978        -6.25156531E-21
   5.84000015        -4.65413374E-21
   5.84800005        -2.85992810E-21
   5.85599995        -9.72845281E-22
   5.86399984         9.01390184E-22
   5.87200022         2.67538059E-21
   5.88000011         4.25876887E-21
   5.88800001         5.53963099E-21
   5.89599991         6.42298152E-21
   5.90399981         6.88546677E-21
   5.91200018         6.96341642E-21
   5.92000008         6.69430080E-21
   5.92799997         6.11097409E-21
   5.93599987         5.29163069E-21
   5.94399977         4.35733584E-21
   5.95200014         3.39785157E-21
   5.96000004         2.45101411E-21
   5.96799994         1.58459573E-21
   5.97599983         9.40443267E-22
   5.98400021         6.40243701E-22
   5.99200010         6.79764749E-22
   6.00000000         9.67128122E-22
   6.00799990         1.43540979E-21
   6.01599979         2.06219802E-21
   6.02400017         2.80577907E-21
   6.03200006         3.59051073E-21
   6.03999996         4.34744683E-21
   6.04799986         5.00910852E-21
   6.05600023         5.47116079E-21
   6.06400013         5.62715784E-21
   6.07200003         5.45034960E-21
   6.07999992         4.98096338E-21
   6.08799982         4.22212614E-21
   6.09600019         3.11675940E-21
   6.10400009         1.65801619E-21
   6.11199999        -3.77093720E-23
   6.11999989        -1.81130400E-21
   6.12799978        -3.56563756E-21
   6.13600016        -5.24105635E-21
   6.14400005        -6.73224125E-21
   6.15199995        -7.89952315E-21
   6.15999985        -8.64624752E-21
   6.16800022        -8.92592262E-21
   6.17600012        -8.69086762E-21
   6.18400002        -7.90967469E-21
   6.19199991        -6.64297118E-21
   6.19999981        -5.03356488E-21
   6.20800018        -3.20212238E-21
   6.21600008        -1.21382030E-21
   6.22399998         8.31359278E-22
   6.23199987         2.74886436E-21