 -0.239999995         0.00000000    
 -0.231999993         1.21964591E-21
 -0.224000007         3.78177767E-21
 -0.216000006         7.78253929E-21
 -0.208000004         1.34947836E-20
 -0.200000003         2.10000510E-20
 -0.192000002         2.99549856E-20
 -0.184000000         4.06334155E-20
 -0.175999999         5.50646767E-20
 -0.167999998         7.59313222E-20
 -0.159999996         1.04397050E-19
 -0.151999995         1.40418872E-19
 -0.143999994         1.84989431E-19
 -0.136000007         2.40217127E-19
 -0.128000006         3.07223772E-19
 -0.119999997         3.85848349E-19
 -0.112000003         4.76232849E-19
 -0.104000002         5.78526502E-19
  -9.60000008E-02     6.90970642E-19
  -8.79999995E-02     8.09963675E-19
  -7.99999982E-02     9.31307142E-19
  -7.19999969E-02     1.04916022E-18
  -6.40000030E-02     1.15435836E-18
  -5.60000017E-02     1.23593253E-18
  -4.80000004E-02     1.28388440E-18
  -3.99999991E-02     1.28894375E-18
  -3.20000015E-02     1.24124169E-18
  -2.40000002E-02     1.13172277E-18
  -1.60000008E-02     9.54451345E-19
  -8.00000038E-03     7.06555242E-19
   0.00000000         3.88131290E-19
   8.00000038E-03     4.52843823E-21
   1.60000008E-02    -4.32015961E-19
   2.40000002E-02    -9.03960965E-19
   3.20000015E-02    -1.39021268E-18
   3.99999991E-02    -1.86595506E-18
   4.80000004E-02    -2.30360061E-18
   5.60000017E-02    -2.67624857E-18
   6.40000030E-02    -2.96023912E-18
   7.19999969E-02    -3.13565062E-18
   7.99999982E-02    -3.18768856E-18
   8.79999995E-02    -3.10926149E-18
   9.60000008E-02    -2.90186870E-18
  0.104000002        -2.57500291E-18
  0.112000003        -2.14631614E-18
  0.119999997        -1.64137997E-18
  0.128000006        -1.09053114E-18
  0.136000007        -5.25197133E-19
  0.143999994         2.36428963E-20
  0.151999995         5.26718474E-19
  0.159999996         9.59593927E-19
  0.167999998         1.30495745E-18
  0.175999999         1.55239229E-18
  0.184000000         1.69836930E-18
  0.192000002         1.74745585E-18
  0.200000003         1.71125905E-18
  0.208000004         1.60502021E-18
  0.216000006         1.44582682E-18
  0.224000007         1.25263589E-18
  0.231999993         1.04425752E-18
  0.239999995         8.36005596E-19
  0.247999996         6.39339683E-19
  0.256000012         4.63426284E-19
  0.263999999         3.14285232E-19
  0.272000015         1.93025750E-19
  0.280000001         9.74100749E-20
  0.287999988         2.47349961E-20
  0.296000004        -2.81972655E-20
  0.303999990        -6.60208842E-20
  0.312000006        -9.29143289E-20
  0.319999993        -1.10476446E-19
  0.328000009        -1.19029481E-19
  0.335999995        -1.19548252E-19
  0.344000012        -1.12723844E-19
  0.351999998        -9.78510721E-20
  0.360000014        -7.44200245E-20
  0.368000001        -4.35547072E-20
  0.375999987        -6.86616858E-21
  0.384000003         3.44492969E-20
  0.391999990         7.82656388E-20
  0.400000006         1.20667647E-19
  0.407999992         1.57266305E-19
  0.416000009         1.84347565E-19
  0.423999995         1.98686056E-19
  0.432000011         1.97813704E-19
  0.439999998         1.81050216E-19
  0.448000014         1.49598018E-19
  0.456000000         1.05811891E-19
  0.463999987         5.30281548E-20
  0.472000003        -4.44940250E-21
  0.479999989        -6.19793638E-20
  0.488000005        -1.14947435E-19
  0.495999992        -1.58611017E-19
  0.504000008        -1.88744224E-19
  0.512000024        -2.02830205E-19
  0.519999981        -2.00030095E-19
  0.527999997        -1.80478350E-19
  0.536000013        -1.45766944E-19
  0.544000030        -9.95600014E-20
  0.551999986        -4.64037208E-20
  0.560000002         9.59224084E-21
  0.568000019         6.40607440E-20
  0.575999975         1.11765426E-19
  0.583999991         1.48265042E-19
  0.592000008         1.71314675E-19
  0.600000024         1.79733565E-19
  0.607999980         1.72547756E-19
  0.615999997         1.50552920E-19
  0.624000013         1.17127663E-19
  0.632000029         7.61989604E-20
  0.639999986         3.07943380E-20
  0.648000002        -1.56640446E-20
  0.656000018        -5.86775560E-20
  0.663999975        -9.45096566E-20
  0.671999991        -1.21212540E-19
  0.680000007        -1.37225373E-19
  0.688000023        -1.40869996E-19
  0.695999980        -1.32096944E-19
  0.703999996        -1.13150204E-19
  0.712000012        -8.68623331E-20
  0.720000029        -5.56270626E-20
  0.727999985        -2.22055343E-20
  0.736000001         1.01621602E-20
  0.744000018         3.90222163E-20
  0.751999974         6.30546533E-20
  0.759999990         8.11096215E-20
  0.768000007         9.19928239E-20
  0.776000023         9.52847571E-20
  0.783999979         9.15528349E-20
  0.791999996         8.17970473E-20
  0.800000012         6.72593610E-20
  0.808000028         4.95355979E-20
  0.815999985         3.02912733E-20
  0.824000001         1.08825764E-20
  0.832000017        -7.65505170E-21
  0.839999974        -2.45234996E-20
  0.847999990        -3.91060621E-20
  0.856000006        -5.07890738E-20
  0.864000022        -5.89988511E-20
  0.871999979        -6.35638993E-20
  0.879999995        -6.46683147E-20
  0.888000011        -6.23354068E-20
  0.896000028        -5.64899735E-20
  0.903999984        -4.75447131E-20
  0.912000000        -3.61950228E-20
  0.920000017        -2.26676261E-20
  0.927999973        -7.05340624E-21
  0.935999990         9.68234859E-21
  0.944000006         2.59511567E-20
  0.952000022         4.06413642E-20
  0.959999979         5.30246328E-20
  0.967999995         6.19386316E-20
  0.976000011         6.62269944E-20
  0.984000027         6.57412067E-20
  0.991999984         6.08954663E-20
   1.00000000         5.16493966E-20
   1.00800002         3.79698229E-20
   1.01600003         2.08500131E-20
   1.02400005         1.91297351E-21
   1.03199995        -1.74917325E-20
   1.03999996        -3.59747020E-20
   1.04799998        -5.15939851E-20
   1.05599999        -6.26165578E-20
   1.06400001        -6.83649267E-20
   1.07200003        -6.87536046E-20
   1.08000004        -6.36550637E-20
   1.08800006        -5.32973277E-20
   1.09599996        -3.86767779E-20
   1.10399997        -2.11069270E-20
   1.11199999        -1.87118978E-21
   1.12000000         1.74479775E-20
   1.12800002         3.49224959E-20
   1.13600004         4.88770620E-20
   1.14400005         5.82399516E-20
   1.15199995         6.23974519E-20
   1.15999997         6.11824916E-20
   1.16799998         5.49965635E-20
   1.17600000         4.46412413E-20
   1.18400002         3.11096263E-20
   1.19200003         1.56297263E-20
   1.20000005        -4.09256847E-22
   1.20799994        -1.57133814E-20
   1.21599996        -2.90578759E-20
   1.22399998        -3.91883084E-20
   1.23199999        -4.52304298E-20
   1.24000001        -4.71096840E-20
   1.24800003        -4.52103609E-20
   1.25600004        -3.99137296E-20
   1.26400006        -3.18532811E-20
   1.27199996        -2.21459466E-20
   1.27999997        -1.18317427E-20
   1.28799999        -1.47036938E-21
   1.29600000         8.35316790E-21
   1.30400002         1.67126867E-20
   1.31200004         2.29453827E-20
   1.32000005         2.70086975E-20
   1.32799995         2.89469884E-20
   1.33599997         2.86604899E-20
   1.34399998         2.64420238E-20
   1.35200000         2.30206109E-20
   1.36000001         1.88250265E-20
   1.36800003         1.38385039E-20
   1.37600005         8.26414986E-21
   1.38399994         2.63968661E-21
   1.39199996        -2.74725099E-21
   1.39999998        -7.88997907E-21
   1.40799999        -1.25383690E-20
   1.41600001        -1.62662337E-20
   1.42400002        -1.89747607E-20
   1.43200004        -2.07761565E-20
   1.44000006        -2.15258293E-20
   1.44799995        -2.09482682E-20
   1.45599997        -1.90225982E-20
   1.46399999        -1.58569635E-20
   1.47200000        -1.14614889E-20
   1.48000002        -5.99795609E-21
   1.48800004         9.92838878E-24
   1.49600005         5.96380218E-21
   1.50399995         1.14439355E-20
   1.51199996         1.60894998E-20
   1.51999998         1.95512813E-20
   1.52800000         2.16333870E-20
   1.53600001         2.22331124E-20
   1.54400003         2.12005276E-20
   1.55200005         1.84982513E-20
   1.55999994         1.43670997E-20
   1.56799996         9.14920726E-21
   1.57599998         3.18300311E-21
   1.58399999        -2.98919647E-21
   1.59200001        -8.66029748E-21
   1.60000002        -1.33759112E-20
   1.60800004        -1.70044439E-20
   1.61600006        -1.93628393E-20
   1.62399995        -2.01863380E-20
   1.63199997        -1.94763084E-20
   1.63999999        -1.74462246E-20
   1.64800000        -1.41693923E-20
   1.65600002        -9.72033105E-21
   1.66400003        -4.55784353E-21
   1.67200005         6.80907120E-22
   1.67999995         5.63315652E-21
   1.68799996         1.00769832E-20
   1.69599998         1.36023147E-20
   1.70400000         1.58476997E-20
   1.71200001         1.68258165E-20
   1.72000003         1.66477805E-20
   1.72800004         1.52070273E-20
   1.73599994         1.24677194E-20
   1.74399996         8.76766940E-21
   1.75199997         4.54730465E-21
   1.75999999         7.94439793E-23
   1.76800001        -4.32054811E-21
   1.77600002        -8.15572215E-21
   1.78400004        -1.10400444E-20
   1.79200006        -1.28770001E-20
   1.79999995        -1.36429209E-20
   1.80799997        -1.32651643E-20
   1.81599998        -1.17877438E-20
   1.82400000        -9.42005398E-21
   1.83200002        -6.38672331E-21
   1.84000003        -2.91302699E-21
   1.84800005         6.67078704E-22
   1.85599995         3.95616617E-21
   1.86399996         6.63089426E-21
   1.87199998         8.47879919E-21
   1.88000000         9.40262422E-21
   1.88800001         9.44650195E-21
   1.89600003         8.73002056E-21
   1.90400004         7.35875625E-21
   1.91199994         5.47655241E-21
   1.91999996         3.31559677E-21
   1.92799997         1.08453062E-21
   1.93599999        -1.07345031E-21
   1.94400001        -2.92898879E-21
   1.95200002        -4.17195327E-21
   1.96000004        -4.68567404E-21
   1.96800005        -4.62503378E-21
   1.97599995        -4.15113845E-21
   1.98399997        -3.31972541E-21
   1.99199998        -2.27379430E-21
   2.00000000        -1.26575597E-21
   2.00799990        -4.20024130E-22
   2.01600003         2.84823695E-22
   2.02399993         7.79523316E-22
   2.03200006         9.01301933E-22
   2.03999996         6.31726073E-22
   2.04800010         1.12942781E-22
   2.05599999        -5.43315693E-22
   2.06399989        -1.25694436E-21
   2.07200003        -1.84164695E-21
   2.07999992        -2.06807008E-21
   2.08800006        -1.84568067E-21
   2.09599996        -1.22874923E-21
   2.10400009        -3.04833348E-22
   2.11199999         8.33105273E-22
   2.11999989         2.05583503E-21
   2.12800002         3.19709043E-21
   2.13599992         4.07678913E-21
   2.14400005         4.55810041E-21
   2.15199995         4.59631470E-21
   2.16000009         4.17175658E-21
   2.16799998         3.21974197E-21
   2.17600012         1.76712295E-21
   2.18400002         6.30734494E-23
   2.19199991        -1.61657547E-21
   2.20000005        -3.18337854E-21
   2.20799994        -4.53849122E-21
   2.21600008        -5.37161639E-21
   2.22399998        -5.47482130E-21
   2.23200011        -5.03246668E-21
   2.24000001        -4.26239384E-21
   2.24799991        -3.05812610E-21
   2.25600004        -1.36511620E-21
   2.26399994         4.31742336E-22
   2.27200007         1.91537750E-21
   2.27999997         3.07174914E-21
   2.28800011         3.93247964E-21
   2.29600000         4.22846449E-21
   2.30399990         3.83004213E-21
   2.31200004         3.08296152E-21
   2.31999993         2.30400093E-21
   2.32800007         1.40467435E-21
   2.33599997         3.58975055E-22
   2.34400010        -4.86687294E-22
   2.35200000        -9.12006106E-22
   2.35999990        -1.10685793E-21
   2.36800003        -1.17603485E-21
   2.37599993        -9.03209941E-22
   2.38400006        -2.54482969E-22
   2.39199996         4.16419401E-22
   2.40000010         8.62194122E-22
   2.40799999         1.13894915E-21
   2.41599989         1.19695973E-21
   2.42400002         7.89714238E-22
   2.43199992        -1.02897780E-22
   2.44000006        -1.19826937E-21
   2.44799995        -2.29152799E-21
   2.45600009        -3.33606808E-21
   2.46399999        -4.19140494E-21
   2.47199988        -4.64576782E-21
   2.48000002        -4.63197596E-21
   2.48799992        -4.16676845E-21
   2.49600005        -3.20205654E-21
   2.50399995        -1.73381237E-21
   2.51200008         9.57925346E-23
   2.51999998         2.11580199E-21
   2.52800012         4.15361636E-21
   2.53600001         5.92322428E-21
   2.54399991         7.13734165E-21
   2.55200005         7.72762226E-21
   2.55999994         7.73250537E-21
   2.56800008         7.07224076E-21
   2.57599998         5.68393765E-21
   2.58400011         3.72178890E-21
   2.59200001         1.38361265E-21
   2.59999990        -1.24913491E-21
   2.60800004        -3.98057042E-21
   2.61599994        -6.38479591E-21
   2.62400007        -8.14220373E-21
   2.63199997        -9.22192646E-21
   2.64000010        -9.59342829E-21
   2.64800000        -9.10619306E-21
   2.65599990        -7.78755973E-21
   2.66400003        -5.89935075E-21
   2.67199993        -3.59780592E-21
   2.68000007        -8.87686976E-22
   2.68799996         2.04614999E-21
   2.69600010         4.82527611E-21
   2.70400000         7.20356456E-21
   2.71199989         9.07457926E-21
   2.72000003         1.02208779E-20
   2.72799993         1.04089072E-20
   2.73600006         9.67481915E-21
   2.74399996         8.22948905E-21
   2.75200009         6.18937691E-21
   2.75999999         3.64826070E-21
   2.76799989         8.52328842E-22
   2.77600002        -1.93384871E-21
   2.78399992        -4.58183096E-21
   2.79200006        -6.95201846E-21
   2.79999995        -8.77778459E-21
   2.80800009        -9.84122624E-21
   2.81599998        -1.01063166E-20
   2.82399988        -9.61368291E-21
   2.83200002        -8.41907497E-21
   2.83999991        -6.66288167E-21
   2.84800005        -4.52953441E-21
   2.85599995        -2.13332727E-21
   2.86400008         4.31456630E-22
   2.87199998         2.97881249E-21
   2.88000011         5.27395293E-21
   2.88800001         7.12117124E-21
   2.89599991         8.36768718E-21
   2.90400004         8.93946366E-21
   2.91199994         8.89671765E-21
   2.92000008         8.33903475E-21
   2.92799997         7.29298085E-21
   2.93600011         5.80323382E-21
   2.94400001         4.01484712E-21
   2.95199990         2.02793606E-21
   2.96000004        -1.56789197E-22
   2.96799994        -2.41388024E-21
   2.97600007        -4.44089037E-21
   2.98399997        -6.05972726E-21
   2.99200010        -7.30445879E-21
   3.00000000        -8.11977695E-21
   3.00799990        -8.31142921E-21
   3.01600003        -7.88639085E-21
   3.02399993        -7.07162360E-21
   3.03200006        -5.92430551E-21
   3.03999996        -4.30759151E-21
   3.04800010        -2.27678091E-21
   3.05599999        -8.58013841E-23
   3.06399989         2.16338204E-21
   3.07200003         4.45145187E-21
   3.07999992         6.49830141E-21
   3.08800006         7.93282686E-21
   3.09599996         8.71888675E-21
   3.10400009         9.00615752E-21
   3.11199999         8.71758135E-21
   3.11999989         7.69767735E-21
   3.12800002         6.07749387E-21
   3.13599992         4.09740524E-21
   3.14400005         1.78844627E-21
   3.15199995        -8.05374023E-22
   3.16000009        -3.33638736E-21
   3.16799998        -5.42574865E-21
   3.17600012        -6.99480567E-21
   3.18400002        -8.07743565E-21
   3.19199991        -8.58251100E-21
   3.20000005        -8.45995498E-21
   3.20799994        -7.82485798E-21
   3.21600008        -6.75216063E-21
   3.22399998        -5.20938074E-21
   3.23200011        -3.28579202E-21
   3.24000001        -1.23245458E-21
   3.24799991         7.59600502E-22
   3.25600004         2.59643735E-21
   3.26399994         4.15479695E-21
   3.27200007         5.35579413E-21
   3.27999997         6.27548932E-21
   3.28800011         6.97788158E-21
   3.29600000         7.36802083E-21
   3.30399990         7.36170873E-21
   3.31200004         7.00463409E-21
   3.31999993         6.29580493E-21
   3.32800007         5.13115199E-21
   3.33599997         3.53089799E-21
   3.34400010         1.68015175E-21
   3.35200000        -3.11541493E-22
   3.35999990        -2.43246313E-21
   3.36800003        -4.55081371E-21
   3.37599993        -6.45160690E-21
   3.38400006        -8.05344418E-21
   3.39199996        -9.31486876E-21
   3.40000010        -1.00126029E-20
   3.40799999        -9.89460847E-21
   3.41599989        -8.95074773E-21
   3.42400002        -7.29759174E-21
   3.43199992        -4.97166608E-21
   3.44000006        -2.08028210E-21
   3.44799995         1.04371251E-21
   3.45600009         4.07499179E-21
   3.46399999         6.89167708E-21
   3.47199988         9.36846263E-21
   3.48000002         1.12153930E-20
   3.48799992         1.21882406E-20
   3.49600005         1.22372114E-20
   3.50399995         1.13440430E-20
   3.51200008         9.46751024E-21
   3.51999998         6.74279184E-21
   3.52800012         3.49826313E-21
   3.53600001         1.28376952E-23
   3.54399991        -3.54378230E-21
   3.55200005        -6.94283788E-21
   3.55999994        -9.89096936E-21
   3.56800008        -1.21760453E-20
   3.57599998        -1.36420775E-20
   3.58400011        -1.40872930E-20
   3.59200001        -1.33680384E-20
   3.59999990        -1.15422424E-20
   3.60800004        -8.79169076E-21
   3.61599994        -5.30491041E-21
   3.62400007        -1.32631010E-21
   3.63199997         2.81796080E-21
   3.64000010         6.83242623E-21
   3.64800000         1.04750550E-20
   3.65599990         1.34404959E-20
   3.66400003         1.53735475E-20
   3.67199993         1.60344422E-20
   3.68000007         1.53451051E-20
   3.68799996         1.33138427E-20
   3.69600010         1.00613589E-20
   3.70400000         5.88894475E-21
   3.71199989         1.19722539E-21
   3.72000003        -3.62467475E-21
   3.72799993        -8.17010976E-21
   3.73600006        -1.20035256E-20
   3.74399996        -1.47865578E-20
   3.75200009        -1.63261074E-20
