 -0.239999995         0.00000000    
 -0.231999993         0.00000000    
 -0.224000007        -7.11561088E-27
 -0.216000006        -2.20983682E-26
 -0.208000004         8.71321381E-22
 -0.200000003         3.33660688E-21
 -0.192000002         5.45100149E-21
 -0.184000000         5.16676115E-21
 -0.175999999         5.48951184E-21
 -0.167999998         1.06159229E-20
 -0.159999996         1.74270945E-20
 -0.151999995         1.97204640E-20
 -0.143999994         2.00878049E-20
 -0.136000007         2.69940683E-20
 -0.128000006         4.12465018E-20
 -0.119999997         5.65219686E-20
 -0.112000003         7.06982158E-20
 -0.104000002         8.52442773E-20
  -9.60000008E-02     9.82248931E-20
  -8.79999995E-02     1.09885193E-19
  -7.99999982E-02     1.27771177E-19
  -7.19999969E-02     1.53676251E-19
  -6.40000030E-02     1.74957863E-19
  -5.60000017E-02     1.81514872E-19
  -4.80000004E-02     1.79168032E-19
  -3.99999991E-02     1.75357857E-19
  -3.20000015E-02     1.66198085E-19
  -2.40000002E-02     1.47913516E-19
  -1.60000008E-02     1.23021028E-19
  -8.00000038E-03     8.63334932E-20
   0.00000000         2.71555253E-20
   8.00000038E-03    -4.61957851E-20
   1.60000008E-02    -1.10659137E-19
   2.40000002E-02    -1.64276389E-19
   3.20000015E-02    -2.27777417E-19
   3.99999991E-02    -3.02619064E-19
   4.80000004E-02    -3.61159592E-19
   5.60000017E-02    -3.88808156E-19
   6.40000030E-02    -4.01884175E-19
   7.19999969E-02    -4.11334430E-19
   7.99999982E-02    -4.02503217E-19
   8.79999995E-02    -3.64533093E-19
   9.60000008E-02    -3.08892376E-19
  0.104000002        -2.47656014E-19
  0.112000003        -1.79994850E-19
  0.119999997        -1.08493617E-19
  0.128000006        -4.49745886E-20
  0.136000007         6.30494632E-21
  0.143999994         5.11476243E-20
  0.151999995         8.88612021E-20
  0.159999996         1.12377695E-19
  0.167999998         1.22635536E-19
  0.175999999         1.25971555E-19
  0.184000000         1.22259996E-19
  0.192000002         1.10439675E-19
  0.200000003         9.88941080E-20
  0.208000004         9.65384980E-20
  0.216000006         1.00660165E-19
  0.224000007         1.04387847E-19
  0.231999993         1.07341096E-19
  0.239999995         1.11814605E-19
  0.247999996         1.16715960E-19
  0.256000012         1.21619784E-19
  0.263999999         1.26564592E-19
  0.272000015         1.27153105E-19
  0.280000001         1.18200943E-19
  0.287999988         1.00827895E-19
  0.296000004         7.72410270E-20
  0.303999990         4.47022136E-20
  0.312000006         4.82629434E-21
  0.319999993        -3.06940650E-20
  0.328000009        -5.45946377E-20
  0.335999995        -7.32123731E-20
  0.344000012        -9.13728649E-20
  0.351999998        -1.01023064E-19
  0.360000014        -9.47922616E-20
  0.368000001        -7.66528305E-20
  0.375999987        -5.00243324E-20
  0.384000003        -1.09751834E-20
  0.391999990         3.78126779E-20
  0.400000006         8.14759203E-20
  0.407999992         1.09252813E-19
  0.416000009         1.22814220E-19
  0.423999995         1.24130781E-19
  0.432000011         1.09637452E-19
  0.439999998         7.97485798E-20
  0.448000014         4.07599968E-20
  0.456000000        -4.27062485E-21
  0.463999987        -5.47092346E-20
  0.472000003        -1.03266811E-19
  0.479999989        -1.38414420E-19
  0.488000005        -1.53676070E-19
  0.495999992        -1.46896782E-19
  0.504000008        -1.16447695E-19
  0.512000024        -6.59824526E-20
  0.519999981        -6.33890233E-21
  0.527999997         5.29772896E-20
  0.536000013         1.06760958E-19
  0.544000030         1.46807679E-19
  0.551999986         1.62914579E-19
  0.560000002         1.53342096E-19
  0.568000019         1.23755732E-19
  0.575999975         7.68540939E-20
  0.583999991         1.49875159E-20
  0.592000008        -5.00788132E-20
  0.600000024        -1.03474950E-19
  0.607999980        -1.39982237E-19
  0.615999997        -1.59063562E-19
  0.624000013        -1.54621343E-19
  0.632000029        -1.23024647E-19
  0.639999986        -7.33597082E-20
  0.648000002        -1.70946099E-20
  0.656000018         4.29216814E-20
  0.663999975         1.01636095E-19
  0.671999991         1.42671815E-19
  0.680000007         1.53638989E-19
  0.688000023         1.39414442E-19
  0.695999980         1.09032706E-19
  0.703999996         6.25092957E-20
  0.712000012         2.04706966E-21
  0.720000029        -5.73942370E-20
  0.727999985        -1.01088560E-19
  0.736000001        -1.27061560E-19
  0.744000018        -1.36580431E-19
  0.751999974        -1.24492517E-19
  0.759999990        -8.86712413E-20
  0.768000007        -3.87393496E-20
  0.776000023         1.29583506E-20
  0.783999979         6.08178600E-20
  0.791999996         1.00960185E-19
  0.800000012         1.25367403E-19
  0.808000028         1.27043013E-19
  0.815999985         1.05978509E-19
  0.824000001         6.72629735E-20
  0.832000017         1.79196805E-20
  0.839999974        -3.31417926E-20
  0.847999990        -7.63752532E-20
  0.856000006        -1.04764363E-19
  0.864000022        -1.15161261E-19
  0.871999979        -1.07792885E-19
  0.879999995        -8.53530839E-20
  0.888000011        -5.12332601E-20
  0.896000028        -8.90428264E-21
  0.903999984         3.58013915E-20
  0.912000000         7.44865608E-20
  0.920000017         1.00855114E-19
  0.927999973         1.12790303E-19
  0.935999990         1.08396539E-19
  0.944000006         8.54386131E-20
  0.952000022         4.73008305E-20
  0.959999979         3.46084452E-21
  0.967999995        -3.84834148E-20
  0.976000011        -7.49715794E-20
  0.984000027        -1.00111330E-19
  0.991999984        -1.06724032E-19
   1.00000000        -9.58955783E-20
   1.00800002        -7.59103390E-20
   1.01600003        -4.98627446E-20
   1.02400005        -1.45666037E-20
   1.03199995         2.67796654E-20
   1.03999996         6.23331644E-20
   1.04799998         8.45622863E-20
   1.05599999         9.49942358E-20
   1.06400001         9.44368195E-20
   1.07200003         7.96170193E-20
   1.08000004         5.19420117E-20
   1.08800006         1.94911137E-20
   1.09599996        -1.21137773E-20
   1.10399997        -4.22593359E-20
   1.11199999        -6.79660253E-20
   1.12000000        -8.27577530E-20
   1.12800002        -8.40974496E-20
   1.13600004        -7.46777688E-20
   1.14400005        -5.62254114E-20
   1.15199995        -2.90002673E-20
   1.15999997         2.79071735E-21
   1.16799998         3.17309940E-20
   1.17600000         5.35758130E-20
   1.18400002         6.79816383E-20
   1.19200003         7.37590748E-20
   1.20000005         6.84630704E-20
   1.20799994         5.24681341E-20
   1.21599996         2.95289746E-20
   1.22399998         3.40674941E-21
   1.23199999        -2.32512974E-20
   1.24000001        -4.70661730E-20
   1.24800003        -6.34888068E-20
   1.25600004        -6.88548115E-20
   1.26400006        -6.23280656E-20
   1.27199996        -4.59808312E-20
   1.27999997        -2.33020979E-20
   1.28799999         2.27444417E-21
   1.29600000         2.73128770E-20
   1.30400002         4.78363201E-20
   1.31200004         6.05167856E-20
   1.32000005         6.42084669E-20
   1.32799995         5.88712778E-20
   1.33599997         4.39516085E-20
   1.34399998         2.02044972E-20
   1.35200000        -7.82698975E-21
   1.36000001        -3.40253087E-20
   1.36800003        -5.46788422E-20
   1.37600005        -6.78015908E-20
   1.38399994        -7.03840939E-20
   1.39199996        -6.03054992E-20
   1.39999998        -4.00240322E-20
   1.40799999        -1.47561250E-20
   1.41600001         1.21136643E-20
   1.42400002         3.86087779E-20
   1.43200004         6.07869441E-20
   1.44000006         7.37488708E-20
   1.44799995         7.52534542E-20
   1.45599997         6.55028624E-20
   1.46399999         4.50449119E-20
   1.47200000         1.61709125E-20
   1.48000002        -1.52795543E-20
   1.48800004        -4.29504163E-20
   1.49600005        -6.37368834E-20
   1.50399995        -7.62779173E-20
   1.51199996        -7.80868967E-20
   1.51999998        -6.75354778E-20
   1.52800000        -4.70219317E-20
   1.53600001        -2.10728575E-20
   1.54400003         7.35301041E-21
   1.55200005         3.60437813E-20
   1.55999994         6.06473057E-20
   1.56799996         7.57018701E-20
   1.57599998         7.81924915E-20
   1.58399999         6.85185625E-20
   1.59200001         4.90664282E-20
   1.60000002         2.34228501E-20
   1.60800004        -4.11281551E-21
   1.61600006        -2.98093501E-20
   1.62399995        -5.08931628E-20
   1.63199997        -6.45185756E-20
   1.63999999        -6.80228164E-20
   1.64800000        -6.10037171E-20
   1.65600002        -4.58221870E-20
   1.66400003        -2.54357328E-20
   1.67200005        -1.96618893E-21
   1.67999995         2.21705536E-20
   1.68799996         4.30957092E-20
   1.69599998         5.63930383E-20
   1.70400000         5.91581027E-20
   1.71200001         5.15076773E-20
   1.72000003         3.64974963E-20
   1.72800004         1.79739756E-20
   1.73599994        -1.73454382E-21
   1.74399996        -2.11809031E-20
   1.75199997        -3.73699974E-20
   1.75999999        -4.63325187E-20
   1.76800001        -4.66514679E-20
   1.77600002        -4.02204197E-20
   1.78400004        -2.89787541E-20
   1.79200006        -1.33823372E-20
   1.79999995         5.18995896E-21
   1.80799997         2.31477851E-20
   1.81599998         3.68728489E-20
   1.82400000         4.42728842E-20
   1.83200002         4.40233309E-20
   1.84000003         3.58542180E-20
   1.84800005         2.19518823E-20
   1.85599995         5.73428581E-21
   1.86399996        -1.08222479E-20
   1.87199998        -2.65832326E-20
   1.88000000        -3.88367049E-20
   1.88800001        -4.43000293E-20
   1.89600003        -4.21077486E-20
   1.90400004        -3.35595769E-20
   1.91199994        -1.99669477E-20
   1.91999996        -3.09948796E-21
   1.92799997         1.37263579E-20
   1.93599999         2.76483343E-20
   1.94400001         3.80277287E-20
   1.95200002         4.42638078E-20
   1.96000004         4.39801786E-20
   1.96800005         3.57457087E-20
   1.97599995         2.16298521E-20
   1.98399997         4.93342594E-21
   1.99199998        -1.24873455E-20
   2.00000000        -2.87741141E-20
   2.00799990        -4.04476036E-20
   2.01600003        -4.46166036E-20
   2.02399993        -4.13710280E-20
   2.03200006        -3.26253766E-20
   2.03999996        -2.01147367E-20
   2.04800010        -5.47340039E-21
   2.05599999         9.24111802E-21
   2.06399989         2.20342223E-20
   2.07200003         3.13978503E-20
   2.07999992         3.64754823E-20
   2.08800006         3.72271181E-20
   2.09599996         3.36134342E-20
   2.10400009         2.46244737E-20
   2.11199999         1.00491628E-20
   2.11999989        -6.76598117E-21
   2.12800002        -2.05351788E-20
   2.13599992        -2.87036099E-20
   2.14400005        -3.19921925E-20
   2.15199995        -3.08028845E-20
   2.16000009        -2.46052192E-20
   2.16799998        -1.46958362E-20
   2.17600012        -4.02395176E-21
   2.18400002         5.65506307E-21
   2.19199991         1.36745541E-20
   2.20000005         1.87463167E-20
   2.20799994         2.03164929E-20
   2.21600008         1.98172652E-20
   2.22399998         1.77367250E-20
   2.23200011         1.21448612E-20
   2.24000001         2.97552719E-21
   2.24799991        -5.84811160E-21
   2.25600004        -1.15762860E-20
   2.26399994        -1.56430048E-20
   2.27200007        -1.85371854E-20
   2.27999997        -1.69979654E-20
   2.28800011        -9.99676528E-21
   2.29600000        -2.15596064E-21
   2.30399990         2.71908585E-21
   2.31200004         6.33385483E-21
   2.31999993         1.06113338E-20
   2.32800007         1.32046896E-20
   2.33599997         1.20261705E-20
   2.34400010         9.19421914E-21
   2.35200000         7.00805348E-21
   2.35999990         4.41381434E-21
   2.36800003         1.58059756E-22
   2.37599993        -4.59669557E-21
   2.38400006        -8.64789946E-21
   2.39199996        -1.19299098E-20
   2.40000010        -1.34009681E-20
   2.40799999        -1.15804098E-20
   2.41599989        -7.56490678E-21
   2.42400002        -3.95387244E-21
   2.43199992        -9.94908445E-22
   2.44000006         2.84711104E-21
   2.44799995         7.21761209E-21
   2.45600009         1.00259080E-20
   2.46399999         1.05108354E-20
   2.47199988         9.56581549E-21
   2.48000002         7.98944108E-21
   2.48799992         6.27383294E-21
   2.49600005         4.80431912E-21
   2.50399995         2.97600056E-21
   2.51200008        -3.89685296E-22
   2.51999998        -5.08720923E-21
   2.52800012        -9.46940532E-21
   2.53600001        -1.22120204E-20
   2.54399991        -1.26551727E-20
   2.55200005        -1.04490804E-20
   2.55999994        -6.61196644E-21
   2.56800008        -3.32478522E-21
   2.57599998        -9.99346160E-22
   2.58400011         2.22249173E-21
   2.59200001         6.61105808E-21
   2.59999990         9.60657594E-21
   2.60800004         1.00351589E-20
   2.61599994         9.86850301E-21
   2.62400007         1.00005700E-20
   2.63199997         8.25647016E-21
   2.64000010         3.52630447E-21
   2.64800000        -1.93893943E-21
   2.65599990        -6.00135933E-21
   2.66400003        -8.77240388E-21
   2.67199993        -1.02372866E-20
   2.68000007        -9.48575184E-21
   2.68799996        -7.05329719E-21
   2.69600010        -4.56321172E-21
   2.70400000        -1.89443242E-21
   2.71199989         1.94571560E-21
   2.72000003         5.69549718E-21
   2.72799993         7.11016101E-21
   2.73600006         6.56490318E-21
   2.74399996         6.05140012E-21
   2.75200009         5.62423363E-21
   2.75999999         3.91841878E-21
   2.76799989         9.64077590E-22
   2.77600002        -2.21051235E-21
   2.78399992        -5.36082628E-21
   2.79200006        -8.16147364E-21
   2.79999995        -9.19821287E-21
   2.80800009        -7.70972155E-21
   2.81599998        -4.78546441E-21
   2.82399988        -1.58978318E-21
   2.83200002         1.85981786E-21
   2.83999991         5.38817575E-21
   2.84800005         8.00277290E-21
   2.85599995         9.04594701E-21
   2.86400008         8.51180886E-21
   2.87199998         6.40339455E-21
   2.88000011         3.24388268E-21
   2.88800001         5.02927479E-22
   2.89599991        -1.05214688E-21
   2.90400004        -2.51005352E-21
   2.91199994        -4.95965055E-21
   2.92000008        -7.63466784E-21
   2.92799997        -9.02593473E-21
   2.93600011        -8.56070219E-21
   2.94400001        -6.39544909E-21
   2.95199990        -2.97418464E-21
   2.96000004         6.79373575E-22
   2.96799994         3.56364635E-21
   2.97600007         5.63849240E-21
   2.98399997         7.00266388E-21
   2.99200010         6.91557808E-21
   3.00000000         5.15611685E-21
   3.00799990         3.22588827E-21
   3.01600003         2.46667682E-21
   3.02399993         2.17973582E-21
   3.03200006         1.12724775E-21
   3.03999996        -5.72441952E-22
   3.04800010        -2.35008293E-21
   3.05599999        -4.19996917E-21
   3.06399989        -5.59760027E-21
   3.07200003        -5.36238048E-21
   3.07999992        -3.58971506E-21
   3.08800006        -1.83489420E-21
   3.09599996        -8.27312737E-22
   3.10400009         2.49465933E-23
   3.11199999         7.76548162E-22
   3.11999989         8.14381982E-22
   3.12800002         4.68606905E-22
   3.13599992         5.97282210E-22
   3.14400005         9.95307092E-22
   3.15199995         1.17843884E-21
   3.16000009         1.77868348E-21
   3.16799998         3.12036094E-21
   3.17600012         3.72814624E-21
   3.18400002         2.38742722E-21
   3.19199991         3.26959015E-22
   3.20000005        -6.07078878E-22
   3.20799994        -4.74111765E-22
   3.21600008        -2.34050461E-22
   3.22399998         7.66343344E-23
   3.23200011         5.52026585E-22
   3.24000001         4.11323360E-22
   3.24799991        -8.10545972E-22
   3.25600004        -2.38692780E-21
   3.26399994        -3.50564637E-21
   3.27200007        -3.94318654E-21
   3.27999997        -3.45126328E-21
   3.28800011        -1.98598876E-21
   3.29600000        -4.71736953E-22
   3.30399990         1.53783259E-22
   3.31200004         2.95308856E-22
   3.31999993         7.68315484E-22
   3.32800007         1.33477971E-21
   3.33599997         1.56521535E-21
   3.34400010         2.06581148E-21
   3.35200000         3.34203303E-21
   3.35999990         4.48288352E-21
   3.36800003         4.31921525E-21
   3.37599993         2.92487268E-21
   3.38400006         1.01351001E-21
   3.39199996        -1.03167537E-21
   3.40000010        -2.80367618E-21
   3.40799999        -3.70791060E-21
   3.41599989        -3.68438483E-21
   3.42400002        -3.13947395E-21
   3.43199992        -2.13686945E-21
   3.44000006        -6.79321826E-22
   3.44799995         5.73741035E-22
   3.45600009         1.02001639E-21
   3.46399999         1.00970763E-21
   3.47199988         9.92596035E-22
   3.48000002         6.45420800E-22
   3.48799992        -1.31097033E-22
   3.49600005        -5.00397520E-22
   3.50399995        -1.08255786E-22
   3.51200008         8.13672553E-24
   3.51999998        -9.35977178E-22
   3.52800012        -2.07571322E-21
   3.53600001        -2.11589570E-21
   3.54399991        -8.42329165E-22
   3.55200005         1.25523638E-21
   3.55999994         3.61089581E-21
   3.56800008         5.24902927E-21
   3.57599998         5.10925513E-21
   3.58400011         3.34066846E-21
   3.59200001         1.29174229E-21
   3.59999990        -1.07101676E-22
   3.60800004        -1.09700830E-21
   3.61599994        -2.21983914E-21
   3.62400007        -3.58923281E-21
   3.63199997        -4.95955281E-21
   3.64000010        -5.79693505E-21
   3.64800000        -5.49306532E-21
   3.65599990        -4.07228568E-21
   3.66400003        -2.27356832E-21
   3.67199993        -5.37635945E-22
   3.68000007         1.46714689E-21
   3.68799996         3.86832225E-21
   3.69600010         5.89623267E-21
   3.70400000         6.66759878E-21
   3.71199989         6.11415235E-21
   3.72000003         4.80191836E-21
   3.72799993         3.28737974E-21
   3.73600006         1.79709431E-21
   3.74399996         1.96024084E-22
   3.75200009        -1.63693530E-21
