 -0.239999995         0.00000000    
 -0.231999993         0.00000000    
 -0.224000007         0.00000000    
 -0.216000006         0.00000000    
 -0.208000004         1.18747227E-32
 -0.200000003        -3.18802602E-31
 -0.192000002         2.98455663E-27
 -0.184000000         3.19155958E-26
 -0.175999999         5.04855079E-26
 -0.167999998        -1.89181381E-25
 -0.159999996        -6.74403795E-25
 -0.151999995        -1.95995315E-25
 -0.143999994         2.25020581E-24
 -0.136000007         3.50520995E-24
 -0.128000006        -2.07195934E-24
 -0.119999997        -1.12005430E-23
 -0.112000003        -8.03241366E-24
 -0.104000002         1.39503756E-23
  -9.60000008E-02     2.95876671E-23
  -8.79999995E-02     6.15585596E-24
  -7.99999982E-02    -4.16064584E-23
  -7.19999969E-02    -5.02943350E-23
  -6.40000030E-02     1.06591808E-23
  -5.60000017E-02     7.78496851E-23
  -4.80000004E-02     5.89807822E-23
  -3.99999991E-02    -4.07898012E-23
  -3.20000015E-02    -1.06570299E-22
  -2.40000002E-02    -5.33138958E-23
  -1.60000008E-02     6.18010609E-23
  -8.00000038E-03     1.10524676E-22
   0.00000000         5.09041056E-23
   8.00000038E-03    -4.32138099E-23
   1.60000008E-02    -9.36026252E-23
   2.40000002E-02    -8.43363558E-23
   3.20000015E-02    -2.00917114E-23
   3.99999991E-02     8.49591267E-23
   4.80000004E-02     1.51467920E-22
   5.60000017E-02     7.80812315E-23
   6.40000030E-02    -9.89516259E-23
   7.19999969E-02    -1.90604446E-22
   7.99999982E-02    -8.22869709E-23
   8.79999995E-02     1.06083995E-22
   9.60000008E-02     1.69885803E-22
  0.104000002         6.00824675E-23
  0.112000003        -9.45255988E-23
  0.119999997        -1.39588041E-22
  0.128000006        -2.78348371E-23
  0.136000007         1.27734390E-22
  0.143999994         1.32004854E-22
  0.151999995        -5.65029196E-23
  0.159999996        -2.06856495E-22
  0.167999998        -9.54832128E-23
  0.175999999         1.51816761E-22
  0.184000000         2.21868733E-22
  0.192000002         6.43938700E-23
  0.200000003        -9.36542987E-23
  0.208000004        -1.38045483E-22
  0.216000006        -1.50420199E-22
  0.224000007        -1.26078262E-22
  0.231999993         3.77880119E-23
  0.239999995         2.54378940E-22
  0.247999996         2.81601937E-22
  0.256000012         7.28531663E-23
  0.263999999        -1.76065600E-22
  0.272000015        -2.99413128E-22
  0.280000001        -2.42505056E-22
  0.287999988         3.68532110E-24
  0.296000004         2.88598843E-22
  0.303999990         3.06849600E-22
  0.312000006         7.13479566E-24
  0.319999993        -2.38392907E-22
  0.328000009        -1.62172308E-22
  0.335999995         1.17275715E-23
  0.344000012         2.02938633E-23
  0.351999998         6.81144867E-24
  0.360000014         1.38951702E-22
  0.368000001         1.96570140E-22
  0.375999987        -1.34461830E-23
  0.384000003        -2.30166918E-22
  0.391999990        -1.64342496E-22
  0.400000006         1.27127956E-23
  0.407999992         3.05564420E-23
  0.416000009        -1.81288093E-23
  0.423999995         3.91286053E-23
  0.432000011         9.63071244E-23
  0.439999998         5.69233699E-23
  0.448000014         8.78858133E-23
  0.456000000         2.39654050E-22
  0.463999987         2.24556060E-22
  0.472000003        -1.10046033E-22
  0.479999989        -4.51093587E-22
  0.488000005        -4.57516303E-22
  0.495999992        -1.80662690E-22
  0.504000008         1.28665814E-22
  0.512000024         3.12860720E-22
  0.519999981         3.09531374E-22
  0.527999997         1.17602298E-22
  0.536000013        -1.11090068E-22
  0.544000030        -1.96555448E-22
  0.551999986        -1.21362666E-22
  0.560000002         6.54588701E-23
  0.568000019         2.97099557E-22
  0.575999975         3.48069615E-22
  0.583999991        -4.33576855E-23
  0.592000008        -6.43425903E-22
  0.600000024        -7.34682797E-22
  0.607999980        -5.27778964E-23
  0.615999997         7.08041815E-22
  0.624000013         7.49112918E-22
  0.632000029         1.69519342E-22
  0.639999986        -2.55488066E-22
  0.648000002        -1.29299742E-22
  0.656000018         2.36394779E-22
  0.663999975         3.88434024E-22
  0.671999991         1.99966950E-22
  0.680000007        -1.32030451E-22
  0.688000023        -4.05624528E-22
  0.695999980        -5.29767278E-22
  0.703999996        -4.67413844E-22
  0.712000012        -2.06324361E-22
  0.720000029         2.04662742E-22
  0.727999985         5.47979085E-22
  0.736000001         5.74376264E-22
  0.744000018         3.45159614E-22
  0.751999974         1.81968476E-22
  0.759999990         1.87547957E-22
  0.768000007         8.49908642E-23
  0.776000023        -3.14580589E-22
  0.783999979        -7.23388176E-22
  0.791999996        -7.67160238E-22
  0.800000012        -5.15490335E-22
  0.808000028        -3.20657973E-22
  0.815999985        -3.09511558E-22
  0.824000001        -2.78339157E-22
  0.832000017        -1.33656498E-23
  0.839999974         4.37877630E-22
  0.847999990         8.58151418E-22
  0.856000006         1.02192672E-21
  0.864000022         7.82270723E-22
  0.871999979         1.48780782E-22
  0.879999995        -6.23951060E-22
  0.888000011        -1.10112886E-21
  0.896000028        -9.81851573E-22
  0.903999984        -3.57474478E-22
  0.912000000         3.67591562E-22
  0.920000017         7.84483825E-22
  0.927999973         6.99906122E-22
  0.935999990         2.11935623E-22
  0.944000006        -2.83511864E-22
  0.952000022        -3.34329324E-22
  0.959999979         6.99753828E-23
  0.967999995         3.83197401E-22
  0.976000011         9.84533309E-23
  0.984000027        -6.75442599E-22
  0.991999984        -1.39670072E-21
   1.00000000        -1.60876814E-21
   1.00800002        -1.09452706E-21
   1.01600003         8.93465881E-23
   1.02400005         1.40637092E-21
   1.03199995         2.05327796E-21
   1.03999996         1.78313745E-21
   1.04799998         1.20469758E-21
   1.05599999         9.37514612E-22
   1.06400001         8.41295492E-22
   1.07200003         4.21816346E-22
   1.08000004        -4.20794790E-22
   1.08800006        -1.41960420E-21
   1.09599996        -2.33387455E-21
   1.10399997        -2.92943207E-21
   1.11199999        -2.87815757E-21
   1.12000000        -2.01015794E-21
   1.12800002        -5.13753679E-22
   1.13600004         1.20204398E-21
   1.14400005         2.65123220E-21
   1.15199995         3.38909993E-21
   1.15999997         3.31826613E-21
   1.16799998         2.76333133E-21
   1.17600000         1.98647525E-21
   1.18400002         9.05712082E-22
   1.19200003        -4.44236934E-22
   1.20000005        -1.64548893E-21
   1.20799994        -2.44345821E-21
   1.21599996        -3.01372714E-21
   1.22399998        -3.31192697E-21
   1.23199999        -2.81327559E-21
   1.24000001        -1.36501583E-21
   1.24800003         3.33441231E-22
   1.25600004         1.54543763E-21
   1.26400006         2.17921722E-21
   1.27199996         2.34446816E-21
   1.27999997         1.96703328E-21
   1.28799999         1.18296763E-21
   1.29600000         4.16399181E-22
   1.30400002        -2.01231159E-22
   1.31200004        -8.30561027E-22
   1.32000005        -1.27675802E-21
   1.32799995        -1.10239245E-21
   1.33599997        -4.31730472E-22
   1.34399998         1.22380738E-22
   1.35200000         3.23706207E-22
   1.36000001         4.00530102E-22
   1.36800003         4.33333942E-22
   1.37600005         3.65320425E-22
   1.38399994         3.48339241E-22
   1.39199996         3.70361309E-22
   1.39999998        -7.54645105E-23
   1.40799999        -1.21989117E-21
   1.41600001        -2.32815800E-21
   1.42400002        -2.47460329E-21
   1.43200004        -1.57947684E-21
   1.44000006        -1.11995416E-22
   1.44799995         1.58359457E-21
   1.45599997         3.04722857E-21
   1.46399999         3.51151620E-21
   1.47200000         2.73415524E-21
   1.48000002         1.50482985E-21
   1.48800004         6.78574617E-22
   1.49600005         1.42907101E-22
   1.50399995        -7.46093537E-22
   1.51199996        -2.12498458E-21
   1.51999998        -3.46307201E-21
   1.52800000        -4.10325043E-21
   1.53600001        -3.65748571E-21
   1.54400003        -2.16298057E-21
   1.55200005        -1.24146360E-22
   1.55999994         1.76475874E-21
   1.56799996         3.05169607E-21
   1.57599998         3.64030475E-21
   1.58399999         3.59958831E-21
   1.59200001         3.01503173E-21
   1.60000002         1.96299754E-21
   1.60800004         5.59901967E-22
   1.61600006        -9.04011272E-22
   1.62399995        -2.00273048E-21
   1.63199997        -2.53714106E-21
   1.63999999        -2.67177581E-21
   1.64800000        -2.50853689E-21
   1.65600002        -1.84232509E-21
   1.66400003        -6.19172153E-22
   1.67200005         7.46886538E-22
   1.67999995         1.83494025E-21
   1.68799996         2.55564276E-21
   1.69599998         2.74649389E-21
   1.70400000         2.04139895E-21
   1.71200001         5.51630716E-22
   1.72000003        -9.27156174E-22
   1.72800004        -1.80490244E-21
   1.73599994        -2.20558441E-21
   1.74399996        -2.27686815E-21
   1.75199997        -1.73169151E-21
   1.75999999        -5.06964174E-22
   1.76800001         8.11902257E-22
   1.77600002         1.69418343E-21
   1.78400004         2.22880726E-21
   1.79200006         2.60330379E-21
   1.79999995         2.55911708E-21
   1.80799997         1.75468777E-21
   1.81599998         2.85915100E-22
   1.82400000        -1.42873964E-21
   1.83200002        -2.96692419E-21
   1.84000003        -3.94405734E-21
   1.84800005        -4.03561711E-21
   1.85599995        -3.15737465E-21
   1.86399996        -1.53374018E-21
   1.87199998         4.36962803E-22
   1.88000000         2.35096706E-21
   1.88800001         3.89750258E-21
   1.89600003         4.82540213E-21
   1.90400004         4.83507626E-21
   1.91199994         3.71546065E-21
   1.91999996         1.72753440E-21
   1.92799997        -4.22889550E-22
   1.93599999        -2.22182570E-21
   1.94400001        -3.67935187E-21
   1.95200002        -4.83858936E-21
   1.96000004        -5.34385939E-21
   1.96800005        -4.76757663E-21
   1.97599995        -3.03957250E-21
   1.98399997        -4.29432299E-22
   1.99199998         2.47243558E-21
   2.00000000         4.72472157E-21
   2.00799990         5.58366624E-21
   2.01600003         5.18359557E-21
   2.02399993         4.15222776E-21
   2.03200006         2.65986247E-21
   2.03999996         5.41858888E-22
   2.04800010        -1.81631899E-21
   2.05599999        -3.61975084E-21
   2.06399989        -4.62544495E-21
   2.07200003        -5.08582629E-21
   2.07999992        -4.82075368E-21
   2.08800006        -3.30363759E-21
   2.09599996        -7.03432848E-22
   2.10400009         2.01360055E-21
   2.11199999         4.07838735E-21
   2.11999989         5.29691244E-21
   2.12800002         5.48241093E-21
   2.13599992         4.32332248E-21
   2.14400005         1.98610387E-21
   2.15199995        -7.17890687E-22
   2.16000009        -2.96816092E-21
   2.16799998        -4.43627060E-21
   2.17600012        -5.10781443E-21
   2.18400002        -4.89575650E-21
   2.19199991        -3.62892495E-21
   2.20000005        -1.40500525E-21
   2.20799994         1.19264238E-21
   2.21600008         3.43217148E-21
   2.22399998         4.94808820E-21
   2.23200011         5.66675629E-21
   2.24000001         5.35546980E-21
   2.24799991         3.76513228E-21
   2.25600004         1.21651025E-21
   2.26399994        -1.53175260E-21
   2.27200007        -3.99688017E-21
   2.27999997        -5.94811321E-21
   2.28800011        -6.81694083E-21
   2.29600000        -6.01629624E-21
   2.30399990        -3.84872639E-21
   2.31200004        -1.24792161E-21
   2.31999993         1.34955375E-21
   2.32800007         3.99511555E-21
   2.33599997         6.23736955E-21
   2.34400010         7.20050141E-21
   2.35200000         6.65717138E-21
   2.35999990         5.07203726E-21
   2.36800003         2.66457958E-21
   2.37599993        -5.68370016E-22
   2.38400006        -3.95398674E-21
   2.39199996        -6.29485739E-21
   2.40000010        -7.03914949E-21
   2.40799999        -6.54891533E-21
   2.41599989        -5.23130103E-21
   2.42400002        -3.14482740E-21
   2.43199992        -4.85533563E-22
   2.44000006         2.18664003E-21
   2.44799995         4.33456575E-21
   2.45600009         5.69622460E-21
   2.46399999         6.13823268E-21
   2.47199988         5.52973632E-21
   2.48000002         3.83581906E-21
   2.48799992         1.31041918E-21
   2.49600005        -1.40712197E-21
   2.50399995        -3.54874458E-21
   2.51200008        -4.69047516E-21
   2.51999998        -4.82427687E-21
   2.52800012        -4.00086583E-21
   2.53600001        -2.32524913E-21
   2.54399991        -3.38482392E-22
   2.55200005         1.19668882E-21
   2.55999994         2.06144455E-21
   2.56800008         2.58096951E-21
   2.57599998         2.81413569E-21
   2.58400011         2.43900040E-21
   2.59200001         1.48317806E-21
   2.59999990         3.84146660E-22
   2.60800004        -7.28294765E-22
   2.61599994        -1.98771239E-21
   2.62400007        -2.99132683E-21
   2.63199997        -2.93581283E-21
   2.64000010        -1.68394697E-21
   2.64800000         4.36237840E-23
   2.65599990         1.56029094E-21
   2.66400003         2.62144239E-21
   2.67199993         3.05554419E-21
   2.68000007         2.73815402E-21
   2.68799996         1.89858529E-21
   2.69600010         8.73926213E-22
   2.70400000        -3.15621633E-22
   2.71199989        -1.69120287E-21
   2.72000003        -2.89764115E-21
   2.72799993        -3.53206202E-21
   2.73600006        -3.59817831E-21
   2.74399996        -3.23719334E-21
   2.75200009        -2.34639717E-21
   2.75999999        -8.21865482E-22
   2.76799989         1.10173026E-21
   2.77600002         2.99833686E-21
   2.78399992         4.48617003E-21
   2.79200006         5.23542481E-21
   2.79999995         5.03687279E-21
   2.80800009         3.91801650E-21
   2.81599998         2.03016436E-21
   2.82399988        -3.99839994E-22
   2.83200002        -2.83265254E-21
   2.83999991        -4.52304984E-21
   2.84800005        -5.17139385E-21
   2.85599995        -5.09181568E-21
   2.86400008        -4.50021190E-21
   2.87199998        -3.16680746E-21
   2.88000011        -1.06655549E-21
   2.88800001         1.21358321E-21
   2.89599991         3.06644375E-21
   2.90400004         4.33441631E-21
   2.91199994         4.92253850E-21
   2.92000008         4.56583221E-21
   2.92799997         3.32566592E-21
   2.93600011         1.76663383E-21
   2.94400001         2.94336903E-22
   2.95199990        -1.21898150E-21
   2.96000004        -2.86682544E-21
   2.96799994        -4.19793030E-21
   2.97600007        -4.58352531E-21
   2.98399997        -3.84036048E-21
   2.99200010        -2.30040079E-21
   3.00000000        -4.66977989E-22
   3.00799990         1.25053492E-21
   3.01600003         2.59307915E-21
   3.02399993         3.39193205E-21
   3.03200006         3.53189481E-21
   3.03999996         3.00520250E-21
   3.04800010         1.94876381E-21
   3.05599999         5.52519339E-22
   3.06399989        -9.88608867E-22
   3.07200003        -2.37107324E-21
   3.07999992        -3.20016428E-21
   3.08800006        -3.23648369E-21
   3.09599996        -2.51983933E-21
   3.10400009        -1.25214586E-21
   3.11199999         2.44873507E-22
   3.11999989         1.52869530E-21
   3.12800002         2.32809236E-21
   3.13599992         2.78730200E-21
   3.14400005         3.07077353E-21
   3.15199995         2.86683231E-21
   3.16000009         1.76377081E-21
   3.16799998        -1.16028888E-23
   3.17600012        -1.75940609E-21
   3.18400002        -3.07878563E-21
   3.19199991        -3.92535652E-21
   3.20000005        -4.07783684E-21
   3.20799994        -3.23174821E-21
   3.21600008        -1.59674232E-21
   3.22399998         1.90045074E-22
   3.23200011         1.74835608E-21
   3.24000001         3.07099102E-21
   3.24799991         4.02322475E-21
   3.25600004         4.23737446E-21
   3.26399994         3.55024667E-21
   3.27200007         2.18502425E-21
   3.27999997         4.71733975E-22
   3.28800011        -1.34111958E-21
   3.29600000        -2.97414324E-21
   3.30399990        -4.03877033E-21
   3.31200004        -4.20313128E-21
   3.31999993        -3.44388974E-21
   3.32800007        -2.09681763E-21
   3.33599997        -5.89335642E-22
   3.34400010         8.62687179E-22
   3.35200000         2.20151919E-21
   3.35999990         3.26991605E-21
   3.36800003         3.82906146E-21
   3.37599993         3.76173268E-21
   3.38400006         3.01746723E-21
   3.39199996         1.51663959E-21
   3.40000010        -5.49017352E-22
   3.40799999        -2.51369101E-21
   3.41599989        -3.75505223E-21
   3.42400002        -4.23141254E-21
   3.43199992        -4.11805688E-21
   3.44000006        -3.25659008E-21
   3.44799995        -1.51034203E-21
   3.45600009         6.46996149E-22
   3.46399999         2.51807450E-21
   3.47199988         3.90111059E-21
   3.48000002         4.85174064E-21
   3.48799992         5.03285846E-21
   3.49600005         3.97295010E-21
   3.50399995         1.82684737E-21
   3.51200008        -6.50418114E-22
   3.51999998        -2.78825702E-21
   3.52800012        -4.30416283E-21
   3.53600001        -5.10719243E-21
   3.54399991        -5.14546327E-21
   3.55200005        -4.38179785E-21
   3.55999994        -2.79858203E-21
   3.56800008        -5.44595238E-22
   3.57599998         1.93063087E-21
   3.58400011         4.08267633E-21
   3.59200001         5.54509813E-21
   3.59999990         6.05819487E-21
   3.60800004         5.38487147E-21
   3.61599994         3.58529198E-21
   3.62400007         1.17349383E-21
   3.63199997        -1.25509633E-21
   3.64000010        -3.36212225E-21
   3.64800000        -4.93442679E-21
   3.65599990        -5.75125028E-21
   3.66400003        -5.69924130E-21
   3.67199993        -4.73319168E-21
   3.68000007        -2.76046952E-21
   3.68799996         2.05305863E-23
   3.69600010         2.78000318E-21
   3.70400000         4.58320179E-21
   3.71199989         5.20508328E-21
   3.72000003         4.99428753E-21
   3.72799993         4.16404578E-21
   3.73600006         2.75724966E-21
   3.74399996         1.05137221E-21
   3.75200009        -6.12107797E-22
   3.75999999        -2.20862474E-21
   3.76799989        -3.72030862E-21
   3.77600002        -4.68662562E-21
   3.78399992        -4.56375335E-21
   3.79200006        -3.34622326E-21
   3.79999995        -1.49321055E-21
   3.80800009         5.07721784E-22
   3.81599998         2.25049894E-21
   3.82399988         3.40496217E-21
   3.83200002         3.84706395E-21
   3.83999991         3.59731438E-21
   3.84800005         2.63865264E-21
   3.85599995         1.08450295E-21
   3.86400008        -6.11723186E-22
   3.87199998        -2.00131280E-21
   3.88000011        -3.02117278E-21
   3.88800001        -3.66855208E-21
   3.89599991        -3.60748773E-21
   3.90400004        -2.57264358E-21
   3.91199994        -8.97429976E-22
   3.92000008         7.96515406E-22
   3.92799997         2.19482945E-21
   3.93600011         3.25669206E-21
   3.94400001         3.89126157E-21
   3.95199990         3.95406429E-21
   3.96000004         3.33049370E-21
   3.96799994         1.93306232E-21
   3.97600007        -8.60441828E-23
   3.98399997        -2.17296369E-21
   3.99200010        -3.79555419E-21
   4.00000000        -4.89174500E-21
   4.00799990        -5.53447120E-21
   4.01599979        -5.49666121E-21
   4.02400017        -4.67642278E-21
   4.03200006        -3.60455746E-21
   4.03999996        -2.96737272E-21
   4.04799986        -2.96701810E-21
   4.05600023        -3.65389264E-21
   4.06400013        -5.45523877E-21
   4.07200003        -8.83671394E-21
   4.07999992        -1.38177387E-20
   4.08799982        -2.02040852E-20
   4.09600019        -2.77951717E-20
   4.10400009        -3.59804761E-20
   4.11199999        -4.36649840E-20
   4.11999989        -4.99824305E-20
   4.12799978        -5.46770004E-20
   4.13600016        -5.76300546E-20
   4.14400005        -5.85649044E-20
   4.15199995        -5.73724912E-20
   4.15999985        -5.41993844E-20
   4.16800022        -4.91260498E-20
   4.17600012        -4.22533615E-20
   4.18400002        -3.40959454E-20
   4.19199991        -2.53559486E-20
   4.19999981        -1.62944209E-20
   4.20800018        -6.75014519E-21
   4.21600008         3.29673197E-21
   4.22399998         1.35724490E-20
   4.23199987         2.38099949E-20
   4.23999977         3.38440043E-20
   4.24800014         4.34562404E-20
   4.25600004         5.23018417E-20
   4.26399994         5.98751778E-20
   4.27199984         6.55185142E-20
   4.28000021         6.86974145E-20
   4.28800011         6.93034600E-20
   4.29600000         6.75023259E-20
   4.30399990         6.34244935E-20
   4.31199980         5.72986330E-20
   4.32000017         4.97532369E-20
   4.32800007         4.16697210E-20
   4.33599997         3.38202810E-20
   4.34399986         2.68114197E-20
   4.35200024         2.11328038E-20
   4.36000013         1.70221201E-20
   4.36800003         1.44357089E-20
   4.37599993         1.32184569E-20
   4.38399982         1.30549013E-20
   4.39200020         1.32775340E-20
   4.40000010         1.31058238E-20
   4.40799999         1.21484309E-20
   4.41599989         1.04418725E-20
   4.42399979         8.13203280E-21
   4.43200016         5.43923032E-21
   4.44000006         2.75683385E-21
   4.44799995         4.21829977E-22
   4.45599985        -1.46601941E-21
   4.46400023        -2.74898048E-21
   4.47200012        -3.01643992E-21
   4.48000002        -2.02042944E-21
   4.48799992        -7.69467801E-23
   4.49599981         2.13336686E-21
   4.50400019         3.94183672E-21
   4.51200008         4.83050981E-21
   4.51999998         4.54376813E-21
   4.52799988         3.14710194E-21
   4.53599977         7.66521021E-22
   4.54400015        -2.59483731E-21
   4.55200005        -6.71808265E-21
   4.55999994        -1.09388513E-20
   4.56799984        -1.46257261E-20
   4.57600021        -1.75928311E-20
   4.58400011        -1.97389350E-20
   4.59200001        -2.07566241E-20
   4.59999990        -2.06298166E-20
   4.60799980        -1.99774635E-20
   4.61600018        -1.94978070E-20
   4.62400007        -1.94727590E-20
   4.63199997        -2.00369252E-20
   4.63999987        -2.13398429E-20
   4.64799976        -2.31346730E-20
   4.65600014        -2.47467882E-20
   4.66400003        -2.56904091E-20
   4.67199993        -2.58229421E-20
   4.67999983        -2.48176059E-20
   4.68800020        -2.20962140E-20
   4.69600010        -1.74032823E-20
   4.70400000        -1.09297030E-20
   4.71199989        -2.87695194E-21
   4.71999979         6.57189625E-21
   4.72800016         1.68888374E-20
   4.73600006         2.72941200E-20
   4.74399996         3.71694804E-20
   4.75199986         4.60530609E-20
   4.76000023         5.34349596E-20
   4.76800013         5.89373877E-20
   4.77600002         6.25613435E-20
   4.78399992         6.45407091E-20
   4.79199982         6.51128661E-20
   4.80000019         6.44782958E-20
   4.80800009         6.27300108E-20
   4.81599998         5.98363456E-20
   4.82399988         5.59119358E-20
   4.83199978         5.13027723E-20
   4.84000015         4.61313005E-20
   4.84800005         4.00984526E-20
   4.85599995         3.30782386E-20
   4.86399984         2.55176366E-20
   4.87200022         1.79493120E-20
   4.88000011         1.06234443E-20
   4.88800001         3.90821433E-21
   4.89599991        -1.57403595E-21
   4.90399981        -5.51022932E-21
   4.91200018        -7.95357262E-21
   4.92000008        -8.67618516E-21
   4.92799997        -7.33115071E-21
   4.93599987        -4.47745717E-21
   4.94399977        -1.52034353E-21
   4.95200014         6.50193395E-22
   4.96000004         2.13569916E-21
   4.96799994         3.03965227E-21
   4.97599983         2.99932196E-21
   4.98400021         1.93973672E-21
   4.99200010         3.91139779E-22
   5.00000000        -1.21056318E-21
   5.00799990        -2.82372218E-21
   5.01599979        -4.27000285E-21
   5.02400017        -5.07264189E-21
   5.03200006        -4.94113269E-21
   5.03999996        -3.94254556E-21
   5.04799986        -2.23654996E-21
   5.05600023        -6.60062071E-23
   5.06400013         2.09936380E-21
   5.07200003         3.73512961E-21
   5.07999992         4.44980276E-21
   5.08799982         3.89751712E-21
   5.09600019         1.86996113E-21
   5.10400009        -1.35990896E-21
   5.11199999        -5.11264342E-21
   5.11999989        -8.78876574E-21
   5.12799978        -1.20018963E-20
   5.13600016        -1.43798774E-20
   5.14400005        -1.56659138E-20
   5.15199995        -1.58927875E-20
   5.15999985        -1.50920428E-20
   5.16800022        -1.30524803E-20
   5.17600012        -9.70854453E-21
   5.18400002        -5.48003723E-21
   5.19199991        -9.61261420E-22
   5.19999981         3.32693214E-21
   5.20800018         6.69742656E-21
   5.21600008         8.44132968E-21
   5.22399998         8.56492129E-21
   5.23199987         7.84877433E-21
   5.23999977         6.88437140E-21
   5.24800014         5.53807194E-21
   5.25600004         3.51253483E-21
   5.26399994         8.55452782E-22
   5.27199984        -2.21135811E-21
   5.28000021        -5.35655306E-21
   5.28800011        -7.90472534E-21
   5.29600000        -9.12662620E-21
   5.30399990        -8.95519868E-21
   5.31199980        -8.02108639E-21
   5.32000017        -6.92281510E-21
   5.32800007        -5.77459996E-21
   5.33599997        -4.39446163E-21
   5.34399986        -2.60511971E-21
   5.35200024        -4.05939239E-22
   5.36000013         1.91142295E-21
   5.36800003         3.86212163E-21
   5.37599993         5.05077047E-21
   5.38399982         5.24904825E-21
   5.39200020         4.29921307E-21
   5.40000010         2.21794628E-21
   5.40799999        -6.99311182E-22
   5.41599989        -4.15910572E-21
   5.42399979        -8.09649311E-21
   5.43200016        -1.23408635E-20
   5.44000006        -1.63158403E-20
   5.44799995        -1.94382452E-20
   5.45599985        -2.16011787E-20
   5.46400023        -2.29762194E-20
   5.47200012        -2.35819483E-20
   5.48000002        -2.32614433E-20
   5.48799992        -2.17864736E-20
   5.49599981        -1.88352144E-20
   5.50400019        -1.42402729E-20
   5.51200008        -8.40022188E-21
   5.51999998        -2.11103722E-21
   5.52799988         4.05454008E-21
   5.53599977         9.89655283E-21
   5.54400015         1.52719772E-20
   5.55200005         2.00704260E-20
   5.55999994         2.43261459E-20
   5.56799984         2.78204492E-20
   5.57600021         2.96933768E-20
   5.58400011         2.89438542E-20
   5.59200001         2.52500646E-20
   5.59999990         1.89828306E-20
   5.60799980         1.06236624E-20
   5.61600018         4.93434591E-22
   5.62400007        -1.11982233E-20
   5.63199997        -2.43766847E-20
   5.63999987        -3.90007936E-20
   5.64799976        -5.47002325E-20
   5.65600014        -7.05904367E-20
   5.66400003        -8.54316079E-20
   5.67199993        -9.78309160E-20
   5.67999983        -1.06535603E-19
   5.68800020        -1.10923563E-19
   5.69600010        -1.11082718E-19
   5.70400000        -1.07139154E-19
   5.71199989        -9.88107954E-20
   5.71999979        -8.59695273E-20
   5.72800016        -6.92944773E-20
   5.73600006        -5.00145355E-20
   5.74399996        -2.94019087E-20
   5.75199986        -8.88256188E-21
   5.76000023         9.83032022E-21
   5.76800013         2.52283721E-20
   5.77600002         3.64465471E-20
   5.78399992         4.30609450E-20
   5.79199982         4.48810914E-20
   5.80000019         4.21770961E-20
   5.80800009         3.57707890E-20
   5.81599998         2.67792922E-20
   5.82399988         1.65668428E-20
   5.83199978         6.86634629E-21
   5.84000015        -5.60765245E-22
   5.84800005        -4.47604878E-21
   5.85599995        -4.14808136E-21
   5.86399984         9.72461781E-22
   5.87200022         1.11074346E-20
   5.88000011         2.58075149E-20
   5.88800001         4.41462965E-20
   5.89599991         6.51886048E-20
   5.90399981         8.80979083E-20
   5.91200018         1.12089267E-19
   5.92000008         1.36581504E-19
   5.92799997         1.61176091E-19
   5.93599987         1.85215523E-19
   5.94399977         2.07469344E-19
   5.95200014         2.26354382E-19
   5.96000004         2.40378402E-19
   5.96799994         2.48460577E-19
   5.97599983         2.50010403E-19
   5.98400021         2.44578075E-19
   5.99200010         2.31282233E-19
   6.00000000         2.08867551E-19
   6.00799990         1.76640077E-19
   6.01599979         1.35246253E-19
   6.02400017         8.65114146E-20
   6.03200006         3.29163632E-20
   6.03999996        -2.26401482E-20
   6.04799986        -7.71066942E-20
   6.05600023        -1.27788613E-19
   6.06400013        -1.72613944E-19
   6.07200003        -2.10029882E-19
   6.07999992        -2.38989850E-19
   6.08799982        -2.58999220E-19
   6.09600019        -2.69880961E-19
   6.10400009        -2.71686671E-19
   6.11199999        -2.65207779E-19
   6.11999989        -2.52285873E-19
   6.12799978        -2.35045801E-19
   6.13600016        -2.14811412E-19
   6.14400005        -1.91933290E-19
   6.15199995        -1.66309935E-19
   6.15999985        -1.37750607E-19
   6.16800022        -1.06216582E-19
   6.17600012        -7.21601476E-20
   6.18400002        -3.65369683E-20
   6.19199991        -4.75038305E-22
   6.19999981         3.46710460E-20
   6.20800018         6.69241654E-20
   6.21600008         9.38954168E-20
   6.22399998         1.13567827E-19
   6.23199987         1.24583637E-19