 -0.239999995         0.00000000    
 -0.231999993         0.00000000    
 -0.224000007         9.57787185E-24
 -0.216000006         8.07242942E-23
 -0.208000004         2.16017429E-22
 -0.200000003         2.90828429E-22
 -0.192000002         2.24037103E-22
 -0.184000000         1.43686457E-22
 -0.175999999         2.09656345E-22
 -0.167999998         4.09635652E-22
 -0.159999996         7.28474146E-22
 -0.151999995         1.28495531E-21
 -0.143999994         1.99023715E-21
 -0.136000007         2.35054781E-21
 -0.128000006         2.09661992E-21
 -0.119999997         1.81975817E-21
 -0.112000003         2.38777902E-21
 -0.104000002         3.77370862E-21
  -9.60000008E-02     5.07542999E-21
  -8.79999995E-02     5.75985086E-21
  -7.99999982E-02     6.24264646E-21
  -7.19999969E-02     7.00607358E-21
  -6.40000030E-02     7.76860970E-21
  -5.60000017E-02     7.98291410E-21
  -4.80000004E-02     7.69981316E-21
  -3.99999991E-02     7.35528031E-21
  -3.20000015E-02     6.95455816E-21
  -2.40000002E-02     6.10692664E-21
  -1.60000008E-02     4.80543751E-21
  -8.00000038E-03     3.49952248E-21
   0.00000000         2.25701420E-21
   8.00000038E-03     5.38438538E-22
   1.60000008E-02    -1.83214366E-21
   2.40000002E-02    -4.12732874E-21
   3.20000015E-02    -5.75166872E-21
   3.99999991E-02    -7.22527482E-21
   4.80000004E-02    -9.24259386E-21
   5.60000017E-02    -1.11975682E-20
   6.40000030E-02    -1.18839100E-20
   7.19999969E-02    -1.15647225E-20
   7.99999982E-02    -1.19064749E-20
   8.79999995E-02    -1.35061453E-20
   9.60000008E-02    -1.49693874E-20
  0.104000002        -1.52444217E-20
  0.112000003        -1.54392841E-20
  0.119999997        -1.70344971E-20
  0.128000006        -1.94367524E-20
  0.136000007        -2.09793505E-20
  0.143999994        -2.15616841E-20
  0.151999995        -2.22767591E-20
  0.159999996        -2.26507513E-20
  0.167999998        -2.03902121E-20
  0.175999999        -1.44013954E-20
  0.184000000        -6.23572811E-21
  0.192000002         2.32760688E-21
  0.200000003         1.15319091E-20
  0.208000004         2.21842182E-20
  0.216000006         3.31730542E-20
  0.224000007         4.20731848E-20
  0.231999993         4.76782123E-20
  0.239999995         5.02905327E-20
  0.247999996         4.97366933E-20
  0.256000012         4.47032120E-20
  0.263999999         3.46147007E-20
  0.272000015         2.09239827E-20
  0.280000001         5.84428346E-21
  0.287999988        -9.37806730E-21
  0.296000004        -2.41466832E-20
  0.303999990        -3.71481514E-20
  0.312000006        -4.63968772E-20
  0.319999993        -5.05463641E-20
  0.328000009        -4.94986171E-20
  0.335999995        -4.37188767E-20
  0.344000012        -3.36589873E-20
  0.351999998        -2.00799677E-20
  0.360000014        -4.45385384E-21
  0.368000001         1.12886073E-20
  0.375999987         2.52523200E-20
  0.384000003         3.58844876E-20
  0.391999990         4.22014236E-20
  0.400000006         4.39547040E-20
  0.407999992         4.13621746E-20
  0.416000009         3.47889547E-20
  0.423999995         2.48480290E-20
  0.432000011         1.27555564E-20
  0.439999998         1.10211492E-22
  0.448000014        -1.18028083E-20
  0.456000000        -2.21002643E-20
  0.463999987        -2.97816557E-20
  0.472000003        -3.36867915E-20
  0.479999989        -3.33356307E-20
  0.488000005        -2.93720397E-20
  0.495999992        -2.28473877E-20
  0.504000008        -1.43689738E-20
  0.512000024        -4.34998694E-21
  0.519999981         6.15137063E-21
  0.527999997         1.54917019E-20
  0.536000013         2.23655210E-20
  0.544000030         2.63191213E-20
  0.551999986         2.73180889E-20
  0.560000002         2.53130047E-20
  0.568000019         2.05198064E-20
  0.575999975         1.37765929E-20
  0.583999991         6.15900307E-21
  0.592000008        -1.69020343E-21
  0.600000024        -9.49030537E-21
  0.607999980        -1.66491731E-20
  0.615999997        -2.21176205E-20
  0.624000013        -2.50815330E-20
  0.632000029        -2.54539436E-20
  0.639999986        -2.35260425E-20
  0.648000002        -1.95077413E-20
  0.656000018        -1.36946100E-20
  0.663999975        -6.73930056E-21
  0.671999991         6.46119087E-22
  0.680000007         8.03342867E-21
  0.688000023         1.49647539E-20
  0.695999980         2.05603028E-20
  0.703999996         2.39167917E-20
  0.712000012         2.47695567E-20
  0.720000029         2.33440046E-20
  0.727999985         1.97525108E-20
  0.736000001         1.40940251E-20
  0.744000018         7.04455121E-21
  0.751999974        -2.95365755E-22
  0.759999990        -7.21430822E-21
  0.768000007        -1.34887664E-20
  0.776000023        -1.85822183E-20
  0.783999979        -2.14139386E-20
  0.791999996        -2.12967633E-20
  0.800000012        -1.86283610E-20
  0.808000028        -1.42497095E-20
  0.815999985        -8.52061705E-21
  0.824000001        -1.55309208E-21
  0.832000017         5.91187801E-21
  0.839999974         1.25335489E-20
  0.847999990         1.73385070E-20
  0.856000006         2.01408091E-20
  0.864000022         2.08705278E-20
  0.871999979         1.90625856E-20
  0.879999995         1.44534658E-20
  0.888000011         7.73553217E-21
  0.896000028         1.90968382E-22
  0.903999984        -7.27506884E-21
  0.912000000        -1.42254951E-20
  0.920000017        -1.99517563E-20
  0.927999973        -2.33596677E-20
  0.935999990        -2.38170178E-20
  0.944000006        -2.15973934E-20
  0.952000022        -1.72453781E-20
  0.959999979        -1.10139672E-20
  0.967999995        -3.29084780E-21
  0.976000011         4.88113342E-21
  0.984000027         1.22113120E-20
  0.991999984         1.78720966E-20
   1.00000000         2.14849113E-20
   1.00800002         2.27166560E-20
   1.01600003         2.13375294E-20
   1.02400005         1.75227970E-20
   1.03199995         1.17798371E-20
   1.03999996         4.75252865E-21
   1.04799998        -2.65623931E-21
   1.05599999        -9.27888237E-21
   1.06400001        -1.41873576E-20
   1.07200003        -1.70434555E-20
   1.08000004        -1.77327652E-20
   1.08800006        -1.60450178E-20
   1.09599996        -1.21269250E-20
   1.10399997        -6.86574610E-21
   1.11199999        -1.25041204E-21
   1.12000000         4.38971463E-21
   1.12800002         9.91731474E-21
   1.13600004         1.44210926E-20
   1.14400005         1.65579474E-20
   1.15199995         1.59072535E-20
   1.15999997         1.32440623E-20
   1.16799998         9.32525941E-21
   1.17600000         4.20605751E-21
   1.18400002        -1.88195585E-21
   1.19200003        -7.77455183E-21
   1.20000005        -1.22132604E-20
   1.20799994        -1.49724586E-20
   1.21599996        -1.64259054E-20
   1.22399998        -1.63489211E-20
   1.23199999        -1.40371774E-20
   1.24000001        -9.55943392E-21
   1.24800003        -4.02476844E-21
   1.25600004         1.56841684E-21
   1.26400006         6.98914869E-21
   1.27199996         1.19946835E-20
   1.27999997         1.56580734E-20
   1.28799999         1.70484558E-20
   1.29600000         1.61206322E-20
   1.30400002         1.33995763E-20
   1.31200004         9.17426906E-21
   1.32000005         3.60569887E-21
   1.32799995        -2.64445522E-21
   1.33599997        -8.53634156E-21
   1.34399998        -1.33356168E-20
   1.35200000        -1.67018622E-20
   1.36000001        -1.82535804E-20
   1.36800003        -1.76206305E-20
   1.37600005        -1.49021757E-20
   1.38399994        -1.05653712E-20
   1.39199996        -4.93284150E-21
   1.39999998         1.69306241E-21
   1.40799999         8.43394241E-21
   1.41600001         1.40573545E-20
   1.42400002         1.79302658E-20
   1.43200004         2.01556757E-20
   1.44000006         2.06391224E-20
   1.44799995         1.88018412E-20
   1.45599997         1.45946713E-20
   1.46399999         9.05484324E-21
   1.47200000         3.25932002E-21
   1.48000002        -2.66928538E-21
   1.48800004        -8.82196444E-21
   1.49600005        -1.43326796E-20
   1.50399995        -1.78855012E-20
   1.51199996        -1.91268537E-20
   1.51999998        -1.86474056E-20
   1.52800000        -1.66970090E-20
   1.53600001        -1.29389667E-20
   1.54400003        -7.59976146E-21
   1.55200005        -1.85646875E-21
   1.55999994         3.33181323E-21
   1.56799996         7.98916239E-21
   1.57599998         1.22419516E-20
   1.58399999         1.53994163E-20
   1.59200001         1.65780194E-20
   1.60000002         1.57553738E-20
   1.60800004         1.35121843E-20
   1.61600006         1.00640311E-20
   1.62399995         5.28843546E-21
   1.63199997        -4.27758753E-22
   1.63999999        -6.09159916E-21
   1.64800000        -1.09299712E-20
   1.65600002        -1.47463960E-20
   1.66400003        -1.73641900E-20
   1.67200005        -1.82872169E-20
   1.67999995        -1.71819437E-20
   1.68799996        -1.42636569E-20
   1.69599998        -9.92744124E-21
   1.70400000        -4.36649218E-21
   1.71200001         2.11237271E-21
   1.72000003         8.72552681E-21
   1.72800004         1.45664890E-20
   1.73599994         1.91057460E-20
   1.74399996         2.20069819E-20
   1.75199997         2.27526933E-20
   1.75999999         2.09691368E-20
   1.76800001         1.69648394E-20
   1.77600002         1.14435187E-20
   1.78400004         4.81479338E-21
   1.79200006        -2.65828545E-21
   1.79999995        -1.01376380E-20
   1.80799997        -1.63382808E-20
   1.81599998        -2.04898470E-20
   1.82400000        -2.25907452E-20
   1.83200002        -2.26252202E-20
   1.84000003        -2.02218405E-20
   1.84800005        -1.53851927E-20
   1.85599995        -8.96255606E-21
   1.86399996        -1.98127851E-21
   1.87199998         5.00667302E-21
   1.88000000         1.15434460E-20
   1.88800001         1.67263545E-20
   1.89600003         1.96310800E-20
   1.90400004         2.00595434E-20
   1.91199994         1.84091905E-20
   1.91999996         1.49679786E-20
   1.92799997         9.82098778E-21
   1.93599999         3.41543683E-21
   1.94400001        -3.25304003E-21
   1.95200002        -9.17628531E-21
   1.96000004        -1.38031661E-20
   1.96800005        -1.68698575E-20
   1.97599995        -1.80659655E-20
   1.98399997        -1.71730805E-20
   1.99199998        -1.44410710E-20
   2.00000000        -1.05073530E-20
   2.00799990        -5.89007122E-21
   2.01600003        -8.17192750E-22
   2.02399993         4.36169510E-21
   2.03200006         8.93827136E-21
   2.03999996         1.22705790E-20
   2.04800010         1.42073585E-20
   2.05599999         1.48308459E-20
   2.06399989         1.40582399E-20
   2.07200003         1.18834576E-20
   2.07999992         8.78438184E-21
   2.08800006         5.41221973E-21
   2.09599996         1.98867790E-21
   2.10400009        -1.53675668E-21
   2.11199999        -4.85499645E-21
   2.11999989        -7.36312964E-21
   2.12800002        -8.84879288E-21
   2.13599992        -9.58377678E-21
   2.14400005        -9.69239270E-21
   2.15199995        -8.95741526E-21
   2.16000009        -7.37603253E-21
   2.16799998        -5.38926142E-21
   2.17600012        -3.32857317E-21
   2.18400002        -1.06350456E-21
   2.19199991         1.52394942E-21
   2.20000005         4.07602698E-21
   2.20799994         6.08898837E-21
   2.21600008         7.43224204E-21
   2.22399998         8.20594348E-21
   2.23200011         8.30103371E-21
   2.24000001         7.49314563E-21
   2.24799991         5.87147097E-21
   2.25600004         3.78228577E-21
   2.26399994         1.35702675E-21
   2.27200007        -1.50307613E-21
   2.27999997        -4.59422171E-21
   2.28800011        -7.27897452E-21
   2.29600000        -9.08999115E-21
   2.30399990        -1.00960253E-20
   2.31200004        -1.04040726E-20
   2.31999993        -9.70647739E-21
   2.32800007        -7.75185849E-21
   2.33599997        -4.93060270E-21
   2.34400010        -1.85273230E-21
   2.35200000         1.38581298E-21
   2.35999990         4.89042103E-21
   2.36800003         8.13484877E-21
   2.37599993         1.02137855E-20
   2.38400006         1.09008664E-20
   2.39199996         1.06969074E-20
   2.40000010         9.78766387E-21
   2.40799999         7.78759770E-21
   2.41599989         4.70965743E-21
   2.42400002         1.35627934E-21
   2.43199992        -1.61055710E-21
   2.44000006        -4.24757648E-21
   2.44799995        -6.57015303E-21
   2.45600009        -7.95724323E-21
   2.46399999        -7.89647535E-21
   2.47199988        -6.75768190E-21
   2.48000002        -5.21247863E-21
   2.48799992        -3.34102975E-21
   2.49600005        -9.42085612E-22
   2.50399995         1.64492115E-21
   2.51200008         3.71626481E-21
   2.51999998         5.00532886E-21
   2.52800012         5.69218199E-21
   2.53600001         5.74484125E-21
   2.54399991         4.87933285E-21
   2.55200005         3.18126939E-21
   2.55999994         1.20219645E-21
   2.56800008        -6.79830837E-22
   2.57599998        -2.52919136E-21
   2.58400011        -4.34913472E-21
   2.59200001        -5.77359022E-21
   2.59999990        -6.49292716E-21
   2.60800004        -6.59530853E-21
   2.61599994        -6.18936641E-21
   2.62400007        -5.05722676E-21
   2.63199997        -3.08606243E-21
   2.64000010        -7.63147776E-22
   2.64800000         1.23919623E-21
   2.65599990         2.80060555E-21
   2.66400003         4.18333226E-21
   2.67199993         5.28148278E-21
   2.68000007         5.65248782E-21
   2.68799996         5.27756498E-21
   2.69600010         4.63006189E-21
   2.70400000         3.86776609E-21
   2.71199989         2.62464489E-21
   2.72000003         8.48409427E-22
   2.72799993        -8.12930730E-22
   2.73600006        -1.83935019E-21
   2.74399996        -2.46777643E-21
   2.75200009        -3.04483245E-21
   2.75999999        -3.29649266E-21
   2.76799989        -2.80669511E-21
   2.77600002        -1.78441760E-21
   2.78399992        -7.41624116E-22
   2.79200006         2.66902694E-22
   2.79999995         1.46101240E-21
   2.80800009         2.63712874E-21
   2.81599998         3.28876833E-21
   2.82399988         3.30822667E-21
   2.83200002         3.00068491E-21
   2.83999991         2.47125014E-21
   2.84800005         1.54184043E-21
   2.85599995         2.60843030E-22
   2.86400008        -1.01734471E-21
   2.87199998        -2.11080862E-21
   2.88000011        -3.11703586E-21
   2.88800001        -3.97856992E-21
   2.89599991        -4.38546806E-21
   2.90400004        -4.24398584E-21
   2.91199994        -3.85202179E-21
   2.92000008        -3.42619098E-21
   2.92799997        -2.79312438E-21
   2.93600011        -1.76955117E-21
   2.94400001        -5.48802631E-22
   2.95199990         5.71050528E-22
   2.96000004         1.60898282E-21
   2.96799994         2.71246639E-21
   2.97600007         3.70144462E-21
   2.98399997         4.18915201E-21
   2.99200010         4.12947303E-21
   3.00000000         3.85801117E-21
   3.00799990         3.52344004E-21
   3.01600003         2.86574058E-21
   3.02399993         1.73069711E-21
   3.03200006         4.45958090E-22
   3.03999996        -5.91443327E-22
   3.04800010        -1.40483591E-21
   3.05599999        -2.17169141E-21
   3.06399989        -2.71119937E-21
   3.07200003        -2.66440611E-21
   3.07999992        -2.05184615E-21
   3.08800006        -1.20986989E-21
   3.09599996        -2.27203275E-22
   3.10400009         1.10080665E-21
   3.11199999         2.72091470E-21
   3.11999989         4.16965066E-21
   3.12800002         5.09982737E-21
   3.13599992         5.58361494E-21
   3.14400005         5.73008569E-21
   3.15199995         5.35501219E-21
   3.16000009         4.27327765E-21
   3.16799998         2.66069450E-21
   3.17600012         8.66355268E-22
   3.18400002        -9.61168019E-22
   3.19199991        -2.82379933E-21
   3.20000005        -4.58190528E-21
   3.20799994        -5.95964567E-21
   3.21600008        -6.79977360E-21
   3.22399998        -7.11735441E-21
   3.23200011        -6.91764926E-21
   3.24000001        -6.14375758E-21
   3.24799991        -4.84539744E-21
   3.25600004        -3.25705456E-21
   3.26399994        -1.62643853E-21
   3.27200007        -4.56772742E-23
   3.27999997         1.47483920E-21
   3.28800011         2.83956483E-21
   3.29600000         3.88349504E-21
   3.30399990         4.51733672E-21
   3.31200004         4.73068874E-21
   3.31999993         4.46429336E-21
   3.32800007         3.63542244E-21
   3.33599997         2.33653522E-21
   3.34400010         8.53890004E-22
   3.35200000        -5.92585395E-22
   3.35999990        -1.99153022E-21
   3.36800003        -3.32862022E-21
   3.37599993        -4.40086541E-21
   3.38400006        -4.99738259E-21
   3.39199996        -5.12122017E-21
   3.40000010        -4.84355285E-21
   3.40799999        -4.07570629E-21
   3.41599989        -2.73192149E-21
   3.42400002        -1.03164508E-21
   3.43199992         6.42578881E-22
   3.44000006         2.16496370E-21
   3.44799995         3.65526104E-21
   3.45600009         5.04099375E-21
   3.46399999         5.95329197E-21
   3.47199988         6.15762578E-21
   3.48000002         5.78904977E-21
   3.48799992         5.00694969E-21
   3.49600005         3.71493518E-21
   3.50399995         1.86806665E-21
   3.51200008        -1.89815004E-22
   3.51999998        -2.01501359E-21
   3.52800012        -3.53356452E-21
   3.53600001        -4.89519832E-21
   3.54399991        -5.98367592E-21
   3.55200005        -6.45430574E-21
   3.55999994        -6.22264832E-21
   3.56800008        -5.52528942E-21
   3.57599998        -4.46898664E-21
   3.58400011        -2.91995604E-21
   3.59200001        -9.38267374E-22
   3.59999990         1.06645715E-21
   3.60800004         2.77287077E-21
   3.61599994         4.18684172E-21
   3.62400007         5.26566457E-21
   3.63199997         5.68844676E-21
   3.64000010         5.26712021E-21
   3.64800000         4.25318500E-21
   3.65599990         2.94324716E-21
   3.66400003         1.30955808E-21
   3.67199993        -6.32199844E-22
   3.68000007        -2.41926277E-21
   3.68799996        -3.56276706E-21
   3.69600010        -4.13702549E-21
   3.70400000        -4.47208615E-21
   3.71199989        -4.46020431E-21
   3.72000003        -3.72330190E-21
   3.72799993        -2.35667594E-21
   3.73600006        -8.90501531E-22
   3.74399996         4.99415949E-22
   3.75200009         2.10843532E-21
