 -0.239999995         0.00000000    
 -0.231999993         0.00000000    
 -0.224000007         0.00000000    
 -0.216000006         0.00000000    
 -0.208000004         2.20286758E-26
 -0.200000003         1.26869282E-25
 -0.192000002         1.92674124E-25
 -0.184000000        -2.49652043E-25
 -0.175999999        -1.26316451E-24
 -0.167999998        -1.69834239E-24
 -0.159999996        -4.41416339E-25
 -0.151999995         1.79096275E-24
 -0.143999994         3.64204655E-24
 -0.136000007         4.55254626E-24
 -0.128000006         1.88073709E-24
 -0.119999997        -9.05811349E-24
 -0.112000003        -2.37330712E-23
 -0.104000002        -2.22224894E-23
  -9.60000008E-02     8.86160981E-24
  -8.79999995E-02     4.70893036E-23
  -7.99999982E-02     4.81773668E-23
  -7.19999969E-02    -1.80491548E-25
  -6.40000030E-02    -5.67058399E-23
  -5.60000017E-02    -7.29520390E-23
  -4.80000004E-02    -4.46553301E-23
  -3.99999991E-02    -4.28604252E-25
  -3.20000015E-02     4.09080483E-23
  -2.40000002E-02     7.37110936E-23
  -1.60000008E-02     7.93066228E-23
  -8.00000038E-03     3.53579228E-23
   0.00000000        -4.17869719E-23
   8.00000038E-03    -9.62420276E-23
   1.60000008E-02    -9.11462322E-23
   2.40000002E-02    -4.60028402E-23
   3.20000015E-02     3.26321262E-25
   3.99999991E-02     3.78740798E-23
   4.80000004E-02     7.12632771E-23
   5.60000017E-02     8.52147871E-23
   6.40000030E-02     6.75402386E-23
   7.19999969E-02     4.59139703E-23
   7.99999982E-02     4.38589435E-23
   8.79999995E-02     1.51456734E-23
   9.60000008E-02    -9.46635548E-23
  0.104000002        -2.15871698E-22
  0.112000003        -1.92120258E-22
  0.119999997         2.52577485E-24
  0.128000006         1.90878414E-22
  0.136000007         2.15510463E-22
  0.143999994         1.33274453E-22
  0.151999995         8.45411251E-23
  0.159999996         7.15922069E-23
  0.167999998         1.17757811E-23
  0.175999999        -7.15543037E-23
  0.184000000        -8.78140017E-23
  0.192000002        -5.67848207E-23
  0.200000003        -5.85064055E-23
  0.208000004        -4.13496495E-23
  0.216000006         1.04680782E-22
  0.224000007         2.88790037E-22
  0.231999993         2.76245155E-22
  0.239999995         5.16017331E-23
  0.247999996        -1.15083951E-22
  0.256000012        -6.10063688E-23
  0.263999999         3.47575460E-23
  0.272000015        -5.17551918E-23
  0.280000001        -2.53608734E-22
  0.287999988        -3.45460542E-22
  0.296000004        -2.61799710E-22
  0.303999990        -9.74838461E-23
  0.312000006         9.09778388E-23
  0.319999993         2.91157781E-22
  0.328000009         4.06902609E-22
  0.335999995         3.16439776E-22
  0.344000012         5.46845700E-23
  0.351999998        -1.98983411E-22
  0.360000014        -3.31622509E-22
  0.368000001        -3.99776481E-22
  0.375999987        -5.22654807E-22
  0.384000003        -7.40240669E-22
  0.391999990        -9.92716800E-22
  0.400000006        -1.18530357E-21
  0.407999992        -1.24533202E-21
  0.416000009        -1.11839868E-21
  0.423999995        -7.53535739E-22
  0.432000011        -1.64784233E-22
  0.439999998         4.74381518E-22
  0.448000014         9.08237244E-22
  0.456000000         1.05688833E-21
  0.463999987         1.11178759E-21
  0.472000003         1.27040412E-21
  0.479999989         1.48418659E-21
  0.488000005         1.62921653E-21
  0.495999992         1.78890147E-21
  0.504000008         2.13157961E-21
  0.512000024         2.53883015E-21
  0.519999981         2.64938680E-21
  0.527999997         2.32250607E-21
  0.536000013         1.81004041E-21
  0.544000030         1.34631400E-21
  0.551999986         7.95307502E-22
  0.560000002        -1.38998112E-22
  0.568000019        -1.47190499E-21
  0.575999975        -2.91678566E-21
  0.583999991        -4.21064255E-21
  0.592000008        -5.29580819E-21
  0.600000024        -6.13823268E-21
  0.607999980        -6.54043350E-21
  0.615999997        -6.24370345E-21
  0.624000013        -5.19943761E-21
  0.632000029        -3.56251584E-21
  0.639999986        -1.48404290E-21
  0.648000002         9.44391257E-22
  0.656000018         3.45680676E-21
  0.663999975         5.51931861E-21
  0.671999991         6.69857363E-21
  0.680000007         7.01870101E-21
  0.688000023         6.74017500E-21
  0.695999980         5.91634309E-21
  0.703999996         4.42356158E-21
  0.712000012         2.39284530E-21
  0.720000029         2.97411618E-22
  0.727999985        -1.44725598E-21
  0.736000001        -2.70713515E-21
  0.744000018        -3.43953169E-21
  0.751999974        -3.57107724E-21
  0.759999990        -3.14141366E-21
  0.768000007        -2.39310359E-21
  0.776000023        -1.57246610E-21
  0.783999979        -7.56712589E-22
  0.791999996         7.82976066E-23
  0.800000012         9.06411732E-22
  0.808000028         1.57966465E-21
  0.815999985         1.83285109E-21
  0.824000001         1.45234589E-21
  0.832000017         5.40764176E-22
  0.839999974        -4.90994146E-22
  0.847999990        -1.29074608E-21
  0.856000006        -1.81380917E-21
  0.864000022        -2.10677510E-21
  0.871999979        -2.06275762E-21
  0.879999995        -1.60668192E-21
  0.888000011        -9.34762863E-22
  0.896000028        -3.06743476E-22
  0.903999984         2.80617918E-22
  0.912000000         9.54005414E-22
  0.920000017         1.61913274E-21
  0.927999973         2.03040407E-21
  0.935999990         2.12890965E-21
  0.944000006         2.02621526E-21
  0.952000022         1.71745919E-21
  0.959999979         1.11135522E-21
  0.967999995         3.25382934E-22
  0.976000011        -3.58764675E-22
  0.984000027        -8.73800197E-22
  0.991999984        -1.41283458E-21
   1.00000000        -2.02228252E-21
   1.00800002        -2.43865244E-21
   1.01600003        -2.47816647E-21
   1.02400005        -2.32221970E-21
   1.03199995        -2.19696040E-21
   1.03999996        -1.98706009E-21
   1.04799998        -1.44094368E-21
   1.05599999        -5.92365574E-22
   1.06400001         3.67146240E-22
   1.07200003         1.52671985E-21
   1.08000004         3.12786010E-21
   1.08800006         4.96664887E-21
   1.09599996         6.37050160E-21
   1.10399997         6.92802537E-21
   1.11199999         6.82557938E-21
   1.12000000         6.24090930E-21
   1.12800002         4.86098584E-21
   1.13600004         2.39783544E-21
   1.14400005        -7.75293103E-22
   1.15199995        -3.98665230E-21
   1.15999997        -6.99502135E-21
   1.16799998        -9.82390957E-21
   1.17600000        -1.20498284E-20
   1.18400002        -1.28902051E-20
   1.19200003        -1.20229038E-20
   1.20000005        -9.79398001E-21
   1.20799994        -6.55349996E-21
   1.21599996        -2.31919532E-21
   1.22399998         2.71670710E-21
   1.23199999         7.80709622E-21
   1.24000001         1.20617320E-20
   1.24800003         1.49678445E-20
   1.25600004         1.63053503E-20
   1.26400006         1.58507225E-20
   1.27199996         1.34731784E-20
   1.27999997         9.40564618E-21
   1.28799999         4.19764353E-21
   1.29600000        -1.54446121E-21
   1.30400002        -7.24292188E-21
   1.31200004        -1.22571817E-20
   1.32000005        -1.58832830E-20
   1.32799995        -1.75288829E-20
   1.33599997        -1.69371757E-20
   1.34399998        -1.42875094E-20
   1.35200000        -1.00643404E-20
   1.36000001        -4.79976276E-21
   1.36800003         1.01163987E-21
   1.37600005         6.75508121E-21
   1.38399994         1.16536880E-20
   1.39199996         1.50553124E-20
   1.39999998         1.66732567E-20
   1.40799999         1.64347524E-20
   1.41600001         1.42621221E-20
   1.42400002         1.02499706E-20
   1.43200004         4.96245319E-21
   1.44000006        -7.31277947E-22
   1.44799995        -6.12262691E-21
   1.45599997        -1.07654132E-20
   1.46399999        -1.41789905E-20
   1.47200000        -1.57960542E-20
   1.48000002        -1.53378753E-20
   1.48800004        -1.30427973E-20
   1.49600005        -9.39780573E-21
   1.50399995        -4.81359057E-21
   1.51199996         3.25361957E-22
   1.51999998         5.45423711E-21
   1.52800000         9.88356513E-21
   1.53600001         1.30568739E-20
   1.54400003         1.46733036E-20
   1.55200005         1.46031031E-20
   1.55999994         1.28242584E-20
   1.56799996         9.49289354E-21
   1.57599998         5.02800604E-21
   1.58399999         5.24889524E-23
   1.59200001        -4.79567250E-21
   1.60000002        -9.01360296E-21
   1.60800004        -1.22226752E-20
   1.61600006        -1.40837241E-20
   1.62399995        -1.43296633E-20
   1.63199997        -1.29230613E-20
   1.63999999        -1.01318712E-20
   1.64800000        -6.38791440E-21
   1.65600002        -2.09087974E-21
   1.66400003         2.40259839E-21
   1.67200005         6.64822062E-21
   1.67999995         1.01043747E-20
   1.68799996         1.23474098E-20
   1.69599998         1.32583085E-20
   1.70400000         1.29123015E-20
   1.71200001         1.13408053E-20
   1.72000003         8.55878691E-21
   1.72800004         4.84487803E-21
   1.73599994         7.76348031E-22
   1.74399996        -3.13492405E-21
   1.75199997        -6.66580064E-21
   1.75999999        -9.60281001E-21
   1.76800001        -1.14844084E-20
   1.77600002        -1.19159931E-20
   1.78400004        -1.09950374E-20
   1.79200006        -9.10537639E-21
   1.79999995        -6.42111916E-21
   1.80799997        -2.98453005E-21
   1.81599998         8.13646890E-22
   1.82400000         4.28694955E-21
   1.83200002         7.02689526E-21
   1.84000003         9.03094386E-21
   1.84800005         1.02184553E-20
   1.85599995         1.02626206E-20
   1.86399996         9.05475439E-21
   1.87199998         6.95032613E-21
   1.88000000         4.35185334E-21
   1.88800001         1.36353575E-21
   1.89600003        -1.92942261E-21
   1.90400004        -5.12246135E-21
   1.91199994        -7.69574107E-21
   1.91999996        -9.39716112E-21
   1.92799997        -1.02225727E-20
   1.93599999        -1.01546558E-20
   1.94400001        -9.12420121E-21
   1.95200002        -7.17973869E-21
   1.96000004        -4.54636802E-21
   1.96800005        -1.50858811E-21
   1.97599995         1.70909732E-21
   1.98399997         4.94135322E-21
   1.99199998         7.97183845E-21
   2.00000000         1.04386082E-20
   2.00799990         1.19206008E-20
   2.01600003         1.21721243E-20
   2.02399993         1.12277958E-20
   2.03200006         9.25251033E-21
   2.03999996         6.38792005E-21
   2.04800010         2.81878959E-21
   2.05599999        -1.11318578E-21
   2.06399989        -4.98970209E-21
   2.07200003        -8.48036227E-21
   2.07999992        -1.13330505E-20
   2.08800006        -1.32341773E-20
   2.09599996        -1.38123281E-20
   2.10400009        -1.28561049E-20
   2.11199999        -1.04912731E-20
   2.11999989        -7.07668120E-21
   2.12800002        -2.95138386E-21
   2.13599992         1.61383937E-21
   2.14400005         6.20373181E-21
   2.15199995         1.01709038E-20
   2.16000009         1.29151360E-20
   2.16799998         1.41743440E-20
   2.17600012         1.39188858E-20
   2.18400002         1.21122902E-20
   2.19199991         8.82269630E-21
   2.20000005         4.48855706E-21
   2.20799994        -2.13675257E-22
   2.21600008        -4.76334581E-21
   2.22399998        -8.82811821E-21
   2.23200011        -1.19681410E-20
   2.24000001        -1.36576518E-20
   2.24799991        -1.36724005E-20
   2.25600004        -1.21957207E-20
   2.26399994        -9.50138991E-21
   2.27200007        -5.79343770E-21
   2.27999997        -1.41687981E-21
   2.28800011         3.06592252E-21
   2.29600000         7.13617843E-21
   2.30399990         1.04722277E-20
   2.31200004         1.27850595E-20
   2.31999993         1.37326215E-20
   2.32800007         1.31334334E-20
   2.33599997         1.11265761E-20
   2.34400010         8.04144925E-21
   2.35200000         4.22607948E-21
   2.35999990         4.44045765E-23
   2.36800003        -4.10336756E-21
   2.37599993        -7.84683643E-21
   2.38400006        -1.08750493E-20
   2.39199996        -1.28937586E-20
   2.40000010        -1.36494301E-20
   2.40799999        -1.30258764E-20
   2.41599989        -1.10681871E-20
   2.42400002        -7.93641266E-21
   2.43199992        -3.91637143E-21
   2.44000006         5.41061545E-22
   2.44799995         4.89391918E-21
   2.45600009         8.67099993E-21
   2.46399999         1.15508591E-20
   2.47199988         1.33132773E-20
   2.48000002         1.37773539E-20
   2.48799992         1.28126335E-20
   2.49600005         1.04113411E-20
   2.50399995         6.76297618E-21
   2.51200008         2.26039765E-21
   2.51999998        -2.57964009E-21
   2.52800012        -7.19889713E-21
   2.53600001        -1.10184650E-20
   2.54399991        -1.34942465E-20
   2.55200005        -1.42862541E-20
   2.55999994        -1.33945575E-20
   2.56800008        -1.10593644E-20
   2.57599998        -7.54414245E-21
   2.58400011        -3.11467085E-21
   2.59200001         1.77879294E-21
   2.59999990         6.46057341E-21
   2.60800004         1.02800730E-20
   2.61599994         1.28496353E-20
   2.62400007         1.39851959E-20
   2.63199997         1.35390257E-20
   2.64000010         1.14691023E-20
   2.64800000         8.05813584E-21
   2.65599990         3.88391348E-21
   2.66400003        -5.01584370E-22
   2.67199993        -4.75291073E-21
   2.68000007        -8.54402044E-21
   2.68799996        -1.13911228E-20
   2.69600010        -1.28597117E-20
   2.70400000        -1.28821918E-20
   2.71199989        -1.16795544E-20
   2.72000003        -9.41124500E-21
   2.72799993        -6.12933523E-21
   2.73600006        -2.10038000E-21
   2.74399996         2.08219576E-21
   2.75200009         5.83621280E-21
   2.75999999         8.87126731E-21
   2.76799989         1.10302588E-20
   2.77600002         1.20647887E-20
   2.78399992         1.17804195E-20
   2.79200006         1.02879781E-20
   2.79999995         7.91134117E-21
   2.80800009         4.91396377E-21
   2.81599998         1.47481669E-21
   2.82399988        -2.14995146E-21
   2.83200002        -5.62133163E-21
   2.83999991        -8.61895137E-21
   2.84800005        -1.08175999E-20
   2.85599995        -1.18778103E-20
   2.86400008        -1.16460972E-20
   2.87199998        -1.02775172E-20
   2.88000011        -8.00121871E-21
   2.88800001        -4.90959078E-21
   2.89599991        -1.18201222E-21
   2.90400004         2.67951003E-21
   2.91199994         6.15194861E-21
   2.92000008         9.08176700E-21
   2.92799997         1.14298597E-20
   2.93600011         1.27824527E-20
   2.94400001         1.25819438E-20
   2.95199990         1.08134664E-20
   2.96000004         7.99365695E-21
   2.96799994         4.47328370E-21
   2.97600007         2.66052138E-22
   2.98399997        -4.32388066E-21
   2.99200010        -8.45646693E-21
   3.00000000        -1.14244556E-20
   3.00799990        -1.31570290E-20
   3.01600003        -1.37697057E-20
   3.02399993        -1.30205127E-20
   3.03200006        -1.06291053E-20
   3.03999996        -6.87748981E-21
   3.04800010        -2.45142729E-21
   3.05599999         2.17422748E-21
   3.06399989         6.79427414E-21
   3.07200003         1.09977055E-20
   3.07999992         1.40788919E-20
   3.08800006         1.55305664E-20
   3.09599996         1.53378673E-20
   3.10400009         1.36984906E-20
   3.11199999         1.07412925E-20
   3.11999989         6.69041532E-21
   3.12800002         2.07130852E-21
   3.13599992        -2.48870616E-21
   3.14400005        -6.55809994E-21
   3.15199995        -9.83686820E-21
   3.16000009        -1.19589548E-20
   3.16799998        -1.26241849E-20
   3.17600012        -1.18642329E-20
   3.18400002        -9.94973554E-21
   3.19199991        -7.10547581E-21
   3.20000005        -3.56554870E-21
   3.20799994         1.78578419E-22
   3.21600008         3.53477217E-21
   3.22399998         6.22973266E-21
   3.23200011         8.26436231E-21
   3.24000001         9.47181174E-21
   3.24799991         9.51845536E-21
   3.25600004         8.41069411E-21
   3.26399994         6.58693938E-21
   3.27200007         4.36565329E-21
   3.27999997         1.69628854E-21
   3.28800011        -1.37011351E-21
   3.29600000        -4.36971528E-21
   3.30399990        -6.84076993E-21
   3.31200004        -8.70689990E-21
   3.31999993        -9.98394882E-21
   3.32800007        -1.04377204E-20
   3.33599997        -9.85659613E-21
   3.34400010        -8.41020055E-21
   3.35200000        -6.42012476E-21
   3.35999990        -3.97354544E-21
   3.36800003        -1.06314792E-21
   3.37599993         2.06087587E-21
   3.38400006         4.97900246E-21
   3.39199996         7.42562378E-21
   3.40000010         9.25957610E-21
   3.40799999         1.02208399E-20
   3.41599989         1.00105268E-20
   3.42400002         8.60740800E-21
   3.43199992         6.29278015E-21
   3.44000006         3.36304495E-21
   3.44799995         1.65377242E-23
   3.45600009        -3.44781239E-21
   3.46399999        -6.52066962E-21
   3.47199988        -8.71222891E-21
   3.48000002        -9.81950790E-21
   3.48799992        -9.85901386E-21
   3.49600005        -8.80355724E-21
   3.50399995        -6.56892841E-21
   3.51200008        -3.30393244E-21
   3.51999998         4.81903944E-22
   3.52800012         4.20807457E-21
   3.53600001         7.51921959E-21
   3.54399991         1.01577585E-20
   3.55200005         1.17216848E-20
   3.55999994         1.18418918E-20
   3.56800008         1.05601116E-20
   3.57599998         8.26073935E-21
   3.58400011         5.23778317E-21
   3.59200001         1.61713416E-21
   3.59999990        -2.27135839E-21
   3.60800004        -5.78649149E-21
   3.61599994        -8.39450997E-21
   3.62400007        -9.96221433E-21
   3.63199997        -1.05117967E-20
   3.64000010        -9.95510009E-21
   3.64800000        -8.28756214E-21
   3.65599990        -5.85219822E-21
   3.66400003        -3.15810247E-21
   3.67199993        -5.17545109E-22
   3.68000007         1.95181202E-21
   3.68799996         4.06000884E-21
   3.69600010         5.51391892E-21
   3.70400000         6.15843963E-21
   3.71199989         6.07237367E-21
   3.72000003         5.39095133E-21
   3.72799993         4.17772738E-21
   3.73600006         2.53663740E-21
   3.74399996         7.24228787E-22
   3.75200009        -9.67595834E-22
   3.75999999        -2.39001802E-21
   3.76799989        -3.50302427E-21
   3.77600002        -4.21869302E-21
   3.78399992        -4.41697322E-21
   3.79200006        -4.10802086E-21
   3.79999995        -3.43051631E-21
   3.80800009        -2.46924399E-21
   3.81599998        -1.23889553E-21
   3.82399988         1.14932654E-22
   3.83200002         1.31113782E-21
   3.83999991         2.23344743E-21
   3.84800005         3.02457723E-21
   3.85599995         3.73659495E-21
   3.86400008         4.11807102E-21
   3.87199998         3.95784638E-21
   3.88000011         3.40236309E-21
   3.88800001         2.65060475E-21
   3.89599991         1.56691262E-21
   3.90400004        -2.34835419E-23
   3.91199994        -1.82780177E-21
   3.92000008        -3.32225865E-21
   3.92799997        -4.40487853E-21
   3.93600011        -5.34315822E-21
   3.94400001        -6.10961295E-21
   3.95199990        -6.29440018E-21
   3.96000004        -5.76035533E-21
   3.96799994        -4.86887233E-21
   3.97600007        -3.87101665E-21
   3.98399997        -2.54493909E-21
   3.99200010        -7.06456571E-22
   4.00000000         1.32392862E-21
   4.00799990         3.08873401E-21
   4.01599979         4.50910652E-21
   4.02400017         5.69126636E-21
   4.03200006         6.48268070E-21
   4.03999996         6.61058916E-21
   4.04799986         6.11089129E-21
   4.05600023         5.25495726E-21
   4.06400013         4.13081962E-21
   4.07200003         2.63135018E-21
   4.07999992         8.21145031E-22
   4.08799982        -1.00526981E-21
   4.09600019        -2.64879570E-21
   4.10400009        -4.10159324E-21
   4.11199999        -5.27502487E-21
   4.11999989        -5.92071527E-21
   4.12799978        -5.93131918E-21
   4.13600016        -5.46319554E-21
   4.14400005        -4.61787229E-21
   4.15199995        -3.24264797E-21
   4.15999985        -1.24182297E-21
   4.16800022         1.13523319E-21
   4.17600012         3.56449049E-21
   4.18400002         6.01047608E-21
   4.19199991         8.51545767E-21
   4.19999981         1.07856856E-20
   4.20800018         1.23714700E-20
   4.21600008         1.31959743E-20
   4.22399998         1.35159171E-20
   4.23199987         1.33770566E-20
   4.23999977         1.25354609E-20
   4.24800014         1.09742456E-20
   4.25600004         9.05964477E-21
   4.26399994         7.03387218E-21
   4.27199984         4.75618149E-21
   4.28000021         2.14258681E-21
   4.28800011        -5.16434948E-22
   4.29600000        -2.92758242E-21
   4.30399990        -5.16387692E-21
   4.31199980        -7.39945531E-21
   4.32000017        -9.55980631E-21
   4.32800007        -1.15150908E-20
   4.33599997        -1.33785405E-20
   4.34399986        -1.53136028E-20
   4.35200024        -1.72134040E-20
   4.36000013        -1.88296713E-20
   4.36800003        -2.00718494E-20
   4.37599993        -2.09389641E-20
   4.38399982        -2.12853088E-20
   4.39200020        -2.08937793E-20
   4.40000010        -1.97022224E-20
   4.40799999        -1.77651028E-20
   4.41599989        -1.50693971E-20
   4.42399979        -1.15745162E-20
   4.43200016        -7.39240974E-21
   4.44000006        -2.77578590E-21
   4.44799995         2.04832518E-21
   4.45599985         6.91668476E-21
   4.46400023         1.16259048E-20
   4.47200012         1.58955453E-20
   4.48000002         1.94504962E-20
   4.48799992         2.20946986E-20
   4.49599981         2.37230973E-20
   4.50400019         2.43088995E-20
   4.51200008         2.38821599E-20
   4.51999998         2.24942720E-20
   4.52799988         2.02024308E-20
   4.53599977         1.71008525E-20
   4.54400015         1.33664495E-20
   4.55200005         9.26009713E-21
   4.55999994         5.06557854E-21
   4.56799984         1.01854004E-21
   4.57600021        -2.70173061E-21
   4.58400011        -5.92218465E-21
   4.59200001        -8.45522373E-21
   4.59999990        -1.01416980E-20
   4.60799980        -1.08860006E-20
   4.61600018        -1.06547592E-20
   4.62400007        -9.50375271E-21
   4.63199997        -7.63138012E-21
   4.63999987        -5.33611386E-21
   4.64799976        -2.87454108E-21
   4.65600014        -4.11481082E-22
   4.66400003         1.86444107E-21
   4.67199993         3.66801368E-21
   4.67999983         4.74440063E-21
   4.68800020         5.02600150E-21
   4.69600010         4.59702960E-21
   4.70400000         3.54854788E-21
   4.71199989         1.95473462E-21
   4.71999979        -2.87891064E-23
   4.72800016        -2.14398934E-21
   4.73600006        -4.15251493E-21
   4.74399996        -5.92986475E-21
   4.75199986        -7.38901135E-21
   4.76000023        -8.35099171E-21
   4.76800013        -8.59642362E-21
   4.77600002        -8.09038862E-21
   4.78399992        -7.07597923E-21
   4.79199982        -5.86616942E-21
   4.80000019        -4.61144629E-21
   4.80800009        -3.37850107E-21
   4.81599998        -2.37153611E-21
   4.82399988        -1.87061342E-21
   4.83199978        -1.94287217E-21
   4.84000015        -2.41029808E-21
   4.84800005        -3.14193125E-21
   4.85599995        -4.16249603E-21
   4.86399984        -5.37807268E-21
   4.87200022        -6.41566615E-21
   4.88000011        -6.91244465E-21
   4.88800001        -6.81094377E-21
   4.89599991        -6.19389935E-21
   4.90399981        -4.97905658E-21
   4.91200018        -3.01318673E-21
   4.92000008        -3.78151443E-22
   4.92799997         2.64107016E-21
   4.93599987         5.85286102E-21
   4.94399977         9.17640810E-21
   4.95200014         1.23666951E-20
   4.96000004         1.49848889E-20
   4.96799994         1.67222574E-20
   4.97599983         1.75566775E-20
   4.98400021         1.75268909E-20
   4.99200010         1.65739643E-20
   5.00000000         1.47229312E-20
   5.00799990         1.22227228E-20
   5.01599979         9.35471803E-21
   5.02400017         6.25527025E-21
   5.03200006         3.06356760E-21
   5.03999996         7.34755776E-23
   5.04799986        -2.44479026E-21
   5.05600023        -4.44468983E-21
   5.06400013        -5.95659221E-21
   5.07200003        -6.87952221E-21
   5.07999992        -7.11829872E-21
   5.08799982        -6.80975147E-21
   5.09600019        -6.19667896E-21
   5.10400009        -5.37077870E-21
   5.11199999        -4.35399400E-21
   5.11999989        -3.33270968E-21
   5.12799978        -2.55076470E-21
   5.13600016        -2.01672005E-21
   5.14400005        -1.56695705E-21
   5.15199995        -1.18598283E-21
   5.15999985        -1.00102425E-21
   5.16800022        -9.62296708E-22
   5.17600012        -8.09878785E-22
   5.18400002        -4.10106949E-22
   5.19199991         1.31230912E-22
   5.19999981         7.59053121E-22
   5.20800018         1.59696719E-21
   5.21600008         2.65160217E-21
   5.22399998         3.63951674E-21
   5.23199987         4.29553882E-21
   5.23999977         4.64100547E-21
   5.24800014         4.72998394E-21
   5.25600004         4.34189729E-21
   5.26399994         3.22657711E-21
   5.27199984         1.50950122E-21
   5.28000021        -4.86956238E-22
   5.28800011        -2.73271475E-21
   5.29600000        -5.40817914E-21
   5.30399990        -8.35157736E-21
   5.31199980        -1.10177356E-20
   5.32000017        -1.30681491E-20
   5.32800007        -1.45827338E-20
   5.33599997        -1.55491909E-20
   5.34399986        -1.55957279E-20
   5.35200024        -1.44914919E-20
   5.36000013        -1.25157193E-20
   5.36800003        -1.00122943E-20
   5.37599993        -6.93680447E-21
   5.38399982        -3.22008286E-21
   5.39200020         7.29646204E-22
   5.40000010         4.31828871E-21
   5.40799999         7.33882798E-21
   5.41599989         9.84712960E-21
   5.42399979         1.16741793E-20
   5.43200016         1.25151360E-20
   5.44000006         1.23861799E-20
   5.44799995         1.15705014E-20
   5.45599985         1.01881178E-20
   5.46400023         8.22077377E-21
   5.47200012         5.91520330E-21
   5.48000002         3.75768483E-21
   5.48799992         2.02047447E-21
   5.49599981         6.59486101E-22
   5.50400019        -3.28371341E-22
   5.51200008        -7.85904431E-22
   5.51999998        -6.96034469E-22
   5.52799988        -2.88149154E-22
   5.53599977         2.75579179E-22
   5.54400015         1.06573932E-21
   5.55200005         2.09022179E-21
   5.55999994         3.05146706E-21
   5.56799984         3.60650303E-21
   5.57600021         3.74235896E-21
   5.58400011         3.67975860E-21
   5.59200001         3.47413394E-21
   5.59999990         2.96173533E-21
   5.60799980         2.11532216E-21
   5.61600018         1.18770262E-21
   5.62400007         3.74724556E-22
   5.63199997        -4.41175497E-22
   5.63999987        -1.41588279E-21
   5.64799976        -2.40268240E-21
   5.65600014        -3.15250366E-21
   5.66400003        -3.71990432E-21
   5.67199993        -4.35323709E-21
   5.67999983        -5.04533685E-21
   5.68800020        -5.53308301E-21
   5.69600010        -5.73565462E-21
   5.70400000        -5.84333834E-21
   5.71199989        -5.91348189E-21
   5.71999979        -5.71571140E-21
   5.72800016        -5.09572944E-21
   5.73600006        -4.19503476E-21
   5.74399996        -3.16608913E-21
   5.75199986        -1.93153216E-21
   5.76000023        -3.91171637E-22
   5.76800013         1.35410395E-21
   5.77600002         3.15493875E-21
   5.78399992         4.99925990E-21
   5.79199982         6.86877452E-21
   5.80000019         8.56550856E-21
   5.80800009         9.86272082E-21
   5.81599998         1.07200362E-20
   5.82399988         1.11801715E-20
   5.83199978         1.11460915E-20
   5.84000015         1.04472031E-20
   5.84800005         9.08943700E-21
   5.85599995         7.26604336E-21
   5.86399984         5.12337981E-21
   5.87200022         2.68934189E-21
   5.88000011         7.66178251E-23
   5.88800001        -2.42237035E-21
   5.89599991        -4.56859849E-21
   5.90399981        -6.37695385E-21
   5.91200018        -7.92168820E-21
   5.92000008        -9.05138669E-21
   5.92799997        -9.52618998E-21
   5.93599987        -9.39926299E-21
   5.94399977        -9.00043027E-21
   5.95200014        -8.51299794E-21
   5.96000004        -7.83794424E-21
   5.96799994        -6.95013953E-21
   5.97599983        -6.08204215E-21
   5.98400021        -5.38457663E-21
   5.99200010        -4.68699437E-21
   6.00000000        -3.83275914E-21
   6.00799990        -3.01787759E-21
   6.01599979        -2.50576090E-21
   6.02400017        -2.19637193E-21
   6.03200006        -1.80848844E-21
   6.03999996        -1.36014897E-21
   6.04799986        -1.10803691E-21
   6.05600023        -1.07192399E-21
   6.06400013        -9.92575841E-22
   6.07200003        -7.79044446E-22
   6.07999992        -6.29555683E-22
   6.08799982        -6.09292434E-22
   6.09600019        -4.45555455E-22
   6.10400009         8.62441117E-23
   6.11199999         8.61717221E-22
   6.11999989         1.71051116E-21
   6.12799978         2.76375785E-21
   6.13600016         4.20100234E-21
   6.14400005         5.82226099E-21
   6.15199995         7.20620120E-21
   6.15999985         8.20234719E-21
   6.16800022         8.91731962E-21
   6.17600012         9.24729521E-21
   6.18400002         8.81961699E-21
   6.19199991         7.48476720E-21
   6.19999981         5.51199596E-21
   6.20800018         3.16055796E-21
   6.21600008         4.10785899E-22
   6.22399998        -2.66642660E-21
   6.23199987        -5.60827769E-21