 -0.239999995         0.00000000    
 -0.231999993         0.00000000    
 -0.224000007         0.00000000    
 -0.216000006         0.00000000    
 -0.208000004         0.00000000    
 -0.200000003         0.00000000    
 -0.192000002         2.16427814E-33
 -0.184000000         4.33872805E-27
 -0.175999999        -5.55355034E-27
 -0.167999998        -1.26392835E-25
 -0.159999996        -2.98618291E-25
 -0.151999995         2.50346537E-25
 -0.143999994         2.25140764E-24
 -0.136000007         3.20173220E-24
 -0.128000006        -2.93999999E-24
 -0.119999997        -1.54764034E-23
 -0.112000003        -1.57527445E-23
 -0.104000002         1.67662051E-23
  -9.60000008E-02     6.15422893E-23
  -8.79999995E-02     5.05115652E-23
  -7.99999982E-02    -5.10887085E-23
  -7.19999969E-02    -1.57004840E-22
  -6.40000030E-02    -1.19734028E-22
  -5.60000017E-02     7.69052545E-23
  -4.80000004E-02     2.45666104E-22
  -3.99999991E-02     2.04662023E-22
  -3.20000015E-02     1.86446628E-23
  -2.40000002E-02    -1.04879013E-22
  -1.60000008E-02    -1.57463844E-22
  -8.00000038E-03    -3.42433816E-22
   0.00000000        -6.01256504E-22
   8.00000038E-03    -3.82834197E-22
   1.60000008E-02     6.79043440E-22
   2.40000002E-02     1.85854801E-21
   3.20000015E-02     1.68815365E-21
   3.99999991E-02    -3.25460937E-22
   4.80000004E-02    -2.65145293E-21
   5.60000017E-02    -3.07157001E-21
   6.40000030E-02    -1.11886760E-21
   7.19999969E-02     1.41098655E-21
   7.99999982E-02     2.57170715E-21
   8.79999995E-02     2.24227076E-21
   9.60000008E-02     1.54529274E-21
  0.104000002         9.28947658E-22
  0.112000003        -2.54279657E-22
  0.119999997        -2.34404406E-21
  0.128000006        -4.35902857E-21
  0.136000007        -4.66501270E-21
  0.143999994        -2.34969034E-21
  0.151999995         1.96296785E-21
  0.159999996         6.18548496E-21
  0.167999998         7.83987406E-21
  0.175999999         5.84526009E-21
  0.184000000         1.38293754E-21
  0.192000002        -3.49665885E-21
  0.200000003        -7.79273526E-21
  0.208000004        -1.10113314E-20
  0.216000006        -1.10450325E-20
  0.224000007        -4.90545326E-21
  0.231999993         6.85488693E-21
  0.239999995         1.77678993E-20
  0.247999996         1.99069593E-20
  0.256000012         1.12629001E-20
  0.263999999        -2.40526734E-21
  0.272000015        -1.32969195E-20
  0.280000001        -1.80006877E-20
  0.287999988        -1.77517225E-20
  0.296000004        -1.37729611E-20
  0.303999990        -4.68579117E-21
  0.312000006         1.01803687E-20
  0.319999993         2.56577774E-20
  0.328000009         3.13496315E-20
  0.335999995         1.99527968E-20
  0.344000012        -4.20744166E-21
  0.351999998        -2.63478125E-20
  0.360000014        -3.28285528E-20
  0.368000001        -2.23363484E-20
  0.375999987        -5.51944665E-21
  0.384000003         5.93249816E-21
  0.391999990         9.05411704E-21
  0.400000006         9.03457328E-21
  0.407999992         1.09456020E-20
  0.416000009         1.36373794E-20
  0.423999995         1.15451254E-20
  0.432000011         1.20864265E-21
  0.439999998        -1.43964566E-20
  0.448000014        -2.70701932E-20
  0.456000000        -2.84985305E-20
  0.463999987        -1.58118434E-20
  0.472000003         5.69337228E-21
  0.479999989         2.50290491E-20
  0.488000005         3.24634398E-20
  0.495999992         2.57592815E-20
  0.504000008         1.04795867E-20
  0.512000024        -4.74509816E-21
  0.519999981        -1.23711169E-20
  0.527999997        -7.55268487E-21
  0.536000013         9.59630162E-21
  0.544000030         3.05619681E-20
  0.551999986         3.99839495E-20
  0.560000002         2.62409042E-20
  0.568000019        -6.11542624E-21
  0.575999975        -3.54851532E-20
  0.583999991        -3.86209723E-20
  0.592000008        -1.11585138E-20
  0.600000024         2.55175558E-20
  0.607999980         4.00354706E-20
  0.615999997         1.76609022E-20
  0.624000013        -2.62880874E-20
  0.632000029        -5.92399613E-20
  0.639999986        -5.85787661E-20
  0.648000002        -2.93035808E-20
  0.656000018         8.71357025E-22
  0.663999975         3.57269566E-21
  0.671999991        -2.65537320E-20
  0.680000007        -6.43638088E-20
  0.688000023        -7.31826398E-20
  0.695999980        -3.76733562E-20
  0.703999996         2.18476511E-20
  0.712000012         7.03087946E-20
  0.720000029         8.94428716E-20
  0.727999985         8.45360362E-20
  0.736000001         6.79010657E-20
  0.744000018         4.89165275E-20
  0.751999974         3.81388294E-20
  0.759999990         4.39399537E-20
  0.768000007         5.76673875E-20
  0.776000023         5.43581675E-20
  0.783999979         1.86921040E-20
  0.791999996        -3.60778475E-20
  0.800000012        -8.24275981E-20
  0.808000028        -1.04979359E-19
  0.815999985        -1.05732468E-19
  0.824000001        -9.23206717E-20
  0.832000017        -7.37752824E-20
  0.839999974        -6.33447805E-20
  0.847999990        -7.06685277E-20
  0.856000006        -8.84424031E-20
  0.864000022        -9.59613650E-20
  0.871999979        -7.79620765E-20
  0.879999995        -3.33497606E-20
  0.888000011         3.32027939E-20
  0.896000028         1.15942869E-19
  0.903999984         2.00167213E-19
  0.912000000         2.61943802E-19
  0.920000017         2.87068585E-19
  0.927999973         2.84925386E-19
  0.935999990         2.71896852E-19
  0.944000006         2.42587724E-19
  0.952000022         1.69965014E-19
  0.959999979         3.89018098E-20
  0.967999995        -1.29293461E-19
  0.976000011        -2.91974387E-19
  0.984000027        -4.17084472E-19
  0.991999984        -4.91635934E-19
   1.00000000        -5.06861796E-19
   1.00800002        -4.53857458E-19
   1.01600003        -3.39672490E-19
   1.02400005        -1.93795545E-19
   1.03199995        -4.66284975E-20
   1.03999996         9.29602051E-20
   1.04799998         2.28939605E-19
   1.05599999         3.51892998E-19
   1.06400001         4.34293655E-19
   1.07200003         4.53397649E-19
   1.08000004         4.09793806E-19
   1.08800006         3.21194671E-19
   1.09599996         2.06174289E-19
   1.10399997         7.81263041E-20
   1.11199999        -5.12684896E-20
   1.12000000        -1.68114533E-19
   1.12800002        -2.54170087E-19
   1.13600004        -2.89003309E-19
   1.14400005        -2.62326037E-19
   1.15199995        -1.88572571E-19
   1.15999997        -1.02368616E-19
   1.16799998        -3.15544653E-20
   1.17600000         2.30329815E-20
   1.18400002         7.61929310E-20
   1.19200003         1.30751974E-19
   1.20000005         1.69086664E-19
   1.20799994         1.71066715E-19
   1.21599996         1.33557448E-19
   1.22399998         7.23025067E-20
   1.23199999         1.18570719E-20
   1.24000001        -2.52126396E-20
   1.24800003        -2.82315774E-20
   1.25600004        -5.18429673E-21
   1.26400006         2.21301155E-20
   1.27199996         3.44773274E-20
   1.27999997         2.77677714E-20
   1.28799999         9.51403834E-21
   1.29600000        -1.44959686E-20
   1.30400002        -4.86977221E-20
   1.31200004        -1.05253201E-19
   1.32000005        -1.93317538E-19
   1.32799995        -3.06254187E-19
   1.33599997        -4.17176496E-19
   1.34399998        -4.91784310E-19
   1.35200000        -5.10472440E-19
   1.36000001        -4.76800554E-19
   1.36800003        -4.02679587E-19
   1.37600005        -2.89618887E-19
   1.38399994        -1.28879470E-19
   1.39199996         8.29275447E-20
   1.39999998         3.32784790E-19
   1.40799999         5.92326614E-19
   1.41600001         8.24671567E-19
   1.42400002         9.94776504E-19
   1.43200004         1.08297867E-18
   1.44000006         1.08997765E-18
   1.44799995         1.02293859E-18
   1.45599997         8.77996282E-19
   1.46399999         6.45404623E-19
   1.47200000         3.33443277E-19
   1.48000002        -2.21651608E-20
   1.48800004        -3.77163237E-19
   1.49600005        -7.00208130E-19
   1.50399995        -9.72558743E-19
   1.51199996        -1.17761072E-18
   1.51999998        -1.30146023E-18
   1.52800000        -1.33859692E-18
   1.53600001        -1.28643780E-18
   1.54400003        -1.13745120E-18
   1.55200005        -8.89199513E-19
   1.55999994        -5.63655035E-19
   1.56799996        -2.05349022E-19
   1.57599998         1.45075330E-19
   1.58399999         4.68917367E-19
   1.59200001         7.58140396E-19
   1.60000002         9.95368041E-19
   1.60800004         1.15288505E-18
   1.61600006         1.20618081E-18
   1.62399995         1.14181179E-18
   1.63199997         9.59302449E-19
   1.63999999         6.78289188E-19
   1.64800000         3.42652408E-19
   1.65600002         4.14483484E-21
   1.66400003        -3.03350395E-19
   1.67200005        -5.65826074E-19
   1.67999995        -7.63949582E-19
   1.68799996        -8.59215767E-19
   1.69599998        -8.16750641E-19
   1.70400000        -6.37681392E-19
   1.71200001        -3.61051025E-19
   1.72000003        -3.85181079E-20
   1.72800004         2.83884302E-19
   1.73599994         5.64696921E-19
   1.74399996         7.65152251E-19
   1.75199997         8.57217919E-19
   1.75999999         8.29747095E-19
   1.76800001         6.84935532E-19
   1.77600002         4.35408487E-19
   1.78400004         1.09382875E-19
   1.79200006        -2.46293932E-19
   1.79999995        -5.76097951E-19
   1.80799997        -8.32738387E-19
   1.81599998        -9.86982808E-19
   1.82400000        -1.02625755E-18
   1.83200002        -9.49622472E-19
   1.84000003        -7.67204590E-19
   1.84800005        -5.03827233E-19
   1.85599995        -1.99057757E-19
   1.86399996         1.01962347E-19
   1.87199998         3.61329526E-19
   1.88000000         5.53697383E-19
   1.88800001         6.62981539E-19
   1.89600003         6.80839024E-19
   1.90400004         6.11606850E-19
   1.91199994         4.74892558E-19
   1.91999996         2.98816773E-19
   1.92799997         1.10678562E-19
   1.93599999        -6.58617101E-20
   1.94400001        -2.09262051E-19
   1.95200002        -3.01429346E-19
   1.96000004        -3.32189711E-19
   1.96800005        -3.02695139E-19
   1.97599995        -2.25895529E-19
   1.98399997        -1.22643704E-19
   1.99199998        -1.22907625E-20
   2.00000000         9.62257462E-20
   2.00799990         2.02406779E-19
   2.01600003         3.02240086E-19
   2.02399993         3.81728808E-19
   2.03200006         4.25577678E-19
   2.03999996         4.30083124E-19
   2.04800010         4.03212317E-19
   2.05599999         3.52120240E-19
   2.06399989         2.74702804E-19
   2.07200003         1.65895234E-19
   2.07999992         2.99908936E-20
   2.08800006        -1.17569649E-19
   2.09599996        -2.61675097E-19
   2.10400009        -3.96764703E-19
   2.11199999        -5.20437278E-19
   2.11999989        -6.20072785E-19
   2.12800002        -6.72814700E-19
   2.13599992        -6.61995953E-19
   2.14400005        -5.90074615E-19
   2.15199995        -4.72692413E-19
   2.16000009        -3.23531431E-19
   2.16799998        -1.49222297E-19
   2.17600012         4.24149945E-20
   2.18400002         2.33384590E-19
   2.19199991         3.95812618E-19
   2.20000005         5.01059951E-19
   2.20799994         5.31648212E-19
   2.21600008         4.88671526E-19
   2.22399998         3.89183903E-19
   2.23200011         2.55948319E-19
   2.24000001         1.09413390E-19
   2.24799991        -3.24502308E-20
   2.25600004        -1.51938099E-19
   2.26399994        -2.33813509E-19
   2.27200007        -2.69140040E-19
   2.27999997        -2.54247920E-19
   2.28800011        -1.86965398E-19
   2.29600000        -6.89026264E-20
   2.30399990         8.52100269E-20
   2.31200004         2.43118024E-19
   2.31999993         3.66820713E-19
   2.32800007         4.34305597E-19
   2.33599997         4.50128632E-19
   2.34400010         4.32210297E-19
   2.35200000         3.88398133E-19
   2.35999990         3.09478692E-19
   2.36800003         1.86619559E-19
   2.37599993         3.18800998E-20
   2.38400006        -1.22727857E-19
   2.39199996        -2.46156827E-19
   2.40000010        -3.26363852E-19
   2.40799999        -3.69883504E-19
   2.41599989        -3.88875856E-19
   2.42400002        -3.90761233E-19
   2.43199992        -3.77575095E-19
   2.44000006        -3.51222620E-19
   2.44799995        -3.17194245E-19
   2.45600009        -2.82766703E-19
   2.46399999        -2.52157790E-19
   2.47199988        -2.24715530E-19
   2.48000002        -1.98339222E-19
   2.48799992        -1.72708488E-19
   2.49600005        -1.46454034E-19
   2.50399995        -1.11512128E-19
   2.51200008        -5.41110376E-20
   2.51999998         3.51340829E-20
   2.52800012         1.51475860E-19
   2.53600001         2.76958319E-19
   2.54399991         3.90701288E-19
   2.55200005         4.78083924E-19
   2.55999994         5.32090805E-19
   2.56800008         5.49880358E-19
   2.57599998         5.30598830E-19
   2.58400011         4.75159944E-19
   2.59200001         3.84984203E-19
   2.59999990         2.60262660E-19
   2.60800004         1.02493313E-19
   2.61599994        -7.77164038E-20
   2.62400007        -2.55140215E-19
   2.63199997        -3.95581912E-19
   2.64000010        -4.71443629E-19
   2.64800000        -4.75036177E-19
   2.65599990        -4.18476643E-19
   2.66400003        -3.21163264E-19
   2.67199993        -1.96508089E-19
   2.68000007        -4.91507166E-20
   2.68799996         1.16148566E-19
   2.69600010         2.83077413E-19
   2.70400000         4.21282931E-19
   2.71199989         4.96777586E-19
   2.72000003         4.88080195E-19
   2.72799993         3.95897844E-19
   2.73600006         2.39607159E-19
   2.74399996         4.46623344E-20
   2.75200009        -1.68071481E-19
   2.75999999        -3.83095233E-19
   2.76799989        -5.83385619E-19
   2.77600002        -7.45805014E-19
   2.78399992        -8.45704857E-19
   2.79200006        -8.66682157E-19
   2.79999995        -8.05421523E-19
   2.80800009        -6.67668861E-19
   2.81599998        -4.61626132E-19
   2.82399988        -1.97001529E-19
   2.83200002         1.09276349E-19
   2.83999991         4.27597111E-19
   2.84800005         7.18395764E-19
   2.85599995         9.44112622E-19
   2.86400008         1.08162002E-18
   2.87199998         1.12416110E-18
   2.88000011         1.07283743E-18
   2.88800001         9.29796193E-19
   2.89599991         7.01229543E-19
   2.90400004         4.03345442E-19
   2.91199994         6.17438370E-20
   2.92000008        -2.92720917E-19
   2.92799997        -6.23715689E-19
   2.93600011        -8.89068922E-19
   2.94400001        -1.05052837E-18
   2.95199990        -1.08942137E-18
   2.96000004        -1.01141524E-18
   2.96799994        -8.34895726E-19
   2.97600007        -5.77075782E-19
   2.98399997        -2.52509160E-19
   2.99200010         1.17148123E-19
   3.00000000         4.93789447E-19
   3.00799990         8.23823138E-19
   3.01600003         1.05222782E-18
   3.02399993         1.14259626E-18
   3.03200006         1.08787227E-18
   3.03999996         9.02472763E-19
   3.04800010         6.05967701E-19
   3.05599999         2.17887154E-19
   3.06399989        -2.32357180E-19
   3.07200003        -6.96826305E-19
   3.07999992        -1.11609247E-18
   3.08800006        -1.43628674E-18
   3.09599996        -1.61982974E-18
   3.10400009        -1.64363497E-18
   3.11199999        -1.49420479E-18
   3.11999989        -1.17098841E-18
   3.12800002        -6.96740847E-19
   3.13599992        -1.21974063E-19
   3.14400005         4.85686490E-19
   3.15199995         1.06069846E-18
   3.16000009         1.55168598E-18
   3.16799998         1.91950549E-18
   3.17600012         2.13049797E-18
   3.18400002         2.15805983E-18
   3.19199991         1.99356835E-18
   3.20000005         1.65493663E-18
   3.20799994         1.18291274E-18
   3.21600008         6.29342016E-19
   3.22399998         5.02944198E-20
   3.23200011        -4.92358270E-19
   3.24000001        -9.32863482E-19
   3.24799991        -1.21697159E-18
   3.25600004        -1.32045530E-18
   3.26399994        -1.25067951E-18
   3.27200007        -1.02955128E-18
   3.27999997        -6.79085039E-19
   3.28800011        -2.25976308E-19
   3.29600000         2.84304665E-19
   3.30399990         7.85355828E-19
   3.31200004         1.20631254E-18
   3.31999993         1.49337554E-18
   3.32800007         1.61939961E-18
   3.33599997         1.57768055E-18
   3.34400010         1.37114337E-18
   3.35200000         1.01087375E-18
   3.35999990         5.24862332E-19
   3.36800003        -3.68701218E-20
   3.37599993        -6.11511931E-19
   3.38400006        -1.13972254E-18
   3.39199996        -1.57361754E-18
   3.40000010        -1.87417165E-18
   3.40799999        -2.00938342E-18
   3.41599989        -1.95984895E-18
   3.42400002        -1.72570938E-18
   3.43199992        -1.32745386E-18
   3.44000006        -8.01452452E-19
   3.44799995        -1.95696250E-19
   3.45600009         4.31808416E-19
   3.46399999         1.01459575E-18
   3.47199988         1.48458240E-18
   3.48000002         1.78625559E-18
   3.48799992         1.89063730E-18
   3.49600005         1.79639475E-18
   3.50399995         1.51676904E-18
   3.51200008         1.06850384E-18
   3.51999998         4.77919419E-19
   3.52800012        -2.02857282E-19
   3.53600001        -8.91808647E-19
   3.54399991        -1.49571160E-18
   3.55200005        -1.93835073E-18
   3.55999994        -2.17669001E-18
   3.56800008        -2.19693215E-18
   3.57599998        -2.00092509E-18
   3.58400011        -1.59959391E-18
   3.59200001        -1.02004336E-18
   3.59999990        -3.16780965E-19
   3.60800004         4.28655359E-19
   3.61599994         1.12415251E-18
   3.62400007         1.68782492E-18
   3.63199997         2.05935816E-18
   3.64000010         2.20107570E-18
   3.64800000         2.09752427E-18
   3.65599990         1.75774122E-18
   3.66400003         1.21633611E-18
   3.67199993         5.30749687E-19
   3.68000007        -2.23053259E-19
   3.68799996        -9.56559829E-19
   3.69600010        -1.58088949E-18
   3.70400000        -2.02417341E-18
   3.71199989        -2.24338806E-18
   3.72000003        -2.22318831E-18
   3.72799993        -1.96898433E-18
   3.73600006        -1.50596016E-18
   3.74399996        -8.82970946E-19
   3.75200009        -1.70500394E-19
