 -0.239999995         0.00000000    
 -0.231999993         0.00000000    
 -0.224000007         0.00000000    
 -0.216000006         0.00000000    
 -0.208000004         0.00000000    
 -0.200000003         0.00000000    
 -0.192000002         0.00000000    
 -0.184000000         0.00000000    
 -0.175999999         0.00000000    
 -0.167999998         0.00000000    
 -0.159999996        -9.79556248E-34
 -0.151999995        -6.58427961E-33
 -0.143999994        -1.83010548E-33
 -0.136000007         1.19568264E-31
 -0.128000006         4.70479248E-31
 -0.119999997         3.90400341E-31
 -0.112000003        -2.42562846E-30
 -0.104000002        -8.99413121E-30
  -9.60000008E-02    -9.66379511E-30
  -8.79999995E-02     1.87904168E-29
  -7.99999982E-02     8.15072752E-29
  -7.19999969E-02     1.05292251E-28
  -6.40000030E-02    -5.37992701E-29
  -5.60000017E-02    -4.23605932E-28
  -4.80000004E-02    -6.60047199E-28
  -3.99999991E-02    -1.40515560E-28
  -3.20000015E-02     1.31447213E-27
  -2.40000002E-02     2.63901475E-27
  -1.60000008E-02     1.87009146E-27
  -8.00000038E-03    -1.90312616E-27
   0.00000000        -6.61757695E-27
   8.00000038E-03    -7.91579779E-27
   1.60000008E-02    -2.74068479E-27
   2.40000002E-02     7.43647928E-27
   3.20000015E-02     1.72302028E-26
   3.99999991E-02     2.07946246E-26
   4.80000004E-02     1.36923851E-26
   5.60000017E-02    -7.57216721E-27
   6.40000030E-02    -4.24424362E-26
   7.19999969E-02    -7.63196610E-26
   7.99999982E-02    -7.50198401E-26
   8.79999995E-02    -3.40238751E-27
   9.60000008E-02     1.31395507E-25
  0.104000002         2.49506326E-25
  0.112000003         2.30220994E-25
  0.119999997         9.33814020E-27
  0.128000006        -3.30066749E-25
  0.136000007        -5.69942587E-25
  0.143999994        -4.96428146E-25
  0.151999995        -7.17838156E-26
  0.159999996         5.04566134E-25
  0.167999998         9.09818821E-25
  0.175999999         9.04667954E-25
  0.184000000         4.73150241E-25
  0.192000002        -2.01936793E-25
  0.200000003        -8.80143255E-25
  0.208000004        -1.38009569E-24
  0.216000006        -1.57503968E-24
  0.224000007        -1.31020054E-24
  0.231999993        -3.90590869E-25
  0.239999995         1.24869384E-24
  0.247999996         3.25234493E-24
  0.256000012         4.68584916E-24
  0.263999999         4.29105307E-24
  0.272000015         1.22048645E-24
  0.280000001        -4.07773049E-24
  0.287999988        -9.45909701E-24
  0.296000004        -1.17219989E-23
  0.303999990        -8.27891771E-24
  0.312000006         9.31145873E-25
  0.319999993         1.25388242E-23
  0.328000009         2.07777364E-23
  0.335999995         2.03051093E-23
  0.344000012         9.42436898E-24
  0.351999998        -8.22692310E-24
  0.360000014        -2.48254937E-23
  0.368000001        -3.20716103E-23
  0.375999987        -2.55754227E-23
  0.384000003        -7.42897136E-24
  0.391999990         1.46462898E-23
  0.400000006         3.12293529E-23
  0.407999992         3.59660714E-23
  0.416000009         2.83339841E-23
  0.423999995         1.28088465E-23
  0.432000011        -4.72917774E-24
  0.439999998        -2.05157225E-23
  0.448000014        -3.35666121E-23
  0.456000000        -4.30822657E-23
  0.463999987        -4.52607114E-23
  0.472000003        -3.33527709E-23
  0.479999989        -2.56217900E-24
  0.488000005         4.29897670E-23
  0.495999992         8.70746371E-23
  0.504000008         1.06454924E-22
  0.512000024         8.32277664E-23
  0.519999981         1.73985671E-23
  0.527999997        -6.89591785E-23
  0.536000013        -1.40022710E-22
  0.544000030        -1.63144993E-22
  0.551999986        -1.24833048E-22
  0.560000002        -3.68963214E-23
  0.568000019         6.97170024E-23
  0.575999975         1.58544053E-22
  0.583999991         2.00724004E-22
  0.592000008         1.82256139E-22
  0.600000024         1.05365803E-22
  0.607999980        -1.27886683E-23
  0.615999997        -1.41983452E-22
  0.624000013        -2.42903223E-22
  0.632000029        -2.76462603E-22
  0.639999986        -2.18754562E-22
  0.648000002        -7.59288971E-23
  0.656000018         1.10582862E-22
  0.663999975         2.75413784E-22
  0.671999991         3.55088356E-22
  0.680000007         3.16393707E-22
  0.688000023         1.71877746E-22
  0.695999980        -2.66067953E-23
  0.703999996        -2.12558053E-22
  0.712000012        -3.33110666E-22
  0.720000029        -3.65044084E-22
  0.727999985        -3.12095462E-22
  0.736000001        -1.90548456E-22
  0.744000018        -1.76507612E-23
  0.751999974         1.86825587E-22
  0.759999990         3.88436852E-22
  0.768000007         5.29602084E-22
  0.776000023         5.39967388E-22
  0.783999979         3.68284169E-22
  0.791999996         2.11811346E-23
  0.800000012        -4.15863715E-22
  0.808000028        -7.94819897E-22
  0.815999985        -9.58984048E-22
  0.824000001        -8.12157066E-22
  0.832000017        -3.70117179E-22
  0.839999974         2.33338341E-22
  0.847999990         7.91310943E-22
  0.856000006         1.10181821E-21
  0.864000022         1.04510433E-21
  0.871999979         6.28750869E-22
  0.879999995        -1.66170931E-23
  0.888000011        -6.86403398E-22
  0.896000028        -1.17097634E-21
  0.903999984        -1.32318717E-21
  0.912000000        -1.09713149E-21
  0.920000017        -5.57008955E-22
  0.927999973         1.44825282E-22
  0.935999990         8.07661392E-22
  0.944000006         1.23074085E-21
  0.952000022         1.27032596E-21
  0.959999979         8.91505214E-22
  0.967999995         2.01276585E-22
  0.976000011        -5.60620802E-22
  0.984000027        -1.08850577E-21
  0.991999984        -1.11927786E-21
   1.00000000        -5.50167196E-22
   1.00800002         5.00468252E-22
   1.01600003         1.72263351E-21
   1.02400005         2.73053047E-21
   1.03199995         3.20776441E-21
   1.03999996         3.01214932E-21
   1.04799998         2.18982920E-21
   1.05599999         9.13854843E-22
   1.06400001        -6.02001996E-22
   1.07200003        -2.15676480E-21
   1.08000004        -3.56371541E-21
   1.08800006        -4.62777341E-21
   1.09599996        -5.15176123E-21
   1.10399997        -4.99681027E-21
   1.11199999        -4.16083642E-21
   1.12000000        -2.81927952E-21
   1.12800002        -1.27008605E-21
   1.13600004         1.96144912E-22
   1.14400005         1.42479265E-21
   1.15199995         2.43832004E-21
   1.15999997         3.35523682E-21
   1.16799998         4.23957731E-21
   1.17600000         4.99472939E-21
   1.18400002         5.38328133E-21
   1.19200003         5.17464077E-21
   1.20000005         4.31193340E-21
   1.20799994         2.97136282E-21
   1.21599996         1.44997279E-21
   1.22399998        -4.79332996E-23
   1.23199999        -1.56745576E-21
   1.24000001        -3.36112119E-21
   1.24800003        -5.64488003E-21
   1.25600004        -8.29444454E-21
   1.26400006        -1.06988025E-20
   1.27199996        -1.19001353E-20
   1.27999997        -1.09716695E-20
   1.28799999        -7.43712192E-21
   1.29600000        -1.50730190E-21
   1.30400002         5.95969535E-21
   1.31200004         1.36999075E-20
   1.32000005         2.03203412E-20
   1.32799995         2.44961784E-20
   1.33599997         2.51006503E-20
   1.34399998         2.13767365E-20
   1.35200000         1.32083570E-20
   1.36000001         1.41235465E-21
   1.36800003        -1.21553916E-20
   1.37600005        -2.48642414E-20
   1.38399994        -3.39465004E-20
   1.39199996        -3.72839124E-20
   1.39999998        -3.40125165E-20
   1.40799999        -2.47012125E-20
   1.41600001        -1.10966336E-20
   1.42400002         4.37261283E-21
   1.43200004         1.90804476E-20
   1.44000006         3.05462194E-20
   1.44799995         3.66805682E-20
   1.45599997         3.60654269E-20
   1.46399999         2.83067313E-20
   1.47200000         1.43529100E-20
   1.48000002        -3.44454890E-21
   1.48800004        -2.16908163E-20
   1.49600005        -3.66931697E-20
   1.50399995        -4.53352684E-20
   1.51199996        -4.57512466E-20
   1.51999998        -3.76070201E-20
   1.52800000        -2.20052726E-20
   1.53600001        -1.19034047E-21
   1.54400003         2.17626437E-20
   1.55200005         4.32467505E-20
   1.55999994         5.95354005E-20
   1.56799996         6.74445848E-20
   1.57599998         6.51743683E-20
   1.58399999         5.30421781E-20
   1.59200001         3.37023108E-20
   1.60000002         1.15791448E-20
   1.60800004        -8.36359652E-21
   1.61600006        -2.20756589E-20
   1.62399995        -2.75370914E-20
   1.63199997        -2.51533249E-20
   1.63999999        -1.74115202E-20
   1.64800000        -8.13115553E-21
   1.65600002        -1.63423343E-21
   1.66400003        -2.03795452E-21
   1.67200005        -1.25818759E-20
   1.67999995        -3.48669230E-20
   1.68799996        -6.79889214E-20
   1.69599998        -1.07887132E-19
   1.70400000        -1.47383190E-19
   1.71200001        -1.77219892E-19
   1.72000003        -1.87990830E-19
   1.72800004        -1.72411685E-19
   1.73599994        -1.27190109E-19
   1.74399996        -5.38606119E-20
   1.75199997         4.14504535E-20
   1.75999999         1.49050437E-19
   1.76800001         2.56983122E-19
   1.77600002         3.52294388E-19
   1.78400004         4.22267741E-19
   1.79200006         4.55822374E-19
   1.79999995         4.45101959E-19
   1.80799997         3.87053034E-19
   1.81599998         2.84411681E-19
   1.82400000         1.45673524E-19
   1.83200002        -1.60271607E-20
   1.84000003        -1.84746189E-19
   1.84800005        -3.43677156E-19
   1.85599995        -4.76827695E-19
   1.86399996        -5.70401365E-19
   1.87199998        -6.14138850E-19
   1.88000000        -6.02707524E-19
   1.88800001        -5.36864981E-19
   1.89600003        -4.23831087E-19
   1.90400004        -2.76417058E-19
   1.91199994        -1.10915524E-19
   1.91999996         5.55823819E-20
   1.92799997         2.07564573E-19
   1.93599999         3.32654457E-19
   1.94400001         4.22228476E-19
   1.95200002         4.71545785E-19
   1.96000004         4.79782850E-19
   1.96800005         4.50067575E-19
   1.97599995         3.89199749E-19
   1.98399997         3.06773527E-19
   1.99199998         2.13704696E-19
   2.00000000         1.20591185E-19
   2.00799990         3.63933814E-20
   2.01600003        -3.22642735E-20
   2.02399993        -8.13090043E-20
   2.03200006        -1.09292841E-19
   2.03999996        -1.17502105E-19
   2.04800010        -1.09981999E-19
   2.05599999        -9.31496295E-20
   2.06399989        -7.47843975E-20
   2.07200003        -6.25759613E-20
   2.07999992        -6.26483331E-20
   2.08800006        -7.85290829E-20
   2.09599996        -1.10710551E-19
   2.10400009        -1.56656647E-19
   2.11199999        -2.10990859E-19
   2.11999989        -2.65781997E-19
   2.12800002        -3.11100716E-19
   2.13599992        -3.36130063E-19
   2.14400005        -3.30923220E-19
   2.15199995        -2.88544095E-19
   2.16000009        -2.07008230E-19
   2.16799998        -9.04087924E-20
   2.17600012         5.11446354E-20
   2.18400002         2.02744411E-19
   2.19199991         3.46707842E-19
   2.20000005         4.64934699E-19
   2.20799994         5.41231202E-19
   2.21600008         5.63398092E-19
   2.22399998         5.25026838E-19
   2.23200011         4.26910422E-19
   2.24000001         2.77821301E-19
   2.24799991         9.42959273E-20
   2.25600004        -1.00907653E-19
   2.26399994        -2.81714013E-19
   2.27200007        -4.22605955E-19
   2.27999997        -5.02703249E-19
   2.28800011        -5.09185864E-19
   2.29600000        -4.39425380E-19
   2.30399990        -3.01580254E-19
   2.31200004        -1.13742788E-19
   2.31999993         9.81567799E-20
   2.32800007         3.03518597E-19
   2.33599997         4.71150238E-19
   2.34400010         5.73892067E-19
   2.35200000         5.93103337E-19
   2.35999990         5.22063722E-19
   2.36800003         3.67436782E-19
   2.37599993         1.48402057E-19
   2.38400006        -1.06285206E-19
   2.39199996        -3.62553340E-19
   2.40000010        -5.85736466E-19
   2.40799999        -7.45111733E-19
   2.41599989        -8.17898147E-19
   2.42400002        -7.92468237E-19
   2.43199992        -6.70392663E-19
   2.44000006        -4.66773470E-19
   2.44799995        -2.08412188E-19
   2.45600009         7.01802521E-20
   2.46399999         3.32258109E-19
   2.47199988         5.44570996E-19
   2.48000002         6.82079071E-19
   2.48799992         7.30839817E-19
   2.49600005         6.88988201E-19
   2.50399995         5.66232530E-19
   2.51200008         3.82369330E-19
   2.51999998         1.64956009E-19
   2.52800012        -5.40510799E-20
   2.53600001        -2.42832181E-19
   2.54399991        -3.74950322E-19
   2.55200005        -4.34099836E-19
   2.55999994        -4.16847304E-19
   2.56800008        -3.32366392E-19
   2.57599998        -1.99356072E-19
   2.58400011        -4.14761058E-20
   2.59200001         1.16962744E-19
   2.59999990         2.53947266E-19
   2.60800004         3.51384411E-19
   2.61599994         3.96270178E-19
   2.62400007         3.82183189E-19
   2.63199997         3.10963119E-19
   2.64000010         1.93502710E-19
   2.64800000         4.84650517E-20
   2.65599990        -1.01350893E-19
   2.66400003        -2.33924325E-19
   2.67199993        -3.32347832E-19
   2.68000007        -3.87071723E-19
   2.68799996        -3.95783563E-19
   2.69600010        -3.61887873E-19
   2.70400000        -2.92925153E-19
   2.71199989        -1.99630813E-19
   2.72000003        -9.53120735E-20
   2.72799993         5.31432444E-21
   2.73600006         8.83145456E-20
   2.74399996         1.43310334E-19
   2.75200009         1.65666751E-19
   2.75999999         1.57025324E-19
   2.76799989         1.23968085E-19
   2.77600002         7.55894446E-20
   2.78399992         2.11755248E-20
   2.79200006        -3.11500354E-20
   2.79999995        -7.47429545E-20
   2.80800009        -1.04268145E-19
   2.81599998        -1.15667935E-19
   2.82399988        -1.06511065E-19
   2.83200002        -7.64961638E-20
   2.83999991        -2.77095327E-20
   2.84800005         3.55927093E-20
   2.85599995         1.07582238E-19
   2.86400008         1.81543268E-19
   2.87199998         2.50389794E-19
   2.88000011         3.06976057E-19
   2.88800001         3.44347560E-19
   2.89599991         3.56164300E-19
   2.90400004         3.37419457E-19
   2.91199994         2.85429346E-19
   2.92000008         2.00872941E-19
   2.92799997         8.85626093E-20
   2.93600011        -4.23730216E-20
   2.94400001        -1.79090445E-19
   2.95199990        -3.06385915E-19
   2.96000004        -4.08567459E-19
   2.96799994        -4.71517713E-19
   2.97600007        -4.84677743E-19
   2.98399997        -4.42791178E-19
   2.99200010        -3.47281647E-19
   3.00000000        -2.07041149E-19
   3.00799990        -3.82606059E-20
   3.01600003         1.37035781E-19
   3.02399993         2.93817164E-19
   3.03200006         4.07813742E-19
   3.03999996         4.59429657E-19
   3.04800010         4.36955315E-19
   3.05599999         3.38549799E-19
   3.06399989         1.72907244E-19
   3.07200003        -4.12308338E-20
   3.07999992        -2.76621062E-19
   3.08800006        -5.00240629E-19
   3.09599996        -6.77333898E-19
   3.10400009        -7.76571635E-19
   3.11199999        -7.75499919E-19
   3.11999989        -6.65002031E-19
   3.12800002        -4.51570252E-19
   3.13599992        -1.56817792E-19
   3.14400005         1.85486218E-19
   3.15199995         5.33985359E-19
   3.16000009         8.44963858E-19
   3.16799998         1.07761233E-18
   3.17600012         1.19904028E-18
   3.18400002         1.18878520E-18
   3.19199991         1.04229152E-18
   3.20000005         7.72583228E-19
   3.20799994         4.09414207E-19
   3.21600008        -4.30220878E-21
   3.22399998        -4.18270262E-19
   3.23200011        -7.81721506E-19
   3.24000001        -1.05022852E-18
   3.24799991        -1.19141657E-18
   3.25600004        -1.18893916E-18
   3.26399994        -1.04439452E-18
   3.27200007        -7.77042559E-19
   3.27999997        -4.21353758E-19
   3.28800011        -2.26248712E-20
   3.29600000         3.68791316E-19
   3.30399990         7.03866750E-19
   3.31200004         9.41034683E-19
   3.31999993         1.05132267E-18
   3.32800007         1.02189314E-18
   3.33599997         8.57559544E-19
   3.34400010         5.79993196E-19
   3.35200000         2.24588920E-19
   3.35999990        -1.64635114E-19
   3.36800003        -5.41240922E-19
   3.37599993        -8.62492333E-19
   3.38400006        -1.09427578E-18
   3.39199996        -1.21418854E-18
   3.40000010        -1.21280663E-18
   3.40799999        -1.09360763E-18
   3.41599989        -8.72035929E-19
   3.42400002        -5.73857791E-19
   3.43199992        -2.32581888E-19
   3.44000006         1.14302066E-19
   3.44799995         4.30091319E-19
   3.45600009         6.83846963E-19
   3.46399999         8.54389737E-19
   3.47199988         9.32309788E-19
   3.48000002         9.19678327E-19
   3.48799992         8.28017151E-19
   3.49600005         6.75568901E-19
   3.50399995         4.84808954E-19
   3.51200008         2.80532204E-19
   3.51999998         8.82004916E-20
   3.52800012        -6.80287618E-20
   3.53600001        -1.67871988E-19
   3.54399991        -1.97737293E-19
   3.55200005        -1.52933404E-19
   3.55999994        -3.84063868E-20
   3.56800008         1.32326151E-19
   3.57599998         3.39613269E-19
   3.58400011         5.60554865E-19
   3.59200001         7.71463588E-19
   3.59999990         9.49602206E-19
   3.60800004         1.07454670E-18
   3.61599994         1.12977683E-18
   3.62400007         1.10479008E-18
   3.63199997         9.97342315E-19
   3.64000010         8.14892379E-19
   3.64800000         5.74363250E-19
   3.65599990         2.99969941E-19
   3.66400003         1.97164687E-20
   3.67199993        -2.38342943E-19
   3.68000007        -4.49143149E-19
   3.68799996        -5.92680751E-19
   3.69600010        -6.55488885E-19
   3.70400000        -6.32020530E-19
   3.71199989        -5.25991175E-19
   3.72000003        -3.51094252E-19
   3.72799993        -1.30222152E-19
   3.73600006         1.07272362E-19
   3.74399996         3.29891002E-19
   3.75200009         5.08736756E-19
