 -0.239999995         0.00000000    
 -0.231999993        -7.77710494E-20
 -0.224000007        -1.61963166E-19
 -0.216000006        -2.08706289E-19
 -0.208000004        -2.69103954E-19
 -0.200000003        -3.96330304E-19
 -0.192000002        -5.71489262E-19
 -0.184000000        -7.72384240E-19
 -0.175999999        -1.04287313E-18
 -0.167999998        -1.43414393E-18
 -0.159999996        -1.93512556E-18
 -0.151999995        -2.52283573E-18
 -0.143999994        -3.23460645E-18
 -0.136000007        -4.12557944E-18
 -0.128000006        -5.18837624E-18
 -0.119999997        -6.37605540E-18
 -0.112000003        -7.67683744E-18
 -0.104000002        -9.10151377E-18
  -9.60000008E-02    -1.06100149E-17
  -8.79999995E-02    -1.21085899E-17
  -7.99999982E-02    -1.35117356E-17
  -7.19999969E-02    -1.47501771E-17
  -6.40000030E-02    -1.57161769E-17
  -5.60000017E-02    -1.62571629E-17
  -4.80000004E-02    -1.62381278E-17
  -3.99999991E-02    -1.55727289E-17
  -3.20000015E-02    -1.41861409E-17
  -2.40000002E-02    -1.19982035E-17
  -1.60000008E-02    -8.97322716E-18
  -8.00000038E-03    -5.15954197E-18
   0.00000000        -6.61173374E-19
   8.00000038E-03     4.39678673E-18
   1.60000008E-02     9.84335334E-18
   2.40000002E-02     1.54297722E-17
   3.20000015E-02     2.08638575E-17
   3.99999991E-02     2.58738092E-17
   4.80000004E-02     3.02168615E-17
   5.60000017E-02     3.36508224E-17
   6.40000030E-02     3.59513969E-17
   7.19999969E-02     3.69754995E-17
   7.99999982E-02     3.66838753E-17
   8.79999995E-02     3.51027593E-17
   9.60000008E-02     3.23032823E-17
  0.104000002         2.84297774E-17
  0.112000003         2.37133855E-17
  0.119999997         1.84223925E-17
  0.128000006         1.28112600E-17
  0.136000007         7.12680121E-18
  0.143999994         1.62727706E-18
  0.151999995        -3.44620338E-18
  0.159999996        -7.91562712E-18
  0.167999998        -1.16645941E-17
  0.175999999        -1.46084431E-17
  0.184000000        -1.66981180E-17
  0.192000002        -1.79484462E-17
  0.200000003        -1.84289537E-17
  0.208000004        -1.82205787E-17
  0.216000006        -1.74033176E-17
  0.224000007        -1.60837892E-17
  0.231999993        -1.43998992E-17
  0.239999995        -1.24841018E-17
  0.247999996        -1.04414463E-17
  0.256000012        -8.37152358E-18
  0.263999999        -6.38330688E-18
  0.272000015        -4.56850694E-18
  0.280000001        -2.97817219E-18
  0.287999988        -1.64350706E-18
  0.296000004        -6.02168461E-19
  0.303999990         1.19156324E-19
  0.312000006         5.35611234E-19
  0.319999993         6.93211992E-19
  0.328000009         6.33752957E-19
  0.335999995         3.92938062E-19
  0.344000012         2.61883879E-20
  0.351999998        -3.92579764E-19
  0.360000014        -8.02728068E-19
  0.368000001        -1.16738925E-18
  0.375999987        -1.45057618E-18
  0.384000003        -1.60876631E-18
  0.391999990        -1.61680671E-18
  0.400000006        -1.48497201E-18
  0.407999992        -1.23901492E-18
  0.416000009        -8.98081158E-19
  0.423999995        -4.84321538E-19
  0.432000011        -3.96451415E-20
  0.439999998         3.85342631E-19
  0.448000014         7.54307138E-19
  0.456000000         1.04533771E-18
  0.463999987         1.23588714E-18
  0.472000003         1.30452628E-18
  0.479999989         1.24782015E-18
  0.488000005         1.08282150E-18
  0.495999992         8.31410969E-19
  0.504000008         5.12850067E-19
  0.512000024         1.53277770E-19
  0.519999981        -2.09728478E-19
  0.527999997        -5.39377956E-19
  0.536000013        -8.10680117E-19
  0.544000030        -1.00573106E-18
  0.551999986        -1.10674874E-18
  0.560000002        -1.10247056E-18
  0.568000019        -9.97905108E-19
  0.575999975        -8.10508374E-19
  0.583999991        -5.58824197E-19
  0.592000008        -2.61136060E-19
  0.600000024         5.73410583E-20
  0.607999980         3.64940713E-19
  0.615999997         6.33561826E-19
  0.624000013         8.43739321E-19
  0.632000029         9.80019498E-19
  0.639999986         1.02854636E-18
  0.648000002         9.83152962E-19
  0.656000018         8.50336707E-19
  0.663999975         6.45276823E-19
  0.671999991         3.85520061E-19
  0.680000007         9.10068246E-20
  0.688000023        -2.12708461E-19
  0.695999980        -4.96212621E-19
  0.703999996        -7.32944578E-19
  0.712000012        -9.03586976E-19
  0.720000029        -9.94768749E-19
  0.727999985        -9.97062004E-19
  0.736000001        -9.07810663E-19
  0.744000018        -7.35864991E-19
  0.751999974        -5.00271390E-19
  0.759999990        -2.23067683E-19
  0.768000007         7.39373904E-20
  0.776000023         3.65020975E-19
  0.783999979         6.19754941E-19
  0.791999996         8.12124271E-19
  0.800000012         9.28099025E-19
  0.808000028         9.61084610E-19
  0.815999985         9.05804233E-19
  0.824000001         7.64018859E-19
  0.832000017         5.52382373E-19
  0.839999974         2.96271358E-19
  0.847999990         1.80703421E-20
  0.856000006        -2.61241965E-19
  0.864000022        -5.13701339E-19
  0.871999979        -7.09794326E-19
  0.879999995        -8.32838735E-19
  0.888000011        -8.79286477E-19
  0.896000028        -8.46687289E-19
  0.903999984        -7.33235849E-19
  0.912000000        -5.50079036E-19
  0.920000017        -3.22120803E-19
  0.927999973        -7.32697975E-20
  0.935999990         1.79554842E-19
  0.944000006         4.16093587E-19
  0.952000022         6.09133890E-19
  0.959999979         7.37944161E-19
  0.967999995         7.97088971E-19
  0.976000011         7.87139798E-19
  0.984000027         7.06349739E-19
  0.991999984         5.58921959E-19
   1.00000000         3.63460525E-19
   1.00800002         1.44164333E-19
   1.01600003        -8.15146944E-20
   1.02400005        -2.99316907E-19
   1.03199995        -4.88796740E-19
   1.03999996        -6.28379178E-19
   1.04799998        -7.07909388E-19
   1.05599999        -7.27511708E-19
   1.06400001        -6.86295469E-19
   1.07200003        -5.82665196E-19
   1.08000004        -4.26102964E-19
   1.08800006        -2.38032698E-19
   1.09599996        -3.79402350E-20
   1.10399997         1.62697121E-19
   1.11199999         3.50167810E-19
   1.12000000         5.03154631E-19
   1.12800002         6.04575556E-19
   1.13600004         6.51142723E-19
   1.14400005         6.44699451E-19
   1.15199995         5.82462951E-19
   1.15999997         4.64913503E-19
   1.16799998         3.06596846E-19
   1.17600000         1.28536138E-19
   1.18400002        -5.57338852E-20
   1.19200003        -2.36896695E-19
   1.20000005        -3.97835049E-19
   1.20799994        -5.17564014E-19
   1.21599996        -5.85880809E-19
   1.22399998        -6.03450384E-19
   1.23199999        -5.69203297E-19
   1.24000001        -4.79996314E-19
   1.24800003        -3.43359053E-19
   1.25600004        -1.78736515E-19
   1.26400006        -3.57204215E-21
   1.27199996         1.71934867E-19
   1.27999997         3.34640957E-19
   1.28799999         4.64700969E-19
   1.29600000         5.47131430E-19
   1.30400002         5.78864818E-19
   1.31200004         5.60560139E-19
   1.32000005         4.90521205E-19
   1.32799995         3.72395419E-19
   1.33599997         2.21263524E-19
   1.34399998         5.54236472E-20
   1.35200000        -1.12596588E-19
   1.36000001        -2.71684396E-19
   1.36800003        -4.05290919E-19
   1.37600005        -4.96915001E-19
   1.38399994        -5.39684013E-19
   1.39199996        -5.34581704E-19
   1.39999998        -4.82507945E-19
   1.40799999        -3.85368739E-19
   1.41600001        -2.53529488E-19
   1.42400002        -1.04611632E-19
   1.43200004         4.62087324E-20
   1.44000006         1.89362955E-19
   1.44799995         3.14288049E-19
   1.45599997         4.06822521E-19
   1.46399999         4.56671372E-19
   1.47200000         4.62993668E-19
   1.48000002         4.29655291E-19
   1.48800004         3.59572129E-19
   1.49600005         2.57776750E-19
   1.50399995         1.35966443E-19
   1.51199996         8.46232505E-21
   1.51999998        -1.14507982E-19
   1.52800000        -2.25320121E-19
   1.53600001        -3.13615836E-19
   1.54400003        -3.68634074E-19
   1.55200005        -3.86455629E-19
   1.55999994        -3.70105137E-19
   1.56799996        -3.23147748E-19
   1.57599998        -2.48392205E-19
   1.58399999        -1.52687718E-19
   1.59200001        -4.72240514E-20
   1.60000002         5.83083168E-20
   1.60800004         1.57565085E-19
   1.61600006         2.43031273E-19
   1.62399995         3.04910070E-19
   1.63199997         3.36703067E-19
   1.63999999         3.38248938E-19
   1.64800000         3.11786138E-19
   1.65600002         2.58983090E-19
   1.66400003         1.83828548E-19
   1.67200005         9.46685334E-20
   1.67999995         5.46190277E-22
   1.68799996        -9.21065871E-20
   1.69599998        -1.77189506E-19
   1.70400000        -2.46255520E-19
   1.71200001        -2.91238765E-19
   1.72000003        -3.08777113E-19
   1.72800004        -2.99902034E-19
   1.73599994        -2.66802867E-19
   1.74399996        -2.12104102E-19
   1.75199997        -1.40566485E-19
   1.75999999        -5.91678802E-20
   1.76800001         2.49021512E-20
   1.77600002         1.05225329E-19
   1.78400004         1.75249948E-19
   1.79200006         2.28050490E-19
   1.79999995         2.58192279E-19
   1.80799997         2.63729762E-19
   1.81599998         2.45995217E-19
   1.82400000         2.07829400E-19
   1.83200002         1.52730680E-19
   1.84000003         8.55336160E-20
   1.84800005         1.27226582E-20
   1.85599995        -5.87486354E-20
   1.86399996        -1.22723075E-19
   1.87199998        -1.73840213E-19
   1.88000000        -2.07350385E-19
   1.88800001        -2.20142126E-19
   1.89600003        -2.11956734E-19
   1.90400004        -1.84969527E-19
   1.91199994        -1.42293186E-19
   1.91999996        -8.74787312E-20
   1.92799997        -2.52968569E-20
   1.93599999         3.79841757E-20
   1.94400001         9.58187733E-20
   1.95200002         1.42935375E-19
   1.96000004         1.75716931E-19
   1.96800005         1.91687694E-19
   1.97599995         1.89603484E-19
   1.98399997         1.70356503E-19
   1.99199998         1.37024136E-19
   2.00000000         9.33338775E-20
   2.00799990         4.26447310E-20
   2.01600003        -1.09248159E-20
   2.02399993        -6.15360725E-20
   2.03200006        -1.03582962E-19
   2.03999996        -1.34284229E-19
   2.04800010        -1.52902902E-19
   2.05599999        -1.58263148E-19
   2.06399989        -1.49428472E-19
   2.07200003        -1.28421768E-19
   2.07999992        -9.94189089E-20
   2.08800006        -6.50877469E-20
   2.09599996        -2.65554090E-20
   2.10400009         1.28689100E-20
   2.11199999         4.75458440E-20
   2.11999989         7.41302721E-20
   2.12800002         9.30981634E-20
   2.13599992         1.04599218E-19
   2.14400005         1.06490870E-19
   2.15199995         9.82797713E-20
   2.16000009         8.33526316E-20
   2.16799998         6.48520328E-20
   2.17600012         4.26195860E-20
   2.18400002         1.69104378E-20
   2.19199991        -8.19765229E-21
   2.20000005        -2.85196042E-20
   2.20799994        -4.41711345E-20
   2.21600008        -5.67435043E-20
   2.22399998        -6.45902753E-20
   2.23200011        -6.50331789E-20
   2.24000001        -5.93227052E-20
   2.24799991        -5.09575343E-20
   2.25600004        -4.02826360E-20
   2.26399994        -2.53156720E-20
   2.27200007        -7.32484104E-21
   2.27999997         9.20250387E-21
   2.28800011         2.23701917E-20
   2.29600000         3.40527866E-20
   2.30399990         4.45175358E-20
   2.31200004         5.05849637E-20
   2.31999993         5.08099536E-20
   2.32800007         4.80577622E-20
   2.33599997         4.44541046E-20
   2.34400010         3.78004932E-20
   2.35200000         2.61378427E-20
   2.35999990         1.22981061E-20
   2.36800003         1.56928542E-22
   2.37599993        -1.06871646E-20
   2.38400006        -2.23417655E-20
   2.39199996        -3.32587708E-20
   2.40000010        -4.01905023E-20
   2.40799999        -4.37924570E-20
   2.41599989        -4.72266622E-20
   2.42400002        -5.00611290E-20
   2.43199992        -4.86545730E-20
   2.44000006        -4.24447440E-20
   2.44799995        -3.47968744E-20
   2.45600009        -2.71522327E-20
   2.46399999        -1.73564723E-20
   2.47199988        -4.91285669E-21
   2.48000002         7.01153265E-21
   2.48799992         1.66783651E-20
   2.49600005         2.63762937E-20
   2.50399995         3.75173131E-20
   2.51200008         4.71538412E-20
   2.51999998         5.22275183E-20
   2.52800012         5.37779294E-20
   2.53600001         5.37533983E-20
   2.54399991         5.07309450E-20
   2.55200005         4.24621471E-20
   2.55999994         3.03223571E-20
   2.56800008         1.74020060E-20
   2.57599998         3.84422577E-21
   2.58400011        -1.20312637E-20
   2.59200001        -2.90073759E-20
   2.59999990        -4.32905943E-20
   2.60800004        -5.32139408E-20
   2.61599994        -5.99192123E-20
   2.62400007        -6.32266810E-20
   2.63199997        -6.05574015E-20
   2.64000010        -5.09226538E-20
   2.64800000        -3.67235783E-20
   2.65599990        -2.02082744E-20
   2.66400003        -1.06509611E-21
   2.67199993         2.06848791E-20
   2.68000007         4.19968774E-20
   2.68799996         5.92472961E-20
   2.69600010         7.14198404E-20
   2.70400000         7.86486170E-20
   2.71199989         7.93961427E-20
   2.72000003         7.17588358E-20
   2.72799993         5.65115707E-20
   2.73600006         3.63071607E-20
   2.74399996         1.25322201E-20
   2.75200009        -1.46102020E-20
   2.75999999        -4.32664251E-20
   2.76799989        -6.95835382E-20
   2.77600002        -9.03449121E-20
   2.78399992        -1.04122626E-19
   2.79200006        -1.09826243E-19
   2.79999995        -1.06106709E-19
   2.80800009        -9.27351926E-20
   2.81599998        -7.11608553E-20
   2.82399988        -4.32269854E-20
   2.83200002        -1.04572722E-20
   2.83999991         2.49937840E-20
   2.84800005         5.97014376E-20
   2.85599995         8.99263005E-20
   2.86400008         1.12847650E-19
   2.87199998         1.26752000E-19
   2.88000011         1.30583087E-19
   2.88800001         1.23715291E-19
   2.89599991         1.06142640E-19
   2.90400004         7.88517674E-20
   2.91199994         4.39820527E-20
   2.92000008         4.51932995E-21
   2.92799997        -3.60933733E-20
   2.93600011        -7.40225965E-20
   2.94400001        -1.05317366E-19
   2.95199990        -1.26903426E-19
   2.96000004        -1.37305558E-19
   2.96799994        -1.36023247E-19
   2.97600007        -1.22608743E-19
   2.98399997        -9.71597494E-20
   2.99200010        -6.15563772E-20
   3.00000000        -1.94206159E-20
   3.00799990         2.51138222E-20
   3.01600003         6.80087156E-20
   3.02399993         1.05121001E-19
   3.03200006         1.32659310E-19
   3.03999996         1.48272978E-19
   3.04800010         1.51095732E-19
   3.05599999         1.40641875E-19
   3.06399989         1.16575197E-19
   3.07200003         8.00959892E-20
   3.07999992         3.49022656E-20
   3.08800006        -1.39578941E-20
   3.09599996        -6.19493526E-20
   3.10400009        -1.05344624E-19
   3.11199999        -1.40340678E-19
   3.11999989        -1.63215582E-19
   3.12800002        -1.71693408E-19
   3.13599992        -1.65341811E-19
   3.14400005        -1.44473479E-19
   3.15199995        -1.09866168E-19
   3.16000009        -6.42115882E-20
   3.16799998        -1.26074370E-20
   3.17600012         3.95406162E-20
   3.18400002         8.83614299E-20
   3.19199991         1.30481874E-19
   3.20000005         1.61616913E-19
   3.20799994         1.78024312E-19
   3.21600008         1.78683213E-19
   3.22399998         1.64463035E-19
   3.23200011         1.36050286E-19
   3.24000001         9.47503791E-20
   3.24799991         4.46886232E-20
   3.25600004        -8.20077441E-21
   3.26399994        -5.93806725E-20
   3.27200007        -1.05949371E-19
   3.27999997        -1.44056515E-19
   3.28800011        -1.68804984E-19
   3.29600000        -1.77381955E-19
   3.30399990        -1.70247419E-19
   3.31200004        -1.48733162E-19
   3.31999993        -1.13714406E-19
   3.32800007        -6.76106413E-20
   3.33599997        -1.55787868E-20
   3.34400010         3.68262037E-20
   3.35200000         8.58690636E-20
   3.35999990         1.28392325E-19
   3.36800003         1.60012390E-19
   3.37599993         1.76531342E-19
   3.38400006         1.76525797E-19
   3.39199996         1.61009207E-19
   3.40000010         1.31172983E-19
   3.40799999         8.83276706E-20
   3.41599989         3.59606108E-20
   3.42400002        -2.01349720E-20
   3.43199992        -7.44711287E-20
   3.44000006        -1.23301713E-19
   3.44799995        -1.63053015E-19
   3.45600009        -1.89181117E-19
   3.46399999        -1.98086634E-19
   3.47199988        -1.89234936E-19
   3.48000002        -1.64180449E-19
   3.48799992        -1.24565904E-19
   3.49600005        -7.26927033E-20
   3.50399995        -1.32514189E-20
   3.51200008         4.75164791E-20
   3.51999998         1.04319095E-19
   3.52800012         1.53112088E-19
   3.53600001         1.89520262E-19
   3.54399991         2.09155293E-19
   3.55200005         2.09878120E-19
   3.55999994         1.92285733E-19
   3.56800008         1.57955657E-19
   3.57599998         1.08981950E-19
   3.58400011         4.95185599E-20
   3.59200001        -1.40766026E-20
   3.59999990        -7.55003870E-20
   3.60800004        -1.29870691E-19
   3.61599994        -1.72749058E-19
   3.62400007        -1.99650820E-19
   3.63199997        -2.07614139E-19
   3.64000010        -1.96333813E-19
   3.64800000        -1.67185480E-19
   3.65599990        -1.22289891E-19
   3.66400003        -6.53268538E-20
   3.67199993        -2.18775418E-21
   3.68000007         6.03985958E-20
   3.68799996         1.16691532E-19
   3.69600010         1.62092025E-19
   3.70400000         1.92492903E-19
   3.71199989         2.04717288E-19
   3.72000003         1.97603199E-19
   3.72799993         1.72099075E-19
   3.73600006         1.30539673E-19
   3.74399996         7.64980831E-20
   3.75200009         1.51617909E-20
   3.75999999        -4.71292487E-20
   3.76799989        -1.04323592E-19
   3.77600002        -1.51622633E-19
   3.78399992        -1.85269846E-19
   3.79200006        -2.02246461E-19
   3.79999995        -2.00824008E-19
   3.80800009        -1.81294416E-19
   3.81599998        -1.45854715E-19
   3.82399988        -9.79475226E-20
   3.83200002        -4.19097261E-20
   3.83999991         1.71636891E-20
   3.84800005         7.39487189E-20
   3.85599995         1.23630686E-19
   3.86400008         1.62225718E-19
   3.87199998         1.86569876E-19
   3.88000011         1.94523955E-19
   3.88800001         1.85396172E-19
   3.89599991         1.60168274E-19
   3.90400004         1.21395734E-19
   3.91199994         7.28560392E-20
   3.92000008         1.89730869E-20
   3.92799997        -3.57330360E-20
   3.93600011        -8.68548109E-20
   3.94400001        -1.30198603E-19
   3.95199990        -1.62169018E-19
   3.96000004        -1.80122818E-19
   3.96799994        -1.82319590E-19
   3.97600007        -1.68063015E-19
   3.98399997        -1.38459126E-19
   3.99200010        -9.66845794E-20
   4.00000000        -4.68482561E-20
   4.00799990         7.17104280E-21
   4.01599979         6.13252384E-20
   4.02400017         1.10664423E-19
   4.03200006         1.50248518E-19
   4.03999996         1.76636406E-19
   4.04799986         1.87698409E-19
   4.05600023         1.81698752E-19
   4.06400013         1.58128525E-19
   4.07200003         1.19313191E-19
   4.07999992         6.97654145E-20
   4.08799982         1.39127272E-20
   4.09600019        -4.43183339E-20
   4.10400009        -9.99889397E-20
   4.11199999        -1.47161144E-19
   4.11999989        -1.81033117E-19
   4.12799978        -1.98892231E-19
   4.13600016        -1.98872624E-19
   4.14400005        -1.79596666E-19
   4.15199995        -1.41985643E-19
   4.15999985        -9.01872372E-20
   4.16800022        -2.97186542E-20
   4.17600012         3.45004949E-20
   4.18400002         9.76870835E-20
   4.19199991         1.54097286E-19
   4.19999981         1.97913650E-19
   4.20800018         2.25062248E-19
   4.21600008         2.33463740E-19
   4.22399998         2.22167891E-19
   4.23199987         1.91561666E-19
   4.23999977         1.44477679E-19
   4.24800014         8.60256140E-20
   4.25600004         2.18778334E-20
   4.26399994        -4.28430120E-20
   4.27199984        -1.03132116E-19
   4.28000021        -1.53820141E-19
   4.28800011        -1.90680369E-19
   4.29600000        -2.11531383E-19
   4.30399990        -2.15799234E-19
   4.31199980        -2.03620757E-19
   4.32000017        -1.76289870E-19
   4.32800007        -1.37259740E-19
   4.33599997        -9.15823484E-20
   4.34399986        -4.41153580E-20
   4.35200024         1.18440016E-21
   4.36000013         4.05830641E-20
   4.36800003         7.05895966E-20
   4.37599993         8.91676790E-20
   4.38399982         9.61122221E-20
   4.39200020         9.19237866E-20
   4.40000010         7.72705793E-20
   4.40799999         5.40059889E-20
   4.41599989         2.56699412E-20
   4.42399979        -3.85683987E-21
   4.43200016        -3.16315062E-20
   4.44000006        -5.51856324E-20
   4.44799995        -7.18646115E-20
   4.45599985        -7.96786443E-20
   4.46400023        -7.82828481E-20
   4.47200012        -6.82711968E-20
   4.48000002        -5.00392249E-20
   4.48799992        -2.42666115E-20
   4.49599981         6.91502313E-21
   4.50400019         4.02777311E-20
   4.51200008         7.29002804E-20
   4.51999998         1.02471070E-19
   4.52799988         1.26544559E-19
   4.53599977         1.42637267E-19
   4.54400015         1.49280975E-19
   4.55200005         1.46266212E-19
   4.55999994         1.33759732E-19
   4.56799984         1.11985818E-19
   4.57600021         8.20748702E-20
   4.58400011         4.65410425E-20
   4.59200001         8.45926755E-21
   4.59999990        -2.94145910E-20
   4.60799980        -6.43986215E-20
   4.61600018        -9.33932988E-20
   4.62400007        -1.13465075E-19
   4.63199997        -1.22965025E-19
   4.63999987        -1.21692783E-19
   4.64799976        -1.10120216E-19
   4.65600014        -8.90659357E-20
   4.66400003        -6.02262191E-20
   4.67199993        -2.64305790E-20
   4.67999983         8.98102545E-21
   4.68800020         4.27324639E-20
   4.69600010         7.14715779E-20
   4.70400000         9.18092027E-20
   4.71199989         1.01307046E-19
   4.71999979         9.93903389E-20
   4.72800016         8.69259937E-20
   4.73600006         6.52153137E-20
   4.74399996         3.59638259E-20
   4.75199986         1.93412053E-21
   4.76000023        -3.32560372E-20
   4.76800013        -6.61533817E-20
   4.77600002        -9.38282795E-20
   4.78399992        -1.13463305E-19
   4.79199982        -1.22625791E-19
   4.80000019        -1.20388900E-19
   4.80800009        -1.07668685E-19
   4.81599998        -8.62759266E-20
   4.82399988        -5.82545824E-20
   4.83199978        -2.62858805E-20
   4.84000015         6.18911034E-21
   4.84800005         3.59569790E-20
   4.85599995         6.08111585E-20
   4.86399984         7.91191083E-20
   4.87200022         8.93603086E-20
   4.88000011         9.07794210E-20
   4.88800001         8.41063159E-20
   4.89599991         7.10280476E-20
   4.90399981         5.32178441E-20
   4.91200018         3.23601295E-20
   4.92000008         1.07053311E-20
   4.92799997        -9.25424385E-21
   4.93599987        -2.58019395E-20
   4.94399977        -3.82929467E-20
   4.95200014        -4.64665122E-20
   4.96000004        -4.99502513E-20
   4.96799994        -4.85973037E-20
   4.97599983        -4.29394173E-20
   4.98400021        -3.39934364E-20
   4.99200010        -2.27433778E-20
   5.00000000        -1.00421633E-20
   5.00799990         3.10641277E-21
   5.01599979         1.55992030E-20
   5.02400017         2.67306743E-20
   5.03200006         3.62845587E-20
   5.03999996         4.38362395E-20
   5.04799986         4.83104949E-20
   5.05600023         4.87012990E-20
   5.06400013         4.49719423E-20
   5.07200003         3.77213585E-20
   5.07999992         2.72867562E-20
   5.08799982         1.39405056E-20
   5.09600019        -1.25627975E-21
   5.10400009        -1.67471665E-20
   5.11199999        -3.15620844E-20
   5.11999989        -4.51130832E-20
   5.12799978        -5.59468325E-20
   5.13600016        -6.19302887E-20
   5.14400005        -6.20003922E-20
   5.15199995        -5.67180233E-20
   5.15999985        -4.68998676E-20
   5.16800022        -3.29446005E-20
   5.17600012        -1.59206677E-20
   5.18400002         1.98126539E-21
   5.19199991         1.87918568E-20
   5.19999981         3.35223991E-20
   5.20800018         4.50046741E-20
   5.21600008         5.12183030E-20
   5.22399998         5.07892903E-20
   5.23199987         4.43470009E-20
   5.23999977         3.35466619E-20
   5.24800014         1.95555934E-20
   5.25600004         3.42268274E-21
   5.26399994        -1.28382203E-20
   5.27199984        -2.67409737E-20
   5.28000021        -3.66591810E-20
   5.28800011        -4.18528833E-20
   5.29600000        -4.15667628E-20
   5.30399990        -3.51409750E-20
   5.31199980        -2.30296453E-20
   5.32000017        -6.90003775E-21
   5.32800007         1.13908869E-20
   5.33599997         3.02497430E-20
   5.34399986         4.76850010E-20
   5.35200024         6.10392988E-20
   5.36000013         6.79771276E-20
   5.36800003         6.73589975E-20
   5.37599993         5.87183334E-20
   5.38399982         4.14607351E-20
   5.39200020         1.54858324E-20
   5.40000010        -1.75516126E-20
   5.40799999        -5.45159716E-20
   5.41599989        -9.23848493E-20
   5.42399979        -1.28735631E-19
   5.43200016        -1.60657242E-19
   5.44000006        -1.84410392E-19
   5.44799995        -1.96724707E-19
   5.45599985        -1.95564380E-19
   5.46400023        -1.79286706E-19
   5.47200012        -1.46361648E-19
   5.48000002        -9.68957625E-20
   5.48799992        -3.35834069E-20
   5.49599981         3.96758829E-20
   5.50400019         1.19243604E-19
   5.51200008         2.01063399E-19
   5.51999998         2.79677753E-19
   5.52799988         3.49284174E-19
   5.53599977         4.05251214E-19
   5.54400015         4.43679621E-19
   5.55200005         4.60440782E-19
   5.55999994         4.52295225E-19
   5.56799984         4.18854639E-19
   5.57600021         3.62349026E-19
   5.58400011         2.85698774E-19
   5.59200001         1.91944612E-19
   5.59999990         8.54161629E-20
   5.60799980        -2.78790369E-20
   5.61600018        -1.41525084E-19
   5.62400007        -2.49727145E-19
   5.63199997        -3.47025919E-19
   5.63999987        -4.28091920E-19
   5.64799976        -4.88735788E-19
   5.65600014        -5.26951635E-19
   5.66400003        -5.42457704E-19
   5.67199993        -5.35421086E-19
   5.67999983        -5.06309860E-19
   5.68800020        -4.57015841E-19
   5.69600010        -3.91306991E-19
   5.70400000        -3.13660245E-19
   5.71199989        -2.28099603E-19
   5.71999979        -1.38516757E-19
   5.72800016        -4.92802220E-20
   5.73600006         3.55090478E-20
   5.74399996         1.13052984E-19
   5.75199986         1.81280354E-19
   5.76000023         2.37642709E-19
   5.76800013         2.79640116E-19
   5.77600002         3.06414324E-19
   5.78399992         3.18697749E-19
   5.79199982         3.17220379E-19
   5.80000019         3.02327793E-19
   5.80800009         2.75216044E-19
   5.81599998         2.38292950E-19
   5.82399988         1.94039434E-19
   5.83199978         1.44650948E-19
   5.84000015         9.31146359E-20
   5.84800005         4.34333993E-20
   5.85599995        -8.62025596E-22
   5.86399984        -3.76303266E-20
   5.87200022        -6.52018332E-20
   5.88000011        -8.16130643E-20
   5.88800001        -8.55442854E-20
   5.89599991        -7.74002463E-20
   5.90399981        -5.88595681E-20
   5.91200018        -3.19757490E-20
   5.92000008         5.93819199E-22
   5.92799997         3.50292539E-20
   5.93599987         6.69876322E-20
   5.94399977         9.28529302E-20
   5.95200014         1.09965804E-19
   5.96000004         1.16007325E-19
   5.96799994         1.09113188E-19
   5.97599983         8.89238546E-20
   5.98400021         5.70626733E-20
   5.99200010         1.63697961E-20
   6.00000000        -2.98881907E-20
   6.00799990        -7.78459481E-20
   6.01599979        -1.22799227E-19
   6.02400017        -1.60049238E-19
   6.03200006        -1.86130062E-19
   6.03999996        -1.98951646E-19
   6.04799986        -1.97104073E-19
   6.05600023        -1.79870373E-19
   6.06400013        -1.48116395E-19
   6.07200003        -1.04567339E-19
   6.07999992        -5.29493400E-20
   6.08799982         2.68384283E-21
   6.09600019         5.77051083E-20
   6.10400009         1.06927305E-19
   6.11199999         1.45740603E-19
   6.11999989         1.71176019E-19
   6.12799978         1.81631052E-19
   6.13600016         1.76154690E-19
   6.14400005         1.54779102E-19
   6.15199995         1.19347583E-19
   6.15999985         7.32804604E-20
   6.16800022         2.05293481E-20
   6.17600012        -3.47151676E-20
   6.18400002        -8.75827557E-20
   6.19199991        -1.32916047E-19
   6.19999981        -1.66611766E-19
   6.20800018        -1.86182213E-19
   6.21600008        -1.90061212E-19
   6.22399998        -1.77356868E-19
   6.23199987        -1.48791969E-19