 -0.239999995         0.00000000    
 -0.231999993         0.00000000    
 -0.224000007         9.62947732E-37
 -0.216000006         1.05512832E-29
 -0.208000004         9.84502105E-29
 -0.200000003         5.51328734E-24
 -0.192000002         1.76395736E-23
 -0.184000000         6.24872934E-24
 -0.175999999        -5.17068315E-23
 -0.167999998        -7.81622696E-23
 -0.159999996         3.91348405E-23
 -0.151999995         2.01248022E-22
 -0.143999994         1.14315916E-22
 -0.136000007        -2.50879705E-22
 -0.128000006        -4.28669995E-22
 -0.119999997        -2.77562003E-23
 -0.112000003         5.93684954E-22
 -0.104000002         6.36817899E-22
  -9.60000008E-02    -1.14091993E-22
  -8.79999995E-02    -9.16193607E-22
  -7.99999982E-02    -8.73096205E-22
  -7.19999969E-02     4.56568616E-23
  -6.40000030E-02     9.37588424E-22
  -5.60000017E-02     9.23637627E-22
  -4.80000004E-02     8.53972790E-23
  -3.99999991E-02    -6.91008731E-22
  -3.20000015E-02    -7.68759821E-22
  -2.40000002E-02    -3.36336767E-22
  -1.60000008E-02     1.51547021E-22
  -8.00000038E-03     5.74958481E-22
   0.00000000         8.38188365E-22
   8.00000038E-03     5.55892079E-22
   1.60000008E-02    -3.18969735E-22
   2.40000002E-02    -1.00233439E-21
   3.20000015E-02    -7.36738480E-22
   3.99999991E-02     1.93002280E-22
   4.80000004E-02     9.17383891E-22
   5.60000017E-02     1.05150691E-21
   6.40000030E-02     7.07665787E-22
   7.19999969E-02     1.28991948E-23
   7.99999982E-02    -6.77932269E-22
   8.79999995E-02    -6.90623766E-22
   9.60000008E-02     3.79738171E-23
  0.104000002         5.11291474E-22
  0.112000003        -5.03076510E-23
  0.119999997        -1.06181395E-21
  0.128000006        -1.45329535E-21
  0.136000007        -1.07020834E-21
  0.143999994        -4.74107827E-22
  0.151999995        -1.95285278E-23
  0.159999996         1.66803969E-22
  0.167999998        -1.36090055E-23
  0.175999999        -2.15550727E-22
  0.184000000         1.63675789E-22
  0.192000002         8.84347557E-22
  0.200000003         9.93175021E-22
  0.208000004         4.84214840E-22
  0.216000006         5.86735960E-22
  0.224000007         1.74376560E-21
  0.231999993         2.61396263E-21
  0.239999995         2.06096028E-21
  0.247999996         8.53553154E-22
  0.256000012         1.83807153E-22
  0.263999999        -3.01920242E-22
  0.272000015        -1.58246326E-21
  0.280000001        -3.30053344E-21
  0.287999988        -4.21432811E-21
  0.296000004        -4.02811432E-21
  0.303999990        -3.39680224E-21
  0.312000006        -2.46937667E-21
  0.319999993        -8.20381919E-22
  0.328000009         1.35647442E-21
  0.335999995         3.17482986E-21
  0.344000012         4.26990955E-21
  0.351999998         5.15576789E-21
  0.360000014         6.05699934E-21
  0.368000001         6.09815481E-21
  0.375999987         4.30728212E-21
  0.384000003         9.28690477E-22
  0.391999990        -2.64021451E-21
  0.400000006        -5.26440643E-21
  0.407999992        -6.84026183E-21
  0.416000009        -7.65180356E-21
  0.423999995        -7.59574349E-21
  0.432000011        -6.25285697E-21
  0.439999998        -3.62535935E-21
  0.448000014        -2.18141775E-22
  0.456000000         3.42525112E-21
  0.463999987         6.89077478E-21
  0.472000003         9.59819589E-21
  0.479999989         1.06936827E-20
  0.488000005         9.56262713E-21
  0.495999992         6.20990376E-21
  0.504000008         1.29892580E-21
  0.512000024        -3.90151732E-21
  0.519999981        -7.88307405E-21
  0.527999997        -9.78854275E-21
  0.536000013        -9.93299321E-21
  0.544000030        -9.04111156E-21
  0.551999986        -7.12205739E-21
  0.560000002        -3.74780147E-21
  0.568000019         7.12383453E-22
  0.575999975         4.98333425E-21
  0.583999991         8.10110480E-21
  0.592000008         9.95597251E-21
  0.600000024         1.04240283E-20
  0.607999980         8.89016483E-21
  0.615999997         5.16584875E-21
  0.624000013         2.93387897E-22
  0.632000029        -4.17158896E-21
  0.639999986        -7.30792099E-21
  0.648000002        -8.86576300E-21
  0.656000018        -8.68453452E-21
  0.663999975        -6.79098804E-21
  0.671999991        -3.85752932E-21
  0.680000007        -8.63669254E-22
  0.688000023         1.78213074E-21
  0.695999980         4.30068568E-21
  0.703999996         6.58562793E-21
  0.712000012         7.66699897E-21
  0.720000029         6.55226646E-21
  0.727999985         3.44342970E-21
  0.736000001        -2.70947417E-22
  0.744000018        -3.25161912E-21
  0.751999974        -5.10017432E-21
  0.759999990        -5.97948064E-21
  0.768000007        -5.83716317E-21
  0.776000023        -4.39137182E-21
  0.783999979        -1.69010134E-21
  0.791999996         1.65201418E-21
  0.800000012         4.68098641E-21
  0.808000028         6.43599710E-21
  0.815999985         6.32857873E-21
  0.824000001         4.51858880E-21
  0.832000017         1.81490070E-21
  0.839999974        -9.51110888E-22
  0.847999990        -3.33943638E-21
  0.856000006        -5.14138028E-21
  0.864000022        -6.20007452E-21
  0.871999979        -6.45081365E-21
  0.879999995        -5.75645974E-21
  0.888000011        -3.72052390E-21
  0.896000028        -2.13458819E-22
  0.903999984         3.89438410E-21
  0.912000000         7.15008621E-21
  0.920000017         8.74872502E-21
  0.927999973         8.75093596E-21
  0.935999990         7.19222557E-21
  0.944000006         3.93690312E-21
  0.952000022        -3.95251726E-22
  0.959999979        -4.31308975E-21
  0.967999995        -6.74640107E-21
  0.976000011        -7.82048782E-21
  0.984000027        -8.01631879E-21
  0.991999984        -7.20119692E-21
   1.00000000        -4.95794449E-21
   1.00800002        -1.46543477E-21
   1.01600003         2.37874304E-21
   1.02400005         5.57613679E-21
   1.03199995         7.56504007E-21
   1.03999996         8.24619018E-21
   1.04799998         7.67179484E-21
   1.05599999         5.85048449E-21
   1.06400001         2.92061965E-21
   1.07200003        -6.66359566E-22
   1.08000004        -4.29767584E-21
   1.08800006        -7.29753196E-21
   1.09599996        -8.77515361E-21
   1.10399997        -7.98129852E-21
   1.11199999        -5.26003101E-21
   1.12000000        -2.03680584E-21
   1.12800002         6.86253149E-22
   1.13600004         3.14400991E-21
   1.14400005         5.55780796E-21
   1.15199995         7.07357685E-21
   1.15999997         6.87909004E-21
   1.16799998         5.43079615E-21
   1.17600000         3.47549830E-21
   1.18400002         7.96065010E-22
   1.19200003        -2.80896480E-21
   1.20000005        -6.15997161E-21
   1.20799994        -7.68714130E-21
   1.21599996        -7.16555545E-21
   1.22399998        -5.31387247E-21
   1.23199999        -2.43090590E-21
   1.24000001         1.28442600E-21
   1.24800003         4.71249682E-21
   1.25600004         6.47886832E-21
   1.26400006         6.38922949E-21
   1.27199996         5.27959012E-21
   1.27999997         3.77250905E-21
   1.28799999         1.92845023E-21
   1.29600000        -2.47565075E-22
   1.30400002        -2.61559619E-21
   1.31200004        -4.93158175E-21
   1.32000005        -6.64418004E-21
   1.32799995        -6.98627779E-21
   1.33599997        -5.60874621E-21
   1.34399998        -2.93001489E-21
   1.35200000         2.33589237E-22
   1.36000001         3.17273404E-21
   1.36800003         5.48040356E-21
   1.37600005         6.99832845E-21
   1.38399994         7.54084423E-21
   1.39199996         6.70194819E-21
   1.39999998         4.26495737E-21
   1.40799999         7.69350065E-22
   1.41600001        -2.79027044E-21
   1.42400002        -5.74606263E-21
   1.43200004        -7.73203200E-21
   1.44000006        -8.22059121E-21
   1.44799995        -6.94007927E-21
   1.45599997        -4.52413229E-21
   1.46399999        -1.86222388E-21
   1.47200000         9.49701793E-22
   1.48000002         4.11173428E-21
   1.48800004         6.97353808E-21
   1.49600005         8.43343916E-21
   1.50399995         8.16463535E-21
   1.51199996         6.48099645E-21
   1.51999998         3.46982718E-21
   1.52800000        -6.33758583E-22
   1.53600001        -4.63503063E-21
   1.54400003        -7.09790759E-21
   1.55200005        -7.68229131E-21
   1.55999994        -6.96978911E-21
   1.56799996        -5.37526842E-21
   1.57599998        -3.04334530E-21
   1.58399999        -3.96080952E-22
   1.59200001         2.03854482E-21
   1.60000002         4.11195683E-21
   1.60800004         5.82557618E-21
   1.61600006         6.87786220E-21
   1.62399995         6.79312869E-21
   1.63199997         5.29579769E-21
   1.63999999         2.46691451E-21
   1.64800000        -1.12943778E-21
   1.65600002        -4.48905627E-21
   1.66400003        -6.69787125E-21
   1.67200005        -7.39471437E-21
   1.67999995        -6.59485415E-21
   1.68799996        -4.47378090E-21
   1.69599998        -1.57523623E-21
   1.70400000         1.29504748E-21
   1.71200001         3.70214094E-21
   1.72000003         5.61367213E-21
   1.72800004         6.70150471E-21
   1.73599994         6.35275397E-21
   1.74399996         4.53900417E-21
   1.75199997         1.92907687E-21
   1.75999999        -9.21805349E-22
   1.76800001        -3.71060419E-21
   1.77600002        -5.81318947E-21
   1.78400004        -6.55069732E-21
   1.79200006        -5.98404629E-21
   1.79999995        -4.54793554E-21
   1.80799997        -2.16555703E-21
   1.81599998         1.20747589E-21
   1.82400000         4.50350810E-21
   1.83200002         6.26184529E-21
   1.84000003         6.28481692E-21
   1.84800005         5.46209452E-21
   1.85599995         4.18418933E-21
   1.86399996         2.10022066E-21
   1.87199998        -6.87344579E-22
   1.88000000        -3.33342720E-21
   1.88800001        -5.21246974E-21
   1.89600003        -6.28410444E-21
   1.90400004        -6.46915137E-21
   1.91199994        -5.41888241E-21
   1.91999996        -3.05113021E-21
   1.92799997         1.14101737E-22
   1.93599999         3.23308793E-21
   1.94400001         5.56566577E-21
   1.95200002         6.71484582E-21
   1.96000004         6.61973055E-21
   1.96800005         5.35467170E-21
   1.97599995         3.05303115E-21
   1.98399997         9.81573313E-23
   1.99199998        -2.86986759E-21
   2.00000000        -5.30014564E-21
   2.00799990        -6.80757285E-21
   2.01600003        -6.89463684E-21
   2.02399993        -5.19001995E-21
   2.03200006        -2.19843645E-21
   2.03999996         8.06449954E-22
   2.04800010         2.95906699E-21
   2.05599999         4.36953393E-21
   2.06399989         5.34788058E-21
   2.07200003         5.70931247E-21
   2.07999992         5.11379089E-21
   2.08800006         3.50866994E-21
   2.09599996         1.01563532E-21
   2.10400009        -2.04892375E-21
   2.11199999        -4.86803343E-21
   2.11999989        -6.41924386E-21
   2.12800002        -6.29321191E-21
   2.13599992        -4.86658183E-21
   2.14400005        -2.70008534E-21
   2.15199995        -2.26383920E-22
   2.16000009         2.08861772E-21
   2.16799998         3.82633395E-21
   2.17600012         4.87609077E-21
   2.18400002         5.24142955E-21
   2.19199991         4.73049487E-21
   2.20000005         3.22179821E-21
   2.20799994         1.07049359E-21
   2.21600008        -1.14052485E-21
   2.22399998        -3.09976261E-21
   2.23200011        -4.68957689E-21
   2.24000001        -5.60383684E-21
   2.24799991        -5.42873830E-21
   2.25600004        -4.06397430E-21
   2.26399994        -1.84506776E-21
   2.27200007         6.93509912E-22
   2.27999997         3.04413169E-21
   2.28800011         4.81411604E-21
   2.29600000         5.73882036E-21
   2.30399990         5.64174700E-21
   2.31200004         4.44796866E-21
   2.31999993         2.33942369E-21
   2.32800007        -1.66681702E-22
   2.33599997        -2.45079661E-21
   2.34400010        -4.10633822E-21
   2.35200000        -4.96953552E-21
   2.35999990        -4.96608786E-21
   2.36800003        -4.12915637E-21
   2.37599993        -2.73258873E-21
   2.38400006        -1.17214259E-21
   2.39199996         3.79361695E-22
   2.40000010         2.03312816E-21
   2.40799999         3.74682525E-21
   2.41599989         4.96956622E-21
   2.42400002         5.00020866E-21
   2.43199992         3.71236276E-21
   2.44000006         1.69525961E-21
   2.44799995        -3.29456360E-22
   2.45600009        -1.96333197E-21
   2.46399999        -3.02736714E-21
   2.47199988        -3.42951061E-21
   2.48000002        -3.30444761E-21
   2.48799992        -2.93203922E-21
   2.49600005        -2.31677699E-21
   2.50399995        -1.17477530E-21
   2.51200008         4.98906080E-22
   2.51999998         2.17895428E-21
   2.52800012         3.28580514E-21
   2.53600001         3.60386599E-21
   2.54399991         3.15583580E-21
   2.55200005         2.06182381E-21
   2.55999994         6.56800188E-22
   2.56800008        -6.44163418E-22
   2.57599998        -1.71862060E-21
   2.58400011        -2.63534392E-21
   2.59200001        -3.16864458E-21
   2.59999990        -2.85915887E-21
   2.60800004        -1.65621652E-21
   2.61599994        -1.01032887E-22
   2.62400007         1.22924310E-21
   2.63199997         2.10472936E-21
   2.64000010         2.43478271E-21
   2.64800000         2.10978292E-21
   2.65599990         1.25271798E-21
   2.66400003         3.30752641E-22
   2.67199993        -2.38356683E-22
   2.68000007        -5.07618336E-22
   2.68799996        -8.72117462E-22
   2.69600010        -1.51650146E-21
   2.70400000        -2.10386280E-21
   2.71199989        -2.11724007E-21
   2.72000003        -1.44580993E-21
   2.72799993        -4.49703273E-22
   2.73600006         5.23560192E-22
   2.74399996         1.39561313E-21
   2.75200009         2.09355152E-21
   2.75999999         2.41212026E-21
   2.76799989         2.29083571E-21
   2.77600002         1.88161779E-21
   2.78399992         1.19247627E-21
   2.79200006         6.88388740E-23
   2.79999995        -1.28054799E-21
   2.80800009        -2.19372701E-21
   2.81599998        -2.26916847E-21
   2.82399988        -1.79893870E-21
   2.83200002        -1.26815250E-21
   2.83999991        -8.07844963E-22
   2.84800005        -3.67490158E-22
   2.85599995        -1.85905821E-24
   2.86400008         3.06699300E-22
   2.87199998         7.58407694E-22
   2.88000011         1.37513678E-21
   2.88800001         1.80451410E-21
   2.89599991         1.72333569E-21
   2.90400004         1.19429189E-21
   2.91199994         4.56321374E-22
   2.92000008        -3.52337971E-22
   2.92799997        -1.05184335E-21
   2.93600011        -1.29719065E-21
   2.94400001        -9.39614976E-22
   2.95199990        -3.74907546E-22
   2.96000004        -1.94204832E-22
   2.96799994        -4.81024408E-22
   2.97600007        -7.17892454E-22
   2.98399997        -4.53164870E-22
   2.99200010         1.85901106E-22
   3.00000000         7.69298064E-22
   3.00799990         1.09827230E-21
   3.01600003         1.21891808E-21
   3.02399993         1.09353398E-21
   3.03200006         6.07594856E-22
   3.03999996        -1.28112765E-22
   3.04800010        -7.69018567E-22
   3.05599999        -1.06034195E-21
   3.06399989        -9.99767324E-22
   3.07200003        -7.23285839E-22
   3.07999992        -3.91889109E-22
   3.08800006        -1.08449391E-22
   3.09599996         1.88889664E-22
   3.10400009         6.23524798E-22
   3.11199999         1.06483388E-21
   3.11999989         1.14631925E-21
   3.12800002         7.46962319E-22
   3.13599992         1.89705207E-22
   3.14400005        -2.25217138E-22
   3.15199995        -5.98396915E-22
   3.16000009        -1.11355605E-21
   3.16799998        -1.60326061E-21
   3.17600012        -1.70273938E-21
   3.18400002        -1.27474591E-21
   3.19199991        -4.76798335E-22
   3.20000005         4.75231569E-22
   3.20799994         1.42955541E-21
   3.21600008         2.23023988E-21
   3.22399998         2.63438991E-21
   3.23200011         2.39610293E-21
   3.24000001         1.50625561E-21
   3.24799991         2.97136665E-22
   3.25600004        -8.49854065E-22
   3.26399994        -1.82701236E-21
   3.27200007        -2.61992596E-21
   3.27999997        -2.96315119E-21
   3.28800011        -2.55681568E-21
   3.29600000        -1.54442577E-21
   3.30399990        -3.67955296E-22
   3.31200004         7.63935122E-22
   3.31999993         1.85256085E-21
   3.32800007         2.69171559E-21
   3.33599997         2.96327963E-21
   3.34400010         2.66425384E-21
   3.35200000         1.99805517E-21
   3.35999990         9.89132217E-22
   3.36800003        -3.75777010E-22
   3.37599993        -1.81742183E-21
   3.38400006        -2.96134517E-21
   3.39199996        -3.62989511E-21
   3.40000010        -3.65085655E-21
   3.40799999        -2.77554638E-21
   3.41599989        -1.13584803E-21
   3.42400002         6.45475982E-22
   3.43199992         2.11366477E-21
   3.44000006         3.28912336E-21
   3.44799995         4.07747980E-21
   3.45600009         3.99473669E-21
   3.46399999         2.85051064E-21
   3.47199988         1.15623734E-21
   3.48000002        -4.85398409E-22
   3.48799992        -1.91455779E-21
   3.49600005        -3.09099482E-21
   3.50399995        -3.76009286E-21
   3.51200008        -3.72126586E-21
   3.51999998        -3.03603517E-21
   3.52800012        -1.80442645E-21
   3.53600001        -9.13956890E-23
   3.54399991         1.82137780E-21
   3.55200005         3.41065307E-21
   3.55999994         4.20132182E-21
   3.56800008         3.96381557E-21
   3.57599998         2.78806961E-21
   3.58400011         1.13123532E-21
   3.59200001        -4.33476568E-22
   3.59999990        -1.67786388E-21
   3.60800004        -2.70699197E-21
   3.61599994        -3.46075687E-21
   3.62400007        -3.60559709E-21
   3.63199997        -2.99373950E-21
   3.64000010        -1.83514967E-21
   3.64800000        -3.55838897E-22
   3.65599990         1.32002324E-21
   3.66400003         2.89608372E-21
   3.67199993         3.88273854E-21
   3.68000007         3.94325157E-21
   3.68799996         3.08526151E-21
   3.69600010         1.59696567E-21
   3.70400000        -5.46299114E-23
   3.71199989        -1.45561917E-21
   3.72000003        -2.50854981E-21
   3.72799993        -3.25267491E-21
   3.73600006        -3.45180491E-21
   3.74399996        -2.78281128E-21
   3.75200009        -1.43603219E-21
