 -0.239999995         0.00000000    
 -0.231999993         0.00000000    
 -0.224000007         0.00000000    
 -0.216000006         0.00000000    
 -0.208000004         0.00000000    
 -0.200000003         0.00000000    
 -0.192000002         0.00000000    
 -0.184000000         0.00000000    
 -0.175999999         0.00000000    
 -0.167999998         0.00000000    
 -0.159999996         1.30292991E-36
 -0.151999995        -1.08338435E-35
 -0.143999994        -1.33781818E-34
 -0.136000007        -3.73388112E-34
 -0.128000006         4.11716896E-34
 -0.119999997         4.83974534E-33
 -0.112000003         1.03052445E-32
 -0.104000002        -3.73085744E-33
  -9.60000008E-02    -6.23990899E-32
  -8.79999995E-02    -1.19415274E-31
  -7.99999982E-02     4.31217319E-33
  -7.19999969E-02     4.41481072E-31
  -6.40000030E-02     8.22738935E-31
  -5.60000017E-02     1.67561101E-31
  -4.80000004E-02    -2.01175890E-30
  -3.99999991E-02    -3.92524008E-30
  -3.20000015E-02    -1.75397412E-30
  -2.40000002E-02     6.01659311E-30
  -1.60000008E-02     1.34997337E-29
  -8.00000038E-03     9.51383889E-30
   0.00000000        -1.02662448E-29
   8.00000038E-03    -3.22295649E-29
   1.60000008E-02    -3.18852177E-29
   2.40000002E-02     8.00539395E-31
   3.20000015E-02     4.41332474E-29
   3.99999991E-02     6.18043799E-29
   4.80000004E-02     4.13819903E-29
   5.60000017E-02     5.75947920E-30
   6.40000030E-02    -2.50281367E-29
   7.19999969E-02    -7.15144974E-29
   7.99999982E-02    -1.59659099E-28
   8.79999995E-02    -2.30973552E-28
   9.60000008E-02    -1.28968334E-28
  0.104000002         2.43901164E-28
  0.112000003         7.14402865E-28
  0.119999997         8.42788292E-28
  0.128000006         2.67680959E-28
  0.136000007        -8.58095487E-28
  0.143999994        -1.79465856E-27
  0.151999995        -1.69914014E-27
  0.159999996        -3.31169552E-28
  0.167999998         1.62620228E-27
  0.175999999         2.94851554E-27
  0.184000000         2.68893408E-27
  0.192000002         8.27572482E-28
  0.200000003        -1.68947101E-27
  0.208000004        -3.50592474E-27
  0.216000006        -3.63633985E-27
  0.224000007        -2.02805219E-27
  0.231999993         4.08559123E-28
  0.239999995         2.36659177E-27
  0.247999996         3.02171359E-27
  0.256000012         2.61354702E-27
  0.263999999         2.15452223E-27
  0.272000015         2.31623332E-27
  0.280000001         2.40330731E-27
  0.287999988         5.70952428E-28
  0.296000004        -4.44465419E-27
  0.303999990        -1.12801232E-26
  0.312000006        -1.55049548E-26
  0.319999993        -1.18446910E-26
  0.328000009         1.83657103E-27
  0.335999995         2.13215791E-26
  0.344000012         3.62437213E-26
  0.351999998         3.47955698E-26
  0.360000014         1.13855755E-26
  0.368000001        -2.69432176E-26
  0.375999987        -6.05200774E-26
  0.384000003        -6.62799515E-26
  0.391999990        -3.30373283E-26
  0.400000006         2.67839447E-26
  0.407999992         7.95980806E-26
  0.416000009         8.99663815E-26
  0.423999995         4.60885235E-26
  0.432000011        -2.75314736E-26
  0.439999998        -8.32070207E-26
  0.448000014        -8.30455199E-26
  0.456000000        -2.81409241E-26
  0.463999987         4.00570348E-26
  0.472000003         7.00361065E-26
  0.479999989         4.00907216E-26
  0.488000005        -2.39998004E-26
  0.495999992        -6.87964055E-26
  0.504000008        -5.55599789E-26
  0.512000024         8.77601979E-27
  0.519999981         7.70260613E-26
  0.527999997         9.87762815E-26
  0.536000013         5.85595362E-26
  0.544000030        -1.51810596E-26
  0.551999986        -7.53976552E-26
  0.560000002        -9.26818010E-26
  0.568000019        -7.19592323E-26
  0.575999975        -3.85089323E-26
  0.583999991        -9.99935355E-27
  0.592000008         1.75638201E-26
  0.600000024         5.71716587E-26
  0.607999980         1.05637054E-25
  0.615999997         1.33592596E-25
  0.624000013         1.04989892E-25
  0.632000029         1.17709464E-26
  0.639999986        -1.07988513E-25
  0.648000002        -1.88851094E-25
  0.656000018        -1.82611044E-25
  0.663999975        -9.36664288E-26
  0.671999991         2.41300549E-26
  0.680000007         1.07034435E-25
  0.688000023         1.25244401E-25
  0.695999980         9.63715191E-26
  0.703999996         6.07557805E-26
  0.712000012         4.32290846E-26
  0.720000029         3.54889324E-26
  0.727999985         1.23809000E-26
  0.736000001        -3.62956505E-26
  0.744000018        -9.06679808E-26
  0.751999974        -1.17703742E-25
  0.759999990        -1.04042138E-25
  0.768000007        -7.11367462E-26
  0.776000023        -5.37941631E-26
  0.783999979        -5.84201482E-26
  0.791999996        -4.22791728E-26
  0.800000012         5.62665703E-26
  0.808000028         2.50555486E-25
  0.815999985         4.56556848E-25
  0.824000001         5.17666007E-25
  0.832000017         3.07399866E-25
  0.839999974        -1.55089746E-25
  0.847999990        -6.70100312E-25
  0.856000006        -9.53227668E-25
  0.864000022        -8.13880319E-25
  0.871999979        -2.94741163E-25
  0.879999995         3.40165944E-25
  0.888000011         7.74465673E-25
  0.896000028         8.48334312E-25
  0.903999984         6.48813985E-25
  0.912000000         4.05148681E-25
  0.920000017         2.76426771E-25
  0.927999973         2.08547460E-25
  0.935999990        -7.28564815E-27
  0.944000006        -5.08623837E-25
  0.952000022        -1.16196066E-24
  0.959999979        -1.58056358E-24
  0.967999995        -1.38279615E-24
  0.976000011        -5.03332602E-25
  0.984000027         6.94786974E-25
  0.991999984         1.62291861E-24
   1.00000000         1.84274831E-24
   1.00800002         1.33835311E-24
   1.01600003         4.79302124E-25
   1.02400005        -2.89827792E-25
   1.03199995        -7.63736869E-25
   1.03999996        -1.04047006E-24
   1.04799998        -1.30936435E-24
   1.05599999        -1.57150283E-24
   1.06400001        -1.57028305E-24
   1.07200003        -1.01070200E-24
   1.08000004         1.19643058E-25
   1.08800006         1.42470745E-24
   1.09599996         2.30900179E-24
   1.10399997         2.36901201E-24
   1.11199999         1.65982665E-24
   1.12000000         6.26520135E-25
   1.12800002        -2.29605066E-25
   1.13600004        -6.59151810E-25
   1.14400005        -7.05253137E-25
   1.15199995        -5.04069792E-25
   1.15999997        -9.48186403E-26
   1.16799998         5.39035214E-25
   1.17600000         1.23468860E-24
   1.18400002         1.51032035E-24
   1.19200003         7.84532524E-25
   1.20000005        -1.11155126E-24
   1.20799994        -3.54198625E-24
   1.21599996        -5.22616879E-24
   1.22399998        -4.99328876E-24
   1.23199999        -2.65624573E-24
   1.24000001         6.92329229E-25
   1.24800003         3.28911689E-24
   1.25600004         3.87315322E-24
   1.26400006         2.58376914E-24
   1.27199996         8.70603461E-25
   1.27999997         4.20477851E-25
   1.28799999         1.85937395E-24
   1.29600000         4.20870230E-24
   1.30400002         5.53710896E-24
   1.31200004         4.35683618E-24
   1.32000005         7.45133852E-25
   1.32799995        -3.62699706E-24
   1.33599997        -6.58285532E-24
   1.34399998        -6.84207778E-24
   1.35200000        -4.75549453E-24
   1.36000001        -1.91557338E-24
   1.36800003        -1.39907933E-26
   1.37600005         1.79886565E-25
   1.38399994        -9.43778001E-25
   1.39199996        -2.39689548E-24
   1.39999998        -3.38673527E-24
   1.40799999        -3.69953874E-24
   1.41600001        -3.47909037E-24
   1.42400002        -2.73651884E-24
   1.43200004        -1.11491595E-24
   1.44000006         1.85626958E-24
   1.44799995         6.24013036E-24
   1.45599997         1.13803378E-23
   1.46399999         1.60960978E-23
   1.47200000         1.92304993E-23
   1.48000002         2.01187409E-23
   1.48800004         1.86178810E-23
   1.49600005         1.47453249E-23
   1.50399995         8.33299018E-24
   1.51199996        -8.87043520E-25
   1.51999998        -1.27271915E-23
   1.52800000        -2.59307478E-23
   1.53600001        -3.80778741E-23
   1.54400003        -4.62546194E-23
   1.55200005        -4.81950657E-23
   1.55999994        -4.32022546E-23
   1.56799996        -3.22625619E-23
   1.57599998        -1.73412784E-23
   1.58399999        -3.85897591E-25
   1.59200001         1.72064889E-23
   1.60000002         3.43676152E-23
   1.60800004         4.96150974E-23
   1.61600006         6.06190444E-23
   1.62399995         6.46791537E-23
   1.63199997         5.98955012E-23
   1.63999999         4.63792436E-23
   1.64800000         2.66767388E-23
   1.65600002         4.89455809E-24
   1.66400003        -1.48727386E-23
   1.67200005        -2.99135330E-23
   1.67999995        -3.93295566E-23
   1.68799996        -4.34873363E-23
   1.69599998        -4.30062038E-23
   1.70400000        -3.82707664E-23
   1.71200001        -2.96527387E-23
   1.72000003        -1.81268656E-23
   1.72800004        -5.61573512E-24
   1.73599994         5.29714221E-24
   1.74399996         1.22129268E-23
   1.75199997         1.37887759E-23
   1.75999999         1.01146254E-23
   1.76800001         2.49827535E-24
   1.77600002        -7.07989962E-24
   1.78400004        -1.64837377E-23
   1.79200006        -2.37442305E-23
   1.79999995        -2.69818892E-23
   1.80799997        -2.45932452E-23
   1.81599998        -1.57318760E-23
   1.82400000        -7.11199127E-25
   1.83200002         1.87591754E-23
   1.84000003         3.97404269E-23
   1.84800005         5.86282498E-23
   1.85599995         7.18796930E-23
   1.86399996         7.66155469E-23
   1.87199998         7.11273658E-23
   1.88000000         5.50677671E-23
   1.88800001         2.96086729E-23
   1.89600003        -2.63074896E-24
   1.90400004        -3.78524398E-23
   1.91199994        -7.14504833E-23
   1.91999996        -9.86312285E-23
   1.92799997        -1.15037478E-22
   1.93599999        -1.17251148E-22
   1.94400001        -1.03304125E-22
   1.95200002        -7.31608284E-23
   1.96000004        -2.90966296E-23
   1.96800005         2.41103282E-23
   1.97599995         7.94957033E-23
   1.98399997         1.28726726E-22
   1.99199998         1.63543967E-22
   2.00000000         1.77465835E-22
   2.00799990         1.67240153E-22
   2.01600003         1.33371300E-22
   2.02399993         7.97998818E-23
   2.03200006         1.28524595E-23
   2.03999996        -5.98366963E-23
   2.04800010        -1.30068232E-22
   2.05599999        -1.89570836E-22
   2.06399989        -2.30530501E-22
   2.07200003        -2.46668071E-22
   2.07999992        -2.34609859E-22
   2.08800006        -1.94914125E-22
   2.09599996        -1.32100375E-22
   2.10400009        -5.36461640E-23
   2.11199999         3.14561757E-23
   2.11999989         1.13786610E-22
   2.12800002         1.84056282E-22
   2.13599992         2.33683143E-22
   2.14400005         2.56028934E-22
   2.15199995         2.48309810E-22
   2.16000009         2.13045153E-22
   2.16799998         1.57788350E-22
   2.17600012         9.27742076E-23
   2.18400002         2.76689302E-23
   2.19199991        -3.05909373E-23
   2.20000005        -7.77264587E-23
   2.20799994        -1.10483188E-22
   2.21600008        -1.25481416E-22
   2.22399998        -1.20114801E-22
   2.23200011        -9.51136535E-23
   2.24000001        -5.65846583E-23
   2.24799991        -1.53096808E-23
   2.25600004         1.70513026E-23
   2.26399994         3.26826840E-23
   2.27200007         3.02615942E-23
   2.27999997         1.39800383E-23
   2.28800011        -1.00871873E-23
   2.29600000        -3.74642382E-23
   2.30399990        -6.64091130E-23
   2.31200004        -9.64644043E-23
   2.31999993        -1.26097270E-22
   2.32800007        -1.51379366E-22
   2.33599997        -1.66503281E-22
   2.34400010        -1.65504103E-22
   2.35200000        -1.44127096E-22
   2.35999990        -1.01227755E-22
   2.36800003        -3.96632668E-23
   2.37599993         3.34607943E-23
   2.38400006         1.07708342E-22
   2.39199996         1.71815268E-22
   2.40000010         2.17195672E-22
   2.40799999         2.40710492E-22
   2.41599989         2.44857553E-22
   2.42400002         2.35083402E-22
   2.43199992         2.15983477E-22
   2.44000006         1.89126284E-22
   2.44799995         1.53949702E-22
   2.45600009         1.10705710E-22
   2.46399999         6.26902082E-23
   2.47199988         1.56993244E-23
   2.48000002        -2.49275628E-23
   2.48799992        -5.71754520E-23
   2.49600005        -8.26355969E-23
   2.50399995        -1.04078818E-22
   2.51200008        -1.22653419E-22
   2.51999998        -1.37338563E-22
   2.52800012        -1.47199022E-22
   2.53600001        -1.54146475E-22
   2.54399991        -1.63124331E-22
   2.55200005        -1.78683571E-22
   2.55999994        -2.00293904E-22
   2.56800008        -2.20375223E-22
   2.57599998        -2.27406107E-22
   2.58400011        -2.12542099E-22
   2.59200001        -1.75142456E-22
   2.59999990        -1.23083417E-22
   2.60800004        -6.74468943E-23
   2.61599994        -1.54622054E-23
   2.62400007         3.30762246E-23
   2.63199997         8.34091791E-23
   2.64000010         1.39529766E-22
   2.64800000         1.99101752E-22
   2.65599990         2.53658540E-22
   2.66400003         2.93867979E-22
   2.67199993         3.15658766E-22
   2.68000007         3.22261418E-22
   2.68799996         3.20505250E-22
   2.69600010         3.14256335E-22
   2.70400000         3.00232812E-22
   2.71199989         2.69600421E-22
   2.72000003         2.14294204E-22
   2.72799993         1.33427833E-22
   2.73600006         3.51161085E-23
   2.74399996        -6.73979660E-23
   2.75200009        -1.62193955E-22
   2.75999999        -2.43009372E-22
   2.76799989        -3.08790072E-22
   2.77600002        -3.59739480E-22
   2.78399992        -3.93696067E-22
   2.79200006        -4.05937346E-22
   2.79999995        -3.92351293E-22
   2.80800009        -3.53065995E-22
   2.81599998        -2.93419174E-22
   2.82399988        -2.21558944E-22
   2.83200002        -1.44841059E-22
   2.83999991        -6.80114410E-23
   2.84800005         5.70644782E-24
   2.85599995         7.22596463E-23
   2.86400008         1.26040422E-22
   2.87199998         1.62253113E-22
   2.88000011         1.80853405E-22
   2.88800001         1.88590717E-22
   2.89599991         1.96591244E-22
   2.90400004         2.14071682E-22
   2.91199994         2.41986301E-22
   2.92000008         2.70974327E-22
   2.92799997         2.85471848E-22
   2.93600011         2.71812160E-22
   2.94400001         2.25559440E-22
   2.95199990         1.53788383E-22
   2.96000004         7.13443720E-23
   2.96799994        -6.20515582E-24
   2.97600007        -6.85295775E-23
   2.98399997        -1.12284379E-22
   2.99200010        -1.38673038E-22
   3.00000000        -1.49507822E-22
   3.00799990        -1.44910681E-22
   3.01600003        -1.24056544E-22
   3.02399993        -8.79051814E-23
   3.03200006        -4.15498876E-23
   3.03999996         5.61373654E-24
   3.04800010         4.20121980E-23
   3.05599999         5.70103150E-23
   3.06399989         4.35615587E-23
   3.07200003        -1.64289257E-25
   3.07999992        -7.00188017E-23
   3.08800006        -1.55736264E-22
   3.09599996        -2.41831028E-22
   3.10400009        -3.10178442E-22
   3.11199999        -3.44285203E-22
   3.11999989        -3.33923130E-22
   3.12800002        -2.78114010E-22
   3.13599992        -1.84975273E-22
   3.14400005        -6.87121073E-23
   3.15199995         5.45258386E-23
   3.16000009         1.69897604E-22
   3.16799998         2.65376014E-22
   3.17600012         3.32054451E-22
   3.18400002         3.64395022E-22
   3.19199991         3.60935949E-22
   3.20000005         3.25012940E-22
   3.20799994         2.64647157E-22
   3.21600008         1.91257559E-22
   3.22399998         1.17639734E-22
   3.23200011         5.58002528E-23
   3.24000001         1.48982062E-23
   3.24799991        -7.97409988E-25
   3.25600004         6.39820310E-24
   3.26399994         2.72331224E-23
   3.27200007         4.76602969E-23
   3.27999997         5.34259014E-23
   3.28800011         3.52562007E-23
   3.29600000        -8.17742365E-24
   3.30399990        -7.11356773E-23
   3.31200004        -1.44579713E-22
   3.31999993        -2.19881106E-22
   3.32800007        -2.89867003E-22
   3.33599997        -3.47193032E-22
   3.34400010        -3.82676804E-22
   3.35200000        -3.86484187E-22
   3.35999990        -3.52508592E-22
   3.36800003        -2.83029106E-22
   3.37599993        -1.89688585E-22
   3.38400006        -8.92303037E-23
   3.39199996         3.62140877E-24
   3.40000010         8.14074477E-23
   3.40799999         1.43979888E-22
   3.41599989         1.94104464E-22
   3.42400002         2.32772204E-22
   3.43199992         2.58271369E-22
   3.44000006         2.69502022E-22
   3.44799995         2.70019363E-22
   3.45600009         2.68339329E-22
   3.46399999         2.72995553E-22
   3.47199988         2.85458040E-22
   3.48000002         2.96439060E-22
   3.48799992         2.89058780E-22
   3.49600005         2.47508050E-22
   3.50399995         1.65629539E-22
   3.51200008         4.98680725E-23
   3.51999998        -8.48466036E-23
   3.52800012        -2.22547304E-22
   3.53600001        -3.51190550E-22
   3.54399991        -4.61920393E-22
   3.55200005        -5.44493506E-22
   3.55999994        -5.84313084E-22
   3.56800008        -5.65411220E-22
   3.57599998        -4.78759557E-22
   3.58400011        -3.30356090E-22
   3.59200001        -1.42736808E-22
   3.59999990         5.21080777E-23
   3.60800004         2.24284793E-22
   3.61599994         3.54559681E-22
   3.62400007         4.34940997E-22
   3.63199997         4.62590660E-22
   3.64000010         4.33581581E-22
   3.64800000         3.42896479E-22
   3.65599990         1.91533093E-22
   3.66400003        -4.88875878E-24
   3.67199993        -2.13826794E-22
   3.68000007        -3.93585803E-22
   3.68799996        -5.07601927E-22
   3.69600010        -5.36872681E-22
   3.70400000        -4.83459603E-22
   3.71199989        -3.64335396E-22
   3.72000003        -2.01195402E-22
   3.72799993        -1.34845517E-23
   3.73600006         1.81904193E-22
   3.74399996         3.66728157E-22
   3.75200009         5.18842930E-22
