 -0.239999995         0.00000000    
 -0.231999993         0.00000000    
 -0.224000007         0.00000000    
 -0.216000006         0.00000000    
 -0.208000004         0.00000000    
 -0.200000003         0.00000000    
 -0.192000002         0.00000000    
 -0.184000000        -0.00000000    
 -0.175999999         7.92233831E-35
 -0.167999998         8.05144019E-34
 -0.159999996         2.23203161E-33
 -0.151999995        -8.99134968E-33
 -0.143999994        -6.41096987E-32
 -0.136000007        -8.56120059E-32
 -0.128000006         2.93161426E-31
 -0.119999997         1.14018495E-30
 -0.112000003         6.61825983E-31
 -0.104000002        -3.80822027E-30
  -9.60000008E-02    -8.67556058E-30
  -8.79999995E-02    -3.52029149E-31
  -7.99999982E-02     2.59195564E-29
  -7.19999969E-02     3.68646674E-29
  -6.40000030E-02    -1.70605405E-29
  -5.60000017E-02    -1.09009079E-28
  -4.80000004E-02    -9.82802051E-29
  -3.99999991E-02     1.05275640E-28
  -3.20000015E-02     3.13649030E-28
  -2.40000002E-02     1.67510550E-28
  -1.60000008E-02    -3.53605938E-28
  -8.00000038E-03    -6.58853893E-28
   0.00000000        -1.47328007E-28
   8.00000038E-03     8.30507022E-28
   1.60000008E-02     1.04853009E-27
   2.40000002E-02    -1.16438270E-28
   3.20000015E-02    -1.51916834E-27
   3.99999991E-02    -1.28692719E-27
   4.80000004E-02     7.39217076E-28
   5.60000017E-02     2.30638335E-27
   6.40000030E-02     1.25498651E-27
   7.19999969E-02    -1.56994259E-27
   7.99999982E-02    -2.95221564E-27
   8.79999995E-02    -1.15131158E-27
   9.60000008E-02     1.86305334E-27
  0.104000002         2.86996688E-27
  0.112000003         1.37105393E-27
  0.119999997        -3.07718948E-28
  0.128000006        -7.76857547E-28
  0.136000007        -1.53200707E-27
  0.143999994        -3.86019300E-27
  0.151999995        -5.10996207E-27
  0.159999996        -7.19776161E-28
  0.167999998         8.93252471E-27
  0.175999999         1.53953355E-26
  0.184000000         8.84757425E-27
  0.192000002        -1.02243176E-26
  0.200000003        -2.69975042E-26
  0.208000004        -2.34069575E-26
  0.216000006         3.35998547E-27
  0.224000007         3.34024723E-26
  0.231999993         3.88866949E-26
  0.239999995         1.04558660E-26
  0.247999996        -3.03260041E-26
  0.256000012        -4.76788517E-26
  0.263999999        -2.42170807E-26
  0.272000015         2.13139246E-26
  0.280000001         4.92154881E-26
  0.287999988         3.39130533E-26
  0.296000004        -1.28093031E-26
  0.303999990        -5.11273140E-26
  0.312000006        -4.66026544E-26
  0.319999993         7.91654563E-28
  0.328000009         5.52502524E-26
  0.335999995         7.16048982E-26
  0.344000012         2.99627768E-26
  0.351999998        -4.56472175E-26
  0.360000014        -9.92723394E-26
  0.368000001        -8.24150228E-26
  0.375999987         3.80713363E-27
  0.384000003         9.95499999E-26
  0.391999990         1.27780182E-25
  0.400000006         5.93531180E-26
  0.407999992        -5.62533260E-26
  0.416000009        -1.28614230E-25
  0.423999995        -1.02570172E-25
  0.432000011        -3.85389444E-27
  0.439999998         8.63133885E-26
  0.448000014         1.01036639E-25
  0.456000000         3.87317146E-26
  0.463999987        -4.35816623E-26
  0.472000003        -8.04723789E-26
  0.479999989        -4.73426768E-26
  0.488000005         2.56818999E-26
  0.495999992         7.91219045E-26
  0.504000008         6.80509381E-26
  0.512000024        -4.11225794E-27
  0.519999981        -8.52584658E-26
  0.527999997        -1.10579255E-25
  0.536000013        -5.34951602E-26
  0.544000030         5.03030961E-26
  0.551999986         1.26638750E-25
  0.560000002         1.19156232E-25
  0.568000019         3.18065759E-26
  0.575999975        -7.60286391E-26
  0.583999991        -1.32594896E-25
  0.592000008        -1.03474441E-25
  0.600000024        -7.36963718E-27
  0.607999980         9.00041482E-26
  0.615999997         1.21776951E-25
  0.624000013         6.38021825E-26
  0.632000029        -4.32099485E-26
  0.639999986        -1.16716458E-25
  0.648000002        -9.53820102E-26
  0.656000018         1.28921319E-26
  0.663999975         1.19340801E-25
  0.671999991         1.36692388E-25
  0.680000007         3.98367855E-26
  0.688000023        -1.00346904E-25
  0.695999980        -1.64137007E-25
  0.703999996        -1.04191466E-25
  0.712000012         3.59253666E-26
  0.720000029         1.42840992E-25
  0.727999985         1.34025348E-25
  0.736000001         2.28524669E-26
  0.744000018        -9.38680999E-26
  0.751999974        -1.18351199E-25
  0.759999990        -3.77593942E-26
  0.768000007         6.72614116E-26
  0.776000023         9.42103792E-26
  0.783999979         1.14518013E-26
  0.791999996        -1.00479568E-25
  0.800000012        -1.21748527E-25
  0.808000028        -7.75958099E-27
  0.815999985         1.58509667E-25
  0.824000001         2.32236262E-25
  0.832000017         1.20846539E-25
  0.839999974        -1.01693440E-25
  0.847999990        -2.71320080E-25
  0.856000006        -2.52232136E-25
  0.864000022        -6.00152065E-26
  0.871999979         1.55742393E-25
  0.879999995         2.28306404E-25
  0.888000011         1.20013748E-25
  0.896000028        -6.52453050E-26
  0.903999984        -1.62095533E-25
  0.912000000        -8.81537270E-26
  0.920000017         8.61493301E-26
  0.927999973         1.89873446E-25
  0.935999990         1.11067992E-25
  0.944000006        -1.01788596E-25
  0.952000022        -2.66436193E-25
  0.959999979        -2.17237206E-25
  0.967999995         4.25056005E-26
  0.976000011         3.29024614E-25
  0.984000027         4.18190943E-25
  0.991999984         2.11058552E-25
   1.00000000        -1.61207868E-25
   1.00800002        -4.32576216E-25
   1.01600003        -3.99878129E-25
   1.02400005        -9.14992861E-26
   1.03199995         2.61537761E-25
   1.03999996         4.02514748E-25
   1.04799998         2.42640500E-25
   1.05599999        -8.94301040E-26
   1.06400001        -3.59328903E-25
   1.07200003        -3.96936664E-25
   1.08000004        -2.03196370E-25
   1.08800006         9.00683911E-26
   1.09599996         3.05284832E-25
   1.10399997         3.49687248E-25
   1.11199999         2.36327344E-25
   1.12000000         5.91188140E-26
   1.12800002        -7.96615408E-26
   1.13600004        -1.12860752E-25
   1.14400005        -4.78682769E-26
   1.15199995         2.95657179E-26
   1.15999997         3.10149047E-26
   1.16799998        -5.70888283E-26
   1.17600000        -1.38420227E-25
   1.18400002        -1.10474472E-25
   1.19200003         5.54905961E-26
   1.20000005         2.44091560E-25
   1.20799994         2.89597741E-25
   1.21599996         8.67035049E-26
   1.22399998        -2.58621244E-25
   1.23199999        -5.17079391E-25
   1.24000001        -4.81887813E-25
   1.24800003        -1.20994697E-25
   1.25600004         3.56638296E-25
   1.26400006         6.66091764E-25
   1.27199996         5.99920238E-25
   1.27999997         2.40782929E-25
   1.28799999        -1.39705590E-25
   1.29600000        -2.46445274E-25
   1.30400002        -3.66759184E-26
   1.31200004         2.59558904E-25
   1.32000005         3.17188743E-25
   1.32799995        -8.64591552E-28
   1.33599997        -4.80800072E-25
   1.34399998        -7.40874102E-25
   1.35200000        -5.81216938E-25
   1.36000001        -1.39760909E-25
   1.36800003         2.48194080E-25
   1.37600005         2.81949932E-25
   1.38399994        -1.20802930E-25
   1.39199996        -6.26567960E-25
   1.39999998        -8.77119649E-25
   1.40799999        -6.93478944E-25
   1.41600001        -1.57059840E-25
   1.42400002         4.52998642E-25
   1.43200004         8.79232811E-25
   1.44000006         9.88363039E-25
   1.44799995         7.76231242E-25
   1.45599997         2.74691622E-25
   1.46399999        -3.74426715E-25
   1.47200000        -9.88171346E-25
   1.48000002        -1.33440378E-24
   1.48800004        -1.21718674E-24
   1.49600005        -6.53399683E-25
   1.50399995         9.86105714E-26
   1.51199996         7.23813013E-25
   1.51999998         1.08311312E-24
   1.52800000         1.21606025E-24
   1.53600001         1.27048060E-24
   1.54400003         1.31796332E-24
   1.55200005         1.26912613E-24
   1.55999994         9.40204067E-25
   1.56799996         2.70003816E-25
   1.57599998        -5.80263402E-25
   1.58399999        -1.38711034E-24
   1.59200001        -2.00462651E-24
   1.60000002        -2.38287171E-24
   1.60800004        -2.48716839E-24
   1.61600006        -2.20845160E-24
   1.62399995        -1.37073674E-24
   1.63199997         6.31372714E-26
   1.63999999         1.82501629E-24
   1.64800000         3.35618900E-24
   1.65600002         4.08865424E-24
   1.66400003         3.78930322E-24
   1.67200005         2.66246511E-24
   1.67999995         1.17038500E-24
   1.68799996        -3.32036436E-25
   1.69599998        -1.76901190E-24
   1.70400000        -3.19112656E-24
   1.71200001        -4.45408104E-24
   1.72000003        -5.08352932E-24
   1.72800004        -4.52184971E-24
   1.73599994        -2.58335400E-24
   1.74399996         2.52506290E-25
   1.75199997         3.03379239E-24
   1.75999999         4.84863889E-24
   1.76800001         5.32751335E-24
   1.77600002         4.71737638E-24
   1.78400004         3.53846399E-24
   1.79200006         2.14397879E-24
   1.79999995         5.57188136E-25
   1.80799997        -1.30049380E-24
   1.81599998        -3.27503474E-24
   1.82400000        -4.87101848E-24
   1.83200002        -5.49171593E-24
   1.84000003        -4.82536671E-24
   1.84800005        -3.06711467E-24
   1.85599995        -7.68976680E-25
   1.86399996         1.49012196E-24
   1.87199998         3.34555831E-24
   1.88000000         4.63582473E-24
   1.88800001         5.25500441E-24
   1.89600003         5.01398690E-24
   1.90400004         3.72968308E-24
   1.91199994         1.45100787E-24
   1.91999996        -1.37676699E-24
   1.92799997        -3.98126503E-24
   1.93599999        -5.56082962E-24
   1.94400001        -5.65699018E-24
   1.95200002        -4.33705825E-24
   1.96000004        -2.12018004E-24
   1.96800005         3.43008924E-25
   1.97599995         2.53324871E-24
   1.98399997         4.18456553E-24
   1.99199998         5.14245290E-24
   2.00000000         5.20117925E-24
   2.00799990         4.10408554E-24
   2.01600003         1.77837292E-24
   2.02399993        -1.39400340E-24
   2.03200006        -4.52864378E-24
   2.03999996        -6.54772774E-24
   2.04800010        -6.70777026E-24
   2.05599999        -4.99920995E-24
   2.06399989        -2.13667177E-24
   2.07200003         8.95576135E-25
   2.07999992         3.38533623E-24
   2.08800006         5.12860365E-24
   2.09599996         6.23691930E-24
   2.10400009         6.70059005E-24
   2.11199999         6.16997854E-24
   2.11999989         4.18038496E-24
   2.12800002         6.75477779E-25
   2.13599992        -3.64474288E-24
   2.14400005        -7.48407329E-24
   2.15199995        -9.56619986E-24
   2.16000009        -9.30028195E-24
   2.16799998        -7.02257231E-24
   2.17600012        -3.66229780E-24
   2.18400002        -1.41691523E-25
   2.19199991         3.04033087E-24
   2.20000005         5.77384020E-24
   2.20799994         8.00191393E-24
   2.21600008         9.42813185E-24
   2.22399998         9.54003887E-24
   2.23200011         7.91147813E-24
   2.24000001         4.53115827E-24
   2.24799991        -8.79791916E-26
   2.25600004        -5.04905610E-24
   2.26399994        -9.34156226E-24
   2.27200007        -1.20674553E-23
   2.27999997        -1.25808649E-23
   2.28800011        -1.06314453E-23
   2.29600000        -6.48819399E-24
   2.30399990        -9.63516287E-25
   2.31200004         4.75870954E-24
   2.31999993         9.47724396E-24
   2.32800007         1.23357706E-23
   2.33599997         1.29606518E-23
   2.34400010         1.13713700E-23
   2.35200000         7.81287209E-24
   2.35999990         2.72911104E-24
   2.36800003        -3.13262187E-24
   2.37599993        -8.68234512E-24
   2.38400006        -1.26999033E-23
   2.39199996        -1.42615213E-23
   2.40000010        -1.31012757E-23
   2.40799999        -9.63292803E-24
   2.41599989        -4.64084504E-24
   2.42400002         1.08919011E-24
   2.43199992         6.89780607E-24
   2.44000006         1.21112347E-23
   2.44799995         1.58572528E-23
   2.45600009         1.71132345E-23
   2.46399999         1.50839324E-23
   2.47199988         9.66481852E-24
   2.48000002         1.67609710E-24
   2.48799992        -7.28985574E-24
   2.49600005        -1.53113721E-23
   2.50399995        -2.06359576E-23
   2.51200008        -2.20525687E-23
   2.51999998        -1.91282693E-23
   2.52800012        -1.23319249E-23
   2.53600001        -3.01915804E-24
   2.54399991         6.86294157E-24
   2.55200005         1.53287712E-23
   2.55999994         2.09488403E-23
   2.56800008         2.31242805E-23
   2.57599998         2.19000630E-23
   2.58400011         1.75385678E-23
   2.59200001         1.02903608E-23
   2.59999990         6.12107005E-25
   2.60800004        -1.03665474E-23
   2.61599994        -2.06113072E-23
   2.62400007        -2.75951591E-23
   2.63199997        -2.92532722E-23
   2.64000010        -2.49089394E-23
   2.64800000        -1.55533078E-23
   2.65599990        -3.35931249E-24
   2.66400003         9.15877924E-24
   2.67199993         1.97923829E-23
   2.68000007         2.68414183E-23
   2.68799996         2.91040512E-23
   2.69600010         2.60016254E-23
   2.70400000         1.79261304E-23
   2.71199989         6.46692077E-24
   2.72000003        -5.86080462E-24
   2.72799993        -1.64218516E-23
   2.73600006        -2.33148913E-23
   2.74399996        -2.57553919E-23
   2.75200009        -2.38160073E-23
   2.75999999        -1.79487187E-23
   2.76799989        -8.81716539E-24
   2.77600002         2.41927034E-24
   2.78399992         1.37583132E-23
   2.79200006         2.25237033E-23
   2.79999995         2.62305307E-23
   2.80800009         2.37051187E-23
   2.81599998         1.57244749E-23
   2.82399988         4.68961676E-24
   2.83200002        -6.45458220E-24
   2.83999991        -1.53580032E-23
   2.84800005        -2.07664509E-23
   2.85599995        -2.23015806E-23
   2.86400008        -1.99655284E-23
   2.87199998        -1.39667807E-23
   2.88000011        -4.97022563E-24
   2.88800001         5.56698115E-24
   2.89599991         1.54441815E-23
   2.90400004         2.23175724E-23
   2.91199994         2.45100456E-23
   2.92000008         2.15840958E-23
   2.92799997         1.43404862E-23
   2.93600011         4.39719943E-24
   2.94400001        -6.32717801E-24
   2.95199990        -1.59280578E-23
   2.96000004        -2.26755417E-23
   2.96799994        -2.52364082E-23
   2.97600007        -2.30142975E-23
   2.98399997        -1.64480086E-23
   2.99200010        -6.97470028E-24
   3.00000000         3.42351236E-24
   3.00799990         1.28492165E-23
   3.01600003         1.99110338E-23
   3.02399993         2.37415941E-23
   3.03200006         2.38003185E-23
   3.03999996         1.98065855E-23
   3.04800010         1.20299639E-23
   3.05599999         1.68187393E-24
   3.06399989        -9.02673812E-24
   3.07200003        -1.74803830E-23
   3.07999992        -2.16715205E-23
   3.08800006        -2.10123610E-23
   3.09599996        -1.64174261E-23
   3.10400009        -9.64974733E-24
   3.11199999        -2.42759125E-24
   3.11999989         4.09348996E-24
   3.12800002         9.26770673E-24
   3.13599992         1.26067349E-23
   3.14400005         1.36155404E-23
   3.15199995         1.20159309E-23
   3.16000009         8.15872213E-24
   3.16799998         3.11919073E-24
   3.17600012        -1.70157337E-24
   3.18400002        -5.21155593E-24
   3.19199991        -7.00758158E-24
   3.20000005        -7.23474986E-24
   3.20799994        -6.15756266E-24
   3.21600008        -3.91684033E-24
   3.22399998        -7.11543662E-25
   3.23200011         2.81652432E-24
   3.24000001         5.48720681E-24
   3.24799991         6.07151687E-24
   3.25600004         4.11328760E-24
   3.26399994         3.87473340E-25
   3.27200007        -3.46254757E-24
   3.27999997        -5.91095567E-24
   3.28800011        -6.41745367E-24
   3.29600000        -5.50074524E-24
   3.30399990        -4.01226687E-24
   3.31200004        -2.30682650E-24
   3.31999993        -3.60660303E-26
   3.32800007         3.25667183E-24
   3.33599997         7.31293544E-24
   3.34400010         1.08772062E-23
   3.35200000         1.22910856E-23
   3.35999990         1.05416090E-23
   3.36800003         5.93943355E-24
   3.37599993        -8.56257853E-26
   3.38400006        -5.86584821E-24
   3.39199996        -1.03185681E-23
   3.40000010        -1.31099106E-23
   3.40799999        -1.41974468E-23
   3.41599989        -1.33533909E-23
   3.42400002        -1.01846708E-23
   3.43199992        -4.65585470E-24
   3.44000006         2.40248397E-24
   3.44799995         9.34705746E-24
   3.45600009         1.44074621E-23
   3.46399999         1.65132790E-23
   3.47199988         1.56388803E-23
   3.48000002         1.24778342E-23
   3.48799992         7.80429639E-24
   3.49600005         2.11002622E-24
   3.50399995        -4.23737030E-24
   3.51200008        -1.05668147E-23
   3.51999998        -1.57054065E-23
   3.52800012        -1.82972990E-23
   3.53600001        -1.74419749E-23
   3.54399991        -1.31982590E-23
   3.55200005        -6.58526174E-24
   3.55999994         9.05718520E-25
   3.56800008         7.89471562E-24
   3.57599998         1.34215232E-23
   3.58400011         1.68942341E-23
   3.59200001         1.79033765E-23
   3.59999990         1.61784028E-23
   3.60800004         1.17537845E-23
   3.61599994         5.17954553E-24
   3.62400007        -2.43920781E-24
   3.63199997        -9.65215020E-24
   3.64000010        -1.50401017E-23
   3.64800000        -1.75836102E-23
   3.65599990        -1.68940890E-23
   3.66400003        -1.32651205E-23
   3.67199993        -7.58499937E-24
   3.68000007        -1.10646419E-24
   3.68799996         4.87588299E-24
   3.69600010         9.38395248E-24
   3.70400000         1.19678900E-23
   3.71199989         1.26669944E-23
   3.72000003         1.17436098E-23
   3.72799993         9.41159575E-24
   3.73600006         5.81391118E-24
   3.74399996         1.22396877E-24
   3.75200009        -3.69818071E-24
