 -0.239999995         0.00000000    
 -0.231999993         0.00000000    
 -0.224000007         0.00000000    
 -0.216000006         0.00000000    
 -0.208000004         7.91238059E-24
 -0.200000003         4.80907152E-23
 -0.192000002         8.52847307E-23
 -0.184000000        -6.08672958E-23
 -0.175999999        -4.93627553E-22
 -0.167999998        -8.81170909E-22
 -0.159999996        -6.90799613E-22
 -0.151999995         1.86273839E-22
 -0.143999994         1.50597399E-21
 -0.136000007         2.96496267E-21
 -0.128000006         3.32368299E-21
 -0.119999997         1.42192241E-22
 -0.112000003        -6.84011562E-21
 -0.104000002        -1.22247100E-20
  -9.60000008E-02    -9.03544570E-21
  -8.79999995E-02     2.07603754E-21
  -7.99999982E-02     1.18543278E-20
  -7.19999969E-02     1.33074232E-20
  -6.40000030E-02     9.24141932E-21
  -5.60000017E-02     5.29397813E-21
  -4.80000004E-02     4.89980618E-22
  -3.99999991E-02    -8.74126990E-21
  -3.20000015E-02    -1.85812344E-20
  -2.40000002E-02    -2.05198436E-20
  -1.60000008E-02    -1.38412293E-20
  -8.00000038E-03    -6.90245063E-21
   0.00000000        -3.84942756E-21
   8.00000038E-03     1.71608150E-21
   1.60000008E-02     1.53874157E-20
   2.40000002E-02     3.16855734E-20
   3.20000015E-02     4.12358421E-20
   3.99999991E-02     4.08786099E-20
   4.80000004E-02     2.83477736E-20
   5.60000017E-02    -4.42602697E-21
   6.40000030E-02    -5.79121878E-20
   7.19999969E-02    -1.09920245E-19
   7.99999982E-02    -1.32668991E-19
   8.79999995E-02    -1.23972557E-19
   9.60000008E-02    -1.00171210E-19
  0.104000002        -5.71089825E-20
  0.112000003         3.31657388E-20
  0.119999997         1.77782478E-19
  0.128000006         3.48970336E-19
  0.136000007         5.37166954E-19
  0.143999994         7.89264153E-19
  0.151999995         1.16619025E-18
  0.159999996         1.69283598E-18
  0.167999998         2.39119779E-18
  0.175999999         3.34222699E-18
  0.184000000         4.66976005E-18
  0.192000002         6.47941203E-18
  0.200000003         8.86427258E-18
  0.208000004         1.19605254E-17
  0.216000006         1.59380796E-17
  0.224000007         2.09315606E-17
  0.231999993         2.70337762E-17
  0.239999995         3.43600007E-17
  0.247999996         4.30481434E-17
  0.256000012         5.31571772E-17
  0.263999999         6.46001721E-17
  0.272000015         7.71898213E-17
  0.280000001         9.06891641E-17
  0.287999988         1.04773039E-16
  0.296000004         1.18980296E-16
  0.303999990         1.32759285E-16
  0.312000006         1.45555425E-16
  0.319999993         1.56838103E-16
  0.328000009         1.66085294E-16
  0.335999995         1.72809346E-16
  0.344000012         1.76617354E-16
  0.351999998         1.77223618E-16
  0.360000014         1.74385012E-16
  0.368000001         1.67811944E-16
  0.375999987         1.57108955E-16
  0.384000003         1.41748237E-16
  0.391999990         1.21042702E-16
  0.400000006         9.40942034E-17
  0.407999992         5.97473417E-17
  0.416000009         1.66141923E-17
  0.423999995        -3.68184079E-17
  0.432000011        -1.02058457E-16
  0.439999998        -1.80469369E-16
  0.448000014        -2.73045809E-16
  0.456000000        -3.80093303E-16
  0.463999987        -5.00957837E-16
  0.472000003        -6.33909399E-16
  0.479999989        -7.76075197E-16
  0.488000005        -9.23296935E-16
  0.495999992        -1.07003311E-15
  0.504000008        -1.20951847E-15
  0.512000024        -1.33414148E-15
  0.519999981        -1.43581275E-15
  0.527999997        -1.50628017E-15
  0.536000013        -1.53758016E-15
  0.544000030        -1.52269557E-15
  0.551999986        -1.45621269E-15
  0.560000002        -1.33477802E-15
  0.568000019        -1.15739810E-15
  0.575999975        -9.25711614E-16
  0.583999991        -6.44210749E-16
  0.592000008        -3.20258049E-16
  0.600000024         3.61632809E-17
  0.607999980         4.12883748E-16
  0.615999997         7.96068457E-16
  0.624000013         1.17084041E-15
  0.632000029         1.52207024E-15
  0.639999986         1.83527582E-15
  0.648000002         2.09745009E-15
  0.656000018         2.29771896E-15
  0.663999975         2.42791237E-15
  0.671999991         2.48310864E-15
  0.680000007         2.46199338E-15
  0.688000023         2.36684214E-15
  0.695999980         2.20320575E-15
  0.703999996         1.97952532E-15
  0.712000012         1.70669389E-15
  0.720000029         1.39741071E-15
  0.727999985         1.06533695E-15
  0.736000001         7.24276591E-16
  0.744000018         3.87503544E-16
  0.751999974         6.71591116E-17
  0.759999990        -2.26311533E-16
  0.768000007        -4.84573785E-16
  0.776000023        -7.01601890E-16
  0.783999979        -8.73713850E-16
  0.791999996        -9.99484690E-16
  0.800000012        -1.07953894E-15
  0.808000028        -1.11627031E-15
  0.815999985        -1.11353715E-15
  0.824000001        -1.07629396E-15
  0.832000017        -1.01015879E-15
  0.839999974        -9.21049545E-16
  0.847999990        -8.14987256E-16
  0.856000006        -6.97946414E-16
  0.864000022        -5.75622733E-16
  0.871999979        -4.53210484E-16
  0.879999995        -3.35334415E-16
  0.888000011        -2.26049377E-16
  0.896000028        -1.28745818E-16
  0.903999984        -4.60144064E-17
  0.912000000         2.03736239E-17
  0.920000017         6.94136353E-17
  0.927999973         1.00895825E-16
  0.935999990         1.15480237E-16
  0.944000006         1.14653017E-16
  0.952000022         1.00567540E-16
  0.959999979         7.59221108E-17
  0.967999995         4.38850152E-17
  0.976000011         7.92405526E-18
  0.984000027        -2.84799079E-17
  0.991999984        -6.20855761E-17
   1.00000000        -9.00484300E-17
   1.00800002        -1.10094173E-16
   1.01600003        -1.20752527E-16
   1.02400005        -1.21504918E-16
   1.03199995        -1.12741779E-16
   1.03999996        -9.56529889E-17
   1.04799998        -7.21914865E-17
   1.05599999        -4.50044586E-17
   1.06400001        -1.71456839E-17
   1.07200003         8.34682065E-18
   1.08000004         2.87358409E-17
   1.08800006         4.17023768E-17
   1.09599996         4.55478699E-17
   1.10399997         3.95438489E-17
   1.11199999         2.41234090E-17
   1.12000000         7.19715324E-19
   1.12800002        -2.84972357E-17
   1.13600004        -6.07145342E-17
   1.14400005        -9.25770682E-17
   1.15199995        -1.20588216E-16
   1.15999997        -1.41659669E-16
   1.16799998        -1.53422178E-16
   1.17600000        -1.54289447E-16
   1.18400002        -1.43589608E-16
   1.19200003        -1.21799989E-16
   1.20000005        -9.05736367E-17
   1.20799994        -5.24453883E-17
   1.21599996        -1.04752713E-17
   1.22399998         3.19935064E-17
   1.23199999         7.15969686E-17
   1.24000001         1.05345633E-16
   1.24800003         1.31006483E-16
   1.25600004         1.47303212E-16
   1.26400006         1.53962902E-16
   1.27199996         1.51697314E-16
   1.27999997         1.42108848E-16
   1.28799999         1.27486466E-16
   1.29600000         1.10512581E-16
   1.30400002         9.39155059E-17
   1.31200004         8.01114232E-17
   1.32000005         7.09186408E-17
   1.32799995         6.73884127E-17
   1.33599997         6.96962333E-17
   1.34399998         7.70704095E-17
   1.35200000         8.78639651E-17
   1.36000001         9.98237791E-17
   1.36800003         1.10408415E-16
   1.37600005         1.17013340E-16
   1.38399994         1.17195412E-16
   1.39199996         1.09020572E-16
   1.39999998         9.14050194E-17
   1.40799999         6.42332017E-17
   1.41600001         2.82973888E-17
   1.42400002        -1.47405885E-17
   1.43200004        -6.23750960E-17
   1.44000006        -1.11452238E-16
   1.44799995        -1.58526663E-16
   1.45599997        -2.00165439E-16
   1.46399999        -2.33133643E-16
   1.47200000        -2.54618289E-16
   1.48000002        -2.62544347E-16
   1.48800004        -2.55807312E-16
   1.49600005        -2.34308345E-16
   1.50399995        -1.98905557E-16
   1.51199996        -1.51401091E-16
   1.51999998        -9.44939897E-17
   1.52800000        -3.15944745E-17
   1.53600001         3.34488447E-17
   1.54400003         9.65995151E-17
   1.55200005         1.53864647E-16
   1.55999994         2.01566008E-16
   1.56799996         2.36624451E-16
   1.57599998         2.56777535E-16
   1.58399999         2.60717138E-16
   1.59200001         2.48187324E-16
   1.60000002         2.20035099E-16
   1.60800004         1.78165466E-16
   1.61600006         1.25403188E-16
   1.62399995         6.53119908E-17
   1.63199997         1.97561936E-18
   1.63999999        -6.03015593E-17
   1.64800000        -1.17351346E-16
   1.65600002        -1.65453090E-16
   1.66400003        -2.01559973E-16
   1.67200005        -2.23515557E-16
   1.67999995        -2.30284647E-16
   1.68799996        -2.22067554E-16
   1.69599998        -2.00200366E-16
   1.70400000        -1.66954336E-16
   1.71200001        -1.25377076E-16
   1.72000003        -7.90987159E-17
   1.72800004        -3.19589932E-17
   1.73599994         1.24435451E-17
   1.74399996         5.10437440E-17
   1.75199997         8.14428068E-17
   1.75999999         1.02071553E-16
   1.76800001         1.12374842E-16
   1.77600002         1.12802064E-16
   1.78400004         1.04583648E-16
   1.79200006         8.95215225E-17
   1.79999995         6.98668046E-17
   1.80799997         4.81051153E-17
   1.81599998         2.66060493E-17
   1.82400000         7.35557952E-18
   1.83200002        -8.12707682E-18
   1.84000003        -1.88574019E-17
   1.84800005        -2.45184622E-17
   1.85599995        -2.54785955E-17
   1.86399996        -2.26005000E-17
   1.87199998        -1.70291226E-17
   1.88000000        -1.00971762E-17
   1.88800001        -3.21539869E-18
   1.89600003         2.36558973E-18
   1.90400004         5.77114153E-18
   1.91199994         6.53019720E-18
   1.91999996         4.50127288E-18
   1.92799997        -1.42182201E-19
   1.93599999        -6.89819207E-18
   1.94400001        -1.50202285E-17
   1.95200002        -2.36845947E-17
   1.96000004        -3.21135270E-17
   1.96800005        -3.96029460E-17
   1.97599995        -4.55222803E-17
   1.98399997        -4.93539926E-17
   1.99199998        -5.07523679E-17
   2.00000000        -4.95468779E-17
   2.00799990        -4.56670369E-17
   2.01600003        -3.90668205E-17
   2.02399993        -2.97321700E-17
   2.03200006        -1.77370056E-17
   2.03999996        -3.25120093E-18
   2.04800010         1.34924689E-17
   2.05599999         3.21710723E-17
   2.06399989         5.22686098E-17
   2.07200003         7.30058293E-17
   2.07999992         9.33651926E-17
   2.08800006         1.12149703E-16
   2.09599996         1.28017264E-16
   2.10400009         1.39528323E-16
   2.11199999         1.45263914E-16
   2.11999989         1.44005527E-16
   2.12800002         1.34919034E-16
   2.13599992         1.17688981E-16
   2.14400005         9.25874840E-17
   2.15199995         6.05100287E-17
   2.16000009         2.30013468E-17
   2.16799998        -1.77810860E-17
   2.17600012        -5.92320545E-17
   2.18400002        -9.85478034E-17
   2.19199991        -1.32955374E-16
   2.20000005        -1.59920178E-16
   2.20799994        -1.77397419E-16
   2.21600008        -1.84081250E-16
   2.22399998        -1.79526370E-16
   2.23200011        -1.64143603E-16
   2.24000001        -1.39176089E-16
   2.24799991        -1.06647556E-16
   2.25600004        -6.91776970E-17
   2.26399994        -2.96921808E-17
   2.27200007         8.82990571E-18
   2.27999997         4.35542621E-17
   2.28800011         7.20319796E-17
   2.29600000         9.24499669E-17
   2.30399990         1.03750028E-16
   2.31200004         1.05621243E-16
   2.31999993         9.84964785E-17
   2.32800007         8.35461683E-17
   2.33599997         6.25391821E-17
   2.34400010         3.75892542E-17
   2.35200000         1.09481763E-17
   2.35999990        -1.51295602E-17
   2.36800003        -3.85716900E-17
   2.37599993        -5.77156736E-17
   2.38400006        -7.14234460E-17
   2.39199996        -7.90570128E-17
   2.40000010        -8.04595339E-17
   2.40799999        -7.59861213E-17
   2.41599989        -6.64552272E-17
   2.42400002        -5.29716373E-17
   2.43199992        -3.67557010E-17
   2.44000006        -1.90708128E-17
   2.44799995        -1.16193544E-18
   2.45600009         1.58797568E-17
   2.46399999         3.12501358E-17
   2.47199988         4.44552007E-17
   2.48000002         5.52534051E-17
   2.48799992         6.36181565E-17
   2.49600005         6.97314448E-17
   2.50399995         7.39375920E-17
   2.51200008         7.66377345E-17
   2.51999998         7.81904782E-17
   2.52800012         7.88666819E-17
   2.53600001         7.88261500E-17
   2.54399991         7.80743024E-17
   2.55200005         7.64285041E-17
   2.55999994         7.35535353E-17
   2.56800008         6.90582190E-17
   2.57599998         6.25836580E-17
   2.58400011         5.38513769E-17
   2.59200001         4.27049461E-17
   2.59999990         2.91667093E-17
   2.60800004         1.34788667E-17
   2.61599994        -3.89752243E-18
   2.62400007        -2.23117859E-17
   2.63199997        -4.09672183E-17
   2.64000010        -5.89841518E-17
   2.64800000        -7.54709268E-17
   2.65599990        -8.95795178E-17
   2.66400003        -1.00558084E-16
   2.67199993        -1.07823708E-16
   2.68000007        -1.11021879E-16
   2.68799996        -1.10021030E-16
   2.69600010        -1.04872135E-16
   2.70400000        -9.58059511E-17
   2.71199989        -8.32495215E-17
   2.72000003        -6.77782728E-17
   2.72799993        -5.00155684E-17
   2.73600006        -3.05873126E-17
   2.74399996        -1.01534377E-17
   2.75200009         1.05823060E-17
   2.75999999         3.09230189E-17
   2.76799989         5.02056611E-17
   2.77600002         6.77620601E-17
   2.78399992         8.28932118E-17
   2.79200006         9.49127020E-17
   2.79999995         1.03205565E-16
   2.80800009         1.07256811E-16
   2.81599998         1.06685083E-16
   2.82399988         1.01300654E-16
   2.83200002         9.11454104E-17
   2.83999991         7.65040423E-17
   2.84800005         5.79211585E-17
   2.85599995         3.62075450E-17
   2.86400008         1.23867294E-17
   2.87199998        -1.23828077E-17
   2.88000011        -3.68428826E-17
   2.88800001        -5.96768924E-17
   2.89599991        -7.96409361E-17
   2.90400004        -9.57125327E-17
   2.91199994        -1.07124899E-16
   2.92000008        -1.13341704E-16
   2.92799997        -1.14123171E-16
   2.93600011        -1.09630257E-16
   2.94400001        -1.00375290E-16
   2.95199990        -8.70427269E-17
   2.96000004        -7.04020831E-17
   2.96799994        -5.13494732E-17
   2.97600007        -3.08769913E-17
   2.98399997        -9.91141541E-18
   2.99200010         1.07799848E-17
   3.00000000         3.05183357E-17
   3.00799990         4.86465216E-17
   3.01600003         6.45943686E-17
   3.02399993         7.79488224E-17
   3.03200006         8.83963054E-17
   3.03999996         9.56325476E-17
   3.04800010         9.93827794E-17
   3.05599999         9.94828748E-17
   3.06399989         9.58886229E-17
   3.07200003         8.86271351E-17
   3.07999992         7.78065076E-17
   3.08800006         6.36975460E-17
   3.09599996         4.67836546E-17
   3.10400009         2.77311788E-17
   3.11199999         7.34894719E-18
   3.11999989        -1.34125492E-17
   3.12800002        -3.34823124E-17
   3.13599992        -5.17700185E-17
   3.14400005        -6.72860077E-17
   3.15199995        -7.91924520E-17
   3.16000009        -8.68265152E-17
   3.16799998        -8.97863394E-17
   3.17600012        -8.80275616E-17
   3.18400002        -8.18437115E-17
   3.19199991        -7.17667193E-17
   3.20000005        -5.85403330E-17
   3.20799994        -4.31465481E-17
   3.21600008        -2.67113362E-17
   3.22399998        -1.02996617E-17
   3.23200011         5.18548897E-18
   3.24000001         1.89610641E-17
   3.24799991         3.03924686E-17
   3.25600004         3.91517025E-17
   3.26399994         4.52724122E-17
   3.27200007         4.89937985E-17
   3.27999997         5.06146556E-17
   3.28800011         5.05142425E-17
   3.29600000         4.91713181E-17
   3.30399990         4.70311404E-17
   3.31200004         4.43693758E-17
   3.31999993         4.13092873E-17
   3.32800007         3.78792208E-17
   3.33599997         3.39776348E-17
   3.34400010         2.93486527E-17
   3.35200000         2.36847055E-17
   3.35999990         1.67513372E-17
   3.36800003         8.41360556E-18
   3.37599993        -1.35428750E-18
   3.38400006        -1.23824223E-17
   3.39199996        -2.42364631E-17
   3.40000010        -3.62698813E-17
   3.40799999        -4.77142990E-17
   3.41599989        -5.77051320E-17
   3.42400002        -6.53129834E-17
   3.43199992        -6.96798154E-17
   3.44000006        -7.01893521E-17
   3.44799995        -6.65396195E-17
   3.45600009        -5.87289301E-17
   3.46399999        -4.70618917E-17
   3.47199988        -3.21905872E-17
   3.48000002        -1.51001804E-17
   3.48799992         3.00866392E-18
   3.49600005         2.08732493E-17
   3.50399995         3.72692876E-17
   3.51200008         5.10645988E-17
   3.51999998         6.13044794E-17
   3.52800012         6.73430435E-17
   3.53600001         6.89252613E-17
   3.54399991         6.61541136E-17
   3.55200005         5.94183753E-17
   3.55999994         4.93755126E-17
   3.56800008         3.69402153E-17
   3.57599998         2.31760142E-17
   3.58400011         9.13114173E-18
   3.59200001        -4.25205866E-18
   3.59999990        -1.61531929E-17
   3.60800004        -2.59270184E-17
   3.61599994        -3.32010810E-17
   3.62400007        -3.79023686E-17
   3.63199997        -4.01818600E-17
   3.64000010        -4.03397456E-17
   3.64800000        -3.88045017E-17
   3.65599990        -3.60974373E-17
   3.66400003        -3.27407020E-17
   3.67199993        -2.91720298E-17
   3.68000007        -2.57201108E-17
   3.68799996        -2.26069520E-17
   3.69600010        -1.99340916E-17
   3.70400000        -1.76690874E-17
   3.71199989        -1.56633796E-17
   3.72000003        -1.36970679E-17
   3.72799993        -1.15266568E-17
   3.73600006        -8.91903690E-18
   3.74399996        -5.67191501E-18
   3.75200009        -1.64056613E-18
