 -0.239999995         0.00000000    
 -0.231999993         0.00000000    
 -0.224000007         0.00000000    
 -0.216000006         0.00000000    
 -0.208000004         0.00000000    
 -0.200000003         0.00000000    
 -0.192000002         0.00000000    
 -0.184000000        -0.00000000    
 -0.175999999         7.92233831E-35
 -0.167999998         8.05144019E-34
 -0.159999996         2.23203161E-33
 -0.151999995        -8.99134968E-33
 -0.143999994        -6.41096987E-32
 -0.136000007        -8.56120059E-32
 -0.128000006         2.93161426E-31
 -0.119999997         1.14018495E-30
 -0.112000003         6.61825983E-31
 -0.104000002        -3.80822027E-30
  -9.60000008E-02    -8.67556058E-30
  -8.79999995E-02    -3.52029149E-31
  -7.99999982E-02     2.59195564E-29
  -7.19999969E-02     3.68646674E-29
  -6.40000030E-02    -1.70605405E-29
  -5.60000017E-02    -1.09009079E-28
  -4.80000004E-02    -9.82802051E-29
  -3.99999991E-02     1.05275640E-28
  -3.20000015E-02     3.13649030E-28
  -2.40000002E-02     1.67510550E-28
  -1.60000008E-02    -3.53605938E-28
  -8.00000038E-03    -6.58853893E-28
   0.00000000        -1.47328007E-28
   8.00000038E-03     8.30507022E-28
   1.60000008E-02     1.04853009E-27
   2.40000002E-02    -1.16438270E-28
   3.20000015E-02    -1.51916834E-27
   3.99999991E-02    -1.28692719E-27
   4.80000004E-02     7.39217076E-28
   5.60000017E-02     2.30638335E-27
   6.40000030E-02     1.25498651E-27
   7.19999969E-02    -1.56994259E-27
   7.99999982E-02    -2.95221564E-27
   8.79999995E-02    -1.15131158E-27
   9.60000008E-02     1.86305334E-27
  0.104000002         2.86996688E-27
  0.112000003         1.37105393E-27
  0.119999997        -3.07718948E-28
  0.128000006        -7.76857547E-28
  0.136000007        -1.53200707E-27
  0.143999994        -3.86019300E-27
  0.151999995        -5.10996207E-27
  0.159999996        -7.19776161E-28
  0.167999998         8.93252471E-27
  0.175999999         1.53953355E-26
  0.184000000         8.84757425E-27
  0.192000002        -1.02243176E-26
  0.200000003        -2.69975042E-26
  0.208000004        -2.34069575E-26
  0.216000006         3.35998547E-27
  0.224000007         3.34024723E-26
  0.231999993         3.88866949E-26
  0.239999995         1.04558660E-26
  0.247999996        -3.03260041E-26
  0.256000012        -4.76788517E-26
  0.263999999        -2.42170807E-26
  0.272000015         2.13139246E-26
  0.280000001         4.92154881E-26
  0.287999988         3.39130533E-26
  0.296000004        -1.28093031E-26
  0.303999990        -5.11273140E-26
  0.312000006        -4.66026544E-26
  0.319999993         7.91654563E-28
  0.328000009         5.52502524E-26
  0.335999995         7.16048982E-26
  0.344000012         2.99627768E-26
  0.351999998        -4.56472175E-26
  0.360000014        -9.92723394E-26
  0.368000001        -8.24150228E-26
  0.375999987         3.80713363E-27
  0.384000003         9.95499999E-26
  0.391999990         1.27780182E-25
  0.400000006         5.93531180E-26
  0.407999992        -5.62533260E-26
  0.416000009        -1.28614230E-25
  0.423999995        -1.02570172E-25
  0.432000011        -3.85389444E-27
  0.439999998         8.63133885E-26
  0.448000014         1.01036639E-25
  0.456000000         3.87317146E-26
  0.463999987        -4.35816623E-26
  0.472000003        -8.04723789E-26
  0.479999989        -4.73426768E-26
  0.488000005         2.56818999E-26
  0.495999992         7.91219045E-26
  0.504000008         6.80509381E-26
  0.512000024        -4.11225794E-27
  0.519999981        -8.52584658E-26
  0.527999997        -1.10579255E-25
  0.536000013        -5.34951602E-26
  0.544000030         5.03030961E-26
  0.551999986         1.26638750E-25
  0.560000002         1.19156232E-25
  0.568000019         3.18065759E-26
  0.575999975        -7.60286391E-26
  0.583999991        -1.32594896E-25
  0.592000008        -1.03474441E-25
  0.600000024        -7.36963718E-27
  0.607999980         9.00041482E-26
  0.615999997         1.21776951E-25
  0.624000013         6.38021825E-26
  0.632000029        -4.32099485E-26
  0.639999986        -1.16716458E-25
  0.648000002        -9.53820102E-26
  0.656000018         1.28921319E-26
  0.663999975         1.19340801E-25
  0.671999991         1.36692388E-25
  0.680000007         3.98367855E-26
  0.688000023        -1.00346904E-25
  0.695999980        -1.64137007E-25
  0.703999996        -1.04191466E-25
  0.712000012         3.59253666E-26
  0.720000029         1.42840992E-25
  0.727999985         1.34025348E-25
  0.736000001         2.28524669E-26
  0.744000018        -9.38680999E-26
  0.751999974        -1.18351199E-25
  0.759999990        -3.77593942E-26
  0.768000007         6.72614116E-26
  0.776000023         9.42103792E-26
  0.783999979         1.14518013E-26
  0.791999996        -1.00479568E-25
  0.800000012        -1.21748527E-25
  0.808000028        -7.75958099E-27
  0.815999985         1.58509667E-25
  0.824000001         2.32236262E-25
  0.832000017         1.20846539E-25
  0.839999974        -1.01693440E-25
  0.847999990        -2.71320080E-25
  0.856000006        -2.52232136E-25
  0.864000022        -6.00152065E-26
  0.871999979         1.55742393E-25
  0.879999995         2.28306404E-25
  0.888000011         1.20013748E-25
  0.896000028        -6.52453050E-26
  0.903999984        -1.62095533E-25
  0.912000000        -8.81537270E-26
  0.920000017         8.61493301E-26
  0.927999973         1.89873446E-25
  0.935999990         1.11067992E-25
  0.944000006        -1.01788596E-25
  0.952000022        -2.66436193E-25
  0.959999979        -2.17237206E-25
  0.967999995         4.25056005E-26
  0.976000011         3.29024614E-25
  0.984000027         4.18190943E-25
  0.991999984         2.11058552E-25
   1.00000000        -1.61207868E-25
   1.00800002        -4.32576216E-25
   1.01600003        -3.99878129E-25
   1.02400005        -9.14992861E-26
   1.03199995         2.61537761E-25
   1.03999996         4.02514748E-25
   1.04799998         2.42640500E-25
   1.05599999        -8.94301040E-26
   1.06400001        -3.59328903E-25
   1.07200003        -3.96936664E-25
   1.08000004        -2.03196370E-25
   1.08800006         9.00683911E-26
   1.09599996         3.05284832E-25
   1.10399997         3.49687248E-25
   1.11199999         2.36327344E-25
   1.12000000         5.91188140E-26
   1.12800002        -7.96615408E-26
   1.13600004        -1.12860752E-25
   1.14400005        -4.78682769E-26
   1.15199995         2.95657179E-26
   1.15999997         3.10149047E-26
   1.16799998        -5.70888283E-26
   1.17600000        -1.38420227E-25
   1.18400002        -1.10474472E-25
   1.19200003         5.54905961E-26
   1.20000005         2.44091560E-25
   1.20799994         2.89597741E-25
   1.21599996         8.67035049E-26
   1.22399998        -2.58621244E-25
   1.23199999        -5.17079391E-25
   1.24000001        -4.81887813E-25
   1.24800003        -1.20994697E-25
   1.25600004         3.56638296E-25
   1.26400006         6.66091764E-25
   1.27199996         5.99920238E-25
   1.27999997         2.40782929E-25
   1.28799999        -1.39705590E-25
   1.29600000        -2.46445274E-25
   1.30400002        -3.66759184E-26
   1.31200004         2.59558904E-25
   1.32000005         3.17188743E-25
   1.32799995        -8.64591552E-28
   1.33599997        -4.80800072E-25
   1.34399998        -7.40874102E-25
   1.35200000        -5.81216938E-25
   1.36000001        -1.39760909E-25
   1.36800003         2.48194080E-25
   1.37600005         2.81949932E-25
   1.38399994        -1.20802930E-25
   1.39199996        -6.26567960E-25
   1.39999998        -8.77119649E-25
   1.40799999        -6.93478944E-25
   1.41600001        -1.57059840E-25
   1.42400002         4.52998642E-25
   1.43200004         8.79232811E-25
   1.44000006         9.88363039E-25
   1.44799995         7.76231242E-25
   1.45599997         2.74691622E-25
   1.46399999        -3.74426715E-25
   1.47200000        -9.88171346E-25
   1.48000002        -1.33440378E-24
   1.48800004        -1.21718674E-24
   1.49600005        -6.53399683E-25
   1.50399995         9.86105714E-26
   1.51199996         7.23813013E-25
   1.51999998         1.08311312E-24
   1.52800000         1.21606025E-24
   1.53600001         1.27048060E-24
   1.54400003         1.31796332E-24
   1.55200005         1.26912613E-24
   1.55999994         9.40204067E-25
   1.56799996         2.70003816E-25
   1.57599998        -5.80263402E-25
   1.58399999        -1.38711034E-24
   1.59200001        -2.00462651E-24
   1.60000002        -2.38287171E-24
   1.60800004        -2.48716839E-24
   1.61600006        -2.20845160E-24
   1.62399995        -1.37073674E-24
   1.63199997         6.31372714E-26
   1.63999999         1.82501629E-24
   1.64800000         3.35618900E-24
   1.65600002         4.08865424E-24
   1.66400003         3.78930322E-24
   1.67200005         2.66246511E-24
   1.67999995         1.17038500E-24
   1.68799996        -3.32036436E-25
   1.69599998        -1.76901190E-24
   1.70400000        -3.19112656E-24
   1.71200001        -4.45408104E-24
   1.72000003        -5.08352932E-24
   1.72800004        -4.52184971E-24
   1.73599994        -2.58335400E-24
   1.74399996         2.52506290E-25
   1.75199997         3.03379239E-24
   1.75999999         4.84863889E-24
   1.76800001         5.32751335E-24
   1.77600002         4.71737638E-24
   1.78400004         3.53846399E-24
   1.79200006         2.14397879E-24
   1.79999995         5.57188136E-25
   1.80799997        -1.30049380E-24
   1.81599998        -3.27503474E-24
   1.82400000        -4.87101848E-24
   1.83200002        -5.49171593E-24
   1.84000003        -4.82536671E-24
   1.84800005        -3.06711467E-24
   1.85599995        -7.68976680E-25
   1.86399996         1.49012196E-24
   1.87199998         3.34555831E-24
   1.88000000         4.63582473E-24
   1.88800001         5.25500441E-24
   1.89600003         5.01398690E-24
   1.90400004         3.72968308E-24
   1.91199994         1.45100787E-24
   1.91999996        -1.37676699E-24
   1.92799997        -3.98126503E-24
   1.93599999        -5.56082962E-24
   1.94400001        -5.65699018E-24
   1.95200002        -4.33705825E-24
   1.96000004        -2.12018004E-24
   1.96800005         3.43008924E-25
   1.97599995         2.53324871E-24
   1.98399997         4.18456553E-24
   1.99199998         5.14245290E-24
   2.00000000         5.20117925E-24
   2.00799990         4.10408554E-24
   2.01600003         1.77837292E-24
   2.02399993        -1.39400340E-24
   2.03200006        -4.52864378E-24
   2.03999996        -6.54772774E-24
   2.04800010        -6.70777026E-24
   2.05599999        -4.99920995E-24
   2.06399989        -2.13667177E-24
   2.07200003         8.95576135E-25
   2.07999992         3.38533623E-24
   2.08800006         5.12860365E-24
   2.09599996         6.23691930E-24
   2.10400009         6.70059005E-24
   2.11199999         6.16997854E-24
   2.11999989         4.18038496E-24
   2.12800002         6.75477779E-25
   2.13599992        -3.64474288E-24
   2.14400005        -7.48407329E-24
   2.15199995        -9.56619986E-24
   2.16000009        -9.30028195E-24
   2.16799998        -7.02257231E-24
   2.17600012        -3.66229780E-24
   2.18400002        -1.41691523E-25
   2.19199991         3.04033087E-24
   2.20000005         5.77384020E-24
   2.20799994         8.00191393E-24
   2.21600008         9.42813185E-24
   2.22399998         9.54003887E-24
   2.23200011         7.91147813E-24
   2.24000001         4.53115827E-24
   2.24799991        -8.79791916E-26
   2.25600004        -5.04905610E-24
   2.26399994        -9.34156226E-24
   2.27200007        -1.20674553E-23
   2.27999997        -1.25808649E-23
   2.28800011        -1.06314453E-23
   2.29600000        -6.48819399E-24
   2.30399990        -9.63516287E-25
   2.31200004         4.75870954E-24
   2.31999993         9.47724396E-24
   2.32800007         1.23357706E-23
   2.33599997         1.29606518E-23
   2.34400010         1.13713700E-23
   2.35200000         7.81287209E-24
   2.35999990         2.72911104E-24
   2.36800003        -3.13262187E-24
   2.37599993        -8.68234512E-24
   2.38400006        -1.26999033E-23
   2.39199996        -1.42615213E-23
   2.40000010        -1.31012757E-23
   2.40799999        -9.63292803E-24
   2.41599989        -4.64084504E-24
   2.42400002         1.08919011E-24
   2.43199992         6.89780607E-24
   2.44000006         1.21112347E-23
   2.44799995         1.58572528E-23
   2.45600009         1.71132345E-23
   2.46399999         1.50839324E-23
   2.47199988         9.66481852E-24
   2.48000002         1.67609710E-24
   2.48799992        -7.28985574E-24
   2.49600005        -1.53113721E-23
   2.50399995        -2.06359576E-23
   2.51200008        -2.20525687E-23
   2.51999998        -1.91282693E-23
   2.52800012        -1.23319249E-23
   2.53600001        -3.01915804E-24
   2.54399991         6.86294157E-24
   2.55200005         1.53287712E-23
   2.55999994         2.09488403E-23
   2.56800008         2.31242805E-23
   2.57599998         2.19000630E-23
   2.58400011         1.75385678E-23
   2.59200001         1.02903608E-23
   2.59999990         6.12107005E-25
   2.60800004        -1.03665474E-23
   2.61599994        -2.06113072E-23
   2.62400007        -2.75951591E-23
   2.63199997        -2.92532722E-23
   2.64000010        -2.49089394E-23
   2.64800000        -1.55533078E-23
   2.65599990        -3.35931249E-24
   2.66400003         9.15877924E-24
   2.67199993         1.97923829E-23
   2.68000007         2.68414183E-23
   2.68799996         2.91040512E-23
   2.69600010         2.60016254E-23
   2.70400000         1.79261304E-23
   2.71199989         6.46692077E-24
   2.72000003        -5.86080462E-24
   2.72799993        -1.64218516E-23
   2.73600006        -2.33148913E-23
   2.74399996        -2.57553919E-23
   2.75200009        -2.38160073E-23
   2.75999999        -1.79487187E-23
   2.76799989        -8.81716539E-24
   2.77600002         2.41927034E-24
   2.78399992         1.37583132E-23
   2.79200006         2.25237033E-23
   2.79999995         2.62305307E-23
   2.80800009         2.37051187E-23
   2.81599998         1.57244749E-23
   2.82399988         4.68961676E-24
   2.83200002        -6.45458220E-24
   2.83999991        -1.53580032E-23
   2.84800005        -2.07664509E-23
   2.85599995        -2.23015806E-23
   2.86400008        -1.99655284E-23
   2.87199998        -1.39667807E-23
   2.88000011        -4.97022563E-24
   2.88800001         5.56698115E-24
   2.89599991         1.54441815E-23
   2.90400004         2.23175724E-23
   2.91199994         2.45100456E-23
   2.92000008         2.15840958E-23
   2.92799997         1.43404862E-23
   2.93600011         4.39719943E-24
   2.94400001        -6.32717801E-24
   2.95199990        -1.59280578E-23
   2.96000004        -2.26755417E-23
   2.96799994        -2.52364082E-23
   2.97600007        -2.30142975E-23
   2.98399997        -1.64480086E-23
   2.99200010        -6.97470028E-24
   3.00000000         3.42351236E-24
   3.00799990         1.28492165E-23
   3.01600003         1.99110338E-23
   3.02399993         2.37415941E-23
   3.03200006         2.38003185E-23
   3.03999996         1.98065855E-23
   3.04800010         1.20299639E-23
   3.05599999         1.68187393E-24
   3.06399989        -9.02673812E-24
   3.07200003        -1.74803830E-23
   3.07999992        -2.16715205E-23
   3.08800006        -2.10123610E-23
   3.09599996        -1.64174261E-23
   3.10400009        -9.64974733E-24
   3.11199999        -2.42759125E-24
   3.11999989         4.09348996E-24
   3.12800002         9.26770673E-24
   3.13599992         1.26067349E-23
   3.14400005         1.36155404E-23
   3.15199995         1.20159309E-23
   3.16000009         8.15872213E-24
   3.16799998         3.11919073E-24
   3.17600012        -1.70157337E-24
   3.18400002        -5.21155593E-24
   3.19199991        -7.00758158E-24
   3.20000005        -7.23474986E-24
   3.20799994        -6.15756266E-24
   3.21600008        -3.91684033E-24
   3.22399998        -7.11543662E-25
   3.23200011         2.81652432E-24
   3.24000001         5.48720681E-24
   3.24799991         6.07151687E-24
   3.25600004         4.11328760E-24
   3.26399994         3.87473340E-25
   3.27200007        -3.46254757E-24
   3.27999997        -5.91095567E-24
   3.28800011        -6.41745367E-24
   3.29600000        -5.50074524E-24
   3.30399990        -4.01226687E-24
   3.31200004        -2.30682650E-24
   3.31999993        -3.60660303E-26
   3.32800007         3.25667183E-24
   3.33599997         7.31293544E-24
   3.34400010         1.08772062E-23
   3.35200000         1.22910856E-23
   3.35999990         1.05416090E-23
   3.36800003         5.93943355E-24
   3.37599993        -8.56257853E-26
   3.38400006        -5.86584821E-24
   3.39199996        -1.03185681E-23
   3.40000010        -1.31099106E-23
   3.40799999        -1.41974468E-23
   3.41599989        -1.33533909E-23
   3.42400002        -1.01846708E-23
   3.43199992        -4.65585470E-24
   3.44000006         2.40248397E-24
   3.44799995         9.34705746E-24
   3.45600009         1.44074621E-23
   3.46399999         1.65132790E-23
   3.47199988         1.56388803E-23
   3.48000002         1.24778342E-23
   3.48799992         7.80429639E-24
   3.49600005         2.11002622E-24
   3.50399995        -4.23737030E-24
   3.51200008        -1.05668147E-23
   3.51999998        -1.57054065E-23
   3.52800012        -1.82972990E-23
   3.53600001        -1.74419749E-23
   3.54399991        -1.31982590E-23
   3.55200005        -6.58526174E-24
   3.55999994         9.05718520E-25
   3.56800008         7.89471562E-24
   3.57599998         1.34215232E-23
   3.58400011         1.68942341E-23
   3.59200001         1.79033765E-23
   3.59999990         1.61784028E-23
   3.60800004         1.17537845E-23
   3.61599994         5.17954553E-24
   3.62400007        -2.43920781E-24
   3.63199997        -9.65215020E-24
   3.64000010        -1.50401017E-23
   3.64800000        -1.75836102E-23
   3.65599990        -1.68940890E-23
   3.66400003        -1.32651205E-23
   3.67199993        -7.58499937E-24
   3.68000007        -1.10646419E-24
   3.68799996         4.87588299E-24
   3.69600010         9.38395248E-24
   3.70400000         1.19678900E-23
   3.71199989         1.26669944E-23
   3.72000003         1.17436098E-23
   3.72799993         9.41159575E-24
   3.73600006         5.81391118E-24
   3.74399996         1.22396877E-24
   3.75200009        -3.69818071E-24
   3.75999999        -7.90647281E-24
   3.76799989        -1.03233588E-23
   3.77600002        -1.03419089E-23
   3.78399992        -8.14245187E-24
   3.79200006        -4.59384234E-24
   3.79999995        -8.05700965E-25
   3.80800009         2.34897179E-24
   3.81599998         4.43961964E-24
   3.82399988         5.36551042E-24
   3.83200002         5.14699042E-24
   3.83999991         3.84976941E-24
   3.84800005         1.68889243E-24
   3.85599995        -8.48845691E-25
   3.86400008        -3.03860662E-24
   3.87199998        -4.16999487E-24
   3.88000011        -3.86496208E-24
   3.88800001        -2.24740733E-24
   3.89599991         1.62047142E-25
   3.90400004         2.72009850E-24
   3.91199994         4.88791273E-24
   3.92000008         6.28324279E-24
   3.92799997         6.61155369E-24
   3.93600011         5.63836912E-24
   3.94400001         3.29611566E-24
   3.95199990        -1.58146446E-25
   3.96000004        -4.09137620E-24
   3.96799994        -7.63368155E-24
   3.97600007        -9.95006353E-24
   3.98399997        -1.04953289E-23
   3.99200010        -9.13548339E-24
   4.00000000        -6.13225008E-24
   4.00799990        -2.04321404E-24
   4.01599979         2.40115553E-24
   4.02400017         6.42293941E-24
   4.03200006         9.33678570E-24
   4.03999996         1.06839803E-23
   4.04799986         1.02974676E-23
   4.05600023         8.26065242E-24
   4.06400013         4.83869569E-24
   4.07200003         4.70965738E-25
   4.07999992        -4.14408749E-24
   4.08799982        -8.00852695E-24
   4.09600019        -1.00093070E-23
   4.10400009        -9.36216257E-24
   4.11199999        -6.10866472E-24
   4.11999989        -1.29745225E-24
   4.12799978         3.37960515E-24
   4.13600016         6.38457001E-24
   4.14400005         7.05754567E-24
   4.15199995         5.77502113E-24
   4.15999985         3.43913575E-24
   4.16800022         7.42167735E-25
   4.17600012        -2.20985439E-24
   4.18400002        -5.61868901E-24
   4.19199991        -9.36047362E-24
   4.19999981        -1.26108622E-23
   4.20800018        -1.41468114E-23
   4.21600008        -1.31753150E-23
   4.22399998        -1.00605672E-23
   4.23199987        -6.36561683E-24
   4.23999977        -4.14036289E-24
   4.24800014        -4.94600286E-24
   4.25600004        -9.28474060E-24
   4.26399994        -1.67115308E-23
   4.27199984        -2.63810138E-23
   4.28000021        -3.74735751E-23
   4.28800011        -4.91658411E-23
   4.29600000        -6.02853941E-23
   4.30399990        -6.90873905E-23
   4.31199980        -7.35009663E-23
   4.32000017        -7.17886648E-23
   4.32800007        -6.32174575E-23
   4.33599997        -4.83298505E-23
   4.34399986        -2.86839733E-23
   4.35200024        -6.33917106E-24
   4.36000013         1.65828123E-23
   4.36800003         3.81184090E-23
   4.37599993         5.65799188E-23
   4.38399982         7.07476524E-23
   4.39200020         8.01222229E-23
   4.40000010         8.50351477E-23
   4.40799999         8.64603985E-23
   4.41599989         8.55761990E-23
   4.42399979         8.33397026E-23
   4.43200016         8.03307536E-23
   4.44000006         7.68871296E-23
   4.44799995         7.32856956E-23
   4.45599985         6.96944158E-23
   4.46400023         6.59002283E-23
   4.47200012         6.10675087E-23
   4.48000002         5.38673290E-23
   4.48799992         4.30486539E-23
   4.49599981         2.81318622E-23
   4.50400019         9.79811787E-24
   4.51200008        -1.02426292E-23
   4.51999998        -2.97904139E-23
   4.52799988        -4.67128529E-23
   4.53599977        -5.92687417E-23
   4.54400015        -6.61746762E-23
   4.55200005        -6.66271289E-23
   4.55999994        -6.04391021E-23
   4.56799984        -4.82606769E-23
   4.57600021        -3.16573131E-23
   4.58400011        -1.28805035E-23
   4.59200001         5.61878210E-24
   4.59999990         2.16933373E-23
   4.60799980         3.37958456E-23
   4.61600018         4.10265131E-23
   4.62400007         4.30724965E-23
   4.63199997         4.01656892E-23
   4.63999987         3.31119285E-23
   4.64799976         2.32271179E-23
   4.65600014         1.21116118E-23
   4.66400003         1.27062812E-24
   4.67199993        -8.19740471E-24
   4.67999983        -1.56605677E-23
   4.68800020        -2.07802529E-23
   4.69600010        -2.33359618E-23
   4.70400000        -2.32546744E-23
   4.71199989        -2.08370114E-23
   4.71999979        -1.69412265E-23
   4.72800016        -1.28503753E-23
   4.73600006        -9.81165630E-24
   4.74399996        -8.51236137E-24
   4.75199986        -8.82769747E-24
   4.76000023        -1.00227752E-23
   4.76800013        -1.12514016E-23
   4.77600002        -1.19855242E-23
   4.78399992        -1.21070341E-23
   4.79199982        -1.16910937E-23
   4.80000019        -1.07566943E-23
   4.80800009        -9.23108623E-24
   4.81599998        -7.13656113E-24
   4.82399988        -4.76085800E-24
   4.83199978        -2.60045848E-24
   4.84000015        -1.10910895E-24
   4.84800005        -4.61578293E-25
   4.85599995        -5.54982678E-25
   4.86399984        -1.22522129E-24
   4.87200022        -2.44778490E-24
   4.88000011        -4.30738289E-24
   4.88800001        -6.75714507E-24
   4.89599991        -9.39803602E-24
   4.90399981        -1.15042331E-23
   4.91200018        -1.23119312E-23
   4.92000008        -1.13471543E-23
   4.92799997        -8.56686850E-24
   4.93599987        -4.25764087E-24
   4.94399977         1.16702751E-24
   4.95200014         7.26804058E-24
   4.96000004         1.35337845E-23
   4.96799994         1.93189038E-23
   4.97599983         2.39282638E-23
   4.98400021         2.68611209E-23
   4.99200010         2.80165938E-23
   5.00000000         2.76367636E-23
   5.00799990         2.60125937E-23
   5.01599979         2.32040911E-23
   5.02400017         1.90692025E-23
   5.03200006         1.35854691E-23
   5.03999996         7.19266728E-24
   5.04799986         8.10602454E-25
   5.05600023        -4.53235024E-24
   5.06400013        -8.19405994E-24
   5.07200003        -1.01706188E-23
   5.07999992        -1.09658063E-23
   5.08799982        -1.12381203E-23
   5.09600019        -1.15557891E-23
   5.10400009        -1.24058278E-23
   5.11199999        -1.43303226E-23
   5.11999989        -1.79256319E-23
   5.12799978        -2.35949275E-23
   5.13600016        -3.12384501E-23
   5.14400005        -4.02291199E-23
   5.15199995        -4.97674391E-23
   5.15999985        -5.93523799E-23
   5.16800022        -6.89387565E-23
   5.17600012        -7.85902740E-23
   5.18400002        -8.79009531E-23
   5.19199991        -9.57088018E-23
   5.19999981        -1.00425647E-22
   5.20800018        -1.00795951E-22
   5.21600008        -9.65074067E-23
   5.22399998        -8.81805128E-23
   5.23199987        -7.67351824E-23
   5.23999977        -6.26392793E-23
   5.24800014        -4.56369034E-23
   5.25600004        -2.51466027E-23
   5.26399994        -9.99344378E-25
   5.27199984         2.60775169E-23
   5.28000021         5.45899761E-23
   5.28800011         8.29064854E-23
   5.29600000         1.09884702E-22
   5.30399990         1.35039646E-22
   5.31199980         1.58169148E-22
   5.32000017         1.78793645E-22
   5.32800007         1.95868609E-22
   5.33599997         2.07978142E-22
   5.34399986         2.13851609E-22
   5.35200024         2.12800745E-22
   5.36000013         2.04785312E-22
   5.36800003         1.90146881E-22
   5.37599993         1.69300859E-22
   5.38399982         1.42699813E-22
   5.39200020         1.11096165E-22
   5.40000010         7.58418132E-23
   5.40799999         3.88672525E-23
   5.41599989         2.23769270E-24
   5.42399979        -3.24427125E-23
   5.43200016        -6.43252644E-23
   5.44000006        -9.30590558E-23
   5.44799995        -1.18194979E-22
   5.45599985        -1.38773659E-22
   5.46400023        -1.53503207E-22
   5.47200012        -1.61451542E-22
   5.48000002        -1.62716597E-22
   5.48799992        -1.58520551E-22
   5.49599981        -1.50596273E-22
   5.50400019        -1.40308492E-22
   5.51200008        -1.28171608E-22
   5.51999998        -1.14121932E-22
   5.52799988        -9.82788159E-23
   5.53599977        -8.15437629E-23
   5.54400015        -6.54939839E-23
   5.55200005        -5.16147841E-23
   5.55999994        -4.04663399E-23
   5.56799984        -3.14213869E-23
   5.57600021        -2.31874477E-23
   5.58400011        -1.47055916E-23
   5.59200001        -5.76813635E-24
   5.59999990         3.06453588E-24
   5.60799980         1.10977134E-23
   5.61600018         1.81598210E-23
   5.62400007         2.47536143E-23
   5.63199997         3.16330162E-23
   5.63999987         3.91769562E-23
   5.64799976         4.70842770E-23
   5.65600014         5.45904621E-23
   5.66400003         6.09993511E-23
   5.67199993         6.60646585E-23
   5.67999983         6.99513446E-23
   5.68800020         7.29029340E-23
   5.69600010         7.49635207E-23
   5.70400000         7.60189156E-23
   5.71199989         7.60984202E-23
   5.71999979         7.56232230E-23
   5.72800016         7.53430953E-23
   5.73600006         7.59420174E-23
   5.74399996         7.75990292E-23
   5.75199986         7.97625213E-23
   5.76000023         8.12684883E-23
   5.76800013         8.06695599E-23
   5.77600002         7.64956337E-23
   5.78399992         6.73254349E-23
   5.79199982         5.16417631E-23
   5.80000019         2.77790142E-23
   5.80800009        -5.82683903E-24
   5.81599998        -5.00659283E-23
   5.82399988        -1.04427046E-22
   5.83199978        -1.66543330E-22
   5.84000015        -2.32239716E-22
   5.84800005        -2.96059977E-22
   5.85599995        -3.52033079E-22
   5.86399984        -3.94327913E-22
   5.87200022        -4.17704651E-22
   5.88000011        -4.17829354E-22
   5.88800001        -3.91694128E-22
   5.89599991        -3.38189416E-22
   5.90399981        -2.58761649E-22
   5.91200018        -1.57837940E-22
   5.92000008        -4.26567257E-23
   5.92799997         7.74933282E-23
   5.93599987         1.92482427E-22
   5.94399977         2.92589419E-22
   5.95200014         3.69458045E-22
   5.96000004         4.16756428E-22
   5.96799994         4.30659994E-22
   5.97599983         4.10336968E-22
   5.98400021         3.58357699E-22
   5.99200010         2.80760216E-22
   6.00000000         1.86490719E-22
   6.00799990         8.62037221E-23
   6.01599979        -9.25640472E-24
   6.02400017        -9.02285030E-23
   6.03200006        -1.49127679E-22
   6.03999996        -1.80823075E-22
   6.04799986        -1.82738240E-22
   6.05600023        -1.54872947E-22
   6.06400013        -9.98010146E-23
   6.07200003        -2.25108370E-23
   6.07999992         7.00843844E-23
   6.08799982         1.69985149E-22
   6.09600019         2.69099640E-22
   6.10400009         3.60083550E-22
   6.11199999         4.36796499E-22
   6.11999989         4.94358202E-22
   6.12799978         5.28969481E-22
   6.13600016         5.37716320E-22
   6.14400005         5.18522590E-22
   6.15199995         4.70316600E-22
   6.15999985         3.93351619E-22
   6.16800022         2.89531440E-22
   6.17600012         1.62567988E-22
   6.18400002         1.78556489E-23
   6.19199991        -1.37894148E-22
   6.19999981        -2.97074263E-22
   6.20800018        -4.51475320E-22
   6.21600008        -5.92442113E-22
   6.22399998        -7.11123699E-22
   6.23199987        -7.99099588E-22