 -0.239999995         0.00000000    
 -0.231999993         0.00000000    
 -0.224000007         0.00000000    
 -0.216000006         0.00000000    
 -0.208000004         0.00000000    
 -0.200000003         0.00000000    
 -0.192000002         0.00000000    
 -0.184000000         0.00000000    
 -0.175999999         0.00000000    
 -0.167999998         0.00000000    
 -0.159999996         3.18539626E-35
 -0.151999995         1.94310089E-34
 -0.143999994        -1.39845418E-34
 -0.136000007        -4.71017611E-33
 -0.128000006        -1.66269371E-32
 -0.119999997        -1.01996102E-32
 -0.112000003         9.92805719E-32
 -0.104000002         3.54093717E-31
  -9.60000008E-02     4.25533986E-31
  -8.79999995E-02    -5.47356907E-31
  -7.99999982E-02    -3.06397342E-30
  -7.19999969E-02    -5.29740949E-30
  -6.40000030E-02    -2.39814521E-30
  -5.60000017E-02     9.94392763E-30
  -4.80000004E-02     2.87150798E-29
  -3.99999991E-02     3.95070794E-29
  -3.20000015E-02     1.96231332E-29
  -2.40000002E-02    -5.18120113E-29
  -1.60000008E-02    -1.72809096E-28
  -8.00000038E-03    -2.78977814E-28
   0.00000000        -2.11713410E-28
   8.00000038E-03     2.14296251E-28
   1.60000008E-02     9.71053204E-28
   2.40000002E-02     1.54591440E-27
   3.20000015E-02     1.04068376E-27
   3.99999991E-02    -1.07752006E-27
   4.80000004E-02    -3.98988551E-27
   5.60000017E-02    -5.40484737E-27
   6.40000030E-02    -3.04142992E-27
   7.19999969E-02     3.11543994E-27
   7.99999982E-02     9.91953530E-27
   8.79999995E-02     1.28521627E-26
   9.60000008E-02     9.17716481E-27
  0.104000002        -4.73041135E-28
  0.112000003        -1.32422906E-26
  0.119999997        -2.56128668E-26
  0.128000006        -3.25951132E-26
  0.136000007        -2.60864746E-26
  0.143999994         1.94437092E-27
  0.151999995         4.91278536E-26
  0.159999996         9.32147381E-26
  0.167999998         9.75363092E-26
  0.175999999         3.62214852E-26
  0.184000000        -7.66204265E-26
  0.192000002        -1.81458408E-25
  0.200000003        -2.05594421E-25
  0.208000004        -1.14737341E-25
  0.216000006         5.61873822E-26
  0.224000007         2.20426448E-25
  0.231999993         2.93441737E-25
  0.239999995         2.41884598E-25
  0.247999996         9.27330030E-26
  0.256000012        -9.54309874E-26
  0.263999999        -2.66418271E-25
  0.272000015        -3.76962878E-25
  0.280000001        -3.86478587E-25
  0.287999988        -2.54408505E-25
  0.296000004         3.26540035E-26
  0.303999990         4.15144017E-25
  0.312000006         7.38138480E-25
  0.319999993         7.94863841E-25
  0.328000009         4.40483363E-25
  0.335999995        -2.77445536E-25
  0.344000012        -1.06525154E-24
  0.351999998        -1.48116307E-24
  0.360000014        -1.17221013E-24
  0.368000001        -1.24554604E-25
  0.375999987         1.24741047E-24
  0.384000003         2.26903671E-24
  0.391999990         2.35326043E-24
  0.400000006         1.31499524E-24
  0.407999992        -5.37886189E-25
  0.416000009        -2.55582078E-24
  0.423999995        -3.99558640E-24
  0.432000011        -4.21516150E-24
  0.439999998        -2.80742186E-24
  0.448000014         2.27602025E-25
  0.456000000         4.25408547E-24
  0.463999987         7.90548358E-24
  0.472000003         9.39705783E-24
  0.479999989         7.30176044E-24
  0.488000005         1.44832989E-24
  0.495999992        -6.62570664E-24
  0.504000008        -1.40419829E-23
  0.512000024        -1.76557058E-23
  0.519999981        -1.53202562E-23
  0.527999997        -6.79885135E-24
  0.536000013         5.94859262E-24
  0.544000030         1.91179304E-23
  0.551999986         2.80037165E-23
  0.560000002         2.84701226E-23
  0.568000019         1.86738286E-23
  0.575999975         3.76215137E-25
  0.583999991        -2.09898106E-23
  0.592000008        -3.79161513E-23
  0.600000024        -4.35999857E-23
  0.607999980        -3.46723364E-23
  0.615999997        -1.26325345E-23
  0.624000013         1.64949427E-23
  0.632000029         4.38717766E-23
  0.639999986         6.01701447E-23
  0.648000002         5.80375823E-23
  0.656000018         3.45639847E-23
  0.663999975        -6.59576227E-24
  0.671999991        -5.44513259E-23
  0.680000007        -9.25789614E-23
  0.688000023        -1.04207983E-22
  0.695999980        -7.91847911E-23
  0.703999996        -1.98030262E-23
  0.712000012         5.77490106E-23
  0.720000029         1.27840943E-22
  0.727999985         1.64398385E-22
  0.736000001         1.50720661E-22
  0.744000018         8.58869786E-23
  0.751999974        -1.48723142E-23
  0.759999990        -1.25668041E-22
  0.768000007        -2.18615925E-22
  0.776000023        -2.71912730E-22
  0.783999979        -2.74325055E-22
  0.791999996        -2.25158270E-22
  0.800000012        -1.31030491E-22
  0.808000028        -2.02262477E-24
  0.815999985         1.50630516E-22
  0.824000001         3.14836987E-22
  0.832000017         4.77161237E-22
  0.839999974         6.23116307E-22
  0.847999990         7.38425506E-22
  0.856000006         8.09594391E-22
  0.864000022         8.21804696E-22
  0.871999979         7.54406642E-22
  0.879999995         5.77934090E-22
  0.888000011         2.58539910E-22
  0.896000028        -2.26464447E-22
  0.903999984        -8.64269142E-22
  0.912000000        -1.58193920E-21
  0.920000017        -2.23171007E-21
  0.927999973        -2.59175739E-21
  0.935999990        -2.37920934E-21
  0.944000006        -1.26419057E-21
  0.952000022         1.12951775E-21
  0.959999979         5.25003013E-21
  0.967999995         1.16785244E-20
  0.976000011         2.12335615E-20
  0.984000027         3.51249742E-20
  0.991999984         5.51621030E-20
   1.00000000         8.40145182E-20
   1.00800002         1.25513685E-19
   1.01600003         1.84973095E-19
   1.02400005         2.69495263E-19
   1.03199995         3.88227734E-19
   1.03999996         5.52525268E-19
   1.04799998         7.75967276E-19
   1.05599999         1.07417385E-18
   1.06400001         1.46435691E-18
   1.07200003         1.96455664E-18
   1.08000004         2.59253252E-18
   1.08800006         3.36432305E-18
   1.09599996         4.29252434E-18
   1.10399997         5.38440192E-18
   1.11199999         6.63997068E-18
   1.12000000         8.05022843E-18
   1.12800002         9.59571283E-18
   1.13600004         1.12455808E-17
   1.14400005         1.29573666E-17
   1.15199995         1.46775408E-17
   1.15999997         1.63429912E-17
   1.16799998         1.78833967E-17
   1.17600000         1.92244881E-17
   1.18400002         2.02919911E-17
   1.19200003         2.10160355E-17
   1.20000005         2.13357359E-17
   1.20799994         2.12035392E-17
   1.21599996         2.05890300E-17
   1.22399998         1.94818207E-17
   1.23199999         1.78932633E-17
   1.24000001         1.58568042E-17
   1.24800003         1.34268900E-17
   1.25600004         1.06764930E-17
   1.26400006         7.69341911E-18
   1.27199996         4.57571251E-18
   1.27999997         1.42647948E-18
   1.28799999        -1.65143145E-18
   1.29600000        -4.56053664E-18
   1.30400002        -7.21327881E-18
   1.31200004        -9.53578442E-18
   1.32000005        -1.14706624E-17
   1.32799995        -1.29787583E-17
   1.33599997        -1.40398540E-17
   1.34399998        -1.46524027E-17
   1.35200000        -1.48324105E-17
   1.36000001        -1.46116806E-17
   1.36800003        -1.40356618E-17
   1.37600005        -1.31610424E-17
   1.38399994        -1.20532606E-17
   1.39199996        -1.07839321E-17
   1.39999998        -9.42817815E-18
   1.40799999        -8.06183873E-18
   1.41600001        -6.75855530E-18
   1.42400002        -5.58678572E-18
   1.43200004        -4.60679837E-18
   1.44000006        -3.86772697E-18
   1.44799995        -3.40480837E-18
   1.45599997        -3.23697177E-18
   1.46399999        -3.36504683E-18
   1.47200000        -3.77086578E-18
   1.48000002        -4.41749602E-18
   1.48800004        -5.25071423E-18
   1.49600005        -6.20167870E-18
   1.50399995        -7.19065708E-18
   1.51199996        -8.13160480E-18
   1.51999998        -8.93737881E-18
   1.52800000        -9.52532307E-18
   1.53600001        -9.82288723E-18
   1.54400003        -9.77287672E-18
   1.55200005        -9.33787815E-18
   1.55999994        -8.50347874E-18
   1.56799996        -7.28001988E-18
   1.57599998        -5.70280938E-18
   1.58399999        -3.83080659E-18
   1.59200001        -1.74390167E-18
   1.60000002         4.61107076E-19
   1.60800004         2.67567741E-18
   1.61600006         4.78563234E-18
   1.62399995         6.67792008E-18
   1.63199997         8.24767975E-18
   1.63999999         9.40525201E-18
   1.64800000         1.00828081E-17
   1.65600002         1.02403330E-17
   1.66400003         9.87072474E-18
   1.67200005         9.00368230E-18
   1.67999995         7.70799320E-18
   1.68799996         6.09169635E-18
   1.69599998         4.29969889E-18
   1.70400000         2.50851806E-18
   1.71200001         9.18089209E-19
   1.72000003        -2.59201930E-19
   1.72800004        -8.11995851E-19
   1.73599994        -5.45536005E-19
   1.74399996         7.01144964E-19
   1.75199997         3.03720972E-18
   1.75999999         6.50220665E-18
   1.76800001         1.10497930E-17
   1.77600002         1.65343594E-17
   1.78400004         2.27018644E-17
   1.79200006         2.91858933E-17
   1.79999995         3.55098214E-17
   1.80799997         4.10956662E-17
   1.81599998         4.52800884E-17
   1.82400000         4.73376671E-17
   1.83200002         4.65110721E-17
   1.84000003         4.20473243E-17
   1.84800005         3.32386283E-17
   1.85599995         1.94662763E-17
   1.86399996         2.45283686E-19
   1.87199998        -2.47320071E-17
   1.88000000        -5.55557660E-17
   1.88800001        -9.20642493E-17
   1.89600003        -1.33817441E-16
   1.90400004        -1.80080952E-16
   1.91199994        -2.29822141E-16
   1.91999996        -2.81719347E-16
   1.92799997        -3.34185679E-16
   1.93599999        -3.85406847E-16
   1.94400001        -4.33393090E-16
   1.95200002        -4.76043157E-16
   1.96000004        -5.11220012E-16
   1.96800005        -5.36834129E-16
   1.97599995        -5.50932834E-16
   1.98399997        -5.51791090E-16
   1.99199998        -5.38000494E-16
   2.00000000        -5.08552070E-16
   2.00799990        -4.62908429E-16
   2.01600003        -4.01061604E-16
   2.02399993        -3.23573177E-16
   2.03200006        -2.31593710E-16
   2.03999996        -1.26858933E-16
   2.04800010        -1.16616965E-17
   2.05599999         1.11201741E-16
   2.06399989         2.38509681E-16
   2.07200003         3.66715344E-16
   2.07999992         4.92065791E-16
   2.08800006         6.10735637E-16
   2.09599996         7.18968871E-16
   2.10400009         8.13224898E-16
   2.11199999         8.90320672E-16
   2.11999989         9.47563900E-16
   2.12800002         9.82869503E-16
   2.13599992         9.94854067E-16
   2.14400005         9.82903173E-16
   2.15199995         9.47208358E-16
   2.16000009         8.88771555E-16
   2.16799998         8.09376086E-16
   2.17600012         7.11526257E-16
   2.18400002         5.98355562E-16
   2.19199991         4.73509205E-16
   2.20000005         3.41004427E-16
   2.20799994         2.05075240E-16
   2.21600008         7.00080804E-17
   2.22399998        -6.00241097E-17
   2.23200011        -1.81122590E-16
   2.24000001        -2.89811555E-16
   2.24799991        -3.83167847E-16
   2.25600004        -4.58926739E-16
   2.26399994        -5.15558515E-16
   2.27200007        -5.52312810E-16
   2.27999997        -5.69228905E-16
   2.28800011        -5.67110793E-16
   2.29600000        -5.47468522E-16
   2.30399990        -5.12429046E-16
   2.31200004        -4.64620706E-16
   2.31999993        -4.07037845E-16
   2.32800007        -3.42892145E-16
   2.33599997        -2.75457444E-16
   2.34400010        -2.07916387E-16
   2.35200000        -1.43215947E-16
   2.35999990        -8.39395820E-17
   2.36800003        -3.22025780E-17
   2.37599993         1.04245379E-17
   2.38400006         4.29620306E-17
   2.39199996         6.50349713E-17
   2.40000010         7.68555146E-17
   2.40799999         7.91753393E-17
   2.41599989         7.32107451E-17
   2.42400002         6.05454585E-17
   2.43199992         4.30174483E-17
   2.44000006         2.25973352E-17
   2.44799995         1.26561829E-18
   2.45600009        -1.91044046E-17
   2.46399999        -3.68526003E-17
   2.47199988        -5.06216866E-17
   2.48000002        -5.94260383E-17
   2.48799992        -6.26957509E-17
   2.49600005        -6.02934926E-17
   2.50399995        -5.25038732E-17
   2.51200008        -3.99972498E-17
   2.51999998        -2.37714536E-17
   2.52800012        -5.07569274E-18
   2.53600001         1.46787931E-17
   2.54399991         3.40162608E-17
   2.55200005         5.14964864E-17
   2.55999994         6.58108800E-17
   2.56800008         7.58683837E-17
   2.57599998         8.08655406E-17
   2.58400011         8.03368333E-17
   2.59200001         7.41827816E-17
   2.59999990         6.26749787E-17
   2.60800004         4.64381313E-17
   2.61599994         2.64103682E-17
   2.62400007         3.78426652E-18
   2.63199997        -2.00676879E-17
   2.64000010        -4.36783723E-17
   2.64800000        -6.55765232E-17
   2.65599990        -8.43767834E-17
   2.66400003        -9.88638989E-17
   2.67199993        -1.08066230E-16
   2.68000007        -1.11314542E-16
   2.68799996        -1.08283097E-16
   2.69600010        -9.90109451E-17
   2.70400000        -8.39023920E-17
   2.71199989        -6.37066450E-17
   2.72000003        -3.94775421E-17
   2.72799993        -1.25157704E-17
   2.73600006         1.57033837E-17
   2.74399996         4.36124857E-17
   2.75200009         6.96400248E-17
   2.75999999         9.22994002E-17
   2.76799989         1.10274227E-16
   2.77600002         1.22495390E-16
   2.78399992         1.28205451E-16
   2.79200006         1.27006383E-16
   2.79999995         1.18887162E-16
   2.80800009         1.04229376E-16
   2.81599998         8.37898557E-17
   2.82399988         5.86611476E-17
   2.83200002         3.02117892E-17
   2.83999991         9.50895651E-21
   2.84800005        -3.02684147E-17
   2.85599995        -5.89325423E-17
   2.86400008        -8.43802774E-17
   2.87199998        -1.05190666E-16
   2.88000011        -1.20208798E-16
   2.88800001        -1.28614528E-16
   2.89599991        -1.29970906E-16
   2.90400004        -1.24249278E-16
   2.91199994        -1.11829128E-16
   2.92000008        -9.34731298E-17
   2.92799997        -7.02791707E-17
   2.93600011        -4.36126147E-17
   2.94400001        -1.50228390E-17
   2.95199990         1.38510136E-17
   2.96000004         4.13792899E-17
   2.96799994         6.60396517E-17
   2.97600007         8.65065683E-17
   2.98399997         1.01726440E-16
   2.99200010         1.10973883E-16
   3.00000000         1.13886677E-16
   3.00799990         1.10478216E-16
   3.01600003         1.01127542E-16
   3.02399993         8.65471465E-17
   3.03200006         6.77304882E-17
   3.03999996         4.58823884E-17
   3.04800010         2.23379297E-17
   3.05599999        -1.52363567E-18
   3.06399989        -2.43635726E-17
   3.07200003        -4.49617893E-17
   3.07999992        -6.22846024E-17
   3.08800006        -7.55390269E-17
   3.09599996        -8.42105333E-17
   3.10400009        -8.80814342E-17
   3.11199999        -8.72284720E-17
   3.11999989        -8.20001744E-17
   3.12800002        -7.29772949E-17
   3.13599992        -6.09208992E-17
   3.14400005        -4.67129737E-17
   3.15199995        -3.12940855E-17
   3.16000009        -1.56014072E-17
   3.16799998        -5.10806931E-19
   3.17600012         1.32132665E-17
   3.18400002         2.49563782E-17
   3.19199991         3.42784241E-17
   3.20000005         4.09227987E-17
   3.20799994         4.48116031E-17
   3.21600008         4.60295074E-17
   3.22399998         4.47992351E-17
   3.23200011         4.14514168E-17
   3.24000001         3.63911228E-17
   3.24799991         3.00634128E-17
   3.25600004         2.29206305E-17
   3.26399994         1.53942150E-17
   3.27200007         7.87335984E-18
   3.27999997         6.91496367E-19
   3.28800011        -5.87996086E-18
   3.29600000        -1.16322522E-17
   3.30399990        -1.64162182E-17
   3.31200004        -2.01369642E-17
   3.31999993        -2.27470715E-17
   3.32800007        -2.42389562E-17
   3.33599997        -2.46372553E-17
   3.34400010        -2.39923737E-17
   3.35200000        -2.23761951E-17
   3.35999990        -1.98801164E-17
   3.36800003        -1.66146935E-17
   3.37599993        -1.27095755E-17
   3.38400006        -8.31264155E-18
   3.39199996        -3.58780740E-18
   3.40000010         1.28853946E-18
   3.40799999         6.13246518E-18
   3.41599989         1.07590183E-17
   3.42400002         1.49905393E-17
   3.43199992         1.86664588E-17
   3.44000006         2.16535635E-17
   3.44799995         2.38553115E-17
   3.45600009         2.52190180E-17
   3.46399999         2.57402791E-17
   3.47199988         2.54644905E-17
   3.48000002         2.44851930E-17
   3.48799992         2.29387673E-17
   3.49600005         2.09950450E-17
   3.50399995         1.88441273E-17
   3.51200008         1.66806910E-17
   3.51999998         1.46875976E-17
   3.52800012         1.30204201E-17
   3.53600001         1.17937402E-17
   3.54399991         1.10696188E-17
   3.55200005         1.08489874E-17
   3.55999994         1.10673242E-17
   3.56800008         1.15962624E-17
   3.57599998         1.22519825E-17
   3.58400011         1.28097769E-17
   3.59200001         1.30230025E-17
   3.59999990         1.26444301E-17
   3.60800004         1.14486743E-17
   3.61599994         9.25489539E-18
   3.62400007         5.94868840E-18
   3.63199997         1.50096255E-18
   3.64000010        -4.01928879E-18
   3.64800000        -1.04410468E-17
   3.65599990        -1.74973168E-17
   3.66400003        -2.48403347E-17
   3.67199993        -3.20639955E-17
   3.68000007        -3.87316238E-17
   3.68799996        -4.44077768E-17
   3.69600010        -4.86929430E-17
   3.70400000        -5.12589962E-17
   3.71199989        -5.18819360E-17
   3.72000003        -5.04676325E-17
   3.72799993        -4.70668382E-17
   3.73600006        -4.18774148E-17
   3.74399996        -3.52337383E-17
   3.75200009        -2.75845246E-17
