 -0.239999995         0.00000000    
 -0.231999993         0.00000000    
 -0.224000007         0.00000000    
 -0.216000006         0.00000000    
 -0.208000004         0.00000000    
 -0.200000003         0.00000000    
 -0.192000002         1.21626809E-28
 -0.184000000         2.20861197E-27
 -0.175999999         6.13986736E-27
 -0.167999998        -6.75342897E-27
 -0.159999996        -6.05774609E-26
 -0.151999995        -9.63981555E-26
 -0.143999994         4.97678540E-26
 -0.136000007         3.95721645E-25
 -0.128000006         5.65060425E-25
 -0.119999997         1.38228510E-25
 -0.112000003        -7.17728874E-25
 -0.104000002        -1.49663766E-24
  -9.60000008E-02    -2.08451150E-24
  -8.79999995E-02    -1.93957980E-24
  -7.99999982E-02     1.28729695E-24
  -7.19999969E-02     8.82508555E-24
  -6.40000030E-02     1.43541777E-23
  -5.60000017E-02     5.81197098E-24
  -4.80000004E-02    -1.84329373E-23
  -3.99999991E-02    -3.74570501E-23
  -3.20000015E-02    -2.47164968E-23
  -2.40000002E-02     1.71277827E-23
  -1.60000008E-02     5.01398382E-23
  -8.00000038E-03     4.23846034E-23
   0.00000000         7.33268931E-24
   8.00000038E-03    -1.59061338E-23
   1.60000008E-02    -1.84943454E-23
   2.40000002E-02    -3.09555835E-23
   3.20000015E-02    -6.36173406E-23
   3.99999991E-02    -6.64977621E-23
   4.80000004E-02     1.13656792E-23
   5.60000017E-02     1.25747155E-22
   6.40000030E-02     1.50746270E-22
   7.19999969E-02     2.49250511E-23
   7.99999982E-02    -1.42424747E-22
   8.79999995E-02    -1.67419357E-22
   9.60000008E-02    -5.64258874E-24
  0.104000002         1.75757175E-22
  0.112000003         1.75967302E-22
  0.119999997        -1.23457718E-23
  0.128000006        -1.96070873E-22
  0.136000007        -2.00234797E-22
  0.143999994        -5.46383617E-23
  0.151999995         5.85400236E-23
  0.159999996         2.58393141E-23
  0.167999998        -5.92969451E-23
  0.175999999        -2.04569757E-24
  0.184000000         2.45211821E-22
  0.192000002         4.70661275E-22
  0.200000003         3.94301004E-22
  0.208000004        -1.44586087E-23
  0.216000006        -4.66907358E-22
  0.224000007        -6.50152501E-22
  0.231999993        -5.47876394E-22
  0.239999995        -3.90797098E-22
  0.247999996        -3.09046445E-22
  0.256000012        -1.48794376E-22
  0.263999999         2.98985402E-22
  0.272000015         9.48443857E-22
  0.280000001         1.41230962E-21
  0.287999988         1.41299018E-21
  0.296000004         1.19176612E-21
  0.303999990         1.43730265E-21
  0.312000006         2.72156699E-21
  0.319999993         4.99619150E-21
  0.328000009         7.73796767E-21
  0.335999995         1.06574443E-20
  0.344000012         1.41863042E-20
  0.351999998         1.91525674E-20
  0.360000014         2.60309554E-20
  0.368000001         3.47084242E-20
  0.375999987         4.50627124E-20
  0.384000003         5.76040501E-20
  0.391999990         7.33199195E-20
  0.400000006         9.28182273E-20
  0.407999992         1.15692156E-19
  0.416000009         1.40760704E-19
  0.423999995         1.66837871E-19
  0.432000011         1.93118626E-19
  0.439999998         2.18775624E-19
  0.448000014         2.42328118E-19
  0.456000000         2.61627922E-19
  0.463999987         2.74540134E-19
  0.472000003         2.79544757E-19
  0.479999989         2.75633667E-19
  0.488000005         2.61806309E-19
  0.495999992         2.36957441E-19
  0.504000008         2.00441269E-19
  0.512000024         1.52774029E-19
  0.519999981         9.57511642E-20
  0.527999997         3.18109753E-20
  0.536000013        -3.67809511E-20
  0.544000030        -1.08134077E-19
  0.551999986        -1.80143290E-19
  0.560000002        -2.49858900E-19
  0.568000019        -3.13719595E-19
  0.575999975        -3.68566917E-19
  0.583999991        -4.12382261E-19
  0.592000008        -4.43986867E-19
  0.600000024        -4.62126576E-19
  0.607999980        -4.64975076E-19
  0.615999997        -4.50527540E-19
  0.624000013        -4.17448122E-19
  0.632000029        -3.65621405E-19
  0.639999986        -2.96117502E-19
  0.648000002        -2.11059644E-19
  0.656000018        -1.14101087E-19
  0.663999975        -1.14115745E-20
  0.671999991         8.78819818E-20
  0.680000007         1.72445302E-19
  0.688000023         2.29832392E-19
  0.695999980         2.46753198E-19
  0.703999996         2.08929176E-19
  0.712000012         1.02128003E-19
  0.720000029        -8.52451627E-20
  0.727999985        -3.59521852E-19
  0.736000001        -7.20451101E-19
  0.744000018        -1.16080189E-18
  0.751999974        -1.66589243E-18
  0.759999990        -2.21302081E-18
  0.768000007        -2.77141508E-18
  0.776000023        -3.30290158E-18
  0.783999979        -3.76325737E-18
  0.791999996        -4.10449171E-18
  0.800000012        -4.27821990E-18
  0.808000028        -4.23955086E-18
  0.815999985        -3.95076019E-18
  0.824000001        -3.38470064E-18
  0.832000017        -2.52826059E-18
  0.839999974        -1.38565533E-18
  0.847999990         1.92605758E-20
  0.856000006         1.64228211E-18
  0.864000022         3.41964199E-18
  0.871999979         5.26986470E-18
  0.879999995         7.09662070E-18
  0.888000011         8.79317558E-18
  0.896000028         1.02489407E-17
  0.903999984         1.13575976E-17
  0.912000000         1.20250720E-17
  0.920000017         1.21761011E-17
  0.927999973         1.17597058E-17
  0.935999990         1.07544382E-17
  0.944000006         9.17296977E-18
  0.952000022         7.06441360E-18
  0.959999979         4.51325045E-18
  0.967999995         1.63541869E-18
  0.976000011        -1.42746341E-18
  0.984000027        -4.51548632E-18
  0.991999984        -7.45966862E-18
   1.00000000        -1.00927169E-17
   1.00800002        -1.22602444E-17
   1.01600003        -1.38312523E-17
   1.02400005        -1.47071555E-17
   1.03199995        -1.48290670E-17
   1.03999996        -1.41829000E-17
   1.04799998        -1.28017284E-17
   1.05599999        -1.07647490E-17
   1.06400001        -8.19285091E-18
   1.07200003        -5.24120785E-18
   1.08000004        -2.08932546E-18
   1.08800006         1.07087671E-18
   1.09599996         4.04807427E-18
   1.10399997         6.66452637E-18
   1.11199999         8.76793334E-18
   1.12000000         1.02415515E-17
   1.12800002         1.10119916E-17
   1.13600004         1.10540314E-17
   1.14400005         1.03917881E-17
   1.15199995         9.09613379E-18
   1.15999997         7.27880392E-18
   1.16799998         5.08365311E-18
   1.17600000         2.67546089E-18
   1.18400002         2.26864959E-19
   1.19200003        -2.09499020E-18
   1.20000005        -4.14032972E-18
   1.20799994        -5.78618546E-18
   1.21599996        -6.94350792E-18
   1.22399998        -7.56216705E-18
   1.23199999        -7.63319953E-18
   1.24000001        -7.18739633E-18
   1.24800003        -6.29016055E-18
   1.25600004        -5.03383285E-18
   1.26400006        -3.52877689E-18
   1.27199996        -1.89406328E-18
   1.27999997        -2.48211957E-19
   1.28799999         1.29951150E-18
   1.29600000         2.65632924E-18
   1.30400002         3.75093031E-18
   1.31200004         4.53602108E-18
   1.32000005         4.98902240E-18
   1.32799995         5.11143935E-18
   1.33599997         4.92655290E-18
   1.34399998         4.47494785E-18
   1.35200000         3.80867910E-18
   1.36000001         2.98591191E-18
   1.36800003         2.06701744E-18
   1.37600005         1.11129337E-18
   1.38399994         1.73562112E-19
   1.39199996        -6.98556147E-19
   1.39999998        -1.46563676E-18
   1.40799999        -2.09631597E-18
   1.41600001        -2.56748342E-18
   1.42400002        -2.86491958E-18
   1.43200004        -2.98326596E-18
   1.44000006        -2.92514743E-18
   1.44799995        -2.70062269E-18
   1.45599997        -2.32753818E-18
   1.46399999        -1.83185867E-18
   1.47200000        -1.24692080E-18
   1.48000002        -6.11755484E-19
   1.48800004         3.08609422E-20
   1.49600005         6.36666752E-19
   1.50399995         1.16289000E-18
   1.51199996         1.57183952E-18
   1.51999998         1.83441963E-18
   1.52800000         1.93295152E-18
   1.53600001         1.86304607E-18
   1.54400003         1.63447374E-18
   1.55200005         1.27090604E-18
   1.55999994         8.08316345E-19
   1.56799996         2.91941274E-19
   1.57599998        -2.27893403E-19
   1.58399999        -7.00407325E-19
   1.59200001        -1.07895082E-18
   1.60000002        -1.32543627E-18
   1.60800004        -1.41444566E-18
   1.61600006        -1.33626902E-18
   1.62399995        -1.09795695E-18
   1.63199997        -7.22248099E-19
   1.63999999        -2.45155421E-19
   1.64800000         2.86975192E-19
   1.65600002         8.21006950E-19
   1.66400003         1.30177156E-18
   1.67200005         1.67794249E-18
   1.67999995         1.90763462E-18
   1.68799996         1.96229472E-18
   1.69599998         1.82887586E-18
   1.70400000         1.51117730E-18
   1.71200001         1.03030557E-18
   1.72000003         4.23177278E-19
   1.72800004        -2.61089582E-19
   1.73599994        -9.65536289E-19
   1.74399996        -1.62957403E-18
   1.75199997        -2.19381182E-18
   1.75999999        -2.60604141E-18
   1.76800001        -2.82687134E-18
   1.77600002        -2.83311738E-18
   1.78400004        -2.61901988E-18
   1.79200006        -2.19668875E-18
   1.79999995        -1.59593591E-18
   1.80799997        -8.62417576E-19
   1.81599998        -5.36908266E-20
   1.82400000         7.65987600E-19
   1.83200002         1.53133941E-18
   1.84000003         2.18191158E-18
   1.84800005         2.66753712E-18
   1.85599995         2.95260775E-18
   1.86399996         3.01883080E-18
   1.87199998         2.86650115E-18
   1.88000000         2.51413358E-18
   1.88800001         1.99627095E-18
   1.89600003         1.35977016E-18
   1.90400004         6.59035422E-19
   1.91199994        -4.93776646E-20
   1.91999996        -7.12168955E-19
   1.92799997        -1.28378896E-18
   1.93599999        -1.72963146E-18
   1.94400001        -2.02817304E-18
   1.95200002        -2.17201147E-18
   1.96000004        -2.16720493E-18
   1.96800005        -2.03083676E-18
   1.97599995        -1.78778401E-18
   1.98399997        -1.46754042E-18
   1.99199998        -1.10113197E-18
   2.00000000        -7.18039352E-19
   2.00799990        -3.43655106E-19
   2.01600003         2.17033169E-21
   2.02399993         3.05546896E-19
   2.03200006         5.58282135E-19
   2.03999996         7.57119500E-19
   2.04800010         9.02586604E-19
   2.05599999         9.97627382E-19
   2.06399989         1.04621680E-18
   2.07200003         1.05226866E-18
   2.07999992         1.01924440E-18
   2.08800006         9.50462474E-19
   2.09599996         8.49553367E-19
   2.10400009         7.20685710E-19
   2.11199999         5.68866997E-19
   2.11999989         4.00556473E-19
   2.12800002         2.24100263E-19
   2.13599992         4.94171495E-20
   2.14400005        -1.12895290E-19
   2.15199995        -2.52573655E-19
   2.16000009        -3.60794108E-19
   2.16799998        -4.31463379E-19
   2.17600012        -4.62308763E-19
   2.18400002        -4.55277728E-19
   2.19199991        -4.16281435E-19
   2.20000005        -3.54598318E-19
   2.20799994        -2.81948079E-19
   2.21600008        -2.11022744E-19
   2.22399998        -1.53532502E-19
   2.23200011        -1.18246296E-19
   2.24000001        -1.09674701E-19
   2.24799991        -1.27744333E-19
   2.25600004        -1.68164009E-19
   2.26399994        -2.22875751E-19
   2.27200007        -2.80584601E-19
   2.27999997        -3.28055462E-19
   2.28800011        -3.52369945E-19
   2.29600000        -3.43204190E-19
   2.30399990        -2.94209196E-19
   2.31200004        -2.03672301E-19
   2.31999993        -7.49430288E-20
   2.32800007         8.36900954E-20
   2.33599997         2.60106297E-19
   2.34400010         4.39917346E-19
   2.35200000         6.07710106E-19
   2.35999990         7.48213453E-19
   2.36800003         8.48027270E-19
   2.37599993         8.97500581E-19
   2.38400006         8.91674024E-19
   2.39199996         8.30136698E-19
   2.40000010         7.16600989E-19
   2.40799999         5.58541766E-19
   2.41599989         3.66455384E-19
   2.42400002         1.52583933E-19
   2.43199992        -7.03990995E-20
   2.44000006        -2.90357145E-19
   2.44799995        -4.96376041E-19
   2.45600009        -6.79195416E-19
   2.46399999        -8.31309329E-19
   2.47199988        -9.46952746E-19
   2.48000002        -1.02223600E-18
   2.48799992        -1.05517527E-18
   2.49600005        -1.04522615E-18
   2.50399995        -9.92673397E-19
   2.51200008        -8.98650775E-19
   2.51999998        -7.65773774E-19
   2.52800012        -5.98535432E-19
   2.53600001        -4.03077022E-19
   2.54399991        -1.86972985E-19
   2.55200005         4.05057874E-20
   2.55999994         2.68257516E-19
   2.56800008         4.84111331E-19
   2.57599998         6.76162041E-19
   2.58400011         8.33679564E-19
   2.59200001         9.47384018E-19
   2.59999990         1.00988589E-18
   2.60800004         1.01677103E-18
   2.61599994         9.67719426E-19
   2.62400007         8.66817557E-19
   2.63199997         7.22094088E-19
   2.64000010         5.44828869E-19
   2.64800000         3.48767419E-19
   2.65599990         1.48939259E-19
   2.66400003        -3.98309372E-20
   2.67199993        -2.04243495E-19
   2.68000007        -3.33569733E-19
   2.68799996        -4.20725023E-19
   2.69600010        -4.63254696E-19
   2.70400000        -4.63568714E-19
   2.71199989        -4.28195912E-19
   2.72000003        -3.66634623E-19
   2.72799993        -2.90268715E-19
   2.73600006        -2.11114690E-19
   2.74399996        -1.40180618E-19
   2.75200009        -8.58844117E-20
   2.75999999        -5.30454286E-20
   2.76799989        -4.23976754E-20
   2.77600002        -5.05100393E-20
   2.78399992        -7.03949894E-20
   2.79200006        -9.28979663E-20
   2.79999995        -1.08295080E-19
   2.80800009        -1.07586594E-19
   2.81599998        -8.37162162E-20
   2.82399988        -3.29903959E-20
   2.83200002         4.37611373E-20
   2.83999991         1.40944856E-19
   2.84800005         2.48836479E-19
   2.85599995         3.54615973E-19
   2.86400008         4.43693942E-19
   2.87199998         5.01481452E-19
   2.88000011         5.15428647E-19
   2.88800001         4.76883375E-19
   2.89599991         3.82463086E-19
   2.90400004         2.34819283E-19
   2.91199994         4.27264797E-20
   2.92000008        -1.79474502E-19
   2.92799997        -4.13001095E-19
   2.93600011        -6.36357955E-19
   2.94400001        -8.27612711E-19
   2.95199990        -9.66747799E-19
   2.96000004        -1.03760223E-18
   2.96799994        -1.02940890E-18
   2.97600007        -9.38115355E-19
   2.98399997        -7.67187374E-19
   2.99200010        -5.27390816E-19
   3.00000000        -2.35673372E-19
   3.00799990         8.63381978E-20
   3.01600003         4.14084211E-19
   3.02399993         7.22202656E-19
   3.03200006         9.86759676E-19
   3.03999996         1.18704988E-18
   3.04800010         1.30697318E-18
   3.05599999         1.33634926E-18
   3.06399989         1.27200898E-18
   3.07200003         1.11802476E-18
   3.07999992         8.84949045E-19
   3.08800006         5.88672544E-19
   3.09599996         2.49406432E-19
   3.10400009        -1.09422670E-19
   3.11199999        -4.62786356E-19
   3.11999989        -7.86124744E-19
   3.12800002        -1.05730515E-18
   3.13599992        -1.25800078E-18
   3.14400005        -1.37456128E-18
   3.15199995        -1.39876666E-18
   3.16000009        -1.32856466E-18
   3.16799998        -1.16842301E-18
   3.17600012        -9.29023710E-19
   3.18400002        -6.26443162E-19
   3.19199991        -2.81067804E-19
   3.20000005         8.37633849E-20
   3.20799994         4.43370101E-19
   3.21600008         7.73351524E-19
   3.22399998         1.05108424E-18
   3.23200011         1.25722034E-18
   3.24000001         1.37714932E-18
   3.24799991         1.40216078E-18
   3.25600004         1.33023298E-18
   3.26399994         1.16651998E-18
   3.27200007         9.23232722E-19
   3.27999997         6.18492457E-19
   3.28800011         2.74552619E-19
   3.29600000        -8.37097280E-20
   3.30399990        -4.30022430E-19
   3.31200004        -7.38555344E-19
   3.31999993        -9.86469439E-19
   3.32800007        -1.15606235E-18
   3.33599997        -1.23583534E-18
   3.34400010        -1.22112021E-18
   3.35200000        -1.11478387E-18
   3.35999990        -9.27306483E-19
   3.36800003        -6.75576242E-19
   3.37599993        -3.81044963E-19
   3.38400006        -6.81774927E-20
   3.39199996         2.37070894E-19
   3.40000010         5.09568331E-19
   3.40799999         7.27844958E-19
   3.41599989         8.76221049E-19
   3.42400002         9.45615402E-19
   3.43199992         9.33613425E-19
   3.44000006         8.44507823E-19
   3.44799995         6.89190756E-19
   3.45600009         4.84299773E-19
   3.46399999         2.50414843E-19
   3.47199988         9.74111154E-21
   3.48000002        -2.16141053E-19
   3.48799992        -4.08177159E-19
   3.49600005        -5.51348862E-19
   3.50399995        -6.35731159E-19
   3.51200008        -6.57034317E-19
   3.51999998        -6.16706057E-19
   3.52800012        -5.21676808E-19
   3.53600001        -3.83613488E-19
   3.54399991        -2.17529062E-19
   3.55200005        -3.99637126E-20
   3.55999994         1.32769494E-19
   3.56800008         2.85966083E-19
   3.57599998         4.07557756E-19
   3.58400011         4.88819746E-19
   3.59200001         5.24727191E-19
   3.59999990         5.14034434E-19
   3.60800004         4.59176126E-19
   3.61599994         3.65859012E-19
   3.62400007         2.42159709E-19
   3.63199997         9.73687676E-20
   3.64000010        -5.88442458E-20
   3.64800000        -2.16707943E-19
   3.65599990        -3.66466628E-19
   3.66400003        -4.98813639E-19
   3.67199993        -6.05568173E-19
   3.68000007        -6.80110381E-19
   3.68799996        -7.17315569E-19
   3.69600010        -7.13282805E-19
   3.70400000        -6.65351153E-19
   3.71199989        -5.72560410E-19
   3.72000003        -4.36272581E-19
   3.72799993        -2.60583038E-19
   3.73600006        -5.24077079E-20
   3.74399996         1.78679077E-19
   3.75200009         4.20767235E-19
