 -0.239999995         0.00000000    
 -0.231999993         0.00000000    
 -0.224000007         0.00000000    
 -0.216000006         0.00000000    
 -0.208000004         0.00000000    
 -0.200000003         0.00000000    
 -0.192000002         0.00000000    
 -0.184000000         0.00000000    
 -0.175999999         0.00000000    
 -0.167999998         0.00000000    
 -0.159999996         5.87890332E-38
 -0.151999995         1.51758695E-37
 -0.143999994         5.30669980E-37
 -0.136000007        -3.72283918E-36
 -0.128000006        -2.62328956E-35
 -0.119999997        -3.74124036E-35
 -0.112000003         1.59962775E-34
 -0.104000002         7.24851556E-34
  -9.60000008E-02     6.77526934E-34
  -8.79999995E-02    -2.56499149E-33
  -7.99999982E-02    -8.57563683E-33
  -7.19999969E-02    -5.65929559E-33
  -6.40000030E-02     2.24012886E-32
  -5.60000017E-02     5.87223845E-32
  -4.80000004E-02     2.72153126E-32
  -3.99999991E-02    -1.27923314E-31
  -3.20000015E-02    -2.72481307E-31
  -2.40000002E-02    -8.45080169E-32
  -1.60000008E-02     5.27296955E-31
  -8.00000038E-03     9.39285814E-31
   0.00000000         1.73525818E-31
   8.00000038E-03    -1.67567886E-30
   1.60000008E-02    -2.55357754E-30
   2.40000002E-02    -1.90989220E-31
   3.20000015E-02     4.32388689E-30
   3.99999991E-02     5.73041873E-30
   4.80000004E-02    -1.61721880E-31
   5.60000017E-02    -9.45935012E-30
   6.40000030E-02    -1.10966892E-29
   7.19999969E-02     1.26670218E-30
   7.99999982E-02     1.80574515E-29
   8.79999995E-02     1.95067107E-29
   9.60000008E-02    -2.49855782E-30
  0.104000002        -2.98052826E-29
  0.112000003        -3.22348071E-29
  0.119999997        -6.07370220E-31
  0.128000006         3.84582782E-29
  0.136000007         4.74910732E-29
  0.143999994         1.77233192E-29
  0.151999995        -2.34060929E-29
  0.159999996        -4.64883137E-29
  0.167999998        -5.11544266E-29
  0.175999999        -4.98715045E-29
  0.184000000        -2.68164981E-29
  0.192000002         5.70180347E-29
  0.200000003         1.89968686E-28
  0.208000004         2.52608510E-28
  0.216000006         9.13063586E-29
  0.224000007        -2.92932187E-28
  0.231999993        -6.30696701E-28
  0.239999995        -5.38820117E-28
  0.247999996         1.08457890E-28
  0.256000012         9.26971556E-28
  0.263999999         1.21765197E-27
  0.272000015         5.54758295E-28
  0.280000001        -7.25926041E-28
  0.287999988        -1.65967225E-27
  0.296000004        -1.41566559E-27
  0.303999990        -7.12580959E-29
  0.312000006         1.34346402E-27
  0.319999993         1.67913358E-27
  0.328000009         7.00806088E-28
  0.335999995        -6.37087659E-28
  0.344000012        -1.02644420E-27
  0.351999998        -8.18160740E-29
  0.360000014         1.12957842E-27
  0.368000001         9.52280298E-28
  0.375999987        -1.18507920E-27
  0.384000003        -3.76904413E-27
  0.391999990        -4.03232222E-27
  0.400000006        -3.14991692E-28
  0.407999992         5.85576380E-27
  0.416000009         9.99714643E-27
  0.423999995         7.68127961E-27
  0.432000011        -1.57354880E-27
  0.439999998        -1.26920501E-26
  0.448000014        -1.76696261E-26
  0.456000000        -1.12338808E-26
  0.463999987         4.45056603E-27
  0.472000003         1.99920526E-26
  0.479999989         2.45534513E-26
  0.488000005         1.35526642E-26
  0.495999992        -7.31346166E-27
  0.504000008        -2.50906270E-26
  0.512000024        -2.80068609E-26
  0.519999981        -1.36010220E-26
  0.527999997         9.25129385E-27
  0.536000013         2.60480145E-26
  0.544000030         2.63015501E-26
  0.551999986         1.04869320E-26
  0.560000002        -1.04956580E-26
  0.568000019        -2.29239605E-26
  0.575999975        -1.95644915E-26
  0.583999991        -4.18071628E-27
  0.592000008         1.17746765E-26
  0.600000024         1.76244546E-26
  0.607999980         1.07540654E-26
  0.615999997        -2.48933725E-27
  0.624000013        -1.24125707E-26
  0.632000029        -1.32209421E-26
  0.639999986        -6.16794665E-27
  0.648000002         3.17076247E-27
  0.656000018         1.00761928E-26
  0.663999975         1.32434477E-26
  0.671999991         1.29616287E-26
  0.680000007         8.13781283E-27
  0.688000023        -3.26727428E-27
  0.695999980        -1.97864573E-26
  0.703999996        -3.29636222E-26
  0.712000012        -3.05609306E-26
  0.720000029        -6.45078333E-27
  0.727999985         3.05105205E-26
  0.736000001         5.80745840E-26
  0.744000018         5.44911402E-26
  0.751999974         1.56371629E-26
  0.759999990        -3.84934971E-26
  0.768000007        -7.46890547E-26
  0.776000023        -6.86312870E-26
  0.783999979        -2.19789344E-26
  0.791999996         3.78653050E-26
  0.800000012         7.53264173E-26
  0.808000028         6.91914029E-26
  0.815999985         2.47066552E-26
  0.824000001        -3.08968097E-26
  0.832000017        -6.60297778E-26
  0.839999974        -6.20889985E-26
  0.847999990        -2.33160413E-26
  0.856000006         2.72682098E-26
  0.864000022         5.90429354E-26
  0.871999979         5.45159585E-26
  0.879999995         1.52447616E-26
  0.888000011        -3.34272660E-26
  0.896000028        -6.07017373E-26
  0.903999984        -4.91665201E-26
  0.912000000        -5.47036057E-27
  0.920000017         4.27004923E-26
  0.927999973         6.27320804E-26
  0.935999990         4.12155418E-26
  0.944000006        -6.32094522E-27
  0.952000022        -4.77400870E-26
  0.959999979        -5.93232275E-26
  0.967999995        -3.43511453E-26
  0.976000011         9.01184837E-27
  0.984000027         4.02981212E-26
  0.991999984         4.19165679E-26
   1.00000000         1.69760402E-26
   1.00800002        -1.22749469E-26
   1.01600003        -2.68497437E-26
   1.02400005        -1.78131202E-26
   1.03199995         2.97105047E-27
   1.03999996         2.20525943E-26
   1.04799998         2.19461597E-26
   1.05599999         8.67480755E-27
   1.06400001        -9.20028752E-27
   1.07200003        -2.10784620E-26
   1.08000004        -2.41485607E-26
   1.08800006        -2.05811345E-26
   1.09599996        -1.50632004E-26
   1.10399997        -1.10384567E-26
   1.11199999        -3.34440046E-27
   1.12000000         9.44734890E-27
   1.12800002         2.70314283E-26
   1.13600004         3.90406276E-26
   1.14400005         3.82895334E-26
   1.15199995         2.85520316E-26
   1.15999997         2.21570814E-26
   1.16799998         2.50015905E-26
   1.17600000         2.94022757E-26
   1.18400002         1.25095713E-26
   1.19200003        -4.08890920E-26
   1.20000005        -1.15182283E-25
   1.20799994        -1.68118363E-25
   1.21599996        -1.46505916E-25
   1.22399998        -3.42622506E-26
   1.23199999         1.33886262E-25
   1.24000001         2.72096664E-25
   1.24800003         3.01190939E-25
   1.25600004         1.97186334E-25
   1.26400006         7.61374033E-27
   1.27199996        -1.70041532E-25
   1.27999997        -2.52318344E-25
   1.28799999        -2.14024989E-25
   1.29600000        -9.58668022E-26
   1.30400002         2.50192166E-26
   1.31200004         8.48520237E-26
   1.32000005         6.95049566E-26
   1.32799995         2.24073968E-26
   1.33599997         1.44992634E-27
   1.34399998         4.46599796E-26
   1.35200000         1.31243873E-25
   1.36000001         1.95848229E-25
   1.36800003         1.66361792E-25
   1.37600005         2.31077081E-26
   1.38399994        -1.76025042E-25
   1.39199996        -3.20601848E-25
   1.39999998        -3.16926496E-25
   1.40799999        -1.54512657E-25
   1.41600001         7.35313767E-26
   1.42400002         2.29620474E-25
   1.43200004         2.22896642E-25
   1.44000006         7.65506678E-26
   1.44799995        -8.93905623E-26
   1.45599997        -1.48017226E-25
   1.46399999        -6.19844498E-26
   1.47200000         1.02954040E-25
   1.48000002         2.21270751E-25
   1.48800004         2.08075277E-25
   1.49600005         6.83748148E-26
   1.50399995        -1.05726590E-25
   1.51199996        -2.18263712E-25
   1.51999998        -2.28906974E-25
   1.52800000        -1.63139258E-25
   1.53600001        -8.08267007E-26
   1.54400003        -1.54556094E-26
   1.55200005         3.75925255E-26
   1.55999994         1.10574633E-25
   1.56799996         1.98498802E-25
   1.57599998         2.67469404E-25
   1.58399999         2.49334083E-25
   1.59200001         1.15058223E-25
   1.60000002        -7.17617891E-26
   1.60800004        -2.14841337E-25
   1.61600006        -2.30172257E-25
   1.62399995        -9.95865895E-26
   1.63199997         8.53936506E-26
   1.63999999         2.11061535E-25
   1.64800000         1.68414284E-25
   1.65600002        -5.94524775E-26
   1.66400003        -3.66155114E-25
   1.67200005        -5.69209883E-25
   1.67999995        -5.27376737E-25
   1.68799996        -2.07102464E-25
   1.69599998         2.52830709E-25
   1.70400000         6.77050669E-25
   1.71200001         9.04722385E-25
   1.72000003         8.50627038E-25
   1.72800004         6.06180441E-25
   1.73599994         3.18720217E-25
   1.74399996         9.69966606E-26
   1.75199997        -4.50794071E-26
   1.75999999        -2.00284043E-25
   1.76800001        -4.47681128E-25
   1.77600002        -7.94312427E-25
   1.78400004        -1.08430519E-24
   1.79200006        -1.14899819E-24
   1.79999995        -8.70427348E-25
   1.80799997        -3.29661422E-25
   1.81599998         2.95514000E-25
   1.82400000         7.63430396E-25
   1.83200002         9.45457289E-25
   1.84000003         8.67556880E-25
   1.84800005         7.10067309E-25
   1.85599995         5.87172246E-25
   1.86399996         5.01325050E-25
   1.87199998         3.14622381E-25
   1.88000000        -1.62227470E-25
   1.88800001        -8.93471355E-25
   1.89600003        -1.64386188E-24
   1.90400004        -2.03002823E-24
   1.91199994        -1.78715156E-24
   1.91999996        -1.00337191E-24
   1.92799997        -5.47802762E-26
   1.93599999         6.04954354E-25
   1.94400001         7.51852679E-25
   1.95200002         5.31438237E-25
   1.96000004         3.15240256E-25
   1.96800005         4.07914255E-25
   1.97599995         8.18652632E-25
   1.98399997         1.26060377E-24
   1.99199998         1.37996345E-24
   2.00000000         9.84512609E-25
   2.00799990         1.74499385E-25
   2.01600003        -7.50177829E-25
   2.02399993        -1.48475278E-24
   2.03200006        -1.85200717E-24
   2.03999996        -1.84090316E-24
   2.04800010        -1.48028171E-24
   2.05599999        -7.87008068E-25
   2.06399989         1.53344502E-25
   2.07200003         1.13608710E-24
   2.07999992         1.87687660E-24
   2.08800006         2.15028494E-24
   2.09599996         1.93673280E-24
   2.10400009         1.43821284E-24
   2.11199999         9.32790747E-25
   2.11999989         5.60506972E-25
   2.12800002         2.29983128E-25
   2.13599992        -2.75627606E-25
   2.14400005        -1.07070079E-24
   2.15199995        -2.01561613E-24
   2.16000009        -2.74766643E-24
   2.16799998        -2.88403898E-24
   2.17600012        -2.24515198E-24
   2.18400002        -9.68946017E-25
   2.19199991         5.73980026E-25
   2.20000005         1.97268257E-24
   2.20799994         2.93090561E-24
   2.21600008         3.31885971E-24
   2.22399998         3.14809223E-24
   2.23200011         2.50201021E-24
   2.24000001         1.49492553E-24
   2.24799991         2.66346263E-25
   2.25600004        -1.02850817E-24
   2.26399994        -2.22369062E-24
   2.27200007        -3.14952283E-24
   2.27999997        -3.64513218E-24
   2.28800011        -3.56933764E-24
   2.29600000        -2.84179331E-24
   2.30399990        -1.51518575E-24
   2.31200004         1.73347488E-25
   2.31999993         1.82624632E-24
   2.32800007         2.99593752E-24
   2.33599997         3.35501833E-24
   2.34400010         2.83969100E-24
   2.35200000         1.68106101E-24
   2.35999990         3.22463658E-25
   2.36800003        -7.62741918E-25
   2.37599993        -1.25385181E-24
   2.38400006        -1.10689905E-24
   2.39199996        -5.51942704E-25
   2.40000010         5.71678623E-26
   2.40799999         4.30137946E-25
   2.41599989         5.02673657E-25
   2.42400002         4.21614106E-25
   2.43199992         3.88489837E-25
   2.44000006         4.63796077E-25
   2.44799995         4.83154033E-25
   2.45600009         1.54579069E-25
   2.46399999        -6.76531451E-25
   2.47199988        -1.84794197E-24
   2.48000002        -2.91612314E-24
   2.48799992        -3.39121127E-24
   2.49600005        -2.99885217E-24
   2.50399995        -1.76665991E-24
   2.51200008         8.18754789E-26
   2.51999998         2.26162103E-24
   2.52800012         4.44653913E-24
   2.53600001         6.17502133E-24
   2.54399991         6.82591481E-24
   2.55200005         5.84664339E-24
   2.55999994         3.14883967E-24
   2.56800008        -6.28353349E-25
   2.57599998        -4.28489759E-24
   2.58400011        -6.65038615E-24
   2.59200001        -7.19380482E-24
   2.59999990        -6.24625745E-24
   2.60800004        -4.61155858E-24
   2.61599994        -2.91021102E-24
   2.62400007        -1.19491798E-24
   2.63199997         8.63451352E-25
   2.64000010         3.40620673E-24
   2.64800000         5.97942130E-24
   2.65599990         7.65545490E-24
   2.66400003         7.62255625E-24
   2.67199993         5.72999886E-24
   2.68000007         2.55510075E-24
   2.68799996        -1.02030993E-24
   2.69600010        -4.29722867E-24
   2.70400000        -6.89570217E-24
   2.71199989        -8.52127865E-24
   2.72000003        -8.71164183E-24
   2.72799993        -6.96579089E-24
   2.73600006        -3.22286105E-24
   2.74399996         1.73842145E-24
   2.75200009         6.42785638E-24
   2.75999999         9.34027405E-24
   2.76799989         9.74098383E-24
   2.77600002         7.96281720E-24
   2.78399992         5.00795645E-24
   2.79200006         1.82038884E-24
   2.79999995        -1.19230173E-24
   2.80800009        -4.04508663E-24
   2.81599998        -6.69974518E-24
   2.82399988        -8.72301011E-24
   2.83200002        -9.40432482E-24
   2.83999991        -8.23196786E-24
   2.84800005        -5.29365150E-24
   2.85599995        -1.26148936E-24
   2.86400008         2.96698475E-24
   2.87199998         6.64618863E-24
   2.88000011         9.28889790E-24
   2.88800001         1.05261292E-23
   2.89599991         1.00069727E-23
   2.90400004         7.53363269E-24
   2.91199994         3.35218671E-24
   2.92000008        -1.70319290E-24
   2.92799997        -6.41786861E-24
   2.93600011        -9.67550838E-24
   2.94400001        -1.08773443E-23
   2.95199990        -1.00358277E-23
   2.96000004        -7.55606237E-24
   2.96799994        -3.95543378E-24
   2.97600007         2.38191423E-25
   2.98399997         4.41371976E-24
   2.99200010         7.82495192E-24
   3.00000000         9.74237538E-24
   3.00799990         9.75885626E-24
   3.01600003         8.00310275E-24
   3.02399993         5.06407128E-24
   3.03200006         1.65779001E-24
   3.03999996        -1.69322761E-24
   3.04800010        -4.72158771E-24
   3.05599999        -7.22910792E-24
   3.06399989        -8.85314928E-24
   3.07200003        -9.08407569E-24
   3.07999992        -7.55410205E-24
   3.08800006        -4.37730042E-24
   3.09599996        -2.56640833E-25
   3.10400009         3.76866662E-24
   3.11199999         6.76452249E-24
   3.11999989         8.24793598E-24
   3.12800002         8.21470206E-24
   3.13599992         6.92903549E-24
   3.14400005         4.68479879E-24
   3.15199995         1.72917048E-24
   3.16000009        -1.62417329E-24
   3.16799998        -4.86429620E-24
   3.17600012        -7.30739606E-24
   3.18400002        -8.30841479E-24
   3.19199991        -7.55232475E-24
   3.20000005        -5.21619325E-24
   3.20799994        -1.90959402E-24
   3.21600008         1.57261078E-24
   3.22399998         4.53440522E-24
   3.23200011         6.55173318E-24
   3.24000001         7.46954247E-24
   3.24799991         7.28116643E-24
   3.25600004         5.99530541E-24
   3.26399994         3.61619282E-24
   3.27200007         2.59311670E-25
   3.27999997        -3.69119850E-24
   3.28800011        -7.50246874E-24
   3.29600000        -1.02184790E-23
   3.30399990        -1.09717386E-23
   3.31200004        -9.35447749E-24
   3.31999993        -5.62811551E-24
   3.32800007        -6.50503774E-25
   3.33599997         4.44422225E-24
   3.34400010         8.64186157E-24
   3.35200000         1.13001753E-23
   3.35999990         1.21679838E-23
   3.36800003         1.12421980E-23
   3.37599993         8.64608197E-24
   3.38400006         4.61839248E-24
   3.39199996        -3.78011915E-25
   3.40000010        -5.59198528E-24
   3.40799999        -1.00870429E-23
   3.41599989        -1.29857644E-23
   3.42400002        -1.37450998E-23
   3.43199992        -1.22852622E-23
   3.44000006        -8.92883181E-24
   3.44799995        -4.23300671E-24
   3.45600009         1.14332914E-24
   3.46399999         6.47286050E-24
   3.47199988         1.09413832E-23
   3.48000002         1.37160208E-23
   3.48799992         1.41426810E-23
   3.49600005         1.20263659E-23
   3.50399995         7.80291667E-24
   3.51200008         2.45934448E-24
   3.51999998        -2.81008249E-24
   3.52800012        -7.01994540E-24
   3.53600001        -9.67341474E-24
   3.54399991        -1.07477352E-23
   3.55200005        -1.04576016E-23
   3.55999994        -8.99607116E-24
   3.56800008        -6.44590355E-24
   3.57599998        -2.93335186E-24
   3.58400011         1.15475658E-24
   3.59200001         5.08734741E-24
   3.59999990         7.97209420E-24
   3.60800004         9.13681499E-24
   3.61599994         8.43500883E-24
   3.62400007         6.27967280E-24
   3.63199997         3.38220169E-24
   3.64000010         3.96713416E-25
   3.64800000        -2.28353854E-24
   3.65599990        -4.46167303E-24
   3.66400003        -5.93654198E-24
   3.67199993        -6.39376773E-24
   3.68000007        -5.53418032E-24
   3.68799996        -3.35001735E-24
   3.69600010        -3.07576177E-25
   3.70400000         2.74925184E-24
   3.71199989         4.96136948E-24
   3.72000003         5.84135092E-24
   3.72799993         5.41366801E-24
   3.73600006         4.04296894E-24
   3.74399996         2.12704116E-24
   3.75200009        -1.04995045E-25
   3.75999999        -2.54754189E-24
   3.76799989        -5.00647576E-24
   3.77600002        -7.04611507E-24
   3.78399992        -8.04083475E-24
   3.79200006        -7.41914294E-24
   3.79999995        -4.96194180E-24
   3.80800009        -9.68583733E-25
   3.81599998         3.78435193E-24
   3.82399988         8.25224238E-24
   3.83200002         1.14019644E-23
   3.83999991         1.24675743E-23
   3.84800005         1.11208246E-23
   3.85599995         7.50927740E-24
   3.86400008         2.19689716E-24
   3.87199998        -3.96495612E-24
   3.88000011        -9.95303832E-24
   3.88800001        -1.46621522E-23
   3.89599991        -1.70173784E-23
   3.90400004        -1.61912502E-23
   3.91199994        -1.19159625E-23
   3.92000008        -4.76538803E-24
   3.92799997         3.83354727E-24
   3.93600011         1.19644719E-23
   3.94400001         1.78460579E-23
   3.95199990         2.03845776E-23
   3.96000004         1.93457898E-23
   3.96799994         1.51168721E-23
   3.97600007         8.33254842E-24
   3.98399997        -2.79954902E-25
   3.99200010        -9.72518295E-24
   4.00000000        -1.84858399E-23
   4.00799990        -2.45915949E-23
   4.01599979        -2.61949562E-23
   4.02400017        -2.23920961E-23
   4.03200006        -1.37574833E-23
   4.03999996        -2.20735903E-24
   4.04799986         9.74833601E-24
   4.05600023         1.98714204E-23
   4.06400013         2.66528868E-23
   4.07200003         2.92568126E-23
   4.07999992         2.72434534E-23
   4.08799982         2.05231410E-23
   4.09600019         9.65797594E-24
   4.10400009        -3.77295920E-24
   4.11199999        -1.72191217E-23
   4.11999989        -2.77984549E-23
   4.12799978        -3.32530588E-23
   4.13600016        -3.26543418E-23
   4.14400005        -2.64885261E-23
   4.15199995        -1.61664058E-23
   4.15999985        -3.43511374E-24
   4.16800022         9.91508780E-24
   4.17600012         2.20179993E-23
   4.18400002         3.08858356E-23
   4.19199991         3.46933895E-23
   4.19999981         3.23924684E-23
   4.20800018         2.42784834E-23
   4.21600008         1.20511204E-23
   4.22399998        -1.73309940E-24
   4.23199987        -1.45153799E-23
   4.23999977        -2.43809690E-23
   4.24800014        -3.02000441E-23
   4.25600004        -3.14069476E-23
   4.26399994        -2.77940688E-23
   4.27199984        -1.96176076E-23
   4.28000021        -7.92700528E-24
   4.28800011         5.25958415E-24
   4.29600000         1.72648646E-23
   4.30399990         2.55145905E-23
   4.31199980         2.83854052E-23
   4.32000017         2.56745195E-23
   4.32800007         1.84821780E-23
   4.33599997         8.66816455E-24
   4.34399986        -1.77298934E-24
   4.35200024        -1.11450939E-23
   4.36000013        -1.82180421E-23
   4.36800003        -2.22389576E-23
   4.37599993        -2.29365805E-23
   4.38399982        -2.05408367E-23
   4.39200020        -1.58180969E-23
   4.40000010        -1.00362497E-23
   4.40799999        -4.84826734E-24
   4.41599989        -2.07014930E-24
   4.42399979        -3.30904431E-24
   4.43200016        -9.49463598E-24
   4.44000006        -2.04510060E-23
   4.44799995        -3.47590353E-23
   4.45599985        -5.00701944E-23
   4.46400023        -6.37835504E-23
   4.47200012        -7.37471477E-23
   4.48000002        -7.86101533E-23
   4.48799992        -7.77128966E-23
   4.49599981        -7.07751805E-23
   4.50400019        -5.77870653E-23
   4.51200008        -3.92829980E-23
   4.51999998        -1.67554104E-23
   4.52799988         7.28512336E-24
   4.53599977         2.98876836E-23
   4.54400015         4.86705942E-23
   4.55200005         6.26276231E-23
   4.55999994         7.22108568E-23
   4.56799984         7.86485172E-23
   4.57600021         8.30504494E-23
   4.58400011         8.59517283E-23
   4.59200001         8.75279292E-23
   4.59999990         8.81384192E-23
   4.60799980         8.85690426E-23
   4.61600018         8.96694341E-23
   4.62400007         9.16199401E-23
   4.63199997         9.34577903E-23
   4.63999987         9.33038615E-23
   4.64799976         8.92069786E-23
   4.65600014         8.00560722E-23
   4.66400003         6.59820742E-23
   4.67199993         4.81046938E-23
   4.67999983         2.79496921E-23
   4.68800020         7.01634504E-24
   4.69600010        -1.32750760E-23
   4.70400000        -3.14138233E-23
   4.71199989        -4.57684728E-23
   4.71999979        -5.48968430E-23
   4.72800016        -5.80460073E-23
   4.73600006        -5.55103749E-23
   4.74399996        -4.85895214E-23
   4.75199986        -3.91438019E-23
   4.76000023        -2.90254775E-23
   4.76800013        -1.96994045E-23
   4.77600002        -1.21732313E-23
   4.78399992        -7.16047860E-24
   4.79199982        -5.24325473E-24
   4.80000019        -6.86332969E-24
   4.80800009        -1.21077196E-23
   4.81599998        -2.04345992E-23
   4.82399988        -3.05664542E-23
   4.83199978        -4.06969870E-23
   4.84000015        -4.90189552E-23
   4.84800005        -5.43311666E-23
   4.85599995        -5.64374189E-23
   4.86399984        -5.60610692E-23
   4.87200022        -5.43487425E-23
   4.88000011        -5.22026464E-23
   4.88800001        -4.98817766E-23
   4.89599991        -4.70616146E-23
   4.90399981        -4.32647229E-23
   4.91200018        -3.82637834E-23
   4.92000008        -3.21714422E-23
   4.92799997        -2.51791732E-23
   4.93599987        -1.72321316E-23
   4.94399977        -7.97818815E-24
   4.95200014         2.91692443E-24
   4.96000004         1.53098338E-23
   4.96799994         2.83654029E-23
   4.97599983         4.07747624E-23
   4.98400021         5.12385668E-23
   4.99200010         5.88679436E-23
   5.00000000         6.32230048E-23
   5.00799990         6.40741100E-23
   5.01599979         6.12050292E-23
   5.02400017         5.45252958E-23
   5.03200006         4.44595411E-23
   5.03999996         3.22609905E-23
   5.04799986         1.99136544E-23
   5.05600023         9.54770818E-24
   5.06400013         2.69620055E-24
   5.07200003        -1.85738336E-25
   5.07999992         3.36807270E-25
   5.08799982         3.15175649E-24
   5.09600019         7.15671022E-24
   5.10400009         1.15525500E-23
   5.11199999         1.58018463E-23
   5.11999989         1.94181946E-23
   5.12799978         2.18369399E-23
   5.13600016         2.25156459E-23
   5.14400005         2.12048493E-23
   5.15199995         1.81986551E-23
   5.15999985         1.43645118E-23
   5.16800022         1.08830951E-23
   5.17600012         8.79342462E-24
   5.18400002         8.56601732E-24
   5.19199991         9.92301033E-24
   5.19999981         1.20084588E-23
   5.20800018         1.37982548E-23
   5.21600008         1.44803418E-23
   5.22399998         1.35820864E-23
   5.23199987         1.08116085E-23
   5.23999977         5.84621661E-24
   5.24800014        -1.65564135E-24
   5.25600004        -1.17109044E-23
   5.26399994        -2.35831687E-23
   5.27199984        -3.56915573E-23
   5.28000021        -4.60896181E-23
   5.28800011        -5.33041896E-23
   5.29600000        -5.69900192E-23
   5.30399990        -5.79107902E-23
   5.31199980        -5.72487908E-23
   5.32000017        -5.57749462E-23
   5.32800007        -5.35197759E-23
   5.33599997        -5.01540535E-23
   5.34399986        -4.56948847E-23
   5.35200024        -4.08592809E-23
   5.36000013        -3.66942373E-23
   5.36800003        -3.37550268E-23
   5.37599993        -3.15412086E-23
   5.38399982        -2.87055313E-23
   5.39200020        -2.39134790E-23
   5.40000010        -1.66782535E-23
   5.40799999        -7.52872676E-24
   5.41599989         2.55815206E-24
   5.42399979         1.29004246E-23
   5.43200016         2.33475249E-23
   5.44000006         3.38267216E-23
   5.44799995         4.36749464E-23
   5.45599985         5.14593059E-23
   5.46400023         5.55739318E-23
   5.47200012         5.52013244E-23
   5.48000002         5.08431645E-23
   5.48799992         4.39578761E-23
   5.49599981         3.59569679E-23
   5.50400019         2.73390917E-23
   5.51200008         1.76307541E-23
   5.51999998         6.11013595E-24
   5.52799988        -7.33959421E-24
   5.53599977        -2.19661049E-23
   5.54400015        -3.66684132E-23
   5.55200005        -5.07927342E-23
   5.55999994        -6.44926039E-23
   5.56799984        -7.83067952E-23
   5.57600021        -9.23034344E-23
   5.58400011        -1.05480264E-22
   5.59200001        -1.15901994E-22
   5.59999990        -1.21449011E-22
   5.60799980        -1.20602709E-22
   5.61600018        -1.12726090E-22
   5.62400007        -9.77849764E-23
   5.63199997        -7.59012996E-23
   5.63999987        -4.72074908E-23
   5.64799976        -1.21242407E-23
   5.65600014         2.82173779E-23
   5.66400003         7.18125957E-23
   5.67199993         1.16042474E-22
   5.67999983         1.58177656E-22
   5.68800020         1.95802724E-22
   5.69600010         2.26979844E-22
   5.70400000         2.50230440E-22
   5.71199989         2.64506601E-22
   5.71999979         2.69232017E-22
   5.72800016         2.64301371E-22
   5.73600006         2.49952559E-22
   5.74399996         2.26561988E-22
   5.75199986         1.94575837E-22
   5.76000023         1.54721246E-22
   5.76800013         1.08369395E-22
   5.77600002         5.77078069E-23
   5.78399992         5.46477121E-24
   5.79199982        -4.57039566E-23
   5.80000019        -9.37350907E-23
   5.80800009        -1.37168018E-22
   5.81599998        -1.74656644E-22
   5.82399988        -2.04443275E-22
   5.83199978        -2.24353506E-22
   5.84000015        -2.32469458E-22
   5.84800005        -2.28041664E-22
   5.85599995        -2.11967910E-22
   5.86399984        -1.86459316E-22
   5.87200022        -1.54124476E-22
   5.88000011        -1.17158340E-22
   5.88800001        -7.71566928E-23
   5.89599991        -3.55259943E-23
   5.90399981         5.99245289E-24
   5.91200018         4.52607556E-23
   5.92000008         8.01979410E-23
   5.92799997         1.09337939E-22
   5.93599987         1.31972290E-22
   5.94399977         1.47715479E-22
   5.95200014         1.55865245E-22
   5.96000004         1.55093209E-22
   5.96799994         1.43767843E-22
   5.97599983         1.20656831E-22
   5.98400021         8.55365414E-23
   5.99200010         3.93390923E-23
   6.00000000        -1.61072065E-23
   6.00799990        -7.83800710E-23
   6.01599979        -1.44499476E-22
   6.02400017        -2.10714113E-22
   6.03200006        -2.72357143E-22
   6.03999996        -3.24085138E-22
   6.04799986        -3.60550126E-22
   6.05600023        -3.77258251E-22
   6.06400013        -3.71241653E-22
   6.07200003        -3.41397947E-22
   6.07999992        -2.88565496E-22
   6.08799982        -2.15498573E-22
   6.09600019        -1.26842674E-22
   6.10400009        -2.90162226E-23
   6.11199999         7.01795021E-23
   6.11999989         1.62302123E-22
   6.12799978         2.39254596E-22
   6.13600016         2.94273315E-22
   6.14400005         3.22665441E-22
   6.15199995         3.22213809E-22
   6.15999985         2.93265895E-22
   6.16800022         2.38633983E-22
   6.17600012         1.63391534E-22
   6.18400002         7.45573141E-23
   6.19199991        -1.93673336E-23
   6.19999981        -1.09071115E-22
   6.20800018        -1.85287321E-22
   6.21600008        -2.39737631E-22
   6.22399998        -2.66002559E-22
   6.23199987        -2.60119904E-22