 -0.239999995         0.00000000    
 -0.231999993         0.00000000    
 -0.224000007        -7.11561088E-27
 -0.216000006        -2.20983682E-26
 -0.208000004         8.71321381E-22
 -0.200000003         3.33660688E-21
 -0.192000002         5.45100149E-21
 -0.184000000         5.16676115E-21
 -0.175999999         5.48951184E-21
 -0.167999998         1.06159229E-20
 -0.159999996         1.74270945E-20
 -0.151999995         1.97204640E-20
 -0.143999994         2.00878049E-20
 -0.136000007         2.69940683E-20
 -0.128000006         4.12465018E-20
 -0.119999997         5.65219686E-20
 -0.112000003         7.06982158E-20
 -0.104000002         8.52442773E-20
  -9.60000008E-02     9.82248931E-20
  -8.79999995E-02     1.09885193E-19
  -7.99999982E-02     1.27771177E-19
  -7.19999969E-02     1.53676251E-19
  -6.40000030E-02     1.74957863E-19
  -5.60000017E-02     1.81514872E-19
  -4.80000004E-02     1.79168032E-19
  -3.99999991E-02     1.75357857E-19
  -3.20000015E-02     1.66198085E-19
  -2.40000002E-02     1.47913516E-19
  -1.60000008E-02     1.23021028E-19
  -8.00000038E-03     8.63334932E-20
   0.00000000         2.71555253E-20
   8.00000038E-03    -4.61957851E-20
   1.60000008E-02    -1.10659137E-19
   2.40000002E-02    -1.64276389E-19
   3.20000015E-02    -2.27777417E-19
   3.99999991E-02    -3.02619064E-19
   4.80000004E-02    -3.61159592E-19
   5.60000017E-02    -3.88808156E-19
   6.40000030E-02    -4.01884175E-19
   7.19999969E-02    -4.11334430E-19
   7.99999982E-02    -4.02503217E-19
   8.79999995E-02    -3.64533093E-19
   9.60000008E-02    -3.08892376E-19
  0.104000002        -2.47656014E-19
  0.112000003        -1.79994850E-19
  0.119999997        -1.08493617E-19
  0.128000006        -4.49745886E-20
  0.136000007         6.30494632E-21
  0.143999994         5.11476243E-20
  0.151999995         8.88612021E-20
  0.159999996         1.12377695E-19
  0.167999998         1.22635536E-19
  0.175999999         1.25971555E-19
  0.184000000         1.22259996E-19
  0.192000002         1.10439675E-19
  0.200000003         9.88941080E-20
  0.208000004         9.65384980E-20
  0.216000006         1.00660165E-19
  0.224000007         1.04387847E-19
  0.231999993         1.07341096E-19
  0.239999995         1.11814605E-19
  0.247999996         1.16715960E-19
  0.256000012         1.21619784E-19
  0.263999999         1.26564592E-19
  0.272000015         1.27153105E-19
  0.280000001         1.18200943E-19
  0.287999988         1.00827895E-19
  0.296000004         7.72410270E-20
  0.303999990         4.47022136E-20
  0.312000006         4.82629434E-21
  0.319999993        -3.06940650E-20
  0.328000009        -5.45946377E-20
  0.335999995        -7.32123731E-20
  0.344000012        -9.13728649E-20
  0.351999998        -1.01023064E-19
  0.360000014        -9.47922616E-20
  0.368000001        -7.66528305E-20
  0.375999987        -5.00243324E-20
  0.384000003        -1.09751495E-20
  0.391999990         3.78127199E-20
  0.400000006         8.14757006E-20
  0.407999992         1.09252438E-19
  0.416000009         1.22815318E-19
  0.423999995         1.24133133E-19
  0.432000011         1.09637116E-19
  0.439999998         7.97438235E-20
  0.448000014         4.07594055E-20
  0.456000000        -4.26464234E-21
  0.463999987        -5.47085948E-20
  0.472000003        -1.03281700E-19
  0.479999989        -1.38438227E-19
  0.488000005        -1.53697835E-19
  0.495999992        -1.46910314E-19
  0.504000008        -1.16435946E-19
  0.512000024        -6.59381338E-20
  0.519999981        -6.28948273E-21
  0.527999997         5.29785369E-20
  0.536000013         1.06694234E-19
  0.544000030         1.46721019E-19
  0.551999986         1.62883947E-19
  0.560000002         1.53401523E-19
  0.568000019         1.23889348E-19
  0.575999975         7.70101079E-20
  0.583999991         1.50867178E-20
  0.592000008        -5.00965007E-20
  0.600000024        -1.03582820E-19
  0.607999980        -1.40067799E-19
  0.615999997        -1.59028264E-19
  0.624000013        -1.54475837E-19
  0.632000029        -1.22869356E-19
  0.639999986        -7.32875173E-20
  0.648000002        -1.71449612E-20
  0.656000018         4.27414724E-20
  0.663999975         1.01355190E-19
  0.671999991         1.42394205E-19
  0.680000007         1.53526260E-19
  0.688000023         1.39576053E-19
  0.695999980         1.09407328E-19
  0.703999996         6.28766091E-20
  0.712000012         2.17270499E-21
  0.720000029        -5.76018141E-20
  0.727999985        -1.01519295E-19
  0.736000001        -1.27481638E-19
  0.744000018        -1.36781462E-19
  0.751999974        -1.24413108E-19
  0.759999990        -8.83962167E-20
  0.768000007        -3.84184617E-20
  0.776000023         1.31920331E-20
  0.783999979         6.08811846E-20
  0.791999996         1.00827682E-19
  0.800000012         1.25111378E-19
  0.808000028         1.26832082E-19
  0.815999985         1.05949849E-19
  0.824000001         6.73807821E-20
  0.832000017         1.79880974E-20
  0.839999974        -3.32676694E-20
  0.847999990        -7.66139530E-20
  0.856000006        -1.04895788E-19
  0.864000022        -1.15076669E-19
  0.871999979        -1.07619500E-19
  0.879999995        -8.53092110E-20
  0.888000011        -5.13787082E-20
  0.896000028        -9.06979066E-21
  0.903999984         3.58352671E-20
  0.912000000         7.47631041E-20
  0.920000017         1.01202465E-19
  0.927999973         1.12991696E-19
  0.935999990         1.08376176E-19
  0.944000006         8.52796587E-20
  0.952000022         4.71174582E-20
  0.959999979         3.28292092E-21
  0.967999995        -3.86882874E-20
  0.976000011        -7.52048056E-20
  0.984000027        -1.00331845E-19
  0.991999984        -1.06925082E-19
   1.00000000        -9.61204939E-20
   1.00800002        -7.61521407E-20
   1.01600003        -5.00048678E-20
   1.02400005        -1.45149324E-20
   1.03199995         2.69434504E-20
   1.03999996         6.24355474E-20
   1.04799998         8.45632492E-20
   1.05599999         9.50149476E-20
   1.06400001         9.45414384E-20
   1.07200003         7.96917176E-20
   1.08000004         5.18726675E-20
   1.08800006         1.93599199E-20
   1.09599996        -1.21116254E-20
   1.10399997        -4.20722897E-20
   1.11199999        -6.77610331E-20
   1.12000000        -8.27458300E-20
   1.12800002        -8.43594525E-20
   1.13600004        -7.51427477E-20
   1.14400005        -5.67396657E-20
   1.15199995        -2.93924381E-20
   1.15999997         2.64136965E-21
   1.16799998         3.18233539E-20
   1.17600000         5.37854580E-20
   1.18400002         6.81391257E-20
   1.19200003         7.37461178E-20
   1.20000005         6.82739497E-20
   1.20799994         5.22117663E-20
   1.21599996         2.93528336E-20
   1.22399998         3.37254683E-21
   1.23199999        -2.32168902E-20
   1.24000001        -4.70893599E-20
   1.24800003        -6.36219635E-20
   1.25600004        -6.90305680E-20
   1.26400006        -6.24033003E-20
   1.27199996        -4.58381232E-20
   1.27999997        -2.29727362E-20
   1.28799999         2.56293936E-21
   1.29600000         2.72933251E-20
   1.30400002         4.74838798E-20
   1.31200004         6.01492783E-20
   1.32000005         6.42116270E-20
   1.32799995         5.93015022E-20
   1.33599997         4.44662571E-20
   1.34399998         2.04044519E-20
   1.35200000        -8.03497963E-21
   1.36000001        -3.44104841E-20
   1.36800003        -5.49619253E-20
   1.37600005        -6.78700206E-20
   1.38399994        -7.02883542E-20
   1.39199996        -6.01522381E-20
   1.39999998        -3.99109153E-20
   1.40799999        -1.47369270E-20
   1.41600001         1.20772376E-20
   1.42400002         3.86452837E-20
   1.43200004         6.09989156E-20
   1.44000006         7.40649119E-20
   1.44799995         7.54525527E-20
   1.45599997         6.54374634E-20
   1.46399999         4.48247978E-20
   1.47200000         1.60658702E-20
   1.48000002        -1.51280316E-20
   1.48800004        -4.26745063E-20
   1.49600005        -6.35857227E-20
   1.50399995        -7.63637955E-20
   1.51199996        -7.83234187E-20
   1.51999998        -6.77550296E-20
   1.52800000        -4.70807714E-20
   1.53600001        -2.08877532E-20
   1.54400003         7.74021010E-21
   1.55200005         3.64101060E-20
   1.55999994         6.07046073E-20
   1.56799996         7.53644321E-20
   1.57599998         7.77040607E-20
   1.58399999         6.82539488E-20
   1.59200001         4.91942373E-20
   1.60000002         2.37717394E-20
   1.60800004        -3.88005626E-21
   1.61600006        -2.99131548E-20
   1.62399995        -5.12884841E-20
   1.63199997        -6.49594952E-20
   1.63999999        -6.82608376E-20
   1.64800000        -6.09627652E-20
   1.65600002        -4.56120573E-20
   1.66400003        -2.52242427E-20
   1.67200005        -1.86176323E-21
   1.67999995         2.21350688E-20
   1.68799996         4.29552275E-20
   1.69599998         5.62590673E-20
   1.70400000         5.91631110E-20
   1.71200001         5.16689225E-20
   1.72000003         3.66655432E-20
   1.72800004         1.79837612E-20
   1.73599994        -1.88398765E-21
   1.74399996        -2.13645016E-20
   1.75199997        -3.75134453E-20
   1.75999999        -4.64389730E-20
   1.76800001        -4.66862353E-20
   1.77600002        -4.01114225E-20
   1.78400004        -2.87696551E-20
   1.79200006        -1.32434363E-20
   1.79999995         5.18603955E-21
   1.80799997         2.31408300E-20
   1.81599998         3.70074338E-20
   1.82400000         4.44737534E-20
   1.83200002         4.41064335E-20
   1.84000003         3.57910841E-20
   1.84800005         2.18723889E-20
   1.85599995         5.70695411E-21
   1.86399996        -1.08594080E-20
   1.87199998        -2.66597355E-20
   1.88000000        -3.88644381E-20
   1.88800001        -4.42010940E-20
   1.89600003        -4.19398665E-20
   1.90400004        -3.34426989E-20
   1.91199994        -1.99495850E-20
   1.91999996        -3.15269833E-21
   1.92799997         1.36379626E-20
   1.93599999         2.75344548E-20
   1.94400001         3.78969146E-20
   1.95200002         4.41306544E-20
   1.96000004         4.38548801E-20
   1.96800005         3.56515393E-20
   1.97599995         2.16042386E-20
   1.98399997         4.99399026E-21
   1.99199998        -1.23835028E-20
   2.00000000        -2.87156299E-20
   2.00799990        -4.04964590E-20
   2.01600003        -4.47544390E-20
   2.02399993        -4.15175779E-20
   2.03200006        -3.27013189E-20
   2.03999996        -2.01025051E-20
   2.04800010        -5.41173424E-21
   2.05599999         9.31051071E-21
   2.06399989         2.20999734E-20
   2.07200003         3.14561407E-20
   2.07999992         3.64752077E-20
   2.08800006         3.71058618E-20
   2.09599996         3.33949486E-20
   2.10400009         2.44332577E-20
   2.11199999         9.99272065E-21
   2.11999989        -6.71569724E-21
   2.12800002        -2.04857741E-20
   2.13599992        -2.86979360E-20
   2.14400005        -3.19744533E-20
   2.15199995        -3.07293365E-20
   2.16000009        -2.45136412E-20
   2.16799998        -1.46524496E-20
   2.17600012        -4.05422746E-21
   2.18400002         5.58381891E-21
   2.19199991         1.36281399E-20
   2.20000005         1.87970461E-20
   2.20799994         2.04906726E-20
   2.21600008         2.00452891E-20
   2.22399998         1.78935355E-20
   2.23200011         1.21827128E-20
   2.24000001         2.98921788E-21
   2.24799991        -5.73504594E-21
   2.25600004        -1.13862203E-20
   2.26399994        -1.55444233E-20
   2.27200007        -1.86573948E-20
   2.27999997        -1.72456333E-20
   2.28800011        -1.01469753E-20
   2.29600000        -2.09816119E-21
   2.30399990         2.87498395E-21
   2.31200004         6.42793451E-21
   2.31999993         1.06089064E-20
   2.32800007         1.31492394E-20
   2.33599997         1.19175651E-20
   2.34400010         9.03752092E-21
   2.35200000         6.92165592E-21
   2.35999990         4.53902315E-21
   2.36800003         4.59023747E-22
   2.37599993        -4.31218624E-21
   2.38400006        -8.49425874E-21
   2.39199996        -1.18539198E-20
   2.40000010        -1.33427399E-20
   2.40799999        -1.15833534E-20
   2.41599989        -7.67412855E-21
   2.42400002        -4.11411404E-21
   2.43199992        -1.11691395E-21
   2.44000006         2.79474097E-21
   2.44799995         7.22880004E-21
   2.45600009         1.00836871E-20
   2.46399999         1.05546421E-20
   2.47199988         9.51818232E-21
   2.48000002         7.86209404E-21
   2.48799992         6.17465488E-21
   2.49600005         4.80410061E-21
   2.50399995         3.04256901E-21
   2.51200008        -3.01709862E-22
   2.51999998        -4.97244237E-21
   2.52800012        -9.34113740E-21
   2.53600001        -1.21372995E-20
   2.54399991        -1.26467684E-20
   2.55200005        -1.04066333E-20
   2.55999994        -6.45419507E-21
   2.56800008        -3.12746832E-21
   2.57599998        -9.11952792E-22
   2.58400011         2.16147403E-21
   2.59200001         6.48588401E-21
   2.59999990         9.48813806E-21
   2.60800004         9.91692296E-21
   2.61599994         9.72832659E-21
   2.62400007         9.85516957E-21
   2.63199997         8.15202973E-21
   2.64000010         3.52409435E-21
   2.64800000        -1.78945238E-21
   2.65599990        -5.74265819E-21
   2.66400003        -8.56584864E-21
   2.67199993        -1.02309866E-20
   2.68000007        -9.66142593E-21
   2.68799996        -7.27069786E-21
   2.69600010        -4.71900643E-21
   2.70400000        -1.96273824E-21
   2.71199989         1.97171828E-21
   2.72000003         5.78062327E-21
   2.72799993         7.12330543E-21
   2.73600006         6.39395871E-21
   2.74399996         5.79001185E-21
   2.75200009         5.51375049E-21
   2.75999999         4.06685287E-21
   2.76799989         1.23327581E-21
   2.77600002        -2.01938678E-21
   2.78399992        -5.32263825E-21
   2.79200006        -8.24097426E-21
   2.79999995        -9.31150511E-21
   2.80800009        -7.72930247E-21
   2.81599998        -4.60632003E-21
   2.82399988        -1.28475639E-21
   2.83200002         2.04494537E-21
   2.83999991         5.27648617E-21
   2.84800005         7.67186350E-21
   2.85599995         8.72608580E-21
   2.86400008         8.35287144E-21
   2.87199998         6.39134792E-21
   2.88000011         3.29125048E-21
   2.88800001         5.46954904E-22
   2.89599991        -1.02886708E-21
   2.90400004        -2.50150383E-21
   2.91199994        -4.95598115E-21
   2.92000008        -7.62036181E-21
   2.92799997        -8.99171418E-21
   2.93600011        -8.52734597E-21
   2.94400001        -6.42267699E-21
   2.95199990        -3.10788477E-21
   2.96000004         4.79636013E-22
   2.96799994         3.42092861E-21
   2.97600007         5.64962097E-21
   2.98399997         7.12875723E-21
   2.99200010         6.99769434E-21
   3.00000000         5.06243703E-21
   3.00799990         2.99576303E-21
   3.01600003         2.30931540E-21
   3.02399993         2.29542539E-21
   3.03200006         1.51258861E-21
   3.03999996        -1.28419184E-22
   3.04800010        -2.06959014E-21
   3.05599999        -4.15566654E-21
   3.06399989        -5.74335248E-21
   3.07200003        -5.62019466E-21
   3.07999992        -3.84969090E-21
   3.08800006        -1.96175959E-21
   3.09599996        -7.66286104E-22
   3.10400009         1.71489488E-22
   3.11199999         8.51448549E-22
   3.11999989         7.77349948E-22
   3.12800002         4.12124742E-22
   3.13599992         6.13136168E-22
   3.14400005         1.07374789E-21
   3.15199995         1.23980540E-21
   3.16000009         1.76924926E-21
   3.16799998         3.07224028E-21
   3.17600012         3.72655488E-21
   3.18400002         2.48267315E-21
   3.19199991         4.70707824E-22
   3.20000005        -5.28563514E-22
   3.20799994        -5.34893486E-22
   3.21600008        -4.05845409E-22
   3.22399998        -1.14145750E-22
   3.23200011         4.06519109E-22
   3.24000001         3.05322593E-22
   3.24799991        -9.00430323E-22
   3.25600004        -2.43185466E-21
   3.26399994        -3.44526824E-21
   3.27200007        -3.78148202E-21
   3.27999997        -3.27612535E-21
   3.28800011        -1.87112758E-21
   3.29600000        -4.22184372E-22
   3.30399990         1.26466583E-22
   3.31200004         1.27150103E-22
   3.31999993         4.58324803E-22
   3.32800007         1.04103366E-21
   3.33599997         1.47371384E-21
   3.34400010         2.19198298E-21
   3.35200000         3.54561074E-21
   3.35999990         4.63973239E-21
   3.36800003         4.38719472E-21
   3.37599993         2.87447828E-21
   3.38400006         8.23080808E-22
   3.39199996        -1.29694024E-21
   3.40000010        -2.99479448E-21
   3.40799999        -3.71329616E-21
   3.41599989        -3.52276149E-21
   3.42400002        -2.93901210E-21
   3.43199992        -2.04661064E-21
   3.44000006        -7.63873629E-22
   3.44799995         3.97488658E-22
   3.45600009         9.19636019E-22
   3.46399999         1.07268443E-21
   3.47199988         1.15046505E-21
   3.48000002         7.77054649E-22
   3.48799992        -6.55273811E-23
   3.49600005        -4.66231588E-22
   3.50399995        -7.37167418E-23
   3.51200008         5.93781031E-23
   3.51999998        -8.41298976E-22
   3.52800012        -1.94119499E-21
   3.53600001        -2.03419909E-21
   3.54399991        -9.41058907E-22
   3.55200005         9.64668188E-22
   3.55999994         3.29382573E-21
   3.56800008         5.10714396E-21
   3.57599998         5.18030583E-21
   3.58400011         3.47189190E-21
   3.59200001         1.31093627E-21
   3.59999990        -2.20195464E-22
   3.60800004        -1.22278226E-21
   3.61599994        -2.23966825E-21
   3.62400007        -3.48410413E-21
   3.63199997        -4.80670655E-21
   3.64000010        -5.70339861E-21
   3.64800000        -5.51651557E-21
   3.65599990        -4.17227599E-21
   3.66400003        -2.35413583E-21
   3.67199993        -5.35832394E-22
   3.68000007         1.54638235E-21
   3.68799996         4.00549327E-21
   3.69600010         6.07592231E-21
   3.70400000         6.82034245E-21
   3.71199989         6.11972976E-21
   3.72000003         4.61661940E-21
   3.72799993         3.02978568E-21
   3.73600006         1.65195127E-21
   3.74399996         2.45767356E-22
   3.75200009        -1.46888990E-21
