 -0.239999995         0.00000000    
 -0.231999993         0.00000000    
 -0.224000007         5.37783761E-21
 -0.216000006         4.00698115E-20
 -0.208000004         1.16352505E-19
 -0.200000003         1.95609823E-19
 -0.192000002         2.22543612E-19
 -0.184000000         1.83549943E-19
 -0.175999999         9.35185714E-20
 -0.167999998        -2.59288778E-20
 -0.159999996        -9.07092205E-20
 -0.151999995         5.39086918E-20
 -0.143999994         4.71243658E-19
 -0.136000007         1.00017768E-18
 -0.128000006         1.40085374E-18
 -0.119999997         1.60333307E-18
 -0.112000003         1.68867857E-18
 -0.104000002         1.66419134E-18
  -9.60000008E-02     1.43895915E-18
  -8.79999995E-02     1.05023803E-18
  -7.99999982E-02     7.39951418E-19
  -7.19999969E-02     7.19385020E-19
  -6.40000030E-02     9.80563680E-19
  -5.60000017E-02     1.42872734E-18
  -4.80000004E-02     2.08363632E-18
  -3.99999991E-02     3.02459687E-18
  -3.20000015E-02     4.22500200E-18
  -2.40000002E-02     5.60833460E-18
  -1.60000008E-02     7.25089981E-18
  -8.00000038E-03     9.38067648E-18
   0.00000000         1.21786430E-17
   8.00000038E-03     1.57683968E-17
   1.60000008E-02     2.04761017E-17
   2.40000002E-02     2.69251392E-17
   3.20000015E-02     3.57405618E-17
   3.99999991E-02     4.73191548E-17
   4.80000004E-02     6.20827836E-17
   5.60000017E-02     8.08011926E-17
   6.40000030E-02     1.04334693E-16
   7.19999969E-02     1.33041175E-16
   7.99999982E-02     1.66662031E-16
   8.79999995E-02     2.04669749E-16
   9.60000008E-02     2.46161036E-16
  0.104000002         2.89038294E-16
  0.112000003         3.29448727E-16
  0.119999997         3.62147348E-16
  0.128000006         3.81060562E-16
  0.136000007         3.79204898E-16
  0.143999994         3.48485633E-16
  0.151999995         2.80398266E-16
  0.159999996         1.67411695E-16
  0.167999998         3.93653144E-18
  0.175999999        -2.13279283E-16
  0.184000000        -4.84426083E-16
  0.192000002        -8.05331768E-16
  0.200000003        -1.16656564E-15
  0.208000004        -1.55365642E-15
  0.216000006        -1.94787191E-15
  0.224000007        -2.32683805E-15
  0.231999993        -2.66531284E-15
  0.239999995        -2.93681760E-15
  0.247999996        -3.11595914E-15
  0.256000012        -3.18058542E-15
  0.263999999        -3.11344324E-15
  0.272000015        -2.90369035E-15
  0.280000001        -2.54841742E-15
  0.287999988        -2.05365340E-15
  0.296000004        -1.43436379E-15
  0.303999990        -7.13589153E-16
  0.312000006         7.88320263E-17
  0.319999993         9.07850654E-16
  0.328000009         1.73528051E-15
  0.335999995         2.52231949E-15
  0.344000012         3.23213055E-15
  0.351999998         3.83210368E-15
  0.360000014         4.29568482E-15
  0.368000001         4.60378289E-15
  0.375999987         4.74572274E-15
  0.384000003         4.71965572E-15
  0.391999990         4.53237420E-15
  0.400000006         4.19850092E-15
  0.407999992         3.73915325E-15
  0.416000009         3.18031903E-15
  0.423999995         2.55114338E-15
  0.432000011         1.88218937E-15
  0.439999998         1.20366844E-15
  0.448000014         5.43797217E-16
  0.456000000        -7.24828658E-17
  0.463999987        -6.24365138E-16
  0.472000003        -1.09576788E-15
  0.479999989        -1.47573013E-15
  0.488000005        -1.75849948E-15
  0.495999992        -1.94322911E-15
  0.504000008        -2.03342266E-15
  0.512000024        -2.03634386E-15
  0.519999981        -1.96243198E-15
  0.527999997        -1.82462798E-15
  0.536000013        -1.63755948E-15
  0.544000030        -1.41668420E-15
  0.551999986        -1.17752096E-15
  0.560000002        -9.34982072E-16
  0.568000019        -7.02721032E-16
  0.575999975        -4.92464744E-16
  0.583999991        -3.13433478E-16
  0.592000008        -1.71961783E-16
  0.600000024        -7.13104664E-17
  0.607999980        -1.16035680E-17
  0.615999997         1.00718951E-17
  0.624000013        -6.92454811E-19
  0.632000029        -3.62363441E-17
  0.639999986        -8.75859795E-17
  0.648000002        -1.45277215E-16
  0.656000018        -2.00196647E-16
  0.663999975        -2.44344441E-16
  0.671999991        -2.71447960E-16
  0.680000007        -2.77455224E-16
  0.688000023        -2.60886174E-16
  0.695999980        -2.22868503E-16
  0.703999996        -1.66780470E-16
  0.712000012        -9.77166656E-17
  0.720000029        -2.19948897E-17
  0.727999985         5.34109463E-17
  0.736000001         1.21685150E-16
  0.744000018         1.77013581E-16
  0.751999974         2.15071274E-16
  0.759999990         2.33173162E-16
  0.768000007         2.30420543E-16
  0.776000023         2.07870607E-16
  0.783999979         1.68391050E-16
  0.791999996         1.16107227E-16
  0.800000012         5.58056143E-17
  0.808000028        -7.42241075E-18
  0.815999985        -6.84573484E-17
  0.824000001        -1.22584514E-16
  0.832000017        -1.65971791E-16
  0.839999974        -1.95920163E-16
  0.847999990        -2.10863704E-16
  0.856000006        -2.10329583E-16
  0.864000022        -1.94963109E-16
  0.871999979        -1.66493074E-16
  0.879999995        -1.27506477E-16
  0.888000011        -8.11097839E-17
  0.896000028        -3.06703550E-17
  0.903999984         2.03133489E-17
  0.912000000         6.83567765E-17
  0.920000017         1.10241530E-16
  0.927999973         1.43257941E-16
  0.935999990         1.65307691E-16
  0.944000006         1.74942109E-16
  0.952000022         1.71474290E-16
  0.959999979         1.55116244E-16
  0.967999995         1.26993982E-16
  0.976000011         8.90514656E-17
  0.984000027         4.39621746E-17
  0.991999984        -4.96217998E-18
   1.00000000        -5.39778562E-17
   1.00800002        -9.92273621E-17
   1.01600003        -1.37063920E-16
   1.02400005        -1.64346229E-16
   1.03199995        -1.78719677E-16
   1.03999996        -1.78832372E-16
   1.04799998        -1.64434043E-16
   1.05599999        -1.36409455E-16
   1.06400001        -9.67810978E-17
   1.07200003        -4.85923876E-17
   1.08000004         4.37737735E-18
   1.08800006         5.79452857E-17
   1.09599996         1.07810777E-16
   1.10399997         1.49886874E-16
   1.11199999         1.80736383E-16
   1.12000000         1.97943712E-16
   1.12800002         2.00256734E-16
   1.13600004         1.87598819E-16
   1.14400005         1.61119576E-16
   1.15199995         1.23207599E-16
   1.15999997         7.72729033E-17
   1.16799998         2.73293096E-17
   1.17600000        -2.24090689E-17
   1.18400002        -6.78327939E-17
   1.19200003        -1.05246008E-16
   1.20000005        -1.31724714E-16
   1.20799994        -1.45404442E-16
   1.21599996        -1.45581432E-16
   1.22399998        -1.32664855E-16
   1.23199999        -1.08091231E-16
   1.24000001        -7.42246832E-17
   1.24800003        -3.41627214E-17
   1.25600004         8.59127238E-18
   1.26400006         5.04899234E-17
   1.27199996         8.82083700E-17
   1.27999997         1.18823066E-16
   1.28799999         1.40006129E-16
   1.29600000         1.50234422E-16
   1.30400002         1.48888130E-16
   1.31200004         1.36195341E-16
   1.32000005         1.13129535E-16
   1.32799995         8.13288213E-17
   1.33599997         4.29692535E-17
   1.34399998         5.52984612E-19
   1.35200000        -4.33027529E-17
   1.36000001        -8.60159973E-17
   1.36800003        -1.25183238E-16
   1.37600005        -1.58732611E-16
   1.38399994        -1.85006700E-16
   1.39199996        -2.02769073E-16
   1.39999998        -2.11246920E-16
   1.40799999        -2.10217431E-16
   1.41600001        -1.99989852E-16
   1.42400002        -1.81263793E-16
   1.43200004        -1.55062311E-16
   1.44000006        -1.22816919E-16
   1.44799995        -8.63851713E-17
   1.45599997        -4.78500790E-17
   1.46399999        -9.30028197E-18
   1.47200000         2.71926809E-17
   1.48000002         5.95509491E-17
   1.48800004         8.58779706E-17
   1.49600005         1.04760148E-16
   1.50399995         1.15380949E-16
   1.51199996         1.17440695E-16
   1.51999998         1.11153341E-16
   1.52800000         9.73858463E-17
   1.53600001         7.76966250E-17
   1.54400003         5.41441294E-17
   1.55200005         2.90524062E-17
   1.55999994         4.89731661E-18
   1.56799996        -1.58051501E-17
   1.57599998        -3.07597864E-17
   1.58399999        -3.81940060E-17
   1.59200001        -3.70019626E-17
   1.60000002        -2.67617462E-17
   1.60800004        -7.80335307E-18
   1.61600006         1.86792222E-17
   1.62399995         5.06660798E-17
   1.63199997         8.55506519E-17
   1.63999999         1.20394325E-16
   1.64800000         1.52083800E-16
   1.65600002         1.77525824E-16
   1.66400003         1.93987459E-16
   1.67200005         1.99425437E-16
   1.67999995         1.92619024E-16
   1.68799996         1.73193475E-16
   1.69599998         1.41707924E-16
   1.70400000         9.97270321E-17
   1.71200001         4.96796470E-17
   1.72000003        -5.42999032E-18
   1.72800004        -6.22236822E-17
   1.73599994        -1.17070250E-16
   1.74399996        -1.66336452E-16
   1.75199997        -2.06755276E-16
   1.75999999        -2.35667462E-16
   1.76800001        -2.51095956E-16
   1.77600002        -2.51868820E-16
   1.78400004        -2.37827132E-16
   1.79200006        -2.09875547E-16
   1.79999995        -1.69797919E-16
   1.80799997        -1.20069647E-16
   1.81599998        -6.37841551E-17
   1.82400000        -4.49997379E-18
   1.83200002         5.41033957E-17
   1.84000003         1.08553704E-16
   1.84800005         1.55723434E-16
   1.85599995         1.92912667E-16
   1.86399996         2.18040323E-16
   1.87199998         2.29837308E-16
   1.88000000         2.27874892E-16
   1.88800001         2.12490960E-16
   1.89600003         1.84768789E-16
   1.90400004         1.46541623E-16
   1.91199994         1.00281878E-16
   1.91999996         4.88642554E-17
   1.92799997        -4.66560637E-18
   1.93599999        -5.72397602E-17
   1.94400001        -1.05896628E-16
   1.95200002        -1.47970793E-16
   1.96000004        -1.81309017E-16
   1.96800005        -2.04399241E-16
   1.97599995        -2.16381435E-16
   1.98399997        -2.17037965E-16
   1.99199998        -2.06828757E-16
   2.00000000        -1.86887536E-16
   2.00799990        -1.58892714E-16
   2.01600003        -1.24891885E-16
   2.02399993        -8.71946833E-17
   2.03200006        -4.82786281E-17
   2.03999996        -1.05922942E-17
   2.04800010         2.36844970E-17
   2.05599999         5.27788612E-17
   2.06399989         7.53820611E-17
   2.07200003         9.07405419E-17
   2.07999992         9.87401394E-17
   2.08800006         9.98559531E-17
   2.09599996         9.50105144E-17
   2.10400009         8.54871906E-17
   2.11199999         7.28779273E-17
   2.11999989         5.89267984E-17
   2.12800002         4.52939321E-17
   2.13599992         3.34022777E-17
   2.14400005         2.43894733E-17
   2.15199995         1.90374874E-17
   2.16000009         1.76598247E-17
   2.16799998         2.00718519E-17
   2.17600012         2.56893661E-17
   2.18400002         3.36509878E-17
   2.19199991         4.28910982E-17
   2.20000005         5.22142045E-17
   2.20799994         6.04267547E-17
   2.21600008         6.64893798E-17
   2.22399998         6.96161953E-17
   2.23200011         6.93042291E-17
   2.24000001         6.53368128E-17
   2.24799991         5.77948182E-17
   2.25600004         4.70464764E-17
   2.26399994         3.36722132E-17
   2.27200007         1.83587493E-17
   2.27999997         1.84315776E-18
   2.28800011        -1.51011168E-17
   2.29600000        -3.17224493E-17
   2.30399990        -4.73856568E-17
   2.31200004        -6.15871171E-17
   2.31999993        -7.38764468E-17
   2.32800007        -8.38183637E-17
   2.33599997        -9.10393262E-17
   2.34400010        -9.52341443E-17
   2.35200000        -9.60882050E-17
   2.35999990        -9.32596179E-17
   2.36800003        -8.64894159E-17
   2.37599993        -7.56930942E-17
   2.38400006        -6.09400302E-17
   2.39199996        -4.24540854E-17
   2.40000010        -2.07330190E-17
   2.40799999         3.35560622E-18
   2.41599989         2.86375586E-17
   2.42400002         5.37464044E-17
   2.43199992         7.71514732E-17
   2.44000006         9.71838554E-17
   2.44799995         1.12195059E-16
   2.45600009         1.20773452E-16
   2.46399999         1.21866283E-16
   2.47199988         1.14835909E-16
   2.48000002         9.95728324E-17
   2.48799992         7.66342868E-17
   2.49600005         4.72639091E-17
   2.50399995         1.32712427E-17
   2.51200008        -2.31112278E-17
   2.51999998        -5.93395416E-17
   2.52800012        -9.27141750E-17
   2.53600001        -1.20631997E-16
   2.54399991        -1.40858654E-16
   2.55200005        -1.51720674E-16
   2.55999994        -1.52221019E-16
   2.56800008        -1.42142491E-16
   2.57599998        -1.22128929E-16
   2.58400011        -9.36555264E-17
   2.59200001        -5.88656068E-17
   2.59999990        -2.03663613E-17
   2.60800004         1.89479583E-17
   2.61599994         5.60973774E-17
   2.62400007         8.82905190E-17
   2.63199997         1.13194121E-16
   2.64000010         1.29102790E-16
   2.64800000         1.35040530E-16
   2.65599990         1.30858980E-16
   2.66400003         1.17278647E-16
   2.67199993         9.57885473E-17
   2.68000007         6.84522199E-17
   2.68799996         3.77185293E-17
   2.69600010         6.22066704E-18
   2.70400000        -2.34897787E-17
   2.71199989        -4.92013183E-17
   2.72000003        -6.91905944E-17
   2.72799993        -8.23029754E-17
   2.73600006        -8.80512652E-17
   2.74399996        -8.66671605E-17
   2.75200009        -7.89977337E-17
   2.75999999        -6.63158241E-17
   2.76799989        -5.01878304E-17
   2.77600002        -3.23713659E-17
   2.78399992        -1.46245003E-17
   2.79200006         1.52713516E-18
   2.79999995         1.49118695E-17
   2.80800009         2.47234061E-17
   2.81599998         3.05518729E-17
   2.82399988         3.24411402E-17
   2.83200002         3.08544622E-17
   2.83999991         2.65346868E-17
   2.84800005         2.03711970E-17
   2.85599995         1.33155515E-17
   2.86400008         6.28682329E-18
   2.87199998         6.06928200E-20
   2.88000011        -4.79489180E-18
   2.88800001        -7.93197882E-18
   2.89599991        -9.22978302E-18
   2.90400004        -8.78764588E-18
   2.91199994        -6.86518053E-18
   2.92000008        -3.80296369E-18
   2.92799997         1.73505043E-20
   2.93600011         4.19451915E-18
   2.94400001         8.35969903E-18
   2.95199990         1.22296892E-17
   2.96000004         1.56068352E-17
   2.96799994         1.83500192E-17
   2.97600007         2.03710712E-17
   2.98399997         2.16396305E-17
   2.99200010         2.21503070E-17
   3.00000000         2.18715984E-17
   3.00799990         2.07313001E-17
   3.01600003         1.86415755E-17
   3.02399993         1.55247755E-17
   3.03200006         1.13237634E-17
   3.03999996         6.01280400E-18
   3.04800010        -3.73951579E-19
   3.05599999        -7.69830444E-18
   3.06399989        -1.56849922E-17
   3.07200003        -2.39299331E-17
   3.07999992        -3.19373475E-17
   3.08800006        -3.91421006E-17
   3.09599996        -4.49206056E-17
   3.10400009        -4.86444900E-17
   3.11199999        -4.97778466E-17
   3.11999989        -4.79435438E-17
   3.12800002        -4.29337211E-17
   3.13599992        -3.47342073E-17
   3.14400005        -2.35923524E-17
   3.15199995        -1.00512321E-17
   3.16000009         5.10144452E-18
   3.16799998         2.09111226E-17
   3.17600012         3.63068530E-17
   3.18400002         5.01607452E-17
   3.19199991         6.13890636E-17
   3.20000005         6.90547713E-17
   3.20799994         7.24408252E-17
   3.21600008         7.11175017E-17
   3.22399998         6.50012554E-17
   3.23200011         5.43629352E-17
   3.24000001         3.97933299E-17
   3.24799991         2.21758619E-17
   3.25600004         2.65067360E-18
   3.26399994        -1.74840521E-17
   3.27200007        -3.69015892E-17
   3.27999997        -5.43274558E-17
   3.28800011        -6.85916230E-17
   3.29600000        -7.87304220E-17
   3.30399990        -8.41066130E-17
   3.31200004        -8.44422498E-17
   3.31999993        -7.97718623E-17
   3.32800007        -7.04209825E-17
   3.33599997        -5.70215896E-17
   3.34400010        -4.04713699E-17
   3.35200000        -2.18188772E-17
   3.35999990        -2.16522735E-18
   3.36800003         1.73769157E-17
   3.37599993         3.57261457E-17
   3.38400006         5.19122075E-17
   3.39199996         6.51471172E-17
   3.40000010         7.48469216E-17
   3.40799999         8.06221245E-17
   3.41599989         8.22676383E-17
   3.42400002         7.97614729E-17
   3.43199992         7.32719300E-17
   3.44000006         6.31621021E-17
   3.44799995         4.99707484E-17
   3.45600009         3.43730139E-17
   3.46399999         1.71545844E-17
   3.47199988        -7.92436649E-19
   3.48000002        -1.84901221E-17
   3.48799992        -3.49359467E-17
   3.49600005        -4.91759437E-17
   3.50399995        -6.03568679E-17
   3.51200008        -6.77685385E-17
   3.51999998        -7.09032156E-17
   3.52800012        -6.95265687E-17
   3.53600001        -6.37267091E-17
   3.54399991        -5.39177301E-17
   3.55200005        -4.08050909E-17
   3.55999994        -2.53390899E-17
   3.56800008        -8.66746233E-18
   3.57599998         7.93404016E-18
   3.58400011         2.31738272E-17
   3.59200001         3.58773709E-17
   3.59999990         4.50951639E-17
   3.60800004         5.01731331E-17
   3.61599994         5.08071141E-17
   3.62400007         4.70855458E-17
   3.63199997         3.94939336E-17
   3.64000010         2.88638620E-17
   3.64800000         1.62803306E-17
   3.65599990         2.97360718E-18
   3.66400003        -9.78520585E-18
   3.67199993        -2.07837583E-17
   3.68000007        -2.89807393E-17
   3.68799996        -3.36307450E-17
   3.69600010        -3.43693710E-17
   3.70400000        -3.12098223E-17
   3.71199989        -2.44933209E-17
   3.72000003        -1.48739168E-17
   3.72799993        -3.31362949E-18
   3.73600006         9.01481615E-18
   3.74399996         2.09083069E-17
   3.75200009         3.12558367E-17
   3.75999999         3.90577579E-17
   3.76799989         4.34736484E-17
   3.77600002         4.39686663E-17
   3.78399992         4.04170804E-17
   3.79200006         3.30418652E-17
   3.79999995         2.23067037E-17
   3.80800009         8.91783915E-18
   3.81599998        -6.14146987E-18
   3.82399988        -2.17127152E-17
   3.83200002        -3.66497954E-17
   3.83999991        -4.99023869E-17
   3.84800005        -6.04946762E-17
   3.85599995        -6.75756533E-17
   3.86400008        -7.05672016E-17
   3.87199998        -6.92362547E-17
   3.88000011        -6.36258460E-17
   3.88800001        -5.39937910E-17
   3.89599991        -4.08494113E-17
   3.90400004        -2.49720119E-17
   3.91199994        -7.31536365E-18
   3.92000008         1.11068725E-17
   3.92799997         2.92510685E-17
   3.93600011         4.60546636E-17
   3.94400001         6.05204247E-17
   3.95199990         7.18158473E-17
   3.96000004         7.92951349E-17
   3.96799994         8.24888793E-17
   3.97600007         8.11507790E-17
   3.98399997         7.53216174E-17
   3.99200010         6.53172715E-17
   4.00000000         5.16697873E-17
   4.00799990         3.51166592E-17
   4.01599979         1.66160303E-17
   4.02400017        -2.71673493E-18
   4.03200006        -2.17422356E-17
   4.03999996        -3.93783367E-17
   4.04799986        -5.46033073E-17
   4.05600023        -6.64955010E-17
   4.06400013        -7.43578196E-17
   4.07200003        -7.78109479E-17
   4.07999992        -7.67684423E-17
   4.08799982        -7.13875530E-17
   4.09600019        -6.21030793E-17
   4.10400009        -4.96656214E-17
   4.11199999        -3.50505608E-17
   4.11999989        -1.92938720E-17
   4.12799978        -3.41911074E-18
   4.13600016         1.15516087E-17
   4.14400005         2.46619482E-17
   4.15199995         3.51769110E-17
   4.15999985         4.26603644E-17
   4.16800022         4.69156892E-17
   4.17600012         4.79417273E-17
   4.18400002         4.59858191E-17
   4.19199991         4.15563430E-17
   4.19999981         3.52956048E-17
   4.20800018         2.78452354E-17
   4.21600008         1.98395531E-17
   4.22399998         1.19337049E-17
   4.23199987         4.72491770E-18
   4.23999977        -1.36673822E-18
   4.24800014        -6.10755381E-18
   4.25600004        -9.37612285E-18
   4.26399994        -1.11441205E-17
   4.27199984        -1.15168166E-17
   4.28000021        -1.07210689E-17
   4.28800011        -9.02516004E-18
   4.29600000        -6.69066817E-18
   4.30399990        -3.99262876E-18
   4.31199980        -1.23218251E-18
   4.32000017         1.30389545E-18
   4.32800007         3.38318339E-18
   4.33599997         4.81642952E-18
   4.34399986         5.42991422E-18
   4.35200024         5.07868299E-18
   4.36000013         3.69023014E-18
   4.36800003         1.28388202E-18
   4.37599993        -2.04336049E-18
   4.38399982        -6.11875756E-18
   4.39200020        -1.06686984E-17
   4.40000010        -1.53176892E-17
   4.40799999        -1.96415873E-17
   4.41599989        -2.32213669E-17
   4.42399979        -2.56469285E-17
   4.43200016        -2.65177098E-17
   4.44000006        -2.55041885E-17
   4.44799995        -2.24277251E-17
   4.45599985        -1.72748449E-17
   4.46400023        -1.01685040E-17
   4.47200012        -1.38195390E-18
   4.48000002         8.61938576E-18
   4.48799992         1.92026902E-17
   4.49599981         2.96624883E-17
   4.50400019         3.92880847E-17
   4.51200008         4.73730307E-17
   4.51999998         5.32437863E-17
   4.52799988         5.63457434E-17
   4.53599977         5.63210206E-17
   4.54400015         5.30231938E-17
   4.55200005         4.65009144E-17
   4.55999994         3.69960566E-17
   4.56799984         2.49441012E-17
   4.57600021         1.09452944E-17
   4.58400011        -4.28734991E-18
   4.59200001        -1.99714553E-17
   4.59999990        -3.52776749E-17
   4.60799980        -4.93529438E-17
   4.61600018        -6.13713619E-17
   4.62400007        -7.06022806E-17
   4.63199997        -7.64548548E-17
   4.63999987        -7.84897456E-17
   4.64799976        -7.64370473E-17
   4.65600014        -7.02370903E-17
   4.66400003        -6.00650253E-17
   4.67199993        -4.63199868E-17
   4.67999983        -2.96187470E-17
   4.68800020        -1.08039135E-17
   4.69600010         9.09218400E-18
   4.70400000         2.89423019E-17
   4.71199989         4.75981926E-17
   4.71999979         6.39122622E-17
   4.72800016         7.67949915E-17
   4.73600006         8.53491441E-17
   4.74399996         8.89733466E-17
   4.75199986         8.73610988E-17
   4.76000023         8.04940704E-17
   4.76800013         6.87160375E-17
   4.77600002         5.27827258E-17
   4.78399992         3.37683416E-17
   4.79199982         1.29161903E-17
   4.80000019        -8.41971098E-18
   4.80800009        -2.87907789E-17
   4.81599998        -4.67716076E-17
   4.82399988        -6.11496907E-17
   4.83199978        -7.10316469E-17
   4.84000015        -7.58475322E-17
   4.84800005        -7.53754304E-17
   4.85599995        -6.98116813E-17
   4.86399984        -5.97749497E-17
   4.87200022        -4.62032848E-17
   4.88000011        -3.02413195E-17
   4.88800001        -1.31775604E-17
   4.89599991         3.63432473E-18
   4.90399981         1.89193229E-17
   4.91200018         3.16200542E-17
   4.92000008         4.09557172E-17
   4.92799997         4.64370163E-17
   4.93599987         4.79027009E-17
   4.94399977         4.55504938E-17
   4.95200014         3.98938754E-17
   4.96000004         3.16615192E-17
   4.96799994         2.17174549E-17
   4.97599983         1.10126054E-17
   4.98400021         5.05629711E-19
   4.99200010        -8.95651729E-18
   5.00000000        -1.67250130E-17
   5.00799990        -2.23645898E-17
   5.01599979        -2.56510362E-17
   5.02400017        -2.65912163E-17
   5.03200006        -2.54213811E-17
   5.03999996        -2.25422963E-17
   5.04799986        -1.84346447E-17
   5.05600023        -1.36099426E-17
   5.06400013        -8.57651878E-18
   5.07200003        -3.78099750E-18
   5.07999992         4.47997349E-19
   5.08799982         3.90811489E-18
   5.09600019         6.50131701E-18
   5.10400009         8.22371963E-18
   5.11199999         9.15553446E-18
   5.11999989         9.42108673E-18
   5.12799978         9.14324835E-18
   5.13600016         8.43325606E-18
   5.14400005         7.39754818E-18
   5.15199995         6.12002770E-18
   5.15999985         4.63720512E-18
   5.16800022         2.95350566E-18
   5.17600012         1.08458206E-18
   5.18400002        -9.26886792E-19
   5.19199991        -3.02758692E-18
   5.19999981        -5.15168292E-18
   5.20800018        -7.18670150E-18
   5.21600008        -8.95692674E-18
   5.22399998        -1.02566765E-17
   5.23199987        -1.08965387E-17
   5.23999977        -1.07163176E-17
   5.24800014        -9.57958529E-18
   5.25600004        -7.39679710E-18
   5.26399994        -4.17675627E-18
   5.27199984        -5.50801281E-20
   5.28000021         4.72673625E-18
   5.28800011         9.85565599E-18
   5.29600000         1.49565025E-17
   5.30399990         1.95969493E-17
   5.31199980         2.33301047E-17
   5.32000017         2.57633492E-17
   5.32800007         2.66024809E-17
   5.33599997         2.56603354E-17
   5.34399986         2.28682236E-17
   5.35200024         1.83044548E-17
   5.36000013         1.22050557E-17
   5.36800003         4.93592734E-18
   5.37599993        -3.04599107E-18
   5.38399982        -1.12183815E-17
   5.39200020        -1.90217924E-17
   5.40000010        -2.59064944E-17
   5.40799999        -3.13810752E-17
   5.41599989        -3.50458029E-17
   5.42399979        -3.66196861E-17
   5.43200016        -3.59675600E-17
   5.44000006        -3.31132377E-17
   5.44799995        -2.82339110E-17
   5.45599985        -2.16486401E-17
   5.46400023        -1.37999956E-17
   5.47200012        -5.21230244E-18
   5.48000002         3.56505828E-18
   5.48799992         1.19989819E-17
   5.49599981         1.95971743E-17
   5.50400019         2.59436481E-17
   5.51200008         3.07442089E-17
   5.51999998         3.38453587E-17
   5.52799988         3.52158679E-17
   5.53599977         3.49234861E-17
   5.54400015         3.31260954E-17
   5.55200005         3.00579468E-17
   5.55999994         2.59964685E-17
   5.56799984         2.12259376E-17
   5.57600021         1.60145955E-17
   5.58400011         1.06016604E-17
   5.59200001         5.18872118E-18
   5.59999990        -6.31899361E-20
   5.60799980        -5.03255899E-18
   5.61600018        -9.63271676E-18
   5.62400007        -1.37961641E-17
   5.63199997        -1.74514992E-17
   5.63999987        -2.05132719E-17
   5.64799976        -2.28894193E-17
   5.65600014        -2.44847513E-17
   5.66400003        -2.51941778E-17
   5.67199993        -2.49107543E-17
   5.67999983        -2.35574735E-17
   5.68800020        -2.11135717E-17
   5.69600010        -1.76186724E-17
   5.70400000        -1.31782238E-17
   5.71199989        -7.98385959E-18
   5.71999979        -2.32160274E-18
   5.72800016         3.45222133E-18
   5.73600006         8.94703366E-18
   5.74399996         1.37663401E-17
   5.75199986         1.75401713E-17
   5.76000023         1.99699962E-17
   5.76800013         2.08670355E-17
   5.77600002         2.01694129E-17
   5.78399992         1.79465850E-17
   5.79199982         1.43957088E-17
   5.80000019         9.82258366E-18
   5.80800009         4.61152571E-18
   5.81599998        -8.04448655E-19
   5.82399988        -5.98023831E-18
   5.83199978        -1.05104671E-17
   5.84000015        -1.40745460E-17
   5.84800005        -1.64520334E-17
   5.85599995        -1.75278894E-17
   5.86399984        -1.73148639E-17
   5.87200022        -1.59694182E-17
   5.88000011        -1.37607790E-17
   5.88800001        -1.10106673E-17
   5.89599991        -8.05667713E-18
   5.90399981        -5.24135302E-18
   5.91200018        -2.87946886E-18
   5.92000008        -1.19434706E-18
   5.92799997        -2.74323593E-19
   5.93599987        -8.23073144E-20
   5.94399977        -4.86860724E-19
   5.95200014        -1.27512942E-18
   5.96000004        -2.16048161E-18
   5.96799994        -2.82186255E-18
   5.97599983        -2.97022236E-18
   5.98400021        -2.39648740E-18
   5.99200010        -9.79010338E-19
   6.00000000         1.31908042E-18
   6.00799990         4.43138273E-18
   6.01599979         8.16897682E-18
   6.02400017         1.22402250E-17
   6.03200006         1.63015792E-17
   6.03999996         1.99943533E-17
   6.04799986         2.29588462E-17
   6.05600023         2.48631732E-17
   6.06400013         2.54570541E-17
   6.07200003         2.46085455E-17
   6.07999992         2.22992408E-17
   6.08799982         1.86115191E-17
   6.09600019         1.37366402E-17
   6.10400009         7.97585414E-18
   6.11199999         1.70155932E-18
   6.11999989        -4.69862659E-18
   6.12799978        -1.08535171E-17
   6.13600016        -1.64191199E-17
   6.14400005        -2.10968858E-17
   6.15199995        -2.46574153E-17
   6.15999985        -2.69479760E-17
   6.16800022        -2.78876400E-17
   6.17600012        -2.74690766E-17
   6.18400002        -2.57612332E-17
   6.19199991        -2.28941442E-17
   6.19999981        -1.90344665E-17
   6.20800018        -1.43772643E-17
   6.21600008        -9.15153504E-18
   6.22399998        -3.61278619E-18
   6.23199987         1.98130664E-18