 -0.239999995         0.00000000    
 -0.231999993         0.00000000    
 -0.224000007         0.00000000    
 -0.216000006         0.00000000    
 -0.208000004         0.00000000    
 -0.200000003         0.00000000    
 -0.192000002         0.00000000    
 -0.184000000         0.00000000    
 -0.175999999         0.00000000    
 -0.167999998         0.00000000    
 -0.159999996         3.94311655E-38
 -0.151999995         1.68464397E-36
 -0.143999994         8.97593108E-36
 -0.136000007         5.39022275E-36
 -0.128000006        -1.06628829E-34
 -0.119999997        -4.12683924E-34
 -0.112000003        -3.81712885E-34
 -0.104000002         1.67089598E-33
  -9.60000008E-02     6.49992173E-33
  -8.79999995E-02     8.10172600E-33
  -7.99999982E-02    -7.96717524E-33
  -7.19999969E-02    -4.79223979E-32
  -6.40000030E-02    -7.92010184E-32
  -5.60000017E-02    -2.82191437E-32
  -4.80000004E-02     1.53221257E-31
  -3.99999991E-02     3.91397724E-31
  -3.20000015E-02     4.71904558E-31
  -2.40000002E-02     1.40353485E-31
  -1.60000008E-02    -7.56916188E-31
  -8.00000038E-03    -2.10058057E-30
   0.00000000        -3.13568328E-30
   8.00000038E-03    -2.09707177E-30
   1.60000008E-02     3.08241552E-30
   2.40000002E-02     1.19219389E-29
   3.20000015E-02     1.80227245E-29
   3.99999991E-02     1.03464019E-29
   4.80000004E-02    -1.70339837E-29
   5.60000017E-02    -5.21263833E-29
   6.40000030E-02    -6.40749249E-29
   7.19999969E-02    -2.44098365E-29
   7.99999982E-02     6.11602045E-29
   8.79999995E-02     1.41587412E-28
   9.60000008E-02     1.50888089E-28
  0.104000002         6.11614262E-29
  0.112000003        -9.06483285E-29
  0.119999997        -2.30412842E-28
  0.128000006        -2.98847103E-28
  0.136000007        -2.69070589E-28
  0.143999994        -1.17544042E-28
  0.151999995         1.87756744E-28
  0.159999996         6.17277158E-28
  0.167999998         9.73374912E-28
  0.175999999         9.03187766E-28
  0.184000000         1.35950853E-28
  0.192000002        -1.17692751E-27
  0.200000003        -2.33752159E-27
  0.208000004        -2.43100295E-27
  0.216000006        -9.81808945E-28
  0.224000007         1.53995259E-27
  0.231999993         3.81945034E-27
  0.239999995         4.43323381E-27
  0.247999996         2.74975707E-27
  0.256000012        -6.20845088E-28
  0.263999999        -4.11951446E-27
  0.272000015        -6.05719643E-27
  0.280000001        -5.44764731E-27
  0.287999988        -2.42314651E-27
  0.296000004         1.88590508E-27
  0.303999990         5.84350603E-27
  0.312000006         7.90357815E-27
  0.319999993         7.09931443E-27
  0.328000009         3.34686912E-27
  0.335999995        -2.42411140E-27
  0.344000012        -8.32377446E-27
  0.351999998        -1.18672622E-26
  0.360000014        -1.08167020E-26
  0.368000001        -4.41071083E-27
  0.375999987         5.61000128E-27
  0.384000003         1.50800854E-26
  0.391999990         1.90786010E-26
  0.400000006         1.45691685E-26
  0.407999992         2.40221435E-27
  0.416000009        -1.27840849E-26
  0.423999995        -2.47998286E-26
  0.432000011        -2.87236150E-26
  0.439999998        -2.24844648E-26
  0.448000014        -6.75601356E-27
  0.456000000         1.56423599E-26
  0.463999987         3.95317582E-26
  0.472000003         5.67497352E-26
  0.479999989         5.72163834E-26
  0.488000005         3.32430762E-26
  0.495999992        -1.43258173E-26
  0.504000008        -7.23832821E-26
  0.512000024        -1.18169170E-25
  0.519999981        -1.28255644E-25
  0.527999997        -8.94740460E-26
  0.536000013        -6.04258479E-27
  0.544000030         1.00095855E-25
  0.551999986         1.94780210E-25
  0.560000002         2.40526944E-25
  0.568000019         2.07685678E-25
  0.575999975         8.75485968E-26
  0.583999991        -9.57217381E-26
  0.592000008        -2.82402664E-25
  0.600000024        -3.92646074E-25
  0.607999980        -3.60708547E-25
  0.615999997        -1.74153925E-25
  0.624000013         1.05843563E-25
  0.632000029         3.61898223E-25
  0.639999986         4.73523570E-25
  0.648000002         3.79913193E-25
  0.656000018         1.16395157E-25
  0.663999975        -1.98428445E-25
  0.671999991        -4.19293623E-25
  0.680000007        -4.43626284E-25
  0.688000023        -2.56763230E-25
  0.695999980         6.76492415E-26
  0.703999996         4.06473425E-25
  0.712000012         6.39991167E-25
  0.720000029         6.91197460E-25
  0.727999985         5.36796624E-25
  0.736000001         1.94142860E-25
  0.744000018        -2.97964646E-25
  0.751999974        -8.85402689E-25
  0.759999990        -1.48433754E-24
  0.768000007        -1.95799832E-24
  0.776000023        -2.11129904E-24
  0.783999979        -1.72923734E-24
  0.791999996        -6.63765562E-25
  0.800000012         1.05904724E-24
  0.808000028         3.16450112E-24
  0.815999985         5.13820054E-24
  0.824000001         6.33659149E-24
  0.832000017         6.17042306E-24
  0.839999974         4.29714899E-24
  0.847999990         7.53118850E-25
  0.856000006        -4.01949401E-24
  0.864000022        -9.25699163E-24
  0.871999979        -1.40396967E-23
  0.879999995        -1.74859318E-23
  0.888000011        -1.89153904E-23
  0.896000028        -1.79354279E-23
  0.903999984        -1.44340704E-23
  0.912000000        -8.49998020E-24
  0.920000017        -3.08400117E-25
  0.927999973         1.00106891E-23
  0.935999990         2.25703092E-23
  0.944000006         3.81064561E-23
  0.952000022         5.86745212E-23
  0.959999979         8.87309673E-23
  0.967999995         1.36546723E-22
  0.976000011         2.15785643E-22
  0.984000027         3.47040334E-22
  0.991999984         5.59153344E-22
   1.00000000         8.90183361E-22
   1.00800002         1.38785831E-21
   1.01600003         2.10924049E-21
   1.02400005         3.11923084E-21
   1.03199995         4.48751339E-21
   1.03999996         6.28362380E-21
   1.04799998         8.57027292E-21
   1.05599999         1.13951012E-20
   1.06400001         1.47816335E-20
   1.07200003         1.87201442E-20
   1.08000004         2.31592929E-20
   1.08800006         2.79995177E-20
   1.09599996         3.30890598E-20
   1.10399997         3.82234151E-20
   1.11199999         4.31490850E-20
   1.12000000         4.75717451E-20
   1.12800002         5.11693345E-20
   1.13600004         5.36094980E-20
   1.14400005         5.45706947E-20
   1.15199995         5.37656121E-20
   1.15999997         5.09650500E-20
   1.16799998         4.60205294E-20
   1.17600000         3.88829527E-20
   1.18400002         2.96162616E-20
   1.19200003         1.84042468E-20
   1.20000005         5.54978818E-21
   1.20799994        -8.53426795E-21
   1.21599996        -2.33423583E-20
   1.22399998        -3.83008793E-20
   1.23199999        -5.27991711E-20
   1.24000001        -6.62238020E-20
   1.24800003        -7.79948341E-20
   1.25600004        -8.75999261E-20
   1.26400006        -9.46243310E-20
   1.27199996        -9.87742703E-20
   1.27999997        -9.98919981E-20
   1.28799999        -9.79621469E-20
   1.29600000        -9.31079409E-20
   1.30400002        -8.55805779E-20
   1.31200004        -7.57406054E-20
   1.32000005        -6.40350627E-20
   1.32799995        -5.09713863E-20
   1.33599997        -3.70901486E-20
   1.34399998        -2.29390949E-20
   1.35200000        -9.04987531E-21
   1.36000001         4.08146343E-21
   1.36800003         1.60096058E-20
   1.37600005         2.63516285E-20
   1.38399994         3.47958501E-20
   1.39199996         4.11089636E-20
   1.39999998         4.51415272E-20
   1.40799999         4.68321939E-20
   1.41600001         4.62101735E-20
   1.42400002         4.33961697E-20
   1.43200004         3.86011523E-20
   1.44000006         3.21226511E-20
   1.44799995         2.43371836E-20
   1.45599997         1.56878681E-20
   1.46399999         6.66692670E-21
   1.47200000        -2.20696210E-21
   1.48000002        -1.04149842E-20
   1.48800004        -1.74664114E-20
   1.49600005        -2.29269279E-20
   1.50399995        -2.64451581E-20
   1.51199996        -2.77756555E-20
   1.51999998        -2.67963673E-20
   1.52800000        -2.35188984E-20
   1.53600001        -1.80902025E-20
   1.54400003        -1.07855353E-20
   1.55200005        -1.99304019E-21
   1.55999994         7.80848966E-21
   1.56799996         1.80768674E-20
   1.57599998         2.82373030E-20
   1.58399999         3.77147830E-20
   1.59200001         4.59672506E-20
   1.60000002         5.25176131E-20
   1.60800004         5.69831088E-20
   1.61600006         5.90999997E-20
   1.62399995         5.87414105E-20
   1.63199997         5.59272128E-20
   1.63999999         5.08260449E-20
   1.64800000         4.37500802E-20
   1.65600002         3.51442127E-20
   1.66400003         2.55698798E-20
   1.67200005         1.56821860E-20
   1.67999995         6.19900137E-21
   1.68799996        -2.13879200E-21
   1.69599998        -8.61532842E-21
   1.70400000        -1.25925582E-20
   1.71200001        -1.35648525E-20
   1.72000003        -1.12122143E-20
   1.72800004        -5.45035283E-21
   1.73599994         3.52390694E-21
   1.74399996         1.51959654E-20
   1.75199997         2.87105473E-20
   1.75999999         4.28688291E-20
   1.76800001         5.61496791E-20
   1.77600002         6.67569716E-20
   1.78400004         7.26903122E-20
   1.79200006         7.18372241E-20
   1.79999995         6.20831814E-20
   1.80799997         4.14382041E-20
   1.81599998         8.17464875E-21
   1.82400000        -3.90278192E-20
   1.83200002        -1.00940663E-19
   1.84000003        -1.77657419E-19
   1.84800005        -2.68488067E-19
   1.85599995        -3.71882205E-19
   1.86399996        -4.85386326E-19
   1.87199998        -6.05641534E-19
   1.88000000        -7.28422020E-19
   1.88800001        -8.48721792E-19
   1.89600003        -9.60887845E-19
   1.90400004        -1.05879946E-18
   1.91199994        -1.13609814E-18
   1.91999996        -1.18644294E-18
   1.92799997        -1.20380153E-18
   1.93599999        -1.18274999E-18
   1.94400001        -1.11878184E-18
   1.95200002        -1.00860396E-18
   1.96000004        -8.50413324E-19
   1.96800005        -6.44135728E-19
   1.97599995        -3.91610566E-19
   1.98399997        -9.67001407E-20
   1.99199998         2.34680730E-19
   2.00000000         5.94630467E-19
   2.00799990         9.73418804E-19
   2.01600003         1.35973841E-18
   2.02399993         1.74104376E-18
   2.03200006         2.10396987E-18
   2.03999996         2.43481999E-18
   2.04800010         2.72010672E-18
   2.05599999         2.94712872E-18
   2.06399989         3.10452444E-18
   2.07200003         3.18283487E-18
   2.07999992         3.17497169E-18
   2.08800006         3.07663625E-18
   2.09599996         2.88663038E-18
   2.10400009         2.60705099E-18
   2.11199999         2.24337503E-18
   2.11999989         1.80436898E-18
   2.12800002         1.30187661E-18
   2.13599992         7.50453355E-19
   2.14400005         1.66880638E-19
   2.15199995        -4.30432789E-19
   2.16000009        -1.02212351E-18
   2.16799998        -1.58861422E-18
   2.17600012        -2.11087952E-18
   2.18400002        -2.57121256E-18
   2.19199991        -2.95396826E-18
   2.20000005        -3.24621324E-18
   2.20799994        -3.43830732E-18
   2.21600008        -3.52431301E-18
   2.22399998        -3.50229181E-18
   2.23200011        -3.37439170E-18
   2.24000001        -3.14680247E-18
   2.24799991        -2.82949867E-18
   2.25600004        -2.43583721E-18
   2.26399994        -1.98199092E-18
   2.27200007        -1.48626055E-18
   2.27999997        -9.68263504E-19
   2.28800011        -4.48084410E-19
   2.29600000         5.46196277E-20
   2.30399990         5.21471253E-19
   2.31200004         9.36161141E-19
   2.31999993         1.28512455E-18
   2.32800007         1.55808505E-18
   2.33599997         1.74843730E-18
   2.34400010         1.85345512E-18
   2.35200000         1.87430173E-18
   2.35999990         1.81584921E-18
   2.36800003         1.68631935E-18
   2.37599993         1.49676005E-18
   2.38400006         1.26040043E-18
   2.39199996         9.91931933E-19
   2.40000010         7.06729880E-19
   2.40799999         4.20075454E-19
   2.41599989         1.46400861E-19
   2.42400002        -1.01399800E-19
   2.43199992        -3.12552340E-19
   2.44000006        -4.78853047E-19
   2.44799995        -5.94965527E-19
   2.45600009        -6.58559845E-19
   2.46399999        -6.70294591E-19
   2.47199988        -6.33649507E-19
   2.48000002        -5.54614726E-19
   2.48799992        -4.41259032E-19
   2.49600005        -3.03199848E-19
   2.50399995        -1.51007094E-19
   2.51200008         4.42216854E-21
   2.51999998         1.52483896E-19
   2.52800012         2.83458046E-19
   2.53600001         3.89042067E-19
   2.54399991         4.62804709E-19
   2.55200005         5.00529263E-19
   2.55999994         5.00428451E-19
   2.56800008         4.63209407E-19
   2.57599998         3.91985072E-19
   2.58400011         2.92045835E-19
   2.59200001         1.70502630E-19
   2.59999990         3.58235024E-20
   2.60800004        -1.02709175E-19
   2.61599994        -2.35597143E-19
   2.62400007        -3.53740480E-19
   2.63199997        -4.49031170E-19
   2.64000010        -5.14876298E-19
   2.64800000        -5.46620026E-19
   2.65599990        -5.41833700E-19
   2.66400003        -5.00461590E-19
   2.67199993        -4.24814398E-19
   2.68000007        -3.19413028E-19
   2.68799996        -1.90695116E-19
   2.69600010        -4.65970549E-20
   2.70400000         1.03954579E-19
   2.71199989         2.51609498E-19
   2.72000003         3.87176258E-19
   2.72799993         5.02186003E-19
   2.73600006         5.89403565E-19
   2.74399996         6.43260467E-19
   2.75200009         6.60186702E-19
   2.75999999         6.38816956E-19
   2.76799989         5.80062783E-19
   2.77600002         4.87041980E-19
   2.78399992         3.64883249E-19
   2.79200006         2.20414811E-19
   2.79999995         6.17690789E-20
   2.80800009        -1.02082560E-19
   2.81599998        -2.61839913E-19
   2.82399988        -4.08409390E-19
   2.83200002        -5.33431820E-19
   2.83999991        -6.29767032E-19
   2.84800005        -6.91901893E-19
   2.85599995        -7.16259053E-19
   2.86400008        -7.01386656E-19
   2.87199998        -6.48038624E-19
   2.88000011        -5.59134028E-19
   2.88800001        -4.39599139E-19
   2.89599991        -2.96096848E-19
   2.90400004        -1.36645739E-19
   2.91199994         2.98435165E-20
   2.92000008         1.94088625E-19
   2.92799997         3.46971816E-19
   2.93600011         4.80062644E-19
   2.94400001         5.86092361E-19
   2.95199990         6.59367018E-19
   2.96000004         6.96085514E-19
   2.96799994         6.94552903E-19
   2.97600007         6.55263168E-19
   2.98399997         5.80853929E-19
   2.99200010         4.75929998E-19
   3.00000000         3.46773371E-19
   3.00799990         2.00954082E-19
   3.01600003         4.68698371E-20
   3.02399993        -1.06763064E-19
   3.03200006        -2.51432430E-19
   3.03999996        -3.79329959E-19
   3.04800010        -4.83795089E-19
   3.05599999        -5.59671695E-19
   3.06399989        -6.03567068E-19
   3.07200003        -6.13997402E-19
   3.07999992        -5.91426642E-19
   3.08800006        -5.38187126E-19
   3.09599996        -4.58287941E-19
   3.10400009        -3.57123494E-19
   3.11199999        -2.41097196E-19
   3.11999989        -1.17198465E-19
   3.12800002         7.43537708E-21
   3.13599992         1.25940588E-19
   3.14400005         2.32110861E-19
   3.15199995         3.20729641E-19
   3.16000009         3.87835443E-19
   3.16799998         4.30904050E-19
   3.17600012         4.48934596E-19
   3.18400002         4.42426650E-19
   3.19199991         4.13256436E-19
   3.20000005         3.64469142E-19
   3.20799994         3.00011351E-19
   3.21600008         2.24431885E-19
   3.22399998         1.42571106E-19
   3.23200011         5.92555937E-20
   3.24000001        -2.09828063E-20
   3.24799991        -9.41493807E-20
   3.25600004        -1.56973315E-19
   3.26399994        -2.07028521E-19
   3.27200007        -2.42787410E-19
   3.27999997        -2.63612509E-19
   3.28800011        -2.69697224E-19
   3.29600000        -2.61964946E-19
   3.30399990        -2.41938232E-19
   3.31200004        -2.11588523E-19
   3.31999993        -1.73179438E-19
   3.32800007        -1.29119171E-19
   3.33599997        -8.18316338E-20
   3.34400010        -3.36518916E-20
   3.35200000         1.32559247E-20
   3.35999990         5.69627201E-20
   3.36800003         9.58235102E-20
   3.37599993         1.28510431E-19
   3.38400006         1.54029599E-19
   3.39199996         1.71721907E-19
   3.40000010         1.81254763E-19
   3.40799999         1.82613937E-19
   3.41599989         1.76098468E-19
   3.42400002         1.62318634E-19
   3.43199992         1.42187177E-19
   3.44000006         1.16897436E-19
   3.44799995         8.78799397E-20
   3.45600009         5.67419469E-20
   3.46399999         2.51919148E-20
   3.47199988        -5.04539946E-21
   3.48000002        -3.23222957E-20
   3.48799992        -5.51681583E-20
   3.49600005        -7.23909246E-20
   3.50399995        -8.31714790E-20
   3.51200008        -8.71384627E-20
   3.51999998        -8.44140077E-20
   3.52800012        -7.56248066E-20
   3.53600001        -6.18758822E-20
   3.54399991        -4.46877573E-20
   3.55200005        -2.58964029E-20
   3.55999994        -7.51844007E-21
   3.56800008         8.41077893E-21
   3.57599998         2.00108626E-20
   3.58400011         2.57233913E-20
   3.59200001         2.44539001E-20
   3.59999990         1.56795106E-20
   3.60800004        -4.82579461E-22
   3.61599994        -2.32468674E-20
   3.62400007        -5.11766758E-20
   3.63199997        -8.22551245E-20
   3.64000010        -1.14015836E-19
   3.64800000        -1.43730322E-19
   3.65599990        -1.68633615E-19
   3.66400003        -1.86163201E-19
   3.67199993        -1.94183053E-19
   3.68000007        -1.91176484E-19
   3.68799996        -1.76396925E-19
   3.69600010        -1.49973222E-19
   3.70400000        -1.12960948E-19
   3.71199989        -6.73243722E-20
   3.72000003        -1.58357104E-20
   3.72799993         3.81126828E-20
   3.73600006         9.07702768E-20
   3.74399996         1.38337841E-19
   3.75200009         1.77289207E-19
