 -0.239999995         0.00000000    
 -0.231999993         0.00000000    
 -0.224000007         0.00000000    
 -0.216000006         0.00000000    
 -0.208000004         6.68056949E-34
 -0.200000003        -3.85297572E-29
 -0.192000002        -1.13613882E-28
 -0.184000000         5.74464073E-28
 -0.175999999         2.68689106E-27
 -0.167999998         1.39660582E-27
 -0.159999996        -1.08906755E-26
 -0.151999995        -2.10492865E-26
 -0.143999994         8.24121216E-27
 -0.136000007         6.90815417E-26
 -0.128000006         5.59619467E-26
 -0.119999997        -9.82896899E-26
 -0.112000003        -2.17860037E-25
 -0.104000002        -2.91275488E-26
  -9.60000008E-02     3.54097745E-25
  -8.79999995E-02     3.69713690E-25
  -7.99999982E-02    -2.20767901E-25
  -7.19999969E-02    -7.28928628E-25
  -6.40000030E-02    -3.00493143E-25
  -5.60000017E-02     7.25110590E-25
  -4.80000004E-02     9.60173982E-25
  -3.99999991E-02    -1.60663973E-25
  -3.20000015E-02    -1.32673349E-24
  -2.40000002E-02    -9.04161801E-25
  -1.60000008E-02     8.01024499E-25
  -8.00000038E-03     1.74321615E-24
   0.00000000         7.00321820E-25
   8.00000038E-03    -1.17476574E-24
   1.60000008E-02    -1.81380816E-24
   2.40000002E-02    -6.83686962E-25
   3.20000015E-02     8.71859525E-25
   3.99999991E-02     1.45270718E-24
   4.80000004E-02     9.64231587E-25
   5.60000017E-02     9.24867428E-26
   6.40000030E-02    -7.23928137E-25
   7.19999969E-02    -1.25570751E-24
   7.99999982E-02    -1.05563227E-24
   8.79999995E-02     3.02689627E-26
   9.60000008E-02     1.15358197E-24
  0.104000002         1.21103116E-24
  0.112000003         3.25859335E-25
  0.119999997        -3.40315359E-25
  0.128000006        -3.31169355E-25
  0.136000007        -3.40011672E-25
  0.143999994        -6.67153226E-25
  0.151999995        -5.91386538E-25
  0.159999996         1.35379082E-25
  0.167999998         6.22894629E-25
  0.175999999         4.94076009E-25
  0.184000000         6.13530061E-25
  0.192000002         1.08885090E-24
  0.200000003         4.49754846E-25
  0.208000004        -1.62103146E-24
  0.216000006        -2.76807939E-24
  0.224000007        -1.27767738E-24
  0.231999993         1.08135081E-24
  0.239999995         1.95216844E-24
  0.247999996         1.82655102E-24
  0.256000012         1.84438480E-24
  0.263999999         6.19331936E-25
  0.272000015        -2.73910887E-24
  0.280000001        -4.81323876E-24
  0.287999988        -2.01419165E-24
  0.296000004         3.08046910E-24
  0.303999990         4.66226616E-24
  0.312000006         1.78816663E-24
  0.319999993        -1.48358625E-24
  0.328000009        -2.69667170E-24
  0.335999995        -2.57366817E-24
  0.344000012        -1.08241932E-24
  0.351999998         2.25156167E-24
  0.360000014         4.66245115E-24
  0.368000001         2.52462804E-24
  0.375999987        -2.43103817E-24
  0.384000003        -4.59607363E-24
  0.391999990        -2.29983443E-24
  0.400000006         6.29232534E-25
  0.407999992         1.17703332E-24
  0.416000009         4.40119699E-25
  0.423999995         3.67233684E-25
  0.432000011         1.17344164E-24
  0.439999998         2.28548466E-24
  0.448000014         2.90921804E-24
  0.456000000         1.62453439E-24
  0.463999987        -1.68130398E-24
  0.472000003        -4.80776170E-24
  0.479999989        -5.17107474E-24
  0.488000005        -2.53387093E-24
  0.495999992         1.44792579E-24
  0.504000008         4.25618739E-24
  0.512000024         3.70248474E-24
  0.519999981         4.66466075E-25
  0.527999997        -1.38907677E-24
  0.536000013         3.33001854E-25
  0.544000030         1.76243201E-24
  0.551999986        -4.54383881E-25
  0.560000002        -2.75110508E-24
  0.568000019        -9.07786420E-25
  0.575999975         1.38110612E-24
  0.583999991        -9.17647181E-25
  0.592000008        -3.83088842E-24
  0.600000024        -7.25559551E-25
  0.607999980         4.51986691E-24
  0.615999997         3.40969980E-24
  0.624000013        -1.79162933E-24
  0.632000029        -1.25364671E-24
  0.639999986         5.27428457E-24
  0.648000002         6.99235420E-24
  0.656000018        -6.93144862E-25
  0.663999975        -9.45259601E-24
  0.671999991        -1.08055524E-23
  0.680000007        -5.55108324E-24
  0.688000023         1.25024041E-24
  0.695999980         6.59221555E-24
  0.703999996         8.19509098E-24
  0.712000012         5.05837176E-24
  0.720000029         3.64927055E-27
  0.727999985        -1.93486439E-24
  0.736000001         4.14188263E-25
  0.744000018         3.46008198E-24
  0.751999974         3.71287719E-24
  0.759999990         2.38674206E-25
  0.768000007        -5.69342530E-24
  0.776000023        -1.03396709E-23
  0.783999979        -9.43174720E-24
  0.791999996        -3.15767136E-24
  0.800000012         2.96995639E-24
  0.808000028         4.49648468E-24
  0.815999985         2.33002020E-24
  0.824000001         5.80560605E-25
  0.832000017         2.23342773E-24
  0.839999974         6.70703110E-24
  0.847999990         9.72307905E-24
  0.856000006         6.81180208E-24
  0.864000022        -1.12631134E-24
  0.871999979        -8.04508277E-24
  0.879999995        -1.00087390E-23
  0.888000011        -8.65199606E-24
  0.896000028        -5.77278550E-24
  0.903999984        -5.43241568E-25
  0.912000000         5.50222159E-24
  0.920000017         7.30334605E-24
  0.927999973         3.95657920E-24
  0.935999990         1.04963012E-24
  0.944000006         1.85841588E-24
  0.952000022         2.42475411E-24
  0.959999979        -9.32301456E-25
  0.967999995        -5.55642698E-24
  0.976000011        -7.46786062E-24
  0.984000027        -6.65911648E-24
  0.991999984        -4.34709335E-24
   1.00000000        -1.79340821E-25
   1.00800002         5.17665238E-24
   1.01600003         9.07383470E-24
   1.02400005         1.02369975E-23
   1.03199995         9.52334421E-24
   1.03999996         7.26759724E-24
   1.04799998         3.31363705E-24
   1.05599999        -1.38251345E-24
   1.06400001        -6.20700609E-24
   1.07200003        -1.17076914E-23
   1.08000004        -1.61975595E-23
   1.08800006        -1.54613424E-23
   1.09599996        -8.89997922E-24
   1.10399997        -1.50890356E-24
   1.11199999         3.38868297E-24
   1.12000000         8.12411164E-24
   1.12800002         1.42567802E-23
   1.13600004         1.80599102E-23
   1.14400005         1.63483329E-23
   1.15199995         1.12770767E-23
   1.15999997         5.71601867E-24
   1.16799998        -1.20472116E-24
   1.17600000        -1.04906123E-23
   1.18400002        -1.94657629E-23
   1.19200003        -2.40964095E-23
   1.20000005        -2.21015996E-23
   1.20799994        -1.32315971E-23
   1.21599996        -4.30678611E-26
   1.22399998         1.19895340E-23
   1.23199999         1.86883988E-23
   1.24000001         2.05354030E-23
   1.24800003         1.92459279E-23
   1.25600004         1.39925655E-23
   1.26400006         4.65901053E-24
   1.27199996        -4.76757042E-24
   1.27999997        -1.04099466E-23
   1.28799999        -1.29956630E-23
   1.29600000        -1.45166468E-23
   1.30400002        -1.41075198E-23
   1.31200004        -1.07042903E-23
   1.32000005        -5.65016851E-24
   1.32799995         2.60666070E-25
   1.33599997         7.90602868E-24
   1.34399998         1.53904159E-23
   1.35200000         1.74977127E-23
   1.36000001         1.24691607E-23
   1.36800003         4.58396896E-24
   1.37600005        -2.30875369E-24
   1.38399994        -8.65649572E-24
   1.39199996        -1.43230792E-23
   1.39999998        -1.54530262E-23
   1.40799999        -9.65957181E-24
   1.41600001         2.00189232E-26
   1.42400002         9.03206767E-24
   1.43200004         1.54114675E-23
   1.44000006         1.79830041E-23
   1.44799995         1.49017876E-23
   1.45599997         6.85303505E-24
   1.46399999        -1.72634695E-24
   1.47200000        -7.55666269E-24
   1.48000002        -1.21447771E-23
   1.48800004        -1.81394321E-23
   1.49600005        -2.41296285E-23
   1.50399995        -2.56081920E-23
   1.51199996        -1.98545498E-23
   1.51999998        -7.76912345E-24
   1.52800000         8.08408011E-24
   1.53600001         2.47387821E-23
   1.54400003         3.83035041E-23
   1.55200005         4.43355764E-23
   1.55999994         4.00909904E-23
   1.56799996         2.64057809E-23
   1.57599998         7.37307110E-24
   1.58399999        -1.19143059E-23
   1.59200001        -2.80912800E-23
   1.60000002        -4.06178169E-23
   1.60800004        -4.96414927E-23
   1.61600006        -5.25908606E-23
   1.62399995        -4.46354413E-23
   1.63199997        -2.39754140E-23
   1.63999999         4.52300105E-24
   1.64800000         3.18424399E-23
   1.65600002         5.01960556E-23
   1.66400003         5.60741453E-23
   1.67200005         5.07692545E-23
   1.67999995         3.93657779E-23
   1.68799996         2.66003014E-23
   1.69599998         1.21785924E-23
   1.70400000        -7.52132804E-24
   1.71200001        -3.19058138E-23
   1.72000003        -5.30052997E-23
   1.72800004        -6.12582047E-23
   1.73599994        -5.26587437E-23
   1.74399996        -3.07010149E-23
   1.75199997        -4.60535419E-24
   1.75999999         1.52413906E-23
   1.76800001         2.47344954E-23
   1.77600002         2.89156681E-23
   1.78400004         3.36832720E-23
   1.79200006         3.66317722E-23
   1.79999995         3.11036432E-23
   1.80799997         1.66068426E-23
   1.81599998        -1.28998716E-24
   1.82400000        -1.86090110E-23
   1.83200002        -3.29087179E-23
   1.84000003        -3.82767081E-23
   1.84800005        -2.96428748E-23
   1.85599995        -1.16817213E-23
   1.86399996         4.55509744E-24
   1.87199998         1.38636687E-23
   1.88000000         1.94938905E-23
   1.88800001         2.46459143E-23
   1.89600003         2.76982727E-23
   1.90400004         2.52443284E-23
   1.91199994         1.50277640E-23
   1.91999996        -2.84140736E-24
   1.92799997        -2.37338207E-23
   1.93599999        -3.94498957E-23
   1.94400001        -4.43602172E-23
   1.95200002        -3.88029067E-23
   1.96000004        -2.57970785E-23
   1.96800005        -8.38896459E-24
   1.97599995         9.45335883E-24
   1.98399997         2.45780533E-23
   1.99199998         3.77362122E-23
   2.00000000         4.99098789E-23
   2.00799990         5.60723972E-23
   2.01600003         4.86820169E-23
   2.02399993         2.73405274E-23
   2.03200006        -1.24054195E-25
   2.03999996        -2.52821953E-23
   2.04800010        -4.33789689E-23
   2.05599999        -5.26669447E-23
   2.06399989        -5.45086730E-23
   2.07200003        -5.18180388E-23
   2.07999992        -4.39733283E-23
   2.08800006        -2.71731848E-23
   2.09599996        -2.38837776E-24
   2.10400009         2.28316209E-23
   2.11199999         4.28561813E-23
   2.11999989         5.72151348E-23
   2.12800002         6.36037722E-23
   2.13599992         5.69530437E-23
   2.14400005         3.87719644E-23
   2.15199995         1.81198699E-23
   2.16000009        -2.48098727E-25
   2.16799998        -1.95163746E-23
   2.17600012        -3.97784910E-23
   2.18400002        -5.33671786E-23
   2.19199991        -5.50651165E-23
   2.20000005        -4.79952599E-23
   2.20799994        -3.58687733E-23
   2.21600008        -1.79545105E-23
   2.22399998         4.65027429E-24
   2.23200011         2.53412857E-23
   2.24000001         3.81611084E-23
   2.24799991         4.25078298E-23
   2.25600004         4.00297905E-23
   2.26399994         3.16509833E-23
   2.27200007         1.88759284E-23
   2.27999997         4.25102785E-24
   2.28800011        -9.94979689E-24
   2.29600000        -2.16008386E-23
   2.30399990        -2.83258431E-23
   2.31200004        -2.88970857E-23
   2.31999993        -2.36119874E-23
   2.32800007        -1.31311175E-23
   2.33599997         5.74713815E-25
   2.34400010         1.28837923E-23
   2.35200000         1.97604955E-23
   2.35999990         2.14162988E-23
   2.36800003         1.95790828E-23
   2.37599993         1.35942649E-23
   2.38400006         3.12803563E-24
   2.39199996        -8.54395525E-24
   2.40000010        -1.83788561E-23
   2.40799999        -2.67018909E-23
   2.41599989        -3.22948106E-23
   2.42400002        -2.95925044E-23
   2.43199992        -1.59702240E-23
   2.44000006         3.10366950E-24
   2.44799995         2.07048015E-23
   2.45600009         3.46475535E-23
   2.46399999         4.32336671E-23
   2.47199988         4.22133607E-23
   2.48000002         3.12365221E-23
   2.48799992         1.66602438E-23
   2.49600005         2.88996944E-24
   2.50399995        -1.26301979E-23
   2.51200008        -3.12374056E-23
   2.51999998        -4.65006304E-23
   2.52800012        -5.09244582E-23
   2.53600001        -4.40497815E-23
   2.54399991        -2.99998091E-23
   2.55200005        -1.20886883E-23
   2.55999994         6.66842740E-24
   2.56800008         2.23644039E-23
   2.57599998         3.30377187E-23
   2.58400011         3.96871630E-23
   2.59200001         4.26035187E-23
   2.59999990         3.96459245E-23
   2.60800004         2.93299084E-23
   2.61599994         1.32982969E-23
   2.62400007        -4.83803502E-24
   2.63199997        -2.12336680E-23
   2.64000010        -3.25944199E-23
   2.64800000        -3.71685131E-23
   2.65599990        -3.53198208E-23
   2.66400003        -2.85508956E-23
   2.67199993        -1.83323764E-23
   2.68000007        -6.10250490E-24
   2.68799996         6.37462247E-24
   2.69600010         1.68385610E-23
   2.70400000         2.26771399E-23
   2.71199989         2.25867270E-23
   2.72000003         1.84385792E-23
   2.72799993         1.35593562E-23
   2.73600006         8.89498967E-24
   2.74399996         3.29513590E-24
   2.75200009        -2.51911942E-24
   2.75999999        -6.21762101E-24
   2.76799989        -8.20043315E-24
   2.77600002        -1.09101506E-23
   2.78399992        -1.30353774E-23
   2.79200006        -9.84288257E-24
   2.79999995        -1.06284038E-24
   2.80800009         6.70452331E-24
   2.81599998         7.95702933E-24
   2.82399988         4.41326932E-24
   2.83200002         8.72457974E-25
   2.83999991        -9.64619509E-25
   2.84800005        -2.04016805E-24
   2.85599995        -2.60201490E-24
   2.86400008        -2.26893179E-24
   2.87199998        -1.74200624E-24
   2.88000011        -2.32623919E-24
   2.88800001        -4.10813358E-24
   2.89599991        -5.55123233E-24
   2.90400004        -4.79736254E-24
   2.91199994        -1.27216137E-24
   2.92000008         3.98001310E-24
   2.92799997         9.53462097E-24
   2.93600011         1.42861053E-23
   2.94400001         1.66312941E-23
   2.95199990         1.45874944E-23
   2.96000004         8.20851818E-24
   2.96799994         4.33772524E-25
   2.97600007        -5.90684373E-24
   2.98399997        -1.04493194E-23
   2.99200010        -1.37173350E-23
   3.00000000        -1.55400266E-23
   3.00799990        -1.62342021E-23
   3.01600003        -1.65954199E-23
   3.02399993        -1.54567923E-23
   3.03200006        -1.02587700E-23
   3.03999996        -1.10495096E-24
   3.04800010         8.88643132E-24
   3.05599999         1.76702445E-23
   3.06399989         2.48552543E-23
   3.07200003         2.81762120E-23
   3.07999992         2.45107114E-23
   3.08800006         1.53110439E-23
   3.09599996         5.95331474E-24
   3.10400009        -1.47657860E-24
   3.11199999        -9.76768125E-24
   3.11999989        -1.97221285E-23
   3.12800002        -2.67179647E-23
   3.13599992        -2.63451569E-23
   3.14400005        -1.97250977E-23
   3.15199995        -1.11857968E-23
   3.16000009        -3.35972507E-24
   3.16799998         3.81627082E-24
   3.17600012         1.08930237E-23
   3.18400002         1.69795100E-23
   3.19199991         1.98341420E-23
   3.20000005         1.79963185E-23
   3.20799994         1.25527405E-23
   3.21600008         5.59716534E-24
   3.22399998        -2.18192399E-24
   3.23200011        -1.00456837E-23
   3.24000001        -1.45641804E-23
   3.24799991        -1.23990940E-23
   3.25600004        -5.50138697E-24
   3.26399994         5.41404459E-25
   3.27200007         3.46326582E-24
   3.27999997         5.62478612E-24
   3.28800011         8.36226007E-24
   3.29600000         9.49292652E-24
   3.30399990         7.13244406E-24
   3.31200004         2.01914451E-24
   3.31999993        -4.78115066E-24
   3.32800007        -1.27985014E-23
   3.33599997        -1.97678572E-23
   3.34400010        -2.16206516E-23
   3.35200000        -1.65284866E-23
   3.35999990        -7.14115467E-24
   3.36800003         2.27726710E-24
   3.37599993         9.82879115E-24
   3.38400006         1.65834765E-23
   3.39199996         2.39130483E-23
   3.40000010         3.04930365E-23
   3.40799999         3.20656339E-23
   3.41599989         2.47962349E-23
   3.42400002         9.13871772E-24
   3.43199992        -9.95460736E-24
   3.44000006        -2.63800751E-23
   3.44799995        -3.60912573E-23
   3.45600009        -3.80034751E-23
   3.46399999        -3.33420455E-23
   3.47199988        -2.43061740E-23
   3.48000002        -1.28072830E-23
   3.48799992        -2.04324638E-25
   3.49600005         1.22283325E-23
   3.50399995         2.34104461E-23
   3.51200008         3.24695464E-23
   3.51999998         3.75473936E-23
   3.52800012         3.56405211E-23
   3.53600001         2.55710682E-23
   3.54399991         1.04334649E-23
   3.55200005        -4.96893347E-24
   3.55999994        -1.82037858E-23
   3.56800008        -2.86129001E-23
   3.57599998        -3.41469329E-23
   3.58400011        -3.22824444E-23
   3.59200001        -2.37265900E-23
   3.59999990        -1.22102896E-23
   3.60800004        -5.51359933E-25
   3.61599994         1.05915124E-23
   3.62400007         2.01453019E-23
   3.63199997         2.54680493E-23
   3.64000010         2.46384643E-23
   3.64800000         1.84804409E-23
   3.65599990         9.74892372E-24
   3.66400003         9.33676342E-25
   3.67199993        -7.01508286E-24
   3.68000007        -1.40774406E-23
   3.68799996        -1.94572905E-23
   3.69600010        -2.10057693E-23
   3.70400000        -1.69619957E-23
   3.71199989        -7.84966930E-24
   3.72000003         3.88662026E-24
   3.72799993         1.52085220E-23
   3.73600006         2.29307240E-23
   3.74399996         2.43665565E-23
   3.75200009         1.90696096E-23
