 -0.239999995         0.00000000    
 -0.231999993         0.00000000    
 -0.224000007         0.00000000    
 -0.216000006         0.00000000    
 -0.208000004        -2.67298444E-30
 -0.200000003         1.37881004E-24
 -0.192000002         1.37052779E-24
 -0.184000000        -1.45504968E-23
 -0.175999999        -4.22144903E-23
 -0.167999998        -1.22468604E-23
 -0.159999996         1.31710703E-22
 -0.151999995         2.37653498E-22
 -0.143999994        -9.12055735E-25
 -0.136000007        -5.45760076E-22
 -0.128000006        -7.15454179E-22
 -0.119999997         1.06513514E-22
 -0.112000003         1.35612899E-21
 -0.104000002         1.51042110E-21
  -9.60000008E-02    -6.18296430E-23
  -8.79999995E-02    -1.92762890E-21
  -7.99999982E-02    -2.06866542E-21
  -7.19999969E-02    -3.94142045E-22
  -6.40000030E-02     1.15904291E-21
  -5.60000017E-02     1.25542712E-21
  -4.80000004E-02     8.56029041E-22
  -3.99999991E-02     1.44296225E-21
  -3.20000015E-02     2.28115976E-21
  -2.40000002E-02     9.77083774E-22
  -1.60000008E-02    -2.90287666E-21
  -8.00000038E-03    -6.12506322E-21
   0.00000000        -4.97817851E-21
   8.00000038E-03     2.35883067E-22
   1.60000008E-02     5.20940296E-21
   2.40000002E-02     6.28395217E-21
   3.20000015E-02     3.90940784E-21
   3.99999991E-02     1.00261086E-21
   4.80000004E-02    -8.17521169E-22
   5.60000017E-02    -2.15951574E-21
   6.40000030E-02    -3.82656942E-21
   7.19999969E-02    -5.30358159E-21
   7.99999982E-02    -5.19131363E-21
   8.79999995E-02    -2.37549147E-21
   9.60000008E-02     2.69586886E-21
  0.104000002         7.12019138E-21
  0.112000003         7.17953594E-21
  0.119999997         2.57485007E-21
  0.128000006        -2.14803396E-21
  0.136000007        -2.83191018E-21
  0.143999994        -1.38609581E-21
  0.151999995        -2.90581845E-21
  0.159999996        -7.56705551E-21
  0.167999998        -9.90753317E-21
  0.175999999        -7.37438625E-21
  0.184000000        -4.83114392E-21
  0.192000002        -7.30410498E-21
  0.200000003        -1.17887018E-20
  0.208000004        -1.07138832E-20
  0.216000006        -2.15775132E-21
  0.224000007         6.96990462E-21
  0.231999993         7.33252719E-21
  0.239999995        -5.28650726E-21
  0.247999996        -2.64872312E-20
  0.256000012        -4.38761186E-20
  0.263999999        -4.38079731E-20
  0.272000015        -2.36669605E-20
  0.280000001         1.89843646E-21
  0.287999988         1.22961868E-20
  0.296000004         1.35140905E-21
  0.303999990        -1.62816884E-20
  0.312000006        -2.09221183E-20
  0.319999993        -7.64010429E-21
  0.328000009         1.15294712E-20
  0.335999995         2.23471631E-20
  0.344000012         2.17535576E-20
  0.351999998         1.78676909E-20
  0.360000014         2.13631607E-20
  0.368000001         3.91887543E-20
  0.375999987         7.37381433E-20
  0.384000003         1.22589963E-19
  0.391999990         1.76099256E-19
  0.400000006         2.17879063E-19
  0.407999992         2.33044618E-19
  0.416000009         2.18594729E-19
  0.423999995         1.84236464E-19
  0.432000011         1.41744920E-19
  0.439999998         9.52345188E-20
  0.448000014         4.26347241E-20
  0.456000000        -1.70696006E-20
  0.463999987        -8.19808947E-20
  0.472000003        -1.50397268E-19
  0.479999989        -2.19772402E-19
  0.488000005        -2.81764858E-19
  0.495999992        -3.24240712E-19
  0.504000008        -3.43227221E-19
  0.512000024        -3.50556145E-19
  0.519999981        -3.64931691E-19
  0.527999997        -3.94167795E-19
  0.536000013        -4.27869563E-19
  0.544000030        -4.46260787E-19
  0.551999986        -4.32208798E-19
  0.560000002        -3.74867190E-19
  0.568000019        -2.68804334E-19
  0.575999975        -1.17085490E-19
  0.583999991         6.58077107E-20
  0.592000008         2.60477753E-19
  0.600000024         4.53761195E-19
  0.607999980         6.38496372E-19
  0.615999997         8.00457044E-19
  0.624000013         9.12492816E-19
  0.632000029         9.48720121E-19
  0.639999986         9.01436513E-19
  0.648000002         7.78108743E-19
  0.656000018         5.86795361E-19
  0.663999975         3.36915239E-19
  0.671999991         5.60905616E-20
  0.680000007        -2.07353591E-19
  0.688000023        -4.08162218E-19
  0.695999980        -5.27069612E-19
  0.703999996        -5.67673220E-19
  0.712000012        -5.41402015E-19
  0.720000029        -4.65056088E-19
  0.727999985        -3.65139210E-19
  0.736000001        -2.68689563E-19
  0.744000018        -1.88400091E-19
  0.751999974        -1.26408798E-19
  0.759999990        -9.18711314E-20
  0.768000007        -1.02554751E-19
  0.776000023        -1.65131074E-19
  0.783999979        -2.62632016E-19
  0.791999996        -3.64267129E-19
  0.800000012        -4.38885283E-19
  0.808000028        -4.57575325E-19
  0.815999985        -3.98531819E-19
  0.824000001        -2.62371376E-19
  0.832000017        -7.71875575E-20
  0.839999974         1.21918021E-19
  0.847999990         3.16294066E-19
  0.856000006         5.00450733E-19
  0.864000022         6.61347598E-19
  0.871999979         7.72814477E-19
  0.879999995         8.11248700E-19
  0.888000011         7.68610952E-19
  0.896000028         6.49592173E-19
  0.903999984         4.65811873E-19
  0.912000000         2.36946223E-19
  0.920000017        -1.02835417E-20
  0.927999973        -2.52245212E-19
  0.935999990        -4.76244171E-19
  0.944000006        -6.74680044E-19
  0.952000022        -8.34261589E-19
  0.959999979        -9.36235794E-19
  0.967999995        -9.66042731E-19
  0.976000011        -9.16824140E-19
  0.984000027        -7.82705954E-19
  0.991999984        -5.55381781E-19
   1.00000000        -2.33025102E-19
   1.00800002         1.68704740E-19
   1.01600003         6.17128074E-19
   1.02400005         1.07120644E-18
   1.03199995         1.48612830E-18
   1.03999996         1.81335010E-18
   1.04799998         2.00541192E-18
   1.05599999         2.02501197E-18
   1.06400001         1.84776639E-18
   1.07200003         1.45890837E-18
   1.08000004         8.58149169E-19
   1.08800006         7.65822423E-20
   1.09599996        -8.12417300E-19
   1.10399997        -1.70472846E-18
   1.11199999        -2.49129864E-18
   1.12000000        -3.07787475E-18
   1.12800002        -3.39206276E-18
   1.13600004        -3.38645220E-18
   1.14400005        -3.04415369E-18
   1.15199995        -2.38382596E-18
   1.15999997        -1.46016465E-18
   1.16799998        -3.60007045E-19
   1.17600000         8.04517001E-19
   1.18400002         1.90582517E-18
   1.19200003         2.81463341E-18
   1.20000005         3.41807780E-18
   1.20799994         3.63937632E-18
   1.21599996         3.45208691E-18
   1.22399998         2.88357726E-18
   1.23199999         2.00931022E-18
   1.24000001         9.41871272E-19
   1.24800003        -1.85447250E-19
   1.25600004        -1.23936037E-18
   1.26400006        -2.10274420E-18
   1.27199996        -2.67972687E-18
   1.27999997        -2.89835091E-18
   1.28799999        -2.72319852E-18
   1.29600000        -2.17222571E-18
   1.30400002        -1.31917358E-18
   1.31200004        -2.77275387E-19
   1.32000005         8.20754970E-19
   1.32799995         1.83661910E-18
   1.33599997         2.64067484E-18
   1.34399998         3.13058414E-18
   1.35200000         3.24451566E-18
   1.36000001         2.96209924E-18
   1.36800003         2.30194852E-18
   1.37600005         1.32417316E-18
   1.38399994         1.30325369E-19
   1.39199996        -1.14898644E-18
   1.39999998        -2.37288794E-18
   1.40799999        -3.40397106E-18
   1.41600001        -4.11915927E-18
   1.42400002        -4.42690727E-18
   1.43200004        -4.28629856E-18
   1.44000006        -3.71266369E-18
   1.44799995        -2.76661330E-18
   1.45599997        -1.54082272E-18
   1.46399999        -1.54810277E-19
   1.47200000         1.25023231E-18
   1.48000002         2.52797562E-18
   1.48800004         3.55014793E-18
   1.49600005         4.22087230E-18
   1.50399995         4.47779004E-18
   1.51199996         4.29257893E-18
   1.51999998         3.68099922E-18
   1.52800000         2.71344875E-18
   1.53600001         1.50907305E-18
   1.54400003         2.12066452E-19
   1.55200005        -1.03352764E-18
   1.55999994        -2.09883163E-18
   1.56799996        -2.87973666E-18
   1.57599998        -3.30755364E-18
   1.58399999        -3.35512108E-18
   1.59200001        -3.03252788E-18
   1.60000002        -2.38097239E-18
   1.60800004        -1.47503147E-18
   1.61600006        -4.24997127E-19
   1.62399995         6.37451591E-19
   1.63199997         1.58713615E-18
   1.63999999         2.32496916E-18
   1.64800000         2.77979752E-18
   1.65600002         2.90662995E-18
   1.66400003         2.69329677E-18
   1.67200005         2.16688109E-18
   1.67999995         1.38814566E-18
   1.68799996         4.39770883E-19
   1.69599998        -5.79893262E-19
   1.70400000        -1.56099135E-18
   1.71200001        -2.39560170E-18
   1.72000003        -2.99753731E-18
   1.72800004        -3.31295658E-18
   1.73599994        -3.31647024E-18
   1.74399996        -3.00483160E-18
   1.75199997        -2.39908124E-18
   1.75999999        -1.55063309E-18
   1.76800001        -5.40303313E-19
   1.77600002         5.32204852E-19
   1.78400004         1.56212614E-18
   1.79200006         2.45108050E-18
   1.79999995         3.11510201E-18
   1.80799997         3.49029893E-18
   1.81599998         3.53735889E-18
   1.82400000         3.24611129E-18
   1.83200002         2.63991177E-18
   1.84000003         1.77703583E-18
   1.84800005         7.46012326E-19
   1.85599995        -3.45243707E-19
   1.86399996        -1.38356463E-18
   1.87199998        -2.26405475E-18
   1.88000000        -2.89993062E-18
   1.88800001        -3.22779379E-18
   1.89600003        -3.21071954E-18
   1.90400004        -2.84269903E-18
   1.91199994        -2.15446408E-18
   1.91999996        -1.21593017E-18
   1.92799997        -1.30706802E-19
   1.93599999         9.77097172E-19
   1.94400001         1.98009110E-18
   1.95200002         2.76507660E-18
   1.96000004         3.24710432E-18
   1.96800005         3.37658621E-18
   1.97599995         3.13955512E-18
   1.98399997         2.55611693E-18
   1.99199998         1.68107027E-18
   2.00000000         6.03625539E-19
   2.00799990        -5.60212826E-19
   2.01600003        -1.68374733E-18
   2.02399993        -2.64830145E-18
   2.03200006        -3.35780176E-18
   2.03999996        -3.74638578E-18
   2.04800010        -3.78017528E-18
   2.05599999        -3.45686533E-18
   2.06399989        -2.80669640E-18
   2.07200003        -1.89374916E-18
   2.07999992        -8.11390303E-19
   2.08800006         3.31459000E-19
   2.09599996         1.42682018E-18
   2.10400009         2.37717191E-18
   2.11199999         3.09788218E-18
   2.11999989         3.52203827E-18
   2.12800002         3.61192302E-18
   2.13599992         3.36828132E-18
   2.14400005         2.82749813E-18
   2.15199995         2.05003377E-18
   2.16000009         1.11134652E-18
   2.16799998         9.81165260E-20
   2.17600012        -8.97028571E-19
   2.18400002        -1.78449100E-18
   2.19199991        -2.48406722E-18
   2.20000005        -2.92711115E-18
   2.20799994        -3.06272287E-18
   2.21600008        -2.87071977E-18
   2.22399998        -2.36978850E-18
   2.23200011        -1.61157479E-18
   2.24000001        -6.69496413E-19
   2.24799991         3.65162500E-19
   2.25600004         1.38457803E-18
   2.26399994         2.27569339E-18
   2.27200007         2.93800554E-18
   2.27999997         3.29333792E-18
   2.28800011         3.28754849E-18
   2.29600000         2.89796172E-18
   2.30399990         2.14723907E-18
   2.31200004         1.10689908E-18
   2.31999993        -1.16456652E-19
   2.32800007        -1.39776256E-18
   2.33599997        -2.60142057E-18
   2.34400010        -3.58897372E-18
   2.35200000        -4.23694607E-18
   2.35999990        -4.45802705E-18
   2.36800003        -4.21309390E-18
   2.37599993        -3.51408575E-18
   2.38400006        -2.42421160E-18
   2.39199996        -1.05398764E-18
   2.40000010         4.51949877E-19
   2.40799999         1.93393173E-18
   2.41599989         3.23452538E-18
   2.42400002         4.21328085E-18
   2.43199992         4.76293450E-18
   2.44000006         4.82542800E-18
   2.44799995         4.40057191E-18
   2.45600009         3.54359956E-18
   2.46399999         2.35430760E-18
   2.47199988         9.62734939E-19
   2.48000002        -4.84956916E-19
   2.48799992        -1.83937713E-18
   2.49600005        -2.96142178E-18
   2.50399995        -3.73794109E-18
   2.51200008        -4.09644034E-18
   2.51999998        -4.01319744E-18
   2.52800012        -3.51335246E-18
   2.53600001        -2.66584223E-18
   2.54399991        -1.57416762E-18
   2.55200005        -3.61695424E-19
   2.55999994         8.45482501E-19
   2.56800008         1.93078617E-18
   2.57599998         2.79228692E-18
   2.58400011         3.34732532E-18
   2.59200001         3.54194437E-18
   2.59999990         3.36052505E-18
   2.60800004         2.82719601E-18
   2.61599994         1.99857258E-18
   2.62400007         9.55106369E-19
   2.63199997        -2.04594840E-19
   2.64000010        -1.36969126E-18
   2.64800000        -2.42684183E-18
   2.65599990        -3.27122098E-18
   2.66400003        -3.81475557E-18
   2.67199993        -3.99308743E-18
   2.68000007        -3.77489125E-18
   2.68799996        -3.17039118E-18
   2.69600010        -2.23125146E-18
   2.70400000        -1.04152172E-18
   2.71199989         2.91272369E-19
   2.72000003         1.64043192E-18
   2.72799993         2.86759282E-18
   2.73600006         3.84024886E-18
   2.74399996         4.45186000E-18
   2.75200009         4.63272511E-18
   2.75999999         4.35263845E-18
   2.76799989         3.62498462E-18
   2.77600002         2.51263059E-18
   2.78399992         1.12594202E-18
   2.79200006        -3.90264976E-19
   2.79999995        -1.87349150E-18
   2.80800009        -3.15980616E-18
   2.81599998        -4.10321661E-18
   2.82399988        -4.59744668E-18
   2.83200002        -4.59042888E-18
   2.83999991        -4.08606129E-18
   2.84800005        -3.13960537E-18
   2.85599995        -1.85322103E-18
   2.86400008        -3.68437541E-19
   2.87199998         1.14919293E-18
   2.88000011         2.52989427E-18
   2.88800001         3.61813556E-18
   2.89599991         4.28966767E-18
   2.90400004         4.46792468E-18
   2.91199994         4.13488356E-18
   2.92000008         3.33148853E-18
   2.92799997         2.15033148E-18
   2.93600011         7.25572228E-19
   2.94400001        -7.80828203E-19
   2.95199990        -2.19922551E-18
   2.96000004        -3.37466798E-18
   2.96799994        -4.18394447E-18
   2.97600007        -4.54568172E-18
   2.98399997        -4.42688866E-18
   2.99200010        -3.84619174E-18
   3.00000000        -2.87059962E-18
   3.00799990        -1.60618209E-18
   3.01600003        -1.86816131E-19
   3.02399993         1.23809809E-18
   3.03200006         2.51981362E-18
   3.03999996         3.52942871E-18
   3.04800010         4.17332513E-18
   3.05599999         4.39992547E-18
   3.06399989         4.20006457E-18
   3.07200003         3.60536638E-18
   3.07999992         2.68474475E-18
   3.08800006         1.53668062E-18
   3.09599996         2.77795270E-19
   3.10400009        -9.69110537E-19
   3.11199999        -2.08570097E-18
   3.11999989        -2.96768643E-18
   3.12800002        -3.53346205E-18
   3.13599992        -3.73119502E-18
   3.14400005        -3.54393622E-18
   3.15199995        -2.99214389E-18
   3.16000009        -2.13223091E-18
   3.16799998        -1.05050790E-18
   3.17600012         1.45858968E-19
   3.18400002         1.33873051E-18
   3.19199991         2.40934014E-18
   3.20000005         3.24948929E-18
   3.20799994         3.77245603E-18
   3.21600008         3.92143581E-18
   3.22399998         3.67466343E-18
   3.23200011         3.04803586E-18
   3.24000001         2.09586371E-18
   3.24799991         9.08914329E-19
   3.25600004        -3.92207300E-19
   3.26399994        -1.66976860E-18
   3.27200007        -2.78634362E-18
   3.27999997        -3.62216559E-18
   3.28800011        -4.08757834E-18
   3.29600000        -4.13004786E-18
   3.30399990        -3.73870210E-18
   3.31200004        -2.94765811E-18
   3.31999993        -1.83566991E-18
   3.32800007        -5.19321876E-19
   3.33599997         8.60163767E-19
   3.34400010         2.15437991E-18
   3.35200000         3.22644073E-18
   3.35999990         3.96697541E-18
   3.36800003         4.30410114E-18
   3.37599993         4.20762789E-18
   3.38400006         3.69046258E-18
   3.39199996         2.80841735E-18
   3.40000010         1.65628804E-18
   3.40799999         3.58102772E-19
   3.41599989        -9.47815806E-19
   3.42400002        -2.12627004E-18
   3.43199992        -3.06148664E-18
   3.44000006        -3.66856049E-18
   3.44799995        -3.89854400E-18
   3.45600009        -3.73965170E-18
   3.46399999        -3.21757314E-18
   3.47199988        -2.39383629E-18
   3.48000002        -1.35909249E-18
   3.48799992        -2.22187718E-19
   3.49600005         9.00618224E-19
   3.50399995         1.89504411E-18
   3.51200008         2.65977569E-18
   3.51999998         3.11912935E-18
   3.52800012         3.23171111E-18
   3.53600001         2.99114031E-18
   3.54399991         2.42272723E-18
   3.55200005         1.58177116E-18
   3.55999994         5.52051811E-19
   3.56800008        -5.61272238E-19
   3.57599998        -1.64454942E-18
   3.58400011        -2.58788707E-18
   3.59200001        -3.29336460E-18
   3.59999990        -3.68311846E-18
   3.60800004        -3.71045057E-18
   3.61599994        -3.36912587E-18
   3.62400007        -2.69389564E-18
   3.63199997        -1.75292889E-18
   3.64000010        -6.39012171E-19
   3.64800000         5.37450884E-19
   3.65599990         1.65720125E-18
   3.66400003         2.60515819E-18
   3.67199993         3.28430077E-18
   3.68000007         3.62591313E-18
   3.68799996         3.59603081E-18
   3.69600010         3.19974864E-18
   3.70400000         2.48221165E-18
   3.71199989         1.52386924E-18
   3.72000003         4.30584060E-19
   3.72799993        -6.78494432E-19
   3.73600006        -1.68394730E-18
   3.74399996        -2.47997619E-18
   3.75200009        -2.98703811E-18
