 -0.239999995         0.00000000    
 -0.231999993         0.00000000    
 -0.224000007         0.00000000    
 -0.216000006         0.00000000    
 -0.208000004         7.91238059E-24
 -0.200000003         4.80907152E-23
 -0.192000002         8.52847307E-23
 -0.184000000        -6.08672958E-23
 -0.175999999        -4.93627553E-22
 -0.167999998        -8.81170909E-22
 -0.159999996        -6.90799613E-22
 -0.151999995         1.86273839E-22
 -0.143999994         1.50597399E-21
 -0.136000007         2.96496267E-21
 -0.128000006         3.32368299E-21
 -0.119999997         1.42192241E-22
 -0.112000003        -6.84011562E-21
 -0.104000002        -1.22247100E-20
  -9.60000008E-02    -9.03544570E-21
  -8.79999995E-02     2.07603754E-21
  -7.99999982E-02     1.18543278E-20
  -7.19999969E-02     1.33074232E-20
  -6.40000030E-02     9.24141932E-21
  -5.60000017E-02     5.29397813E-21
  -4.80000004E-02     4.89980618E-22
  -3.99999991E-02    -8.74126990E-21
  -3.20000015E-02    -1.85812344E-20
  -2.40000002E-02    -2.05198436E-20
  -1.60000008E-02    -1.38412293E-20
  -8.00000038E-03    -6.90245063E-21
   0.00000000        -3.84942756E-21
   8.00000038E-03     1.71608150E-21
   1.60000008E-02     1.53874157E-20
   2.40000002E-02     3.16855734E-20
   3.20000015E-02     4.12358421E-20
   3.99999991E-02     4.08786099E-20
   4.80000004E-02     2.83477736E-20
   5.60000017E-02    -4.42602697E-21
   6.40000030E-02    -5.79121878E-20
   7.19999969E-02    -1.09920245E-19
   7.99999982E-02    -1.32668991E-19
   8.79999995E-02    -1.23972557E-19
   9.60000008E-02    -1.00171210E-19
  0.104000002        -5.71089825E-20
  0.112000003         3.31657388E-20
  0.119999997         1.77782478E-19
  0.128000006         3.48970336E-19
  0.136000007         5.37166954E-19
  0.143999994         7.89264153E-19
  0.151999995         1.16619025E-18
  0.159999996         1.69283598E-18
  0.167999998         2.39119779E-18
  0.175999999         3.34222699E-18
  0.184000000         4.66976005E-18
  0.192000002         6.47941203E-18
  0.200000003         8.86427258E-18
  0.208000004         1.19605254E-17
  0.216000006         1.59380796E-17
  0.224000007         2.09315606E-17
  0.231999993         2.70337762E-17
  0.239999995         3.43600007E-17
  0.247999996         4.30481434E-17
  0.256000012         5.31571772E-17
  0.263999999         6.46001721E-17
  0.272000015         7.71898213E-17
  0.280000001         9.06891641E-17
  0.287999988         1.04773039E-16
  0.296000004         1.18980296E-16
  0.303999990         1.32759285E-16
  0.312000006         1.45555425E-16
  0.319999993         1.56838103E-16
  0.328000009         1.66085294E-16
  0.335999995         1.72809346E-16
  0.344000012         1.76617354E-16
  0.351999998         1.77223618E-16
  0.360000014         1.74385012E-16
  0.368000001         1.67811944E-16
  0.375999987         1.57108955E-16
  0.384000003         1.41748237E-16
  0.391999990         1.21042702E-16
  0.400000006         9.40942034E-17
  0.407999992         5.97473483E-17
  0.416000009         1.66141890E-17
  0.423999995        -3.68184079E-17
  0.432000011        -1.02058457E-16
  0.439999998        -1.80469369E-16
  0.448000014        -2.73045782E-16
  0.456000000        -3.80093303E-16
  0.463999987        -5.00957837E-16
  0.472000003        -6.33909452E-16
  0.479999989        -7.76075197E-16
  0.488000005        -9.23296829E-16
  0.495999992        -1.07003301E-15
  0.504000008        -1.20951837E-15
  0.512000024        -1.33414137E-15
  0.519999981        -1.43581264E-15
  0.527999997        -1.50628007E-15
  0.536000013        -1.53758016E-15
  0.544000030        -1.52269557E-15
  0.551999986        -1.45621258E-15
  0.560000002        -1.33477792E-15
  0.568000019        -1.15739800E-15
  0.575999975        -9.25711614E-16
  0.583999991        -6.44210749E-16
  0.592000008        -3.20257890E-16
  0.600000024         3.61633074E-17
  0.607999980         4.12883616E-16
  0.615999997         7.96068192E-16
  0.624000013         1.17084041E-15
  0.632000029         1.52207056E-15
  0.639999986         1.83527582E-15
  0.648000002         2.09744988E-15
  0.656000018         2.29771896E-15
  0.663999975         2.42791237E-15
  0.671999991         2.48310864E-15
  0.680000007         2.46199338E-15
  0.688000023         2.36684193E-15
  0.695999980         2.20320575E-15
  0.703999996         1.97952532E-15
  0.712000012         1.70669399E-15
  0.720000029         1.39741060E-15
  0.727999985         1.06533674E-15
  0.736000001         7.24276486E-16
  0.744000018         3.87503439E-16
  0.751999974         6.71588998E-17
  0.759999990        -2.26311798E-16
  0.768000007        -4.84573944E-16
  0.776000023        -7.01602049E-16
  0.783999979        -8.73713956E-16
  0.791999996        -9.99484584E-16
  0.800000012        -1.07953862E-15
  0.808000028        -1.11627020E-15
  0.815999985        -1.11353715E-15
  0.824000001        -1.07629396E-15
  0.832000017        -1.01015847E-15
  0.839999974        -9.21049333E-16
  0.847999990        -8.14987414E-16
  0.856000006        -6.97946943E-16
  0.864000022        -5.75623050E-16
  0.871999979        -4.53210537E-16
  0.879999995        -3.35334494E-16
  0.888000011        -2.26049641E-16
  0.896000028        -1.28745871E-16
  0.903999984        -4.60140656E-17
  0.912000000         2.03740656E-17
  0.920000017         6.94137875E-17
  0.927999973         1.00895686E-16
  0.935999990         1.15480065E-16
  0.944000006         1.14652977E-16
  0.952000022         1.00567560E-16
  0.959999979         7.59220909E-17
  0.967999995         4.38849027E-17
  0.976000011         7.92387742E-18
  0.984000027        -2.84800932E-17
  0.991999984        -6.20857680E-17
   1.00000000        -9.00487079E-17
   1.00800002        -1.10094543E-16
   1.01600003        -1.20752818E-16
   1.02400005        -1.21504904E-16
   1.03199995        -1.12741462E-16
   1.03999996        -9.56526580E-17
   1.04799998        -7.21913806E-17
   1.05599999        -4.50044751E-17
   1.06400001        -1.71455615E-17
   1.07200003         8.34706798E-18
   1.08000004         2.87359302E-17
   1.08800006         4.17022345E-17
   1.09599996         4.55477938E-17
   1.10399997         3.95440905E-17
   1.11199999         2.41237812E-17
   1.12000000         7.19873677E-19
   1.12800002        -2.84972886E-17
   1.13600004        -6.07144812E-17
   1.14400005        -9.25767836E-17
   1.15199995        -1.20587965E-16
   1.15999997        -1.41659683E-16
   1.16799998        -1.53422323E-16
   1.17600000        -1.54289447E-16
   1.18400002        -1.43589436E-16
   1.19200003        -1.21799857E-16
   1.20000005        -9.05736963E-17
   1.20799994        -5.24455272E-17
   1.21599996        -1.04753028E-17
   1.22399998         3.19935495E-17
   1.23199999         7.15968495E-17
   1.24000001         1.05345249E-16
   1.24800003         1.31006033E-16
   1.25600004         1.47302934E-16
   1.26400006         1.53962770E-16
   1.27199996         1.51697116E-16
   1.27999997         1.42108584E-16
   1.28799999         1.27486373E-16
   1.29600000         1.10512693E-16
   1.30400002         9.39155589E-17
   1.31200004         8.01112313E-17
   1.32000005         7.09184092E-17
   1.32799995         6.73884457E-17
   1.33599997         6.96964583E-17
   1.34399998         7.70705617E-17
   1.35200000         8.78639916E-17
   1.36000001         9.98238453E-17
   1.36800003         1.10408501E-16
   1.37600005         1.17013274E-16
   1.38399994         1.17195095E-16
   1.39199996         1.09020201E-16
   1.39999998         9.14047349E-17
   1.40799999         6.42329899E-17
   1.41600001         2.82971705E-17
   1.42400002        -1.47407787E-17
   1.43200004        -6.23751621E-17
   1.44000006        -1.11452225E-16
   1.44799995        -1.58526676E-16
   1.45599997        -2.00165519E-16
   1.46399999        -2.33133669E-16
   1.47200000        -2.54618236E-16
   1.48000002        -2.62544241E-16
   1.48800004        -2.55807285E-16
   1.49600005        -2.34308424E-16
   1.50399995        -1.98905637E-16
   1.51199996        -1.51401144E-16
   1.51999998        -9.44940824E-17
   1.52800000        -3.15945936E-17
   1.53600001         3.34487488E-17
   1.54400003         9.65995085E-17
   1.55200005         1.53864726E-16
   1.55999994         2.01566128E-16
   1.56799996         2.36624583E-16
   1.57599998         2.56777667E-16
   1.58399999         2.60717297E-16
   1.59200001         2.48187456E-16
   1.60000002         2.20035191E-16
   1.60800004         1.78165426E-16
   1.61600006         1.25403016E-16
   1.62399995         6.53117658E-17
   1.63199997         1.97543386E-18
   1.63999999        -6.03017446E-17
   1.64800000        -1.17351624E-16
   1.65600002        -1.65453487E-16
   1.66400003        -2.01560331E-16
   1.67200005        -2.23515769E-16
   1.67999995        -2.30284780E-16
   1.68799996        -2.22067660E-16
   1.69599998        -2.00200472E-16
   1.70400000        -1.66954442E-16
   1.71200001        -1.25377155E-16
   1.72000003        -7.90987623E-17
   1.72800004        -3.19590031E-17
   1.73599994         1.24435336E-17
   1.74399996         5.10437175E-17
   1.75199997         8.14427936E-17
   1.75999999         1.02071599E-16
   1.76800001         1.12374935E-16
   1.77600002         1.12802144E-16
   1.78400004         1.04583734E-16
   1.79200006         8.95216549E-17
   1.79999995         6.98669502E-17
   1.80799997         4.81051650E-17
   1.81599998         2.66059699E-17
   1.82400000         7.35547530E-18
   1.83200002        -8.12712231E-18
   1.84000003        -1.88574465E-17
   1.84800005        -2.45186028E-17
   1.85599995        -2.54787825E-17
   1.86399996        -2.26006109E-17
   1.87199998        -1.70291226E-17
   1.88000000        -1.00971464E-17
   1.88800001        -3.21539187E-18
   1.89600003         2.36563171E-18
   1.90400004         5.77128711E-18
   1.91199994         6.53039531E-18
   1.91999996         4.50137627E-18
   1.92799997        -1.42287383E-19
   1.93599999        -6.89844105E-18
   1.94400001        -1.50204485E-17
   1.95200002        -2.36846956E-17
   1.96000004        -3.21135866E-17
   1.96800005        -3.96030453E-17
   1.97599995        -4.55223531E-17
   1.98399997        -4.93539099E-17
   1.99199998        -5.07521727E-17
   2.00000000        -4.95467919E-17
   2.00799990        -4.56671692E-17
   2.01600003        -3.90669959E-17
   2.02399993        -2.97321568E-17
   2.03200006        -1.77368302E-17
   2.03999996        -3.25109836E-18
   2.04800010         1.34924151E-17
   2.05599999         3.21710260E-17
   2.06399989         5.22687257E-17
   2.07200003         7.30059815E-17
   2.07999992         9.33651463E-17
   2.08800006         1.12149465E-16
   2.09599996         1.28017105E-16
   2.10400009         1.39528376E-16
   2.11199999         1.45263967E-16
   2.11999989         1.44005355E-16
   2.12800002         1.34918770E-16
   2.13599992         1.17688941E-16
   2.14400005         9.25876759E-17
   2.15199995         6.05100816E-17
   2.16000009         2.30010870E-17
   2.16799998        -1.77814219E-17
   2.17600012        -5.92322067E-17
   2.18400002        -9.85478563E-17
   2.19199991        -1.32955572E-16
   2.20000005        -1.59920456E-16
   2.20799994        -1.77397432E-16
   2.21600008        -1.84080946E-16
   2.22399998        -1.79526039E-16
   2.23200011        -1.64143497E-16
   2.24000001        -1.39176129E-16
   2.24799991        -1.06647549E-16
   2.25600004        -6.91776374E-17
   2.26399994        -2.96921841E-17
   2.27200007         8.82982630E-18
   2.27999997         4.35542389E-17
   2.28800011         7.20320723E-17
   2.29600000         9.24500463E-17
   2.30399990         1.03749995E-16
   2.31200004         1.05621124E-16
   2.31999993         9.84963660E-17
   2.32800007         8.35460757E-17
   2.33599997         6.25390829E-17
   2.34400010         3.75891583E-17
   2.35200000         1.09481060E-17
   2.35999990        -1.51295834E-17
   2.36800003        -3.85716338E-17
   2.37599993        -5.77155082E-17
   2.38400006        -7.14232409E-17
   2.39199996        -7.90568738E-17
   2.40000010        -8.04594744E-17
   2.40799999        -7.59860618E-17
   2.41599989        -6.64551478E-17
   2.42400002        -5.29716207E-17
   2.43199992        -3.67557871E-17
   2.44000006        -1.90709038E-17
   2.44799995        -1.16194474E-18
   2.45600009         1.58797535E-17
   2.46399999         3.12500497E-17
   2.47199988         4.44550816E-17
   2.48000002         5.52533488E-17
   2.48799992         6.36181565E-17
   2.49600005         6.97313984E-17
   2.50399995         7.39374993E-17
   2.51200008         7.66376617E-17
   2.51999998         7.81904452E-17
   2.52800012         7.88666223E-17
   2.53600001         7.88260375E-17
   2.54399991         7.80741965E-17
   2.55200005         7.64284446E-17
   2.55999994         7.35535287E-17
   2.56800008         6.90582124E-17
   2.57599998         6.25836381E-17
   2.58400011         5.38513902E-17
   2.59200001         4.27049891E-17
   2.59999990         2.91667226E-17
   2.60800004         1.34788030E-17
   2.61599994        -3.89758943E-18
   2.62400007        -2.23117528E-17
   2.63199997        -4.09671125E-17
   2.64000010        -5.89840922E-17
   2.64800000        -7.54709135E-17
   2.65599990        -8.95794516E-17
   2.66400003        -1.00557918E-16
   2.67199993        -1.07823535E-16
   2.68000007        -1.11021793E-16
   2.68799996        -1.10021023E-16
   2.69600010        -1.04872135E-16
   2.70400000        -9.58058982E-17
   2.71199989        -8.32494487E-17
   2.72000003        -6.77782530E-17
   2.72799993        -5.00156147E-17
   2.73600006        -3.05873689E-17
   2.74399996        -1.01534435E-17
   2.75200009         1.05822878E-17
   2.75999999         3.09228700E-17
   2.76799989         5.02054063E-17
   2.77600002         6.77619079E-17
   2.78399992         8.28932713E-17
   2.79200006         9.49128343E-17
   2.79999995         1.03205598E-16
   2.80800009         1.07256824E-16
   2.81599998         1.06685229E-16
   2.82399988         1.01300866E-16
   2.83200002         9.11455031E-17
   2.83999991         7.65039761E-17
   2.84800005         5.79211055E-17
   2.85599995         3.62076178E-17
   2.86400008         1.23868584E-17
   2.87199998        -1.23827647E-17
   2.88000011        -3.68429421E-17
   2.88800001        -5.96769453E-17
   2.89599991        -7.96409229E-17
   2.90400004        -9.57124996E-17
   2.91199994        -1.07124991E-16
   2.92000008        -1.13341902E-16
   2.92799997        -1.14123303E-16
   2.93600011        -1.09630184E-16
   2.94400001        -1.00375098E-16
   2.95199990        -8.70425681E-17
   2.96000004        -7.04019375E-17
   2.96799994        -5.13492317E-17
   2.97600007        -3.08766869E-17
   2.98399997        -9.91122268E-18
   2.99200010         1.07799699E-17
   3.00000000         3.05182034E-17
   3.00799990         4.86464455E-17
   3.01600003         6.45944282E-17
   3.02399993         7.79489746E-17
   3.03200006         8.83964643E-17
   3.03999996         9.56326535E-17
   3.04800010         9.93828323E-17
   3.05599999         9.94828947E-17
   3.06399989         9.58885832E-17
   3.07200003         8.86270028E-17
   3.07999992         7.78063554E-17
   3.08800006         6.36974864E-17
   3.09599996         4.67837208E-17
   3.10400009         2.77312747E-17
   3.11199999         7.34899516E-18
   3.11999989        -1.34125161E-17
   3.12800002        -3.34822529E-17
   3.13599992        -5.17699887E-17
   3.14400005        -6.72860937E-17
   3.15199995        -7.91926241E-17
   3.16000009        -8.68266872E-17
   3.16799998        -8.97864122E-17
   3.17600012        -8.80275682E-17
   3.18400002        -8.18436718E-17
   3.19199991        -7.17666267E-17
   3.20000005        -5.85402006E-17
   3.20799994        -4.31464323E-17
   3.21600008        -2.67113114E-17
   3.22399998        -1.02997271E-17
   3.23200011         5.18540377E-18
   3.24000001         1.89610079E-17
   3.24799991         3.03924157E-17
   3.25600004         3.91516264E-17
   3.26399994         4.52723592E-17
   3.27200007         4.89938018E-17
   3.27999997         5.06146721E-17
   3.28800011         5.05142226E-17
   3.29600000         4.91712949E-17
   3.30399990         4.70311868E-17
   3.31200004         4.43694651E-17
   3.31999993         4.13092972E-17
   3.32800007         3.78791314E-17
   3.33599997         3.39775521E-17
   3.34400010         2.93486461E-17
   3.35200000         2.36847154E-17
   3.35999990         1.67512991E-17
   3.36800003         8.41357827E-18
   3.37599993        -1.35422846E-18
   3.38400006        -1.23823156E-17
   3.39199996        -2.42364085E-17
   3.40000010        -3.62699078E-17
   3.40799999        -4.77143387E-17
   3.41599989        -5.77051320E-17
   3.42400002        -6.53129503E-17
   3.43199992        -6.96797691E-17
   3.44000006        -7.01893124E-17
   3.44799995        -6.65395930E-17
   3.45600009        -5.87289566E-17
   3.46399999        -4.70619744E-17
   3.47199988        -3.21907295E-17
   3.48000002        -1.51003657E-17
   3.48799992         3.00846437E-18
   3.49600005         2.08731020E-17
   3.50399995         3.72692545E-17
   3.51200008         5.10646485E-17
   3.51999998         6.13045125E-17
   3.52800012         6.73430501E-17
   3.53600001         6.89253473E-17
   3.54399991         6.61543452E-17
   3.55200005         5.94186466E-17
   3.55999994         4.93756615E-17
   3.56800008         3.69402450E-17
   3.57599998         2.31760572E-17
   3.58400011         9.13124844E-18
   3.59200001        -4.25199207E-18
   3.59999990        -1.61532128E-17
   3.60800004        -2.59270217E-17
   3.61599994        -3.32009850E-17
   3.62400007        -3.79022428E-17
   3.63199997        -4.01818269E-17
   3.64000010        -4.03397985E-17
   3.64800000        -3.88045348E-17
   3.65599990        -3.60974042E-17
   3.66400003        -3.27406590E-17
   3.67199993        -2.91720265E-17
   3.68000007        -2.57201439E-17
   3.68799996        -2.26069868E-17
   3.69600010        -1.99340883E-17
   3.70400000        -1.76690626E-17
   3.71199989        -1.56633994E-17
   3.72000003        -1.36971704E-17
   3.72799993        -1.15267585E-17
   3.73600006        -8.91903111E-18
   3.74399996        -5.67182733E-18
   3.75200009        -1.64056416E-18
   3.75999999         3.21607429E-18
   3.76799989         8.80054659E-18
   3.77600002         1.48869912E-17
   3.78399992         2.11538174E-17
   3.79200006         2.71918669E-17
   3.79999995         3.25128766E-17
   3.80800009         3.66141473E-17
   3.81599998         3.90656955E-17
   3.82399988         3.95374201E-17
   3.83200002         3.77873772E-17
   3.83999991         3.37026336E-17
   3.84800005         2.73734579E-17
   3.85599995         1.90910556E-17
   3.86400008         9.27679417E-18
   3.87199998        -1.53678981E-18
   3.88000011        -1.26719247E-17
   3.88800001        -2.33496113E-17
   3.89599991        -3.28194297E-17
   3.90400004        -4.04235224E-17
   3.91199994        -4.55642250E-17
   3.92000008        -4.77335888E-17
   3.92799997        -4.66499194E-17
   3.93600011        -4.23231361E-17
   3.94400001        -3.49638326E-17
   3.95199990        -2.49096723E-17
   3.96000004        -1.26908630E-17
   3.96799994         9.21580325E-19
   3.97600007         1.50360309E-17
   3.98399997         2.87955633E-17
   3.99200010         4.13851364E-17
   4.00000000         5.19780511E-17
   4.00799990         5.98109816E-17
   4.01599979         6.43381544E-17
   4.02400017         6.52715251E-17
   4.03200006         6.25056846E-17
   4.03999996         5.60976752E-17
   4.04799986         4.63355246E-17
   4.05600023         3.37533332E-17
   4.06400013         1.90392344E-17
   4.07200003         2.95466681E-18
   4.07999992        -1.36617324E-17
   4.08799982        -2.98929739E-17
   4.09600019        -4.48226211E-17
   4.10400009        -5.76257888E-17
   4.11199999        -6.75882860E-17
   4.11999989        -7.41029818E-17
   4.12799978        -7.67289560E-17
   4.13600016        -7.52713115E-17
   4.14400005        -6.97803212E-17
   4.15199995        -6.04941534E-17
   4.15999985        -4.78378632E-17
   4.16800022        -3.24705779E-17
   4.17600012        -1.52537664E-17
   4.18400002         2.87096544E-18
   4.19199991         2.09501423E-17
   4.19999981         3.79877899E-17
   4.20800018         5.29625548E-17
   4.21600008         6.49649124E-17
   4.22399998         7.33062150E-17
   4.23199987         7.74931782E-17
   4.23999977         7.72008592E-17
   4.24800014         7.23687811E-17
   4.25600004         6.32946296E-17
   4.26399994         5.05723370E-17
   4.27199984         3.49729481E-17
   4.28000021         1.74332433E-17
   4.28800011        -9.16277994E-19
   4.29600000        -1.88465377E-17
   4.30399990        -3.52002342E-17
   4.31199980        -4.89727285E-17
   4.32000017        -5.93124366E-17
   4.32800007        -6.55724137E-17
   4.33599997        -6.74106208E-17
   4.34399986        -6.48245167E-17
   4.35200024        -5.81090079E-17
   4.36000013        -4.78226993E-17
   4.36800003        -3.47738259E-17
   4.37599993        -1.99670167E-17
   4.38399982        -4.50683856E-18
   4.39200020         1.04973463E-17
   4.40000010         2.40154322E-17
   4.40799999         3.51767257E-17
   4.41599989         4.33297620E-17
   4.42399979         4.80788639E-17
   4.43200016         4.93161905E-17
   4.44000006         4.72307821E-17
   4.44799995         4.22588973E-17
   4.45599985         3.50075905E-17
   4.46400023         2.62103344E-17
   4.47200012         1.66878477E-17
   4.48000002         7.25268570E-18
   4.48799992        -1.40050291E-18
   4.49599981        -8.72995748E-18
   4.50400019        -1.43327537E-17
   4.51200008        -1.79756025E-17
   4.51999998        -1.96518410E-17
   4.52799988        -1.95624757E-17
   4.53599977        -1.80255179E-17
   4.54400015        -1.54203638E-17
   4.55200005        -1.21909730E-17
   4.55999994        -8.82131131E-18
   4.56799984        -5.75098065E-18
   4.57600021        -3.30520776E-18
   4.58400011        -1.68723493E-18
   4.59200001        -9.88722059E-19
   4.59999990        -1.17565609E-18
   4.60799980        -2.07901011E-18
   4.61600018        -3.43114415E-18
   4.62400007        -4.92921559E-18
   4.63199997        -6.27556081E-18
   4.63999987        -7.18603479E-18
   4.64799976        -7.40756203E-18
   4.65600014        -6.76882598E-18
   4.66400003        -5.22455299E-18
   4.67199993        -2.84482302E-18
   4.67999983         2.27471515E-19
   4.68800020         3.78895539E-18
   4.69600010         7.56161532E-18
   4.70400000         1.12141422E-17
   4.71199989         1.44231695E-17
   4.71999979         1.69085660E-17
   4.72800016         1.84264821E-17
   4.73600006         1.87803913E-17
   4.74399996         1.78674338E-17
   4.75199986         1.56988855E-17
   4.76000023         1.23727815E-17
   4.76800013         8.05504427E-18
   4.77600002         2.98985177E-18
   4.78399992        -2.51219095E-18
   4.79199982        -8.11900271E-18
   4.80000019        -1.34969084E-17
   4.80800009        -1.82980524E-17
   4.81599998        -2.21811525E-17
   4.82399988        -2.48714863E-17
   4.83199978        -2.61825279E-17
   4.84000015        -2.59856854E-17
   4.84800005        -2.42106352E-17
   4.85599995        -2.08959968E-17
   4.86399984        -1.62014804E-17
   4.87200022        -1.03522365E-17
   4.88000011        -3.61000975E-18
   4.88800001         3.68435923E-18
   4.89599991         1.10936716E-17
   4.90399981         1.81583962E-17
   4.91200018         2.44732485E-17
   4.92000008         2.96766596E-17
   4.92799997         3.34180703E-17
   4.93599987         3.54007593E-17
   4.94399977         3.54561639E-17
   4.95200014         3.35458432E-17
   4.96000004         2.97097766E-17
   4.96799994         2.40613043E-17
   4.97599983         1.68327102E-17
   4.98400021         8.37968371E-18
   4.99200010        -8.80377218E-19
   5.00000000        -1.05180118E-17
   5.00799990        -2.00827078E-17
   5.01599979        -2.90860063E-17
   5.02400017        -3.70297956E-17
   5.03200006        -4.34566614E-17
   5.03999996        -4.79754895E-17
   5.04799986        -5.02648972E-17
   5.05600023        -5.00888797E-17
   5.06400013        -4.73329919E-17
   5.07200003        -4.20353567E-17
   5.07999992        -3.43905534E-17
   5.08799982        -2.47347964E-17
   5.09600019        -1.35352995E-17
   5.10400009        -1.38538380E-18
   5.11199999         1.10204065E-17
   5.11999989         2.29441141E-17
   5.12799978         3.36678424E-17
   5.13600016         4.25331672E-17
   5.14400005         4.89696250E-17
   5.15199995         5.25412585E-17
   5.15999985         5.30004066E-17
   5.16800022         5.03139788E-17
   5.17600012         4.46610198E-17
   5.18400002         3.64281077E-17
   5.19199991         2.62012387E-17
   5.19999981         1.47244998E-17
   5.20800018         2.82258096E-18
   5.21600008        -8.67818755E-18
   5.22399998        -1.90066600E-17
   5.23199987        -2.74947044E-17
   5.23999977        -3.36337328E-17
   5.24800014        -3.71276974E-17
   5.25600004        -3.79121095E-17
   5.26399994        -3.61321061E-17
   5.27199984        -3.21108900E-17
   5.28000021        -2.63341815E-17
   5.28800011        -1.94241893E-17
   5.29600000        -1.20636062E-17
   5.30399990        -4.89860247E-18
   5.31199980         1.50983209E-18
   5.32000017         6.69283745E-18
   5.32800007         1.03152028E-17
   5.33599997         1.22506615E-17
   5.34399986         1.25941780E-17
   5.35200024         1.15913572E-17
   5.36000013         9.59137096E-18
   5.36800003         7.06346317E-18
   5.37599993         4.56807433E-18
   5.38399982         2.63048791E-18
   5.39200020         1.63974680E-18
   5.40000010         1.86042991E-18
   5.40799999         3.45395055E-18
   5.41599989         6.41377939E-18
   5.42399979         1.05094083E-17
   5.43200016         1.53436974E-17
   5.44000006         2.04392574E-17
   5.44799995         2.52424239E-17
   5.45599985         2.91160561E-17
   5.46400023         3.14323107E-17
   5.47200012         3.16991790E-17
   5.48000002         2.95955462E-17
   5.48799992         2.49514036E-17
   5.49599981         1.77843104E-17
   5.50400019         8.36546034E-18
   5.51200008        -2.79091587E-18
   5.51999998        -1.50049488E-17
   5.52799988        -2.74804338E-17
   5.53599977        -3.93214267E-17
   5.54400015        -4.95945070E-17
   5.55200005        -5.74451260E-17
   5.55999994        -6.21890928E-17
   5.56799984        -6.33408459E-17
   5.57600021        -6.06273957E-17
   5.58400011        -5.40319571E-17
   5.59200001        -4.38365127E-17
   5.59999990        -3.06073006E-17
   5.60799980        -1.51260778E-17
   5.61600018         1.67486217E-18
   5.62400007         1.87498783E-17
   5.63199997         3.49969265E-17
   5.63999987         4.93666617E-17
   5.64799976         6.09675720E-17
   5.65600014         6.91038529E-17
   5.66400003         7.32832723E-17
   5.67199993         7.32642537E-17
   5.67999983         6.91093057E-17
   5.68800020         6.11631572E-17
   5.69600010         4.99768100E-17
   5.70400000         3.62651995E-17
   5.71199989         2.08912603E-17
   5.71999979         4.79741346E-18
   5.72800016        -1.11025911E-17
   5.73600006        -2.59791705E-17
   5.74399996        -3.90875066E-17
   5.75199986        -4.97988438E-17
   5.76000023        -5.76679552E-17
   5.76800013        -6.24509054E-17
   5.77600002        -6.40597585E-17
   5.78399992        -6.25377726E-17
   5.79199982        -5.80813867E-17
   5.80000019        -5.10378313E-17
   5.80800009        -4.18476429E-17
   5.81599998        -3.09947686E-17
   5.82399988        -1.90047972E-17
   5.83199978        -6.44684634E-18
   5.84000015         6.10245921E-18
   5.84800005         1.81024573E-17
   5.85599995         2.90556058E-17
   5.86399984         3.84928862E-17
   5.87200022         4.59840952E-17
   5.88000011         5.11806655E-17
   5.88800001         5.38488491E-17
   5.89599991         5.38637516E-17
   5.90399981         5.11954919E-17
   5.91200018         4.59337332E-17
   5.92000008         3.83297397E-17
   5.92799997         2.87897532E-17
   5.93599987         1.78188369E-17
   5.94399977         5.98812175E-18
   5.95200014        -6.05562093E-18
   5.96000004        -1.76131584E-17
   5.96799994        -2.80198995E-17
   5.97599983        -3.67151460E-17
   5.98400021        -4.32408103E-17
   5.99200010        -4.72432593E-17
   6.00000000        -4.85378168E-17
   6.00799990        -4.71576925E-17
   6.01599979        -4.33068226E-17
   6.02400017        -3.72872771E-17
   6.03200006        -2.95016976E-17
   6.03999996        -2.04786924E-17
   6.04799986        -1.08125807E-17
   6.05600023        -1.05712100E-18
   6.06400013         8.30143408E-18
   6.07200003         1.68020433E-17
   6.07999992         2.40228751E-17
   6.08799982         2.96665283E-17
   6.09600019         3.35933399E-17
   6.10400009         3.57588524E-17
   6.11199999         3.61666393E-17
   6.11999989         3.49066711E-17
   6.12799978         3.21895516E-17
   6.13600016         2.82886737E-17
   6.14400005         2.34596578E-17
   6.15199995         1.79438222E-17
   6.15999985         1.20182775E-17
   6.16800022         5.98145302E-18
   6.17600012         8.43802031E-20
   6.18400002        -5.48155304E-18
   6.19199991        -1.05266980E-17
   6.19999981        -1.48456371E-17
   6.20800018        -1.82826536E-17
   6.21600008        -2.07788084E-17
   6.22399998        -2.23294495E-17
   6.23199987        -2.29320886E-17