 -0.239999995         0.00000000    
 -0.231999993        -4.36672384E-17
 -0.224000007        -1.20025085E-16
 -0.216000006        -2.17370346E-16
 -0.208000004        -3.41483847E-16
 -0.200000003        -5.04743598E-16
 -0.192000002        -7.16016909E-16
 -0.184000000        -9.93008064E-16
 -0.175999999        -1.37180480E-15
 -0.167999998        -1.89193724E-15
 -0.159999996        -2.58047698E-15
 -0.151999995        -3.46043113E-15
 -0.143999994        -4.56507518E-15
 -0.136000007        -5.93102549E-15
 -0.128000006        -7.58190711E-15
 -0.119999997        -9.52840915E-15
 -0.112000003        -1.17772139E-14
 -0.104000002        -1.43241284E-14
  -9.60000008E-02    -1.71351360E-14
  -8.79999995E-02    -2.01392214E-14
  -7.99999982E-02    -2.32343746E-14
  -7.19999969E-02    -2.62871034E-14
  -6.40000030E-02    -2.91232899E-14
  -5.60000017E-02    -3.15296766E-14
  -4.80000004E-02    -3.32720030E-14
  -3.99999991E-02    -3.41130458E-14
  -3.20000015E-02    -3.38215750E-14
  -2.40000002E-02    -3.21847820E-14
  -1.60000008E-02    -2.90333214E-14
  -8.00000038E-03    -2.42672466E-14
   0.00000000        -1.78698846E-14
   8.00000038E-03    -9.91561840E-15
   1.60000008E-02    -5.81988344E-16
   2.40000002E-02     9.84156231E-15
   3.20000015E-02     2.09632557E-14
   3.99999991E-02     3.23148118E-14
   4.80000004E-02     4.33780412E-14
   5.60000017E-02     5.36096842E-14
   6.40000030E-02     6.24759982E-14
   7.19999969E-02     6.94983079E-14
   7.99999982E-02     7.42923450E-14
   8.79999995E-02     7.65909553E-14
   9.60000008E-02     7.62591081E-14
  0.104000002         7.33087297E-14
  0.112000003         6.79031755E-14
  0.119999997         6.03408179E-14
  0.128000006         5.10258475E-14
  0.136000007         4.04407580E-14
  0.143999994         2.91181975E-14
  0.151999995         1.76032420E-14
  0.159999996         6.41174380E-15
  0.167999998        -4.00001696E-15
  0.175999999        -1.32532365E-14
  0.184000000        -2.10624602E-14
  0.192000002        -2.72497140E-14
  0.200000003        -3.17456565E-14
  0.208000004        -3.45763288E-14
  0.216000006        -3.58476710E-14
  0.224000007        -3.57332267E-14
  0.231999993        -3.44568971E-14
  0.239999995        -3.22677269E-14
  0.247999996        -2.94171832E-14
  0.256000012        -2.61464688E-14
  0.263999999        -2.26774827E-14
  0.272000015        -1.92009494E-14
  0.280000001        -1.58675665E-14
  0.287999988        -1.27889829E-14
  0.296000004        -1.00433137E-14
  0.303999990        -7.67678327E-15
  0.312000006        -5.70397365E-15
  0.319999993        -4.11412754E-15
  0.328000009        -2.88131026E-15
  0.335999995        -1.97006862E-15
  0.344000012        -1.33617340E-15
  0.351999998        -9.29542109E-16
  0.360000014        -7.00796521E-16
  0.368000001        -6.05189053E-16
  0.375999987        -6.01420974E-16
  0.384000003        -6.50783566E-16
  0.391999990        -7.20171287E-16
  0.400000006        -7.84832565E-16
  0.407999992        -8.26740050E-16
  0.416000009        -8.31610277E-16
  0.423999995        -7.89430419E-16
  0.432000011        -6.97230829E-16
  0.439999998        -5.59304220E-16
  0.448000014        -3.84409015E-16
  0.456000000        -1.83872787E-16
  0.463999987         2.79775346E-17
  0.472000003         2.34096163E-16
  0.479999989         4.17617101E-16
  0.488000005         5.64825763E-16
  0.495999992         6.65484723E-16
  0.504000008         7.12001814E-16
  0.512000024         7.00355534E-16
  0.519999981         6.32115489E-16
  0.527999997         5.14511741E-16
  0.536000013         3.58287181E-16
  0.544000030         1.76165423E-16
  0.551999986        -1.69802842E-17
  0.560000002        -2.04532186E-16
  0.568000019        -3.70566829E-16
  0.575999975        -5.02330137E-16
  0.583999991        -5.90588376E-16
  0.592000008        -6.28984803E-16
  0.600000024        -6.14714627E-16
  0.607999980        -5.50093742E-16
  0.615999997        -4.42595308E-16
  0.624000013        -3.02888368E-16
  0.632000029        -1.43097653E-16
  0.639999986         2.33634633E-17
  0.648000002         1.81973408E-16
  0.656000018         3.19049227E-16
  0.663999975         4.24202517E-16
  0.671999991         4.90828223E-16
  0.680000007         5.15062259E-16
  0.688000023         4.95948431E-16
  0.695999980         4.37012753E-16
  0.703999996         3.46206877E-16
  0.712000012         2.33287353E-16
  0.720000029         1.07911825E-16
  0.727999985        -1.96370924E-17
  0.736000001        -1.38118900E-16
  0.744000018        -2.37825676E-16
  0.751999974        -3.12856198E-16
  0.759999990        -3.59935242E-16
  0.768000007        -3.76522530E-16
  0.776000023        -3.62114896E-16
  0.783999979        -3.20416841E-16
  0.791999996        -2.57934000E-16
  0.800000012        -1.80825917E-16
  0.808000028        -9.49426922E-17
  0.815999985        -7.87949339E-18
  0.824000001         7.20525996E-17
  0.832000017         1.39279666E-16
  0.839999974         1.91437744E-16
  0.847999990         2.26688701E-16
  0.856000006         2.43152772E-16
  0.864000022         2.41299199E-16
  0.871999979         2.24322991E-16
  0.879999995         1.95249075E-16
  0.888000011         1.55628381E-16
  0.896000028         1.07753874E-16
  0.903999984         5.59343699E-17
  0.912000000         4.30713813E-18
  0.920000017        -4.49534017E-17
  0.927999973        -9.01042746E-17
  0.935999990        -1.28166633E-16
  0.944000006        -1.56300859E-16
  0.952000022        -1.73708061E-16
  0.959999979        -1.80730811E-16
  0.967999995        -1.77003774E-16
  0.976000011        -1.62049129E-16
  0.984000027        -1.37117244E-16
  0.991999984        -1.04867344E-16
   1.00000000        -6.74251461E-17
   1.00800002        -2.61620883E-17
   1.01600003         1.66538754E-17
   1.02400005         5.74744015E-17
   1.03199995         9.31268389E-17
   1.03999996         1.21708298E-16
   1.04799998         1.41491348E-16
   1.05599999         1.50306579E-16
   1.06400001         1.46928320E-16
   1.07200003         1.32181794E-16
   1.08000004         1.07841760E-16
   1.08800006         7.53322714E-17
   1.09599996         3.65200637E-17
   1.10399997        -5.08583562E-18
   1.11199999        -4.53207923E-17
   1.12000000        -8.12026730E-17
   1.12800002        -1.10763388E-16
   1.13600004        -1.31735964E-16
   1.14400005        -1.41981264E-16
   1.15199995        -1.41113161E-16
   1.15999997        -1.30402946E-16
   1.16799998        -1.11180790E-16
   1.17600000        -8.46257912E-17
   1.18400002        -5.30439957E-17
   1.19200003        -1.98643156E-17
   1.20000005         1.19819759E-17
   1.20799994         4.06534224E-17
   1.21599996         6.43715261E-17
   1.22399998         8.11530157E-17
   1.23199999         8.99829371E-17
   1.24000001         9.12649016E-17
   1.24800003         8.58159916E-17
   1.25600004         7.43727816E-17
   1.26400006         5.83511865E-17
   1.27199996         4.00575016E-17
   1.27999997         2.16066524E-17
   1.28799999         4.23838081E-18
   1.29600000        -1.11175912E-17
   1.30400002        -2.34322351E-17
   1.31200004        -3.21016984E-17
   1.32000005        -3.72200471E-17
   1.32799995        -3.89926820E-17
   1.33599997        -3.74278614E-17
   1.34399998        -3.28413798E-17
   1.35200000        -2.60538732E-17
   1.36000001        -1.77409148E-17
   1.36800003        -8.02892770E-18
   1.37600005         3.03520339E-18
   1.38399994         1.50972737E-17
   1.39199996         2.78456457E-17
   1.39999998         4.12825462E-17
   1.40799999         5.52885271E-17
   1.41600001         6.92283072E-17
   1.42400002         8.22734815E-17
   1.43200004         9.38103415E-17
   1.44000006         1.03220348E-16
   1.44799995         1.09523756E-16
   1.45599997         1.11607840E-16
   1.46399999         1.08701617E-16
   1.47200000         1.00429428E-16
   1.48000002         8.66796476E-17
   1.48800004         6.78429120E-17
   1.49600005         4.50923912E-17
   1.50399995         2.00522659E-17
   1.51199996        -5.79467151E-18
   1.51999998        -3.10788598E-17
   1.52800000        -5.40669501E-17
   1.53600001        -7.27434608E-17
   1.54400003        -8.55180544E-17
   1.55200005        -9.15471423E-17
   1.55999994        -9.04055536E-17
   1.56799996        -8.20322094E-17
   1.57599998        -6.72392488E-17
   1.58399999        -4.77906047E-17
   1.59200001        -2.56682201E-17
   1.60000002        -2.64846151E-18
   1.60800004         1.91993103E-17
   1.61600006         3.72398201E-17
   1.62399995         4.90776978E-17
   1.63199997         5.33355008E-17
   1.63999999         4.92999711E-17
   1.64800000         3.63846113E-17
   1.65600002         1.46340923E-17
   1.66400003        -1.45843738E-17
   1.67200005        -4.90823730E-17
   1.67999995        -8.68124663E-17
   1.68799996        -1.25728396E-16
   1.69599998        -1.63033236E-16
   1.70400000        -1.95458438E-16
   1.71200001        -2.20360095E-16
   1.72000003        -2.36019616E-16
   1.72800004        -2.41086250E-16
   1.73599994        -2.34565790E-16
   1.74399996        -2.16484231E-16
   1.75199997        -1.87951211E-16
   1.75999999        -1.50484390E-16
   1.76800001        -1.05830745E-16
   1.77600002        -5.64717263E-17
   1.78400004        -5.60081677E-18
   1.79200006         4.37088158E-17
   1.79999995         8.89828691E-17
   1.80799997         1.28042305E-16
   1.81599998         1.58907669E-16
   1.82400000         1.80352307E-16
   1.83200002         1.92209021E-16
   1.84000003         1.94951290E-16
   1.84800005         1.89346698E-16
   1.85599995         1.76715703E-16
   1.86399996         1.59133999E-16
   1.87199998         1.39025993E-16
   1.88000000         1.18674147E-16
   1.88800001         1.00192788E-16
   1.89600003         8.55975696E-17
   1.90400004         7.65020835E-17
   1.91199994         7.37511720E-17
   1.91999996         7.74310338E-17
   1.92799997         8.70147285E-17
   1.93599999         1.01249885E-16
   1.94400001         1.18030957E-16
   1.95200002         1.34697826E-16
   1.96000004         1.48569619E-16
   1.96800005         1.57181072E-16
   1.97599995         1.58232054E-16
   1.98399997         1.49723013E-16
   1.99199998         1.30345784E-16
   2.00000000         9.97017402E-17
   2.00799990         5.82232316E-17
   2.01600003         7.17359234E-18
   2.02399993        -5.11672420E-17
   2.03200006        -1.13547374E-16
   2.03999996        -1.76166706E-16
   2.04800010        -2.35034729E-16
   2.05599999        -2.86052238E-16
   2.06399989        -3.25238761E-16
   2.07200003        -3.49282691E-16
   2.07999992        -3.55903101E-16
   2.08800006        -3.43786850E-16
   2.09599996        -3.12644996E-16
   2.10400009        -2.63616558E-16
   2.11199999        -1.99346094E-16
   2.11999989        -1.23410186E-16
   2.12800002        -3.98664858E-17
   2.13599992         4.65917653E-17
   2.14400005         1.30637309E-16
   2.15199995         2.07027148E-16
   2.16000009         2.71253963E-16
   2.16799998         3.19470255E-16
   2.17600012         3.48441535E-16
   2.18400002         3.56207927E-16
   2.19199991         3.42612995E-16
   2.20000005         3.08877552E-16
   2.20799994         2.57053165E-16
   2.21600008         1.90305010E-16
   2.22399998         1.13229803E-16
   2.23200011         3.11498219E-17
   2.24000001        -5.08626576E-17
   2.24799991        -1.28013214E-16
   2.25600004        -1.95465651E-16
   2.26399994        -2.48930437E-16
   2.27200007        -2.85640686E-16
   2.27999997        -3.04346535E-16
   2.28800011        -3.04660149E-16
   2.29600000        -2.87131172E-16
   2.30399990        -2.53861598E-16
   2.31200004        -2.08265219E-16
   2.31999993        -1.54021771E-16
   2.32800007        -9.46840494E-17
   2.33599997        -3.41521534E-17
   2.34400010         2.33685984E-17
   2.35200000         7.43440156E-17
   2.35999990         1.16509104E-16
   2.36800003         1.48409582E-16
   2.37599993         1.68993595E-16
   2.38400006         1.78078354E-16
   2.39199996         1.76774585E-16
   2.40000010         1.66933041E-16
   2.40799999         1.50361901E-16
   2.41599989         1.28883117E-16
   2.42400002         1.04727829E-16
   2.43199992         8.01816542E-17
   2.44000006         5.68062514E-17
   2.44799995         3.53821412E-17
   2.45600009         1.64795736E-17
   2.46399999         5.49091951E-19
   2.47199988        -1.25477591E-17
   2.48000002        -2.35169516E-17
   2.48799992        -3.29399069E-17
   2.49600005        -4.09912761E-17
   2.50399995        -4.79433519E-17
   2.51200008        -5.44308037E-17
   2.51999998        -6.09173986E-17
   2.52800012        -6.72774844E-17
   2.53600001        -7.31755204E-17
   2.54399991        -7.84585377E-17
   2.55200005        -8.28106658E-17
   2.55999994        -8.53728809E-17
   2.56800008        -8.51684812E-17
   2.57599998        -8.17284952E-17
   2.58400011        -7.49620651E-17
   2.59200001        -6.46929222E-17
   2.59999990        -5.08243955E-17
   2.60800004        -3.38450940E-17
   2.61599994        -1.47141584E-17
   2.62400007         5.70547786E-18
   2.63199997         2.67043912E-17
   2.64000010         4.73044641E-17
   2.64800000         6.62742732E-17
   2.65599990         8.26585837E-17
   2.66400003         9.59418602E-17
   2.67199993         1.05645284E-16
   2.68000007         1.11156848E-16
   2.68799996         1.12098498E-16
   2.69600010         1.08548463E-16
   2.70400000         1.00767963E-16
   2.71199989         8.90067316E-17
   2.72000003         7.37461228E-17
   2.72799993         5.58705711E-17
   2.73600006         3.63713929E-17
   2.74399996         1.60037958E-17
   2.75200009        -4.65981776E-18
   2.75999999        -2.50280650E-17
   2.76799989        -4.45057613E-17
   2.77600002        -6.25954701E-17
   2.78399992        -7.88630158E-17
   2.79200006        -9.28848191E-17
   2.79999995        -1.04288166E-16
   2.80800009        -1.12732263E-16
   2.81599998        -1.17796951E-16
   2.82399988        -1.19002451E-16
   2.83200002        -1.15985452E-16
   2.83999991        -1.08566615E-16
   2.84800005        -9.66614279E-17
   2.85599995        -8.02805254E-17
   2.86400008        -5.96510049E-17
   2.87199998        -3.52368022E-17
   2.88000011        -7.68345075E-18
   2.88800001         2.20804284E-17
   2.89599991         5.26900054E-17
   2.90400004         8.24659300E-17
   2.91199994         1.09717190E-16
   2.92000008         1.32836961E-16
   2.92799997         1.50232887E-16
   2.93600011         1.60471279E-16
   2.94400001         1.62583302E-16
   2.95199990         1.56118191E-16
   2.96000004         1.40985431E-16
   2.96799994         1.17538474E-16
   2.97600007         8.68723410E-17
   2.98399997         5.07946931E-17
   2.99200010         1.13925311E-17
   3.00000000        -2.92349650E-17
   3.00799990        -6.88476519E-17
   3.01600003        -1.05030775E-16
   3.02399993        -1.35556400E-16
   3.03200006        -1.58715234E-16
   3.03999996        -1.73268054E-16
   3.04800010        -1.78377635E-16
   3.05599999        -1.73883304E-16
   3.06399989        -1.60525105E-16
   3.07200003        -1.39621258E-16
   3.07999992        -1.12551356E-16
   3.08800006        -8.07439583E-17
   3.09599996        -4.60229826E-17
   3.10400009        -1.05488333E-17
   3.11199999         2.37043858E-17
   3.11999989         5.51867178E-17
   3.12800002         8.25071765E-17
   3.13599992         1.04359488E-16
   3.14400005         1.19936954E-16
   3.15199995         1.29138418E-16
   3.16000009         1.32156939E-16
   3.16799998         1.29154922E-16
   3.17600012         1.20581135E-16
   3.18400002         1.07474783E-16
   3.19199991         9.10760795E-17
   3.20000005         7.23250861E-17
   3.20799994         5.20379224E-17
   3.21600008         3.12863530E-17
   3.22399998         1.11428574E-17
   3.23200011        -7.80594876E-18
   3.24000001        -2.52801433E-17
   3.24799991        -4.07899436E-17
   3.25600004        -5.37547159E-17
   3.26399994        -6.40454979E-17
   3.27200007        -7.19237116E-17
   3.27999997        -7.74358844E-17
   3.28800011        -8.03046857E-17
   3.29600000        -8.04397345E-17
   3.30399990        -7.80995744E-17
   3.31200004        -7.34415616E-17
   3.31999993        -6.63273318E-17
   3.32800007        -5.67470186E-17
   3.33599997        -4.50944790E-17
   3.34400010        -3.18360510E-17
   3.35200000        -1.72241652E-17
   3.35999990        -1.58772242E-18
   3.36800003         1.43346314E-17
   3.37599993         2.96320547E-17
   3.38400006         4.36487096E-17
   3.39199996         5.59282289E-17
   3.40000010         6.58721377E-17
   3.40799999         7.27895579E-17
   3.41599989         7.63154319E-17
   3.42400002         7.65393860E-17
   3.43199992         7.36838527E-17
   3.44000006         6.79071542E-17
   3.44799995         5.95323607E-17
   3.45600009         4.92292339E-17
   3.46399999         3.77516066E-17
   3.47199988         2.56019282E-17
   3.48000002         1.31048611E-17
   3.48799992         6.53699900E-19
   3.49600005        -1.13634292E-17
   3.50399995        -2.28138564E-17
   3.51200008        -3.37530387E-17
   3.51999998        -4.41097304E-17
   3.52800012        -5.36242232E-17
   3.53600001        -6.20663524E-17
   3.54399991        -6.92817298E-17
   3.55200005        -7.49872842E-17
   3.55999994        -7.87183518E-17
   3.56800008        -8.00359314E-17
   3.57599998        -7.86370234E-17
   3.58400011        -7.42403269E-17
   3.59200001        -6.65635481E-17
   3.59999990        -5.55264375E-17
   3.60800004        -4.13841306E-17
   3.61599994        -2.46154640E-17
   3.62400007        -5.79752652E-18
   3.63199997         1.43468985E-17
   3.64000010         3.48936149E-17
   3.64800000         5.48262953E-17
   3.65599990         7.31915677E-17
   3.66400003         8.91241185E-17
   3.67199993         1.01797326E-16
   3.68000007         1.10462261E-16
   3.68799996         1.14584976E-16
   3.69600010         1.13939140E-16
   3.70400000         1.08559574E-16
   3.71199989         9.86306340E-17
   3.72000003         8.44572912E-17
   3.72799993         6.65388518E-17
   3.73600006         4.56025135E-17
   3.74399996         2.25106930E-17
   3.75200009        -1.83855698E-18
