 -0.239999995         0.00000000    
 -0.231999993         0.00000000    
 -0.224000007         1.64083068E-27
 -0.216000006         1.64454512E-21
 -0.208000004         5.88215404E-21
 -0.200000003         9.37787424E-21
 -0.192000002         8.46020459E-21
 -0.184000000         6.35057899E-21
 -0.175999999         1.02600220E-20
 -0.167999998         2.07875012E-20
 -0.159999996         3.07763759E-20
 -0.151999995         3.61859788E-20
 -0.143999994         4.17560870E-20
 -0.136000007         5.36065220E-20
 -0.128000006         7.18605919E-20
 -0.119999997         9.31899869E-20
 -0.112000003         1.15587337E-19
 -0.104000002         1.37706779E-19
  -9.60000008E-02     1.57704013E-19
  -8.79999995E-02     1.75707431E-19
  -7.99999982E-02     1.94258662E-19
  -7.19999969E-02     2.13867470E-19
  -6.40000030E-02     2.30468338E-19
  -5.60000017E-02     2.38666862E-19
  -4.80000004E-02     2.35251459E-19
  -3.99999991E-02     2.18972079E-19
  -3.20000015E-02     1.89845886E-19
  -2.40000002E-02     1.49406448E-19
  -1.60000008E-02     9.90602615E-20
  -8.00000038E-03     3.78983364E-20
   0.00000000        -3.50172049E-20
   8.00000038E-03    -1.16093145E-19
   1.60000008E-02    -1.97975392E-19
   2.40000002E-02    -2.75072399E-19
   3.20000015E-02    -3.45194800E-19
   3.99999991E-02    -4.05638774E-19
   4.80000004E-02    -4.51419033E-19
   5.60000017E-02    -4.78546732E-19
   6.40000030E-02    -4.86238167E-19
   7.19999969E-02    -4.74723038E-19
   7.99999982E-02    -4.43854570E-19
   8.79999995E-02    -3.95545956E-19
   9.60000008E-02    -3.35338012E-19
  0.104000002        -2.69932815E-19
  0.112000003        -2.04177204E-19
  0.119999997        -1.41084623E-19
  0.128000006        -8.30659683E-20
  0.136000007        -3.18206947E-20
  0.143999994         1.19318566E-20
  0.151999995         4.77441864E-20
  0.159999996         7.50542587E-20
  0.167999998         9.40535376E-20
  0.175999999         1.06361145E-19
  0.184000000         1.14479134E-19
  0.192000002         1.20918761E-19
  0.200000003         1.27647165E-19
  0.208000004         1.35495545E-19
  0.216000006         1.43843025E-19
  0.224000007         1.51268483E-19
  0.231999993         1.56762681E-19
  0.239999995         1.60028882E-19
  0.247999996         1.60884057E-19
  0.256000012         1.58843764E-19
  0.263999999         1.53350432E-19
  0.272000015         1.44119756E-19
  0.280000001         1.31310360E-19
  0.287999988         1.15540381E-19
  0.296000004         9.75715626E-20
  0.303999990         7.78670864E-20
  0.312000006         5.66273695E-20
  0.319999993         3.42977387E-20
  0.328000009         1.17732867E-20
  0.335999995        -9.87197086E-21
  0.344000012        -2.94716504E-20
  0.351999998        -4.55861013E-20
  0.360000014        -5.67496694E-20
  0.368000001        -6.21428676E-20
  0.375999987        -6.18013390E-20
  0.384000003        -5.61624100E-20
  0.391999990        -4.57464903E-20
  0.400000006        -3.13139141E-20
  0.407999992        -1.39829777E-20
  0.416000009         4.90304159E-21
  0.423999995         2.37848531E-20
  0.432000011         4.07694286E-20
  0.439999998         5.38493060E-20
  0.448000014         6.14544595E-20
  0.456000000         6.28028867E-20
  0.463999987         5.78629641E-20
  0.472000003         4.72460363E-20
  0.479999989         3.21988778E-20
  0.488000005         1.45079660E-20
  0.495999992        -3.81601600E-21
  0.504000008        -2.09130210E-20
  0.512000024        -3.52538012E-20
  0.519999981        -4.56174727E-20
  0.527999997        -5.11752153E-20
  0.536000013        -5.17921563E-20
  0.544000030        -4.80614296E-20
  0.551999986        -4.07314558E-20
  0.560000002        -3.02477655E-20
  0.568000019        -1.72134589E-20
  0.575999975        -3.03269555E-21
  0.583999991         1.05479042E-20
  0.592000008         2.24522651E-20
  0.600000024         3.22200096E-20
  0.607999980         3.91586591E-20
  0.615999997         4.24557106E-20
  0.624000013         4.21237429E-20
  0.632000029         3.89178785E-20
  0.639999986         3.32550905E-20
  0.648000002         2.50977325E-20
  0.656000018         1.48812248E-20
  0.663999975         3.54028092E-21
  0.671999991        -8.38097539E-21
  0.680000007        -2.05394278E-20
  0.688000023        -3.17020104E-20
  0.695999980        -4.00462530E-20
  0.703999996        -4.46578721E-20
  0.712000012        -4.56049035E-20
  0.720000029        -4.25960598E-20
  0.727999985        -3.49908967E-20
  0.736000001        -2.33101758E-20
  0.744000018        -9.36569756E-21
  0.751999974         5.33634691E-21
  0.759999990         2.00242477E-20
  0.768000007         3.33792774E-20
  0.776000023         4.33312489E-20
  0.783999979         4.85553372E-20
  0.791999996         4.89649822E-20
  0.800000012         4.45009372E-20
  0.808000028         3.48199191E-20
  0.815999985         2.06275629E-20
  0.824000001         4.10945307E-21
  0.832000017        -1.24397818E-20
  0.839999974        -2.74547675E-20
  0.847999990        -3.94081542E-20
  0.856000006        -4.65754287E-20
  0.864000022        -4.80741927E-20
  0.871999979        -4.42942261E-20
  0.879999995        -3.59701267E-20
  0.888000011        -2.37142148E-20
  0.896000028        -8.76722754E-21
  0.903999984         6.75206976E-21
  0.912000000         2.08798158E-20
  0.920000017         3.24781869E-20
  0.927999973         4.06284912E-20
  0.935999990         4.41903503E-20
  0.944000006         4.25208510E-20
  0.952000022         3.61207737E-20
  0.959999979         2.61368733E-20
  0.967999995         1.36863543E-20
  0.976000011         6.00243947E-23
  0.984000027        -1.29629243E-20
  0.991999984        -2.37102162E-20
   1.00000000        -3.14000572E-20
   1.00800002        -3.58874764E-20
   1.01600003        -3.68600664E-20
   1.02400005        -3.39025112E-20
   1.03199995        -2.73343675E-20
   1.03999996        -1.83646342E-20
   1.04799998        -8.25755826E-21
   1.05599999         2.14481329E-21
   1.06400001         1.19409992E-20
   1.07200003         1.98906160E-20
   1.08000004         2.50681237E-20
   1.08800006         2.73686535E-20
   1.09599996         2.69938341E-20
   1.10399997         2.39204186E-20
   1.11199999         1.83456026E-20
   1.12000000         1.12039748E-20
   1.12800002         3.68525038E-21
   1.13600004        -3.43878812E-21
   1.14400005        -9.59820155E-21
   1.15199995        -1.40527339E-20
   1.15999997        -1.63503331E-20
   1.16799998        -1.67762099E-20
   1.17600000        -1.57806835E-20
   1.18400002        -1.33620155E-20
   1.19200003        -9.58005446E-21
   1.20000005        -5.20747435E-21
   1.20799994        -1.18041511E-21
   1.21599996         2.22727387E-21
   1.22399998         5.05352101E-21
   1.23199999         6.93144315E-21
   1.24000001         7.49440337E-21
   1.24800003         7.15776186E-21
   1.25600004         6.71151246E-21
   1.26400006         6.34809906E-21
   1.27199996         5.77529910E-21
   1.27999997         5.04130192E-21
   1.28799999         4.50918811E-21
   1.29600000         4.15854754E-21
   1.30400002         3.59201525E-21
   1.31200004         2.63972256E-21
   1.32000005         1.35147378E-21
   1.32799995        -4.91487102E-22
   1.33599997        -3.19846206E-21
   1.34399998        -6.48732511E-21
   1.35200000        -9.52119459E-21
   1.36000001        -1.16694238E-20
   1.36800003        -1.27971715E-20
   1.37600005        -1.28258708E-20
   1.38399994        -1.15107376E-20
   1.39199996        -8.76185894E-21
   1.39999998        -4.80815210E-21
   1.40799999         4.30276040E-23
   1.41600001         5.46143940E-21
   1.42400002         1.08096746E-20
   1.43200004         1.51360433E-20
   1.44000006         1.76402970E-20
   1.44799995         1.79932253E-20
   1.45599997         1.61825689E-20
   1.46399999         1.23531347E-20
   1.47200000         6.95196514E-21
   1.48000002         7.75425986E-22
   1.48800004        -5.35765569E-21
   1.49600005        -1.08568942E-20
   1.50399995        -1.51646472E-20
   1.51199996        -1.75619346E-20
   1.51999998        -1.74997361E-20
   1.52800000        -1.50807256E-20
   1.53600001        -1.09657403E-20
   1.54400003        -5.83000652E-21
   1.55200005        -1.54352791E-22
   1.55999994         5.48322195E-21
   1.56799996         1.02774590E-20
   1.57599998         1.35465592E-20
   1.58399999         1.50270461E-20
   1.59200001         1.47006248E-20
   1.60000002         1.25699392E-20
   1.60800004         8.84243312E-21
   1.61600006         4.18479436E-21
   1.62399995        -4.90292325E-22
   1.63199997        -4.49867548E-21
   1.63999999        -7.52998587E-21
   1.64800000        -9.44893987E-21
   1.65600002        -1.01894386E-20
   1.66400003        -9.80778601E-21
   1.67200005        -8.43128396E-21
   1.67999995        -6.17861710E-21
   1.68799996        -3.32104696E-21
   1.69599998        -4.56864615E-22
   1.70400000         1.75174215E-21
   1.71200001         3.05432200E-21
   1.72000003         3.62803840E-21
   1.72800004         3.65235178E-21
   1.73599994         3.15074731E-21
   1.74399996         2.27160134E-21
   1.75199997         1.38362073E-21
   1.75999999         7.43732053E-22
   1.76800001         3.21913865E-22
   1.77600002         9.34988174E-23
   1.78400004         2.46893445E-22
   1.79200006         9.04462021E-22
   1.79999995         1.83382024E-21
   1.80799997         2.63718064E-21
   1.81599998         3.08337228E-21
   1.82400000         3.09308196E-21
   1.83200002         2.57253534E-21
   1.84000003         1.49041104E-21
   1.84800005         2.68946759E-23
   1.85599995        -1.55202660E-21
   1.86399996        -3.11018416E-21
   1.87199998        -4.56789612E-21
   1.88000000        -5.67871163E-21
   1.88800001        -6.07282644E-21
   1.89600003        -5.53722093E-21
   1.90400004        -4.13854374E-21
   1.91199994        -2.09607769E-21
   1.91999996         3.21150904E-22
   1.92799997         2.77013639E-21
   1.93599999         4.87705326E-21
   1.94400001         6.39516636E-21
   1.95200002         7.24354550E-21
   1.96000004         7.34963141E-21
   1.96800005         6.56521499E-21
   1.97599995         4.82068057E-21
   1.98399997         2.27766524E-21
   1.99199998        -7.37236182E-22
   2.00000000        -3.83303944E-21
   2.00799990        -6.50986497E-21
   2.01600003        -8.21565963E-21
   2.02399993        -8.68428006E-21
   2.03200006        -8.13147057E-21
   2.03999996        -6.91032904E-21
   2.04800010        -5.08171583E-21
   2.05599999        -2.57365050E-21
   2.06399989         3.57356211E-22
   2.07200003         3.16507595E-21
   2.07999992         5.46967768E-21
   2.08800006         7.14384035E-21
   2.09599996         7.99212941E-21
   2.10400009         7.75167189E-21
   2.11199999         6.47678340E-21
   2.11999989         4.57876740E-21
   2.12800002         2.41146575E-21
   2.13599992         1.18144883E-22
   2.14400005        -2.08404439E-21
   2.15199995        -3.81794946E-21
   2.16000009        -4.83491753E-21
   2.16799998        -5.12702700E-21
   2.17600012        -4.74268891E-21
   2.18400002        -3.77978646E-21
   2.19199991        -2.53805447E-21
   2.20000005        -1.34044376E-21
   2.20799994        -2.03128831E-22
   2.21600008         1.00094226E-21
   2.22399998         2.10055246E-21
   2.23200011         2.71914159E-21
   2.24000001         2.77611103E-21
   2.24799991         2.50524775E-21
   2.25600004         2.00221410E-21
   2.26399994         1.18661321E-21
   2.27200007         2.29717331E-22
   2.27999997        -4.40619281E-22
   2.28800011        -6.74965950E-22
   2.29600000        -7.59561223E-22
   2.30399990        -9.22959989E-22
   2.31200004        -1.03532983E-21
   2.31999993        -9.27233217E-22
   2.32800007        -6.81942964E-22
   2.33599997        -4.48166143E-22
   2.34400010        -2.27479515E-22
   2.35200000        -1.25044235E-23
   2.35999990         7.85659329E-23
   2.36800003        -3.16406492E-23
   2.37599993        -2.33055739E-22
   2.38400006        -3.76760549E-22
   2.39199996        -4.46286963E-22
   2.40000010        -4.85955433E-22
   2.40799999        -4.83000170E-22
   2.41599989        -4.14653337E-22
   2.42400002        -3.00644408E-22
   2.43199992        -1.17803161E-22
   2.44000006         2.25353302E-22
   2.44799995         7.17389299E-22
   2.45600009         1.14291026E-21
   2.46399999         1.28964980E-21
   2.47199988         1.19809781E-21
   2.48000002         1.06829851E-21
   2.48799992         9.68560744E-22
   2.49600005         8.00899200E-22
   2.50399995         5.24996146E-22
   2.51200008         2.08912557E-22
   2.51999998        -1.59682979E-22
   2.52800012        -6.68064314E-22
   2.53600001        -1.19291864E-21
   2.54399991        -1.37365114E-21
   2.55200005        -1.05401844E-21
   2.55999994        -5.49416806E-22
   2.56800008        -2.58359141E-22
   2.57599998        -1.76265403E-22
   2.58400011        -3.28232590E-23
   2.59200001         2.42253100E-22
   2.59999990         4.73957073E-22
   2.60800004         5.58482067E-22
   2.61599994         5.30668372E-22
   2.62400007         3.68854648E-22
   2.63199997         1.65790905E-23
   2.64000010        -4.08711435E-22
   2.64800000        -6.71998874E-22
   2.65599990        -6.92566459E-22
   2.66400003        -5.70279236E-22
   2.67199993        -3.75648848E-22
   2.68000007        -1.08775311E-22
   2.68799996         1.82689962E-22
   2.69600010         4.48105154E-22
   2.70400000         7.39351843E-22
   2.71199989         1.06151254E-21
   2.72000003         1.18905173E-21
   2.72799993         8.77970633E-22
   2.73600006         2.26435366E-22
   2.74399996        -4.13393205E-22
   2.75200009        -8.59104513E-22
   2.75999999        -1.20158899E-21
   2.76799989        -1.50884822E-21
   2.77600002        -1.68225212E-21
   2.78399992        -1.63531931E-21
   2.79200006        -1.38672407E-21
   2.79999995        -9.24234990E-22
   2.80800009        -1.82798042E-22
   2.81599998         7.59462218E-22
   2.82399988         1.62511041E-21
   2.83200002         2.17466712E-21
   2.83999991         2.40255598E-21
   2.84800005         2.43301828E-21
   2.85599995         2.30984834E-21
   2.86400008         1.96365488E-21
   2.87199998         1.34349035E-21
   2.88000011         5.20427064E-22
   2.88800001        -3.38051687E-22
   2.89599991        -1.07556936E-21
   2.90400004        -1.62282658E-21
   2.91199994        -1.97431614E-21
   2.92000008        -2.12571402E-21
   2.92799997        -2.07561971E-21
   2.93600011        -1.86929046E-21
   2.94400001        -1.57819982E-21
   2.95199990        -1.23007977E-21
   2.96000004        -8.08907918E-22
   2.96799994        -3.30594187E-22
   2.97600007         1.27823197E-22
   2.98399997         4.89984051E-22
   2.99200010         7.49732445E-22
   3.00000000         9.75911766E-22
   3.00799990         1.24811871E-21
   3.01600003         1.56254307E-21
   3.02399993         1.80321557E-21
   3.03200006         1.84878664E-21
   3.03999996         1.69797016E-21
   3.04800010         1.42282780E-21
   3.05599999         1.01552940E-21
   3.06399989         3.94486670E-22
   3.07200003        -4.19990606E-22
   3.07999992        -1.25828055E-21
   3.08800006        -1.97581803E-21
   3.09599996        -2.56372696E-21
   3.10400009        -3.02710522E-21
   3.11199999        -3.25646002E-21
   3.11999989        -3.10069279E-21
   3.12800002        -2.50665836E-21
   3.13599992        -1.53517694E-21
   3.14400005        -3.00744498E-22
   3.15199995         1.05499041E-21
   3.16000009         2.37252606E-21
   3.16799998         3.49026800E-21
   3.17600012         4.23622456E-21
   3.18400002         4.44049011E-21
   3.19199991         4.03434079E-21
   3.20000005         3.13150163E-21
   3.20799994         1.94019474E-21
   3.21600008         5.98894970E-22
   3.22399998        -8.37829553E-22
   3.23200011        -2.27006431E-21
   3.24000001        -3.49771424E-21
   3.24799991        -4.31411242E-21
   3.25600004        -4.60631155E-21
   3.26399994        -4.36119063E-21
   3.27200007        -3.62357332E-21
   3.27999997        -2.47057523E-21
   3.28800011        -1.01534926E-21
   3.29600000         5.69915224E-22
   3.30399990         2.05122233E-21
   3.31200004         3.19230082E-21
   3.31999993         3.83940122E-21
   3.32800007         3.95242083E-21
   3.33599997         3.58518616E-21
   3.34400010         2.86482050E-21
   3.35200000         1.94846372E-21
   3.35999990         9.36591202E-22
   3.36800003        -1.54399403E-22
   3.37599993        -1.28081022E-21
   3.38400006        -2.25983441E-21
   3.39199996        -2.84312397E-21
   3.40000010        -2.90981359E-21
   3.40799999        -2.54660234E-21
   3.41599989        -1.94560170E-21
   3.42400002        -1.26289709E-21
   3.43199992        -5.67171351E-22
   3.44000006         1.18109113E-22
   3.44799995         7.40723679E-22
   3.45600009         1.19014660E-21
   3.46399999         1.35584081E-21
   3.47199988         1.21627872E-21
   3.48000002         8.56732932E-22
   3.48799992         4.14890425E-22
   3.49600005         3.54190721E-23
   3.50399995        -1.54907657E-22
   3.51200008        -9.73661354E-23
   3.51999998         1.58050138E-22
   3.52800012         4.97609824E-22
   3.53600001         8.36217854E-22
   3.54399991         1.14510312E-21
   3.55200005         1.39988767E-21
   3.55999994         1.53003018E-21
   3.56800008         1.42231596E-21
   3.57599998         9.79832897E-22
   3.58400011         2.09255932E-22
   3.59200001        -7.45733413E-22
   3.59999990        -1.69151286E-21
   3.60800004        -2.50054942E-21
   3.61599994        -3.09985712E-21
   3.62400007        -3.37510188E-21
   3.63199997        -3.18619289E-21
   3.64000010        -2.50102986E-21
   3.64800000        -1.43734637E-21
   3.65599990        -1.53243072E-22
   3.66400003         1.22302279E-21
   3.67199993         2.53478836E-21
   3.68000007         3.56967047E-21
   3.68799996         4.15474606E-21
   3.69600010         4.22725523E-21
   3.70400000         3.78137176E-21
   3.71199989         2.82393201E-21
   3.72000003         1.44392161E-21
   3.72799993        -1.34953616E-22
   3.73600006        -1.64789575E-21
   3.74399996        -2.91487381E-21
   3.75200009        -3.83224740E-21
