 -0.239999995         0.00000000    
 -0.231999993         0.00000000    
 -0.224000007         0.00000000    
 -0.216000006         0.00000000    
 -0.208000004         0.00000000    
 -0.200000003         0.00000000    
 -0.192000002         0.00000000    
 -0.184000000        -3.60799625E-37
 -0.175999999         1.19654504E-36
 -0.167999998         3.26059240E-32
 -0.159999996        -1.42714324E-31
 -0.151999995        -1.53792860E-30
 -0.143999994        -1.94799614E-30
 -0.136000007         1.16053161E-29
 -0.128000006         4.03671185E-29
 -0.119999997         7.73295855E-30
 -0.112000003        -1.92294535E-28
 -0.104000002        -3.58533141E-28
  -9.60000008E-02     1.66909431E-28
  -8.79999995E-02     1.48346092E-27
  -7.99999982E-02     1.65245560E-27
  -7.19999969E-02    -1.85355215E-27
  -6.40000030E-02    -6.81742839E-27
  -5.60000017E-02    -4.63527041E-27
  -4.80000004E-02     9.11282026E-27
  -3.99999991E-02     2.10766578E-26
  -3.20000015E-02     8.42639032E-27
  -2.40000002E-02    -2.78609864E-26
  -1.60000008E-02    -4.69875415E-26
  -8.00000038E-03    -9.63843967E-27
   0.00000000         5.93214773E-26
   8.00000038E-03     7.78535887E-26
   1.60000008E-02     3.58123938E-27
   2.40000002E-02    -9.27590169E-26
   3.20000015E-02    -9.40432640E-26
   3.99999991E-02     1.45285422E-26
   4.80000004E-02     1.08443809E-25
   5.60000017E-02     7.23517215E-26
   6.40000030E-02    -4.58127119E-26
   7.19999969E-02    -9.10733814E-26
   7.99999982E-02    -9.88183638E-27
   8.79999995E-02     7.40519262E-26
   9.60000008E-02     3.56596776E-26
  0.104000002        -6.50077839E-26
  0.112000003        -6.22690129E-26
  0.119999997         6.73258455E-26
  0.128000006         1.42746230E-25
  0.136000007         9.45862560E-27
  0.143999994        -2.34015193E-25
  0.151999995        -3.08538168E-25
  0.159999996        -4.59389851E-26
  0.167999998         4.09121409E-25
  0.175999999         6.68421567E-25
  0.184000000         3.94756277E-25
  0.192000002        -3.63668107E-25
  0.200000003        -1.07381314E-24
  0.208000004        -1.06512581E-24
  0.216000006        -1.51744815E-25
  0.224000007         1.05513657E-24
  0.231999993         1.57387986E-24
  0.239999995         9.16088984E-25
  0.247999996        -4.26123087E-25
  0.256000012        -1.36148350E-24
  0.263999999        -1.13367851E-24
  0.272000015        -7.51030711E-27
  0.280000001         8.94973445E-25
  0.287999988         5.62209088E-25
  0.296000004        -8.53177031E-25
  0.303999990        -1.87203891E-24
  0.312000006        -8.66353966E-25
  0.319999993         2.17634141E-24
  0.328000009         4.96645645E-24
  0.335999995         4.42107707E-24
  0.344000012        -4.86688722E-25
  0.351999998        -7.04627363E-24
  0.360000014        -1.02360848E-23
  0.368000001        -6.55093288E-24
  0.375999987         2.80479712E-24
  0.384000003         1.21302944E-23
  0.391999990         1.49328309E-23
  0.400000006         8.45961576E-24
  0.407999992        -4.17726462E-24
  0.416000009        -1.56782003E-23
  0.423999995        -1.88506233E-23
  0.432000011        -1.09299984E-23
  0.439999998         4.38512197E-24
  0.448000014         1.83733325E-23
  0.456000000         2.20216785E-23
  0.463999987         1.19815720E-23
  0.472000003        -6.15191875E-24
  0.479999989        -2.06028933E-23
  0.488000005        -2.14267780E-23
  0.495999992        -8.07729669E-24
  0.504000008         9.79969007E-24
  0.512000024         1.95055152E-23
  0.519999981         1.48828329E-23
  0.527999997         6.70601386E-25
  0.536000013        -1.18038748E-23
  0.544000030        -1.38143586E-23
  0.551999986        -5.60157980E-24
  0.560000002         5.02877962E-24
  0.568000019         9.81939187E-24
  0.575999975         6.37128638E-24
  0.583999991        -1.08828992E-24
  0.592000008        -6.00673206E-24
  0.600000024        -4.89561714E-24
  0.607999980         2.75414515E-25
  0.615999997         4.11586836E-24
  0.624000013         2.83370157E-24
  0.632000029        -2.20720560E-24
  0.639999986        -5.62619857E-24
  0.648000002        -3.24451233E-24
  0.656000018         3.74932611E-24
  0.663999975         9.32640666E-24
  0.671999991         7.66797491E-24
  0.680000007        -1.23060023E-24
  0.688000023        -1.08192573E-23
  0.695999980        -1.26642255E-23
  0.703999996        -3.81416417E-24
  0.712000012         9.59998125E-24
  0.720000029         1.66515742E-23
  0.727999985         1.07941234E-23
  0.736000001        -4.53998207E-24
  0.744000018        -1.81292668E-23
  0.751999974        -2.00022246E-23
  0.759999990        -8.56130151E-24
  0.768000007         8.18006081E-24
  0.776000023         1.90413557E-23
  0.783999979         1.72948634E-23
  0.791999996         4.86846533E-24
  0.800000012        -9.84401932E-24
  0.808000028        -1.74533945E-23
  0.815999985        -1.35596496E-23
  0.824000001        -9.80099820E-25
  0.832000017         1.22457710E-23
  0.839999974         1.82046315E-23
  0.847999990         1.40612437E-23
  0.856000006         2.92267660E-24
  0.864000022        -9.00714992E-24
  0.871999979        -1.65719686E-23
  0.879999995        -1.77214116E-23
  0.888000011        -1.31209175E-23
  0.896000028        -4.69845003E-24
  0.903999984         5.53594460E-24
  0.912000000         1.52551862E-23
  0.920000017         2.11379887E-23
  0.927999973         1.99246448E-23
  0.935999990         1.12245543E-23
  0.944000006        -5.32971388E-25
  0.952000022        -8.81568549E-24
  0.959999979        -1.04043654E-23
  0.967999995        -8.33379008E-24
  0.976000011        -8.59191957E-24
  0.984000027        -1.34494584E-23
  0.991999984        -1.78073942E-23
   1.00000000        -1.27762532E-23
   1.00800002         6.00809284E-24
   1.01600003         3.13723040E-23
   1.02400005         4.60893530E-23
   1.03199995         3.45676545E-23
   1.03999996        -3.05614201E-24
   1.04799998        -4.69725112E-23
   1.05599999        -6.81368636E-23
   1.06400001        -4.82630876E-23
   1.07200003         5.31225166E-24
   1.08000004         6.14876181E-23
   1.08800006         8.61412695E-23
   1.09599996         6.42362619E-23
   1.10399997         1.03452529E-23
   1.11199999        -4.23462585E-23
   1.12000000        -6.53991881E-23
   1.12800002        -5.27407663E-23
   1.13600004        -1.90853379E-23
   1.14400005         1.37227324E-23
   1.15199995         3.07541084E-23
   1.15999997         3.28415259E-23
   1.16799998         3.01985232E-23
   1.17600000         3.23791209E-23
   1.18400002         3.75086889E-23
   1.19200003         3.42181702E-23
   1.20000005         1.24970422E-23
   1.20799994        -2.26036733E-23
   1.21599996        -5.19770574E-23
   1.22399998        -5.24975415E-23
   1.23199999        -2.03703197E-23
   1.24000001         2.45001328E-23
   1.24800003         4.93641166E-23
   1.25600004         3.27090951E-23
   1.26400006        -1.60190702E-23
   1.27199996        -6.14981952E-23
   1.27999997        -6.40724187E-23
   1.28799999        -1.11682643E-23
   1.29600000         7.00061484E-23
   1.30400002         1.30952210E-22
   1.31200004         1.26622323E-22
   1.32000005         5.55504742E-23
   1.32799995        -3.90082693E-23
   1.33599997        -9.18688414E-23
   1.34399998        -7.34084045E-23
   1.35200000        -8.11056296E-24
   1.36000001         4.11093719E-23
   1.36800003         3.00402745E-23
   1.37600005        -3.58703605E-23
   1.38399994        -1.03360658E-22
   1.39199996        -1.08618712E-22
   1.39999998        -3.78543583E-23
   1.40799999         6.44137430E-23
   1.41600001         1.25759221E-22
   1.42400002         1.01486110E-22
   1.43200004         8.65648547E-24
   1.44000006        -8.67561834E-23
   1.44799995        -1.20671990E-22
   1.45599997        -7.85405694E-23
   1.46399999        -4.62977062E-24
   1.47200000         3.90870197E-23
   1.48000002         1.96427486E-23
   1.48800004        -3.74359591E-23
   1.49600005        -7.91680547E-23
   1.50399995        -7.43172858E-23
   1.51199996        -3.69749740E-23
   1.51999998        -9.76924635E-24
   1.52800000        -2.28886035E-23
   1.53600001        -6.07332651E-23
   1.54400003        -6.81623785E-23
   1.55200005         2.27353085E-24
   1.55999994         1.42522919E-22
   1.56799996         2.83679127E-22
   1.57599998         3.34327910E-22
   1.58399999         2.45431869E-22
   1.59200001         4.65456869E-23
   1.60000002        -1.74807891E-22
   1.60800004        -3.23023723E-22
   1.61600006        -3.51040452E-22
   1.62399995        -2.79781195E-22
   1.63199997        -1.69445921E-22
   1.63999999        -7.42217706E-23
   1.64800000        -1.22432262E-23
   1.65600002         3.16852230E-23
   1.66400003         8.03180876E-23
   1.67200005         1.40527656E-22
   1.67999995         1.98551796E-22
   1.68799996         2.31898802E-22
   1.69599998         2.24762375E-22
   1.70400000         1.74216523E-22
   1.71200001         8.88121758E-23
   1.72000003        -1.41311336E-23
   1.72800004        -1.10804513E-22
   1.73599994        -1.76106596E-22
   1.74399996        -1.94134112E-22
   1.75199997        -1.68396408E-22
   1.75999999        -1.15035862E-22
   1.76800001        -4.80488267E-23
   1.77600002         3.35183370E-23
   1.78400004         1.38670122E-22
   1.79200006         2.60694901E-22
   1.79999995         3.58922246E-22
   1.80799997         3.68963549E-22
   1.81599998         2.46215732E-22
   1.82400000         1.09016412E-23
   1.83200002        -2.44601735E-22
   1.84000003        -4.04015125E-22
   1.84800005        -3.99351279E-22
   1.85599995        -2.54321536E-22
   1.86399996        -6.32285710E-23
   1.87199998         8.33052893E-23
   1.88000000         1.61533015E-22
   1.88800001         2.16071274E-22
   1.89600003         2.99937588E-22
   1.90400004         4.04809439E-22
   1.91199994         4.48862410E-22
   1.91999996         3.37385737E-22
   1.92799997         4.84151074E-23
   1.93599999        -3.29018435E-22
   1.94400001        -6.41334323E-22
   1.95200002        -7.68496177E-22
   1.96000004        -6.95822069E-22
   1.96800005        -5.04182386E-22
   1.97599995        -2.92475469E-22
   1.98399997        -1.01853454E-22
   1.99199998         9.58654191E-23
   2.00000000         3.41452978E-22
   2.00799990         6.22339664E-22
   2.01600003         8.54482823E-22
   2.02399993         9.30529015E-22
   2.03200006         7.92379755E-22
   2.03999996         4.68492349E-22
   2.04800010         5.23513908E-23
   2.05599999        -3.54542237E-22
   2.06399989        -6.83705923E-22
   2.07200003        -9.02446980E-22
   2.07999992        -9.87196743E-22
   2.08800006        -9.01880212E-22
   2.09599996        -6.17398390E-22
   2.10400009        -1.54592428E-22
   2.11199999         3.89334184E-22
   2.11999989         8.62363052E-22
   2.12800002         1.12215391E-21
   2.13599992         1.10388899E-21
   2.14400005         8.43468811E-22
   2.15199995         4.44539352E-22
   2.16000009         1.62223045E-23
   2.16799998        -3.71519988E-22
   2.17600012        -6.90324176E-22
   2.18400002        -9.19336328E-22
   2.19199991        -1.01327747E-21
   2.20000005        -9.06596212E-22
   2.20799994        -5.56430474E-22
   2.21600008         7.47063662E-24
   2.22399998         6.64027668E-22
   2.23200011         1.23305336E-21
   2.24000001         1.54265993E-21
   2.24799991         1.49384840E-21
   2.25600004         1.09001826E-21
   2.26399994         4.24154883E-22
   2.27200007        -3.56731206E-22
   2.27999997        -1.09039530E-21
   2.28800011        -1.62878628E-21
   2.29600000        -1.86221378E-21
   2.30399990        -1.73652878E-21
   2.31200004        -1.26605395E-21
   2.31999993        -5.28193242E-22
   2.32800007         3.55586083E-22
   2.33599997         1.24488087E-21
   2.34400010         1.99701595E-21
   2.35200000         2.47226594E-21
   2.35999990         2.54321991E-21
   2.36800003         2.12275831E-21
   2.37599993         1.21256307E-21
   2.38400006        -5.44770239E-23
   2.39199996        -1.41890546E-21
   2.40000010        -2.56429847E-21
   2.40799999        -3.22653188E-21
   2.41599989        -3.28052298E-21
   2.42400002        -2.75736861E-21
   2.43199992        -1.79118732E-21
   2.44000006        -5.46576503E-22
   2.44799995         8.19096568E-22
   2.45600009         2.14194179E-21
   2.46399999         3.22187051E-21
   2.47199988         3.83086769E-21
   2.48000002         3.78048924E-21
   2.48799992         3.01400705E-21
   2.49600005         1.65917002E-21
   2.50399995        -9.77690441E-25
   2.51200008        -1.62557348E-21
   2.51999998        -2.92226654E-21
   2.52800012        -3.70407318E-21
   2.53600001        -3.88551048E-21
   2.54399991        -3.45242691E-21
   2.55200005        -2.45241623E-21
   2.55999994        -1.01380092E-21
   2.56800008         6.36046254E-22
   2.57599998         2.19293557E-21
   2.58400011         3.34716191E-21
   2.59200001         3.87196257E-21
   2.59999990         3.68378343E-21
   2.60800004         2.84944071E-21
   2.61599994         1.54983395E-21
   2.62400007         2.85886979E-23
   2.63199997        -1.45169915E-21
   2.64000010        -2.64291375E-21
   2.64800000        -3.34456890E-21
   2.65599990        -3.43834989E-21
   2.66400003        -2.91563516E-21
   2.67199993        -1.88171210E-21
   2.68000007        -5.33301223E-22
   2.68799996         8.81678910E-22
   2.69600010         2.10735570E-21
   2.70400000         2.91852908E-21
   2.71199989         3.16020920E-21
   2.72000003         2.78528817E-21
   2.72799993         1.87755540E-21
   2.73600006         6.37458429E-22
   2.74399996        -6.72246008E-22
   2.75200009        -1.80035335E-21
   2.75999999        -2.56490109E-21
   2.76799989        -2.87007802E-21
   2.77600002        -2.68990027E-21
   2.78399992        -2.04846674E-21
   2.79200006        -1.02317900E-21
   2.79999995         2.33064701E-22
   2.80800009         1.48594162E-21
   2.81599998         2.45957551E-21
   2.82399988         2.92248686E-21
   2.83200002         2.77344451E-21
   2.83999991         2.07738656E-21
   2.84800005         1.02551029E-21
   2.85599995        -1.50390361E-22
   2.86400008        -1.25252815E-21
   2.87199998        -2.13829601E-21
   2.88000011        -2.69736105E-21
   2.88800001        -2.82962574E-21
   2.89599991        -2.46470015E-21
   2.90400004        -1.61709438E-21
   2.91199994        -4.29489299E-22
   2.92000008         8.43341028E-22
   2.92799997         1.91700157E-21
   2.93600011         2.57951407E-21
   2.94400001         2.75414066E-21
   2.95199990         2.48692598E-21
   2.96000004         1.88245648E-21
   2.96799994         1.04438257E-21
   2.97600007         6.29525013E-23
   2.98399997        -9.53123102E-22
   2.99200010        -1.84635275E-21
   3.00000000        -2.42940199E-21
   3.00799990        -2.55568053E-21
   3.01600003        -2.19681460E-21
   3.02399993        -1.46684215E-21
   3.03200006        -5.71282112E-22
   3.03999996         2.87461217E-22
   3.04800010         9.84586762E-22
   3.05599999         1.48341969E-21
   3.06399989         1.78955436E-21
   3.07200003         1.89563705E-21
   3.07999992         1.76714153E-21
   3.08800006         1.37903812E-21
   3.09599996         7.66711357E-22
   3.10400009         4.14698561E-23
   3.11199999        -6.48558522E-22
   3.11999989        -1.18450325E-21
   3.12800002        -1.52169375E-21
   3.13599992        -1.68198726E-21
   3.14400005        -1.70439919E-21
   3.15199995        -1.59561100E-21
   3.16000009        -1.31850772E-21
   3.16799998        -8.27965233E-22
   3.17600012        -1.24607017E-22
   3.18400002         7.12365328E-22
   3.19199991         1.53431472E-21
   3.20000005         2.17122067E-21
   3.20799994         2.49023208E-21
   3.21600008         2.43476292E-21
   3.22399998         2.02971563E-21
   3.23200011         1.35446312E-21
   3.24000001         5.05796610E-22
   3.24799991        -4.27719272E-22
   3.25600004        -1.36734803E-21
   3.26399994        -2.22335142E-21
   3.27200007        -2.87396391E-21
   3.27999997        -3.17032035E-21
   3.28800011        -2.97968188E-21
   3.29600000        -2.25264404E-21
   3.30399990        -1.07571850E-21
   3.31200004         3.33174280E-22
   3.31999993         1.69235448E-21
   3.32800007         2.75252790E-21
   3.33599997         3.36514118E-21
   3.34400010         3.48714507E-21
   3.35200000         3.13717618E-21
   3.35999990         2.35313679E-21
   3.36800003         1.19413316E-21
   3.37599993        -2.18680649E-22
   3.38400006        -1.67004060E-21
   3.39199996        -2.87862448E-21
   3.40000010        -3.58647379E-21
   3.40799999        -3.65824382E-21
   3.41599989        -3.12356061E-21
   3.42400002        -2.13683694E-21
   3.43199992        -8.92950963E-22
   3.44000006         4.34814224E-22
   3.44799995         1.69863377E-21
   3.45600009         2.74047986E-21
   3.46399999         3.37679663E-21
   3.47199988         3.44257869E-21
   3.48000002         2.87812385E-21
   3.48799992         1.79406953E-21
   3.49600005         4.54916419E-22
   3.50399995        -8.19602095E-22
   3.51200008        -1.77789023E-21
   3.51999998        -2.30881922E-21
   3.52800012        -2.42895710E-21
   3.53600001        -2.21247065E-21
   3.54399991        -1.72784520E-21
   3.55200005        -1.02856698E-21
   3.55999994        -1.90842442E-22
   3.56800008         6.52090044E-22
   3.57599998         1.32342224E-21
   3.58400011         1.66636070E-21
   3.59200001         1.61508246E-21
   3.59999990         1.22286819E-21
   3.60800004         6.28991137E-22
   3.61599994        -9.01539588E-24
   3.62400007        -5.69860547E-22
   3.63199997        -9.80217205E-22
   3.64000010        -1.19322086E-21
   3.64800000        -1.16894292E-21
   3.65599990        -8.84558190E-22
   3.66400003        -3.67653610E-22
   3.67199993         2.80869621E-22
   3.68000007         9.03017585E-22
   3.68799996         1.33958891E-21
   3.69600010         1.49198260E-21
   3.70400000         1.34886157E-21
   3.71199989         9.67162554E-22
   3.72000003         4.29057130E-22
   3.72799993        -1.87601536E-22
   3.73600006        -8.07439652E-22
   3.74399996        -1.34248546E-21
   3.75200009        -1.69149974E-21
