 -0.239999995         0.00000000    
 -0.231999993         0.00000000    
 -0.224000007         9.62947732E-37
 -0.216000006         1.05512832E-29
 -0.208000004         9.84502105E-29
 -0.200000003         5.51328734E-24
 -0.192000002         1.76395736E-23
 -0.184000000         6.24872934E-24
 -0.175999999        -5.17068315E-23
 -0.167999998        -7.81622696E-23
 -0.159999996         3.91348405E-23
 -0.151999995         2.01248022E-22
 -0.143999994         1.14315916E-22
 -0.136000007        -2.50879705E-22
 -0.128000006        -4.28669995E-22
 -0.119999997        -2.77562003E-23
 -0.112000003         5.93684954E-22
 -0.104000002         6.36817899E-22
  -9.60000008E-02    -1.14091993E-22
  -8.79999995E-02    -9.16193607E-22
  -7.99999982E-02    -8.73096205E-22
  -7.19999969E-02     4.56568616E-23
  -6.40000030E-02     9.37588424E-22
  -5.60000017E-02     9.23637627E-22
  -4.80000004E-02     8.53972790E-23
  -3.99999991E-02    -6.91008731E-22
  -3.20000015E-02    -7.68759821E-22
  -2.40000002E-02    -3.36336767E-22
  -1.60000008E-02     1.51547021E-22
  -8.00000038E-03     5.74958481E-22
   0.00000000         8.38188365E-22
   8.00000038E-03     5.55892079E-22
   1.60000008E-02    -3.18969735E-22
   2.40000002E-02    -1.00233439E-21
   3.20000015E-02    -7.36738480E-22
   3.99999991E-02     1.93002280E-22
   4.80000004E-02     9.17383891E-22
   5.60000017E-02     1.05150691E-21
   6.40000030E-02     7.07665787E-22
   7.19999969E-02     1.28991948E-23
   7.99999982E-02    -6.77932269E-22
   8.79999995E-02    -6.90623766E-22
   9.60000008E-02     3.79738171E-23
  0.104000002         5.11291474E-22
  0.112000003        -5.03076510E-23
  0.119999997        -1.06181395E-21
  0.128000006        -1.45329535E-21
  0.136000007        -1.07020834E-21
  0.143999994        -4.74107827E-22
  0.151999995        -1.95285278E-23
  0.159999996         1.66803969E-22
  0.167999998        -1.36090055E-23
  0.175999999        -2.15550727E-22
  0.184000000         1.63675789E-22
  0.192000002         8.84347557E-22
  0.200000003         9.93175021E-22
  0.208000004         4.84214840E-22
  0.216000006         5.86735960E-22
  0.224000007         1.74376560E-21
  0.231999993         2.61396263E-21
  0.239999995         2.06096028E-21
  0.247999996         8.53553154E-22
  0.256000012         1.83807153E-22
  0.263999999        -3.01920242E-22
  0.272000015        -1.58246326E-21
  0.280000001        -3.30053344E-21
  0.287999988        -4.21432811E-21
  0.296000004        -4.02811432E-21
  0.303999990        -3.39680224E-21
  0.312000006        -2.46937667E-21
  0.319999993        -8.20381919E-22
  0.328000009         1.35647442E-21
  0.335999995         3.17482986E-21
  0.344000012         4.26990955E-21
  0.351999998         5.15576789E-21
  0.360000014         6.05699934E-21
  0.368000001         6.09815400E-21
  0.375999987         4.30727889E-21
  0.384000003         9.28670787E-22
  0.391999990        -2.63996086E-21
  0.400000006        -5.26488141E-21
  0.407999992        -6.84559246E-21
  0.416000009        -7.65617534E-21
  0.423999995        -7.59331527E-21
  0.432000011        -6.23240242E-21
  0.439999998        -3.61227431E-21
  0.448000014        -2.20905792E-22
  0.456000000         3.41406762E-21
  0.463999987         6.89321351E-21
  0.472000003         9.61002199E-21
  0.479999989         1.06926294E-20
  0.488000005         9.51745289E-21
  0.495999992         6.10670530E-21
  0.504000008         1.18242399E-21
  0.512000024        -3.95538059E-21
  0.519999981        -7.84392837E-21
  0.527999997        -9.68971890E-21
  0.536000013        -9.85713897E-21
  0.544000030        -9.05932650E-21
  0.551999986        -7.23774150E-21
  0.560000002        -3.88335610E-21
  0.568000019         6.56430572E-22
  0.575999975         5.04489701E-21
  0.583999991         8.24503423E-21
  0.592000008         1.00941553E-20
  0.600000024         1.04965819E-20
  0.607999980         8.89151950E-21
  0.615999997         5.12864501E-21
  0.624000013         2.44904481E-22
  0.632000029        -4.23734538E-21
  0.639999986        -7.40715843E-21
  0.648000002        -8.97377066E-21
  0.656000018        -8.72718198E-21
  0.663999975        -6.71200683E-21
  0.671999991        -3.69305932E-21
  0.680000007        -7.24577753E-22
  0.688000023         1.81054407E-21
  0.695999980         4.22516102E-21
  0.703999996         6.48391380E-21
  0.712000012         7.62787268E-21
  0.720000029         6.62659841E-21
  0.727999985         3.62222996E-21
  0.736000001        -4.79016631E-23
  0.744000018        -3.05489917E-21
  0.751999974        -4.97197506E-21
  0.759999990        -5.93261448E-21
  0.768000007        -5.87156346E-21
  0.776000023        -4.49329477E-21
  0.783999979        -1.82105569E-21
  0.791999996         1.53702164E-21
  0.800000012         4.61398963E-21
  0.808000028         6.43570387E-21
  0.815999985         6.40355045E-21
  0.824000001         4.65651996E-21
  0.832000017         1.98013831E-21
  0.839999974        -8.04264317E-22
  0.847999990        -3.25333063E-21
  0.856000006        -5.14863224E-21
  0.864000022        -6.30154147E-21
  0.871999979        -6.59663573E-21
  0.879999995        -5.86308688E-21
  0.888000011        -3.72663243E-21
  0.896000028        -1.24535742E-22
  0.903999984         4.00968128E-21
  0.912000000         7.20429804E-21
  0.920000017         8.68386001E-21
  0.927999973         8.57114292E-21
  0.935999990         6.96038800E-21
  0.944000006         3.73179706E-21
  0.952000022        -5.29747235E-22
  0.959999979        -4.38546644E-21
  0.967999995        -6.80407510E-21
  0.976000011        -7.92057183E-21
  0.984000027        -8.18549581E-21
  0.991999984        -7.40027441E-21
   1.00000000        -5.09465023E-21
   1.00800002        -1.46878499E-21
   1.01600003         2.49109056E-21
   1.02400005         5.71318220E-21
   1.03199995         7.64290814E-21
   1.03999996         8.24394856E-21
   1.04799998         7.60714631E-21
   1.05599999         5.73469859E-21
   1.06400001         2.76034250E-21
   1.07200003        -8.29529474E-22
   1.08000004        -4.38269773E-21
   1.08800006        -7.24807964E-21
   1.09599996        -8.62122854E-21
   1.10399997        -7.81915819E-21
   1.11199999        -5.17512787E-21
   1.12000000        -2.06071431E-21
   1.12800002         5.64529109E-22
   1.13600004         2.96137404E-21
   1.14400005         5.37379339E-21
   1.15199995         6.94990042E-21
   1.15999997         6.84150341E-21
   1.16799998         5.45735923E-21
   1.17600000         3.52778556E-21
   1.18400002         8.50576536E-22
   1.19200003        -2.76564364E-21
   1.20000005        -6.14776828E-21
   1.20799994        -7.73627534E-21
   1.21599996        -7.30079545E-21
   1.22399998        -5.52168747E-21
   1.23199999        -2.64380010E-21
   1.24000001         1.14967291E-21
   1.24800003         4.67947018E-21
   1.25600004         6.48641271E-21
   1.26400006         6.35560104E-21
   1.27199996         5.17701932E-21
   1.27999997         3.62578466E-21
   1.28799999         1.76445117E-21
   1.29600000        -4.16031888E-22
   1.30400002        -2.76870498E-21
   1.31200004        -5.03923478E-21
   1.32000005        -6.69484203E-21
   1.32799995        -7.00338928E-21
   1.33599997        -5.63284956E-21
   1.34399998        -2.98064497E-21
   1.35200000         1.83671393E-22
   1.36000001         3.18039515E-21
   1.36800003         5.58051301E-21
   1.37600005         7.16317327E-21
   1.38399994         7.69774197E-21
   1.39199996         6.79319089E-21
   1.39999998         4.28607391E-21
   1.40799999         7.52665190E-22
   1.41600001        -2.81249587E-21
   1.42400002        -5.76026243E-21
   1.43200004        -7.74327649E-21
   1.44000006        -8.24674675E-21
   1.44799995        -6.99850778E-21
   1.45599997        -4.61876449E-21
   1.46399999        -1.96983410E-21
   1.47200000         8.73560484E-22
   1.48000002         4.10103748E-21
   1.48800004         7.01443263E-21
   1.49600005         8.47114373E-21
   1.50399995         8.15834667E-21
   1.51199996         6.44680093E-21
   1.51999998         3.46374207E-21
   1.52800000        -5.68916993E-22
   1.53600001        -4.50108351E-21
   1.54400003        -6.93278247E-21
   1.55200005        -7.53854848E-21
   1.55999994        -6.89475962E-21
   1.56799996        -5.39091215E-21
   1.57599998        -3.13331533E-21
   1.58399999        -5.13453836E-22
   1.59200001         1.94923637E-21
   1.60000002         4.09025707E-21
   1.60800004         5.87690136E-21
   1.61600006         6.96420887E-21
   1.62399995         6.85361304E-21
   1.63199997         5.28895124E-21
   1.63999999         2.39640342E-21
   1.64800000        -1.22763074E-21
   1.65600002        -4.57692362E-21
   1.66400003        -6.75657401E-21
   1.67200005        -7.43328328E-21
   1.67999995        -6.64018025E-21
   1.68799996        -4.53972149E-21
   1.69599998        -1.63801885E-21
   1.70400000         1.27514809E-21
   1.71200001         3.73154745E-21
   1.72000003         5.65515274E-21
   1.72800004         6.71417212E-21
   1.73599994         6.32388504E-21
   1.74399996         4.47835220E-21
   1.75199997         1.85410293E-21
   1.75999999        -9.93720484E-22
   1.76800001        -3.76310835E-21
   1.77600002        -5.83513318E-21
   1.78400004        -6.53700401E-21
   1.79200006        -5.93186525E-21
   1.79999995        -4.46295121E-21
   1.80799997        -2.07077194E-21
   1.81599998         1.27851073E-21
   1.82400000         4.52551604E-21
   1.83200002         6.23429226E-21
   1.84000003         6.23669302E-21
   1.84800005         5.43583194E-21
   1.85599995         4.19739796E-21
   1.86399996         2.12660482E-21
   1.87199998        -6.89546978E-22
   1.88000000        -3.37518225E-21
   1.88800001        -5.26685000E-21
   1.89600003        -6.32392463E-21
   1.90400004        -6.49012977E-21
   1.91199994        -5.41766910E-21
   1.91999996        -3.01108021E-21
   1.92799997         2.00959148E-22
   1.93599999         3.34253184E-21
   1.94400001         5.65231657E-21
   1.95200002         6.74282860E-21
   1.96000004         6.58376839E-21
   1.96800005         5.28202319E-21
   1.97599995         2.98830366E-21
   1.98399997         7.71362519E-23
   1.99199998        -2.84671522E-21
   2.00000000        -5.26709840E-21
   2.00799990        -6.80691369E-21
   2.01600003        -6.94401807E-21
   2.02399993        -5.27632017E-21
   2.03200006        -2.29009315E-21
   2.03999996         7.43802735E-22
   2.04800010         2.95328116E-21
   2.05599999         4.43665955E-21
   2.06399989         5.48085835E-21
   2.07200003         5.86754630E-21
   2.07999992         5.23364767E-21
   2.08800006         3.53830950E-21
   2.09599996         9.52363271E-22
   2.10400009        -2.15265878E-21
   2.11199999        -4.94500485E-21
   2.11999989        -6.44054901E-21
   2.12800002        -6.28630810E-21
   2.13599992        -4.87610329E-21
   2.14400005        -2.73950950E-21
   2.15199995        -2.69242215E-22
   2.16000009         2.07190689E-21
   2.16799998         3.83883900E-21
   2.17600012         4.90124546E-21
   2.18400002         5.27311606E-21
   2.19199991         4.77942131E-21
   2.20000005         3.28965307E-21
   2.20799994         1.12819751E-21
   2.21600008        -1.13720946E-21
   2.22399998        -3.16799148E-21
   2.23200011        -4.79605903E-21
   2.24000001        -5.68651613E-21
   2.24799991        -5.44463648E-21
   2.25600004        -4.01730079E-21
   2.26399994        -1.77191983E-21
   2.27200007         7.58804169E-22
   2.27999997         3.08467485E-21
   2.28800011         4.82482698E-21
   2.29600000         5.72436166E-21
   2.30399990         5.62251545E-21
   2.31200004         4.45408487E-21
   2.31999993         2.38373076E-21
   2.32800007        -1.04884441E-22
   2.33599997        -2.41010017E-21
   2.34400010        -4.10930444E-21
   2.35200000        -5.00746668E-21
   2.35999990        -5.01200365E-21
   2.36800003        -4.16048705E-21
   2.37599993        -2.74415189E-21
   2.38400006        -1.17288496E-21
   2.39199996         3.80228180E-22
   2.40000010         2.03650796E-21
   2.40799999         3.75881533E-21
   2.41599989         4.98629078E-21
   2.42400002         5.00462567E-21
   2.43199992         3.68994891E-21
   2.44000006         1.65604245E-21
   2.44799995        -3.53316587E-22
   2.45600009        -1.94657227E-21
   2.46399999        -2.98034609E-21
   2.47199988        -3.39696420E-21
   2.48000002        -3.32947305E-21
   2.48799992        -3.01223495E-21
   2.49600005        -2.40098059E-21
   2.50399995        -1.19899638E-21
   2.51200008         5.68594785E-22
   2.51999998         2.32778318E-21
   2.52800012         3.45575461E-21
   2.53600001         3.72056631E-21
   2.54399991         3.17003661E-21
   2.55200005         1.98913087E-21
   2.55999994         5.70202193E-22
   2.56800008        -6.75937373E-22
   2.57599998        -1.68109485E-21
   2.58400011        -2.56078901E-21
   2.59200001        -3.08987724E-21
   2.59999990        -2.79079773E-21
   2.60800004        -1.61156402E-21
   2.61599994        -9.81667219E-23
   2.62400007         1.18887210E-21
   2.63199997         2.05345830E-21
   2.64000010         2.41775745E-21
   2.64800000         2.14623925E-21
   2.65599990         1.31935903E-21
   2.66400003         3.87982695E-22
   2.67199993        -2.08702278E-22
   2.68000007        -4.96578221E-22
   2.68799996        -8.71027546E-22
   2.69600010        -1.53283454E-21
   2.70400000        -2.14710924E-21
   2.71199989        -2.17603290E-21
   2.72000003        -1.49391323E-21
   2.72799993        -4.76423570E-22
   2.73600006         5.01020934E-22
   2.74399996         1.35431024E-21
   2.75200009         2.03346359E-21
   2.75999999         2.35317132E-21
   2.76799989         2.24764460E-21
   2.77600002         1.85342902E-21
   2.78399992         1.18447114E-21
   2.79200006         1.10653507E-22
   2.79999995        -1.16457973E-21
   2.80800009        -2.02784236E-21
   2.81599998        -2.12157044E-21
   2.82399988        -1.72709375E-21
   2.83200002        -1.27987237E-21
   2.83999991        -8.73754355E-22
   2.84800005        -4.48359407E-22
   2.85599995        -5.51968437E-23
   2.86400008         3.10104251E-22
   2.87199998         7.92523997E-22
   2.88000011         1.35860326E-21
   2.88800001         1.68274315E-21
   2.89599991         1.54522670E-21
   2.90400004         1.07737569E-21
   2.91199994         4.74252120E-22
   2.92000008        -2.26413480E-22
   2.92799997        -9.00802514E-22
   2.93600011        -1.19090774E-21
   2.94400001        -9.06835723E-22
   2.95199990        -4.05133490E-22
   2.96000004        -2.50324498E-22
   2.96799994        -5.24229348E-22
   2.97600007        -7.36066597E-22
   2.98399997        -4.65506492E-22
   2.99200010         1.56526500E-22
   3.00000000         7.29573755E-22
   3.00799990         1.08805573E-21
   3.01600003         1.27308519E-21
   3.02399993         1.19398341E-21
   3.03200006         6.84220084E-22
   3.03999996        -1.32117112E-22
   3.04800010        -8.37999846E-22
   3.05599999        -1.12902328E-21
   3.06399989        -1.02628911E-21
   3.07200003        -7.12963600E-22
   3.07999992        -3.52013414E-22
   3.08800006        -2.19379772E-23
   3.09599996         3.22769621E-22
   3.10400009         7.45893356E-22
   3.11199999         1.09587921E-21
   3.11999989         1.06922717E-21
   3.12800002         6.31903081E-22
   3.13599992         1.21935189E-22
   3.14400005        -2.26471364E-22
   3.15199995        -5.78891376E-22
   3.16000009        -1.11853408E-21
   3.16799998        -1.63770573E-21
   3.17600012        -1.75037981E-21
   3.18400002        -1.32547777E-21
   3.19199991        -5.19141814E-22
   3.20000005         4.59701687E-22
   3.20799994         1.44022717E-21
   3.21600008         2.23153841E-21
   3.22399998         2.59994418E-21
   3.23200011         2.35804737E-21
   3.24000001         1.53040934E-21
   3.24799991         4.07149112E-22
   3.25600004        -6.98842864E-22
   3.26399994        -1.69900373E-21
   3.27200007        -2.54358382E-21
   3.27999997        -2.92987353E-21
   3.28800011        -2.55261757E-21
   3.29600000        -1.56974646E-21
   3.30399990        -4.30798834E-22
   3.31200004         6.69685000E-22
   3.31999993         1.75358816E-21
   3.32800007         2.62034662E-21
   3.33599997         2.94022520E-21
   3.34400010         2.68981889E-21
   3.35200000         2.05812371E-21
   3.35999990         1.06185282E-21
   3.36800003        -3.15799069E-22
   3.37599993        -1.78924094E-21
   3.38400006        -2.96600593E-21
   3.39199996        -3.65143735E-21
   3.40000010        -3.66729676E-21
   3.40799999        -2.76947097E-21
   3.41599989        -1.10318610E-21
   3.42400002         6.88874944E-22
   3.43199992         2.13811163E-21
   3.44000006         3.27117196E-21
   3.44799995         4.01735289E-21
   3.45600009         3.91377478E-21
   3.46399999         2.77237519E-21
   3.47199988         1.08951157E-21
   3.48000002        -5.53170320E-22
   3.48799992        -2.00073927E-21
   3.49600005        -3.19171759E-21
   3.50399995        -3.84830270E-21
   3.51200008        -3.77732431E-21
   3.51999998        -3.06673658E-21
   3.52800012        -1.81714879E-21
   3.53600001        -6.79448422E-23
   3.54399991         1.90035880E-21
   3.55200005         3.52010668E-21
   3.55999994         4.28115121E-21
   3.56800008         3.97460082E-21
   3.57599998         2.74221440E-21
   3.58400011         1.07126331E-21
   3.59200001        -4.68843083E-22
   3.59999990        -1.66999415E-21
   3.60800004        -2.66300216E-21
   3.61599994        -3.40765010E-21
   3.62400007        -3.56826854E-21
   3.63199997        -2.97540320E-21
   3.64000010        -1.82555389E-21
   3.64800000        -3.51125321E-22
   3.65599990         1.31716870E-21
   3.66400003         2.88908278E-21
   3.67199993         3.87892131E-21
   3.68000007         3.93838946E-21
   3.68799996         3.06254696E-21
   3.69600010         1.54762009E-21
   3.70400000        -1.13680890E-22
   3.71199989        -1.48721329E-21
   3.72000003        -2.48365119E-21
   3.72799993        -3.17759372E-21
   3.73600006        -3.36500850E-21
   3.74399996        -2.72113826E-21
   3.75200009        -1.40544529E-21
