 -0.239999995         0.00000000    
 -0.231999993         0.00000000    
 -0.224000007         0.00000000    
 -0.216000006         0.00000000    
 -0.208000004         0.00000000    
 -0.200000003         0.00000000    
 -0.192000002         0.00000000    
 -0.184000000         0.00000000    
 -0.175999999         0.00000000    
 -0.167999998         0.00000000    
 -0.159999996         0.00000000    
 -0.151999995         4.31800481E-38
 -0.143999994         1.57085423E-37
 -0.136000007         7.92065292E-38
 -0.128000006        -3.08549366E-36
 -0.119999997        -1.38146171E-35
 -0.112000003        -1.42390105E-35
 -0.104000002         7.42330365E-35
  -9.60000008E-02     3.07968063E-34
  -8.79999995E-02     3.56298950E-34
  -7.99999982E-02    -7.26695016E-34
  -7.19999969E-02    -3.28649927E-33
  -6.40000030E-02    -4.16638765E-33
  -5.60000017E-02     3.55508981E-33
  -4.80000004E-02     2.13278242E-32
  -3.99999991E-02     3.01106111E-32
  -3.20000015E-02    -5.83455960E-33
  -2.40000002E-02    -9.30458968E-32
  -1.60000008E-02    -1.51467302E-31
  -8.00000038E-03    -4.08950929E-32
   0.00000000         2.73382229E-31
   8.00000038E-03     5.47077892E-31
   1.60000008E-02     3.52491471E-31
   2.40000002E-02    -4.65618108E-31
   3.20000015E-02    -1.36872080E-30
   3.99999991E-02    -1.36436667E-30
   4.80000004E-02     2.59836561E-32
   5.60000017E-02     1.99084638E-30
   6.40000030E-02     2.93235266E-30
   7.19999969E-02     2.01867946E-30
   7.99999982E-02     1.86016295E-32
   8.79999995E-02    -1.86944189E-30
   9.60000008E-02    -3.81856161E-30
  0.104000002        -6.79046938E-30
  0.112000003        -9.15408345E-30
  0.119999997        -5.03730663E-30
  0.128000006         1.04873709E-29
  0.136000007         3.17426929E-29
  0.143999994         3.95731749E-29
  0.151999995         1.45790113E-29
  0.159999996        -4.01933123E-29
  0.167999998        -8.94160884E-29
  0.175999999        -8.61133352E-29
  0.184000000        -1.29761501E-29
  0.192000002         9.14416070E-29
  0.200000003         1.52454038E-28
  0.208000004         1.17047887E-28
  0.216000006         2.72868068E-30
  0.224000007        -1.09463045E-28
  0.231999993        -1.39092767E-28
  0.239999995        -7.61013643E-29
  0.247999996         6.55845049E-30
  0.256000012         1.57441117E-29
  0.263999999        -7.02849957E-29
  0.272000015        -1.59567364E-28
  0.280000001        -1.01473686E-28
  0.287999988         1.84839345E-28
  0.296000004         5.96152403E-28
  0.303999990         8.42691129E-28
  0.312000006         5.97910873E-28
  0.319999993        -2.57590987E-28
  0.328000009        -1.44239577E-27
  0.335999995        -2.29045745E-27
  0.344000012        -2.04970311E-27
  0.351999998        -3.68751355E-28
  0.360000014         2.28786765E-27
  0.368000001         4.61025720E-27
  0.375999987         4.97797693E-27
  0.384000003         2.42319851E-27
  0.391999990        -2.47026477E-27
  0.400000006        -7.38867231E-27
  0.407999992        -9.24405929E-27
  0.416000009        -6.01246247E-27
  0.423999995         1.55998929E-27
  0.432000011         9.68497090E-27
  0.439999998         1.33583395E-26
  0.448000014         9.54049149E-27
  0.456000000        -3.37829635E-28
  0.463999987        -1.06011350E-26
  0.472000003        -1.46989161E-26
  0.479999989        -9.74101624E-27
  0.488000005         1.08115650E-27
  0.495999992         1.03413132E-26
  0.504000008         1.15742273E-26
  0.512000024         4.13449897E-27
  0.519999981        -6.07969437E-27
  0.527999997        -1.08842190E-26
  0.536000013        -6.02162296E-27
  0.544000030         5.38632185E-27
  0.551999986         1.48781786E-26
  0.560000002         1.47442972E-26
  0.568000019         3.66977015E-27
  0.575999975        -1.21373977E-26
  0.583999991        -2.29605948E-26
  0.592000008        -2.17416983E-26
  0.600000024        -8.30485567E-27
  0.607999980         1.06552575E-26
  0.615999997         2.52574819E-26
  0.624000013         2.74858923E-26
  0.632000029         1.52951055E-26
  0.639999986        -5.76423822E-27
  0.648000002        -2.43094129E-26
  0.656000018        -2.84579538E-26
  0.663999975        -1.31902551E-26
  0.671999991         1.42097962E-26
  0.680000007         3.55179261E-26
  0.688000023         3.16889401E-26
  0.695999980        -2.69330152E-27
  0.703999996        -5.05810340E-26
  0.712000012        -7.83383992E-26
  0.720000029        -5.64834639E-26
  0.727999985         1.65380868E-26
  0.736000001         1.05149686E-25
  0.744000018         1.52722954E-25
  0.751999974         1.16706597E-25
  0.759999990         9.66090371E-28
  0.768000007        -1.38350820E-25
  0.776000023        -2.21584002E-25
  0.783999979        -1.93553741E-25
  0.791999996        -6.03001517E-26
  0.800000012         1.10663047E-25
  0.808000028         2.28573581E-25
  0.815999985         2.32507433E-25
  0.824000001         1.25690687E-25
  0.832000017        -2.98544225E-26
  0.839999974        -1.52798734E-25
  0.847999990        -1.89140458E-25
  0.856000006        -1.37014896E-25
  0.864000022        -3.81746679E-26
  0.871999979         5.25751141E-26
  0.879999995         9.70788500E-26
  0.888000011         8.61164075E-26
  0.896000028         3.41677074E-26
  0.903999984        -3.17734899E-26
  0.912000000        -7.97387382E-26
  0.920000017        -7.81722084E-26
  0.927999973        -7.76538343E-27
  0.935999990         1.18605360E-25
  0.944000006         2.41862362E-25
  0.952000022         2.70670157E-25
  0.959999979         1.31787867E-25
  0.967999995        -1.65384911E-25
  0.976000011        -4.97284603E-25
  0.984000027        -6.67568315E-25
  0.991999984        -5.16836569E-25
   1.00000000        -4.09374683E-26
   1.00800002         5.65814379E-25
   1.01600003         9.90916483E-25
   1.02400005         9.76931952E-25
   1.03199995         4.85733362E-25
   1.03999996        -2.56281039E-25
   1.04799998        -8.74606141E-25
   1.05599999        -1.05957016E-24
   1.06400001        -7.45918818E-25
   1.07200003        -1.42466702E-25
   1.08000004         4.05168403E-25
   1.08800006         6.27948861E-25
   1.09599996         4.85146301E-25
   1.10399997         1.59621567E-25
   1.11199999        -8.63674132E-26
   1.12000000        -9.18511304E-26
   1.12800002         1.06394595E-25
   1.13600004         3.15663455E-25
   1.14400005         3.29532419E-25
   1.15199995         6.83073425E-26
   1.15999997        -3.63275574E-25
   1.16799998        -7.36025171E-25
   1.17600000        -8.22603592E-25
   1.18400002        -5.25131787E-25
   1.19200003         5.97607742E-26
   1.20000005         6.72206077E-25
   1.20799994         1.00141031E-24
   1.21599996         8.38190547E-25
   1.22399998         1.98129048E-25
   1.23199999        -6.50924434E-25
   1.24000001        -1.29425421E-24
   1.24800003        -1.37692506E-24
   1.25600004        -8.10331973E-25
   1.26400006         1.54819179E-25
   1.27199996         1.05172809E-24
   1.27999997         1.46525342E-24
   1.28799999         1.27590599E-24
   1.29600000         7.17731339E-25
   1.30400002         1.99195341E-25
   1.31200004         9.87026462E-27
   1.32000005         1.22275684E-25
   1.32799995         2.36782295E-25
   1.33599997         3.49092583E-26
   1.34399998        -5.55225204E-25
   1.35200000        -1.28228916E-24
   1.36000001        -1.74212930E-24
   1.36800003        -1.65936004E-24
   1.37600005        -1.06594662E-24
   1.38399994        -2.45949894E-25
   1.39199996         4.82862204E-25
   1.39999998         9.67957870E-25
   1.40799999         1.25135467E-24
   1.41600001         1.43410880E-24
   1.42400002         1.52888245E-24
   1.43200004         1.44407023E-24
   1.44000006         1.10831969E-24
   1.44799995         5.96688522E-25
   1.45599997         1.13830311E-25
   1.46399999        -1.80037817E-25
   1.47200000        -3.50651212E-25
   1.48000002        -6.91620191E-25
   1.48800004        -1.49725159E-24
   1.49600005        -2.75687579E-24
   1.50399995        -4.02304783E-24
   1.51199996        -4.59822959E-24
   1.51999998        -3.94917732E-24
   1.52800000        -2.07365697E-24
   1.53600001         4.48166967E-25
   1.54400003         2.76970149E-24
   1.55200005         4.25964576E-24
   1.55999994         4.82360281E-24
   1.56799996         4.85175252E-24
   1.57599998         4.84306756E-24
   1.58399999         4.97894057E-24
   1.59200001         4.95735181E-24
   1.60000002         4.21204037E-24
   1.60800004         2.36167837E-24
   1.61600006        -4.29128302E-25
   1.62399995        -3.45216142E-24
   1.63199997        -5.84277876E-24
   1.63999999        -7.09495108E-24
   1.64800000        -7.33573352E-24
   1.65600002        -7.15101858E-24
   1.66400003        -7.06920661E-24
   1.67200005        -7.07735396E-24
   1.67999995        -6.54672470E-24
   1.68799996        -4.66663054E-24
   1.69599998        -1.10671545E-24
   1.70400000         3.57035764E-24
   1.71200001         8.07953863E-24
   1.72000003         1.10993305E-23
   1.72800004         1.20247772E-23
   1.73599994         1.12649037E-23
   1.74399996         9.86096247E-24
   1.75199997         8.68397096E-24
   1.75999999         7.77124627E-24
   1.76800001         6.28258646E-24
   1.77600002         3.12555565E-24
   1.78400004        -2.17078626E-24
   1.79200006        -8.94284592E-24
   1.79999995        -1.55965027E-23
   1.80799997        -2.03960523E-23
   1.81599998        -2.22946165E-23
   1.82400000        -2.12706845E-23
   1.83200002        -1.79775421E-23
   1.84000003        -1.30465674E-23
   1.84800005        -6.61966554E-24
   1.85599995         1.46949345E-24
   1.86399996         1.10574286E-23
   1.87199998         2.10347394E-23
   1.88000000         2.94041655E-23
   1.88800001         3.40788006E-23
   1.89600003         3.39542110E-23
   1.90400004         2.94683440E-23
   1.91199994         2.22412374E-23
   1.91999996         1.39942378E-23
   1.92799997         5.49374015E-24
   1.93599999        -3.59823637E-24
   1.94400001        -1.39309949E-23
   1.95200002        -2.52852071E-23
   1.96000004        -3.58991287E-23
   1.96800005        -4.31052815E-23
   1.97599995        -4.46548789E-23
   1.98399997        -4.01298812E-23
   1.99199998        -3.12463923E-23
   2.00000000        -2.08819907E-23
   2.00799990        -1.13876986E-23
   2.01600003        -3.46109054E-24
   2.02399993         3.83372200E-24
   2.03200006         1.19086545E-23
   2.03999996         2.12714450E-23
   2.04800010         3.08825350E-23
   2.05599999         3.88139539E-23
   2.06399989         4.34369470E-23
   2.07200003         4.44793668E-23
   2.07999992         4.30327852E-23
   2.08800006         4.05251005E-23
   2.09599996         3.73979107E-23
   2.10400009         3.25468201E-23
   2.11199999         2.39660376E-23
   2.11999989         1.03717783E-23
   2.12800002        -7.49082121E-24
   2.13599992        -2.66711569E-23
   2.14400005        -4.34077939E-23
   2.15199995        -5.50371719E-23
   2.16000009        -6.13140308E-23
   2.16799998        -6.40613873E-23
   2.17600012        -6.52942191E-23
   2.18400002        -6.52082143E-23
   2.19199991        -6.17521389E-23
   2.20000005        -5.21075602E-23
   2.20799994        -3.51976515E-23
   2.21600008        -1.30265414E-23
   2.22399998         1.00974220E-23
   2.23200011         3.02478301E-23
   2.24000001         4.62779570E-23
   2.24799991         6.00534690E-23
   2.25600004         7.42212909E-23
   2.26399994         8.91222865E-23
   2.27200007         1.01350981E-22
   2.27999997         1.05340396E-22
   2.28800011         9.69697297E-23
   2.29600000         7.65119411E-23
   2.30399990         4.86146703E-23
   2.31200004         1.93074480E-23
   2.31999993        -7.82694458E-24
   2.32800007        -3.33236461E-23
   2.33599997        -6.00973044E-23
   2.34400010        -8.96213704E-23
   2.35200000        -1.19010863E-22
   2.35999990        -1.41365616E-22
   2.36800003        -1.49341416E-22
   2.37599993        -1.39407398E-22
   2.38400006        -1.13794372E-22
   2.39199996        -7.88645641E-23
   2.40000010        -4.12438064E-23
   2.40799999        -4.44834247E-24
   2.41599989         3.16555272E-23
   2.42400002         6.85054572E-23
   2.43199992         1.05577830E-22
   2.44000006         1.38743215E-22
   2.44799995         1.61473693E-22
   2.45600009         1.68064910E-22
   2.46399999         1.56639339E-22
   2.47199988         1.29918336E-22
   2.48000002         9.33703782E-23
   2.48799992         5.21964017E-23
   2.49600005         9.27094579E-24
   2.50399995        -3.46111712E-23
   2.51200008        -7.85951649E-23
   2.51999998        -1.19556843E-22
   2.52800012        -1.51642063E-22
   2.53600001        -1.68122819E-22
   2.54399991        -1.64427580E-22
   2.55200005        -1.40378745E-22
   2.55999994        -1.00212333E-22
   2.56800008        -5.05974817E-23
   2.57599998         1.81188610E-24
   2.58400011         5.16077853E-23
   2.59200001         9.41267507E-23
   2.59999990         1.24226420E-22
   2.60800004         1.36032222E-22
   2.61599994         1.24634772E-22
   2.62400007         8.90117892E-23
   2.63199997         3.42107612E-23
   2.64000010        -2.90223663E-23
   2.64800000        -8.74315367E-23
   2.65599990        -1.29647598E-22
   2.66400003        -1.49307918E-22
   2.67199993        -1.45349288E-22
   2.68000007        -1.19833576E-22
   2.68799996        -7.54113349E-23
   2.69600010        -1.45538132E-23
   2.70400000         5.88176332E-23
   2.71199989         1.36894037E-22
   2.72000003         2.07298042E-22
   2.72799993         2.55747090E-22
   2.73600006         2.71190033E-22
   2.74399996         2.50445465E-22
   2.75200009         1.99237373E-22
   2.75999999         1.28796866E-22
   2.76799989         5.02484328E-23
   2.77600002        -2.94266385E-23
   2.78399992        -1.07146168E-22
   2.79200006        -1.79920783E-22
   2.79999995        -2.41074025E-22
   2.80800009        -2.80209654E-22
   2.81599998        -2.87826541E-22
   2.82399988        -2.61554772E-22
   2.83200002        -2.09325213E-22
   2.83999991        -1.46573019E-22
   2.84800005        -8.88852117E-23
   2.85599995        -4.48439247E-23
   2.86400008        -1.37444703E-23
   2.87199998         1.07435219E-23
   2.88000011         3.41843155E-23
   2.88800001         5.70924133E-23
   2.89599991         7.56000494E-23
   2.90400004         8.58502682E-23
   2.91199994         8.81451277E-23
   2.92000008         8.75299550E-23
   2.92799997         9.06156002E-23
   2.93600011         1.01466395E-22
   2.94400001         1.19752544E-22
   2.95199990         1.42150463E-22
   2.96000004         1.65258307E-22
   2.96799994         1.87220207E-22
   2.97600007         2.06852961E-22
   2.98399997         2.21435982E-22
   2.99200010         2.25649232E-22
   3.00000000         2.13055907E-22
   3.00799990         1.79320668E-22
   3.01600003         1.24707890E-22
   3.02399993         5.39072959E-23
   3.03200006        -2.67811051E-23
   3.03999996        -1.12783835E-22
   3.04800010        -2.02593478E-22
   3.05599999        -2.96021178E-22
   3.06399989        -3.90501749E-22
   3.07200003        -4.78088988E-22
   3.07999992        -5.45439079E-22
   3.08800006        -5.77322691E-22
   3.09599996        -5.61976532E-22
   3.10400009        -4.95450592E-22
   3.11199999        -3.82615109E-22
   3.11999989        -2.34600367E-22
   3.12800002        -6.45368495E-23
   3.13599992         1.15523744E-22
   3.14400005         2.94710255E-22
   3.15199995         4.61038990E-22
   3.16000009         5.99378636E-22
   3.16799998         6.92431204E-22
   3.17600012         7.25323953E-22
   3.18400002         6.91547074E-22
   3.19199991         5.96471034E-22
   3.20000005         4.55981950E-22
   3.20799994         2.90965223E-22
   3.21600008         1.21119015E-22
   3.22399998        -3.83390849E-23
   3.23200011        -1.76061423E-22
   3.24000001        -2.82258622E-22
   3.24799991        -3.48086856E-22
   3.25600004        -3.68296336E-22
   3.26399994        -3.45404603E-22
   3.27200007        -2.91628498E-22
   3.27999997        -2.25913986E-22
   3.28800011        -1.66927107E-22
   3.29600000        -1.26001887E-22
   3.30399990        -1.04364007E-22
   3.31200004        -9.60332255E-23
   3.31999993        -9.39118460E-23
   3.32800007        -9.45447775E-23
   3.33599997        -9.84089906E-23
   3.34400010        -1.06223049E-22
   3.35200000        -1.14803988E-22
   3.35999990        -1.16293395E-22
   3.36800003        -1.01880376E-22
   3.37599993        -6.76252967E-23
   3.38400006        -1.82232549E-23
   3.39199996         3.42162170E-23
   3.40000010         7.59544499E-23
   3.40799999         9.85081157E-23
   3.41599989         1.02527703E-22
   3.42400002         9.65883564E-23
   3.43199992         9.20854626E-23
   3.44000006         9.76034185E-23
   3.44799995         1.15920258E-22
   3.45600009         1.44611394E-22
   3.46399999         1.78739788E-22
   3.47199988         2.13170336E-22
   3.48000002         2.43034338E-22
   3.48799992         2.62895255E-22
   3.49600005         2.66361346E-22
   3.50399995         2.47480661E-22
   3.51200008         2.03532929E-22
   3.51999998         1.37317990E-22
   3.52800012         5.70244135E-23
   3.53600001        -2.66452507E-23
   3.54399991        -1.04459718E-22
   3.55200005        -1.71276129E-22
   3.55999994        -2.25813845E-22
   3.56800008        -2.68228535E-22
   3.57599998        -2.97733877E-22
   3.58400011        -3.12424461E-22
   3.59200001        -3.11546314E-22
   3.59999990        -2.98294612E-22
   3.60800004        -2.80308154E-22
   3.61599994        -2.66422461E-22
   3.62400007        -2.60999970E-22
   3.63199997        -2.59422778E-22
   3.64000010        -2.48304610E-22
   3.64800000        -2.11308498E-22
   3.65599990        -1.37757328E-22
   3.66400003        -2.90656526E-23
   3.67199993         1.00957055E-22
   3.68000007         2.32032947E-22
   3.68799996         3.45683241E-22
   3.69600010         4.30568360E-22
   3.70400000         4.82082416E-22
   3.71199989         4.97814347E-22
   3.72000003         4.73628049E-22
   3.72799993         4.04452343E-22
   3.73600006         2.89827320E-22
   3.74399996         1.39980957E-22
   3.75200009        -2.28297435E-23
