 -0.239999995         0.00000000    
 -0.231999993         0.00000000    
 -0.224000007        -1.87863902E-38
 -0.216000006        -1.05879925E-29
 -0.208000004         2.19945957E-24
 -0.200000003         5.82442197E-24
 -0.192000002         1.12354402E-25
 -0.184000000        -1.68858469E-23
 -0.175999999        -1.31596191E-23
 -0.167999998         4.23799713E-23
 -0.159999996         1.07459200E-22
 -0.151999995         8.55485636E-23
 -0.143999994        -4.27964677E-23
 -0.136000007        -1.54829995E-22
 -0.128000006        -1.07632081E-22
 -0.119999997         9.58226375E-23
 -0.112000003         3.02257673E-22
 -0.104000002         3.53534490E-22
  -9.60000008E-02     2.17102397E-22
  -8.79999995E-02     6.22286930E-24
  -7.99999982E-02    -1.02801646E-22
  -7.19999969E-02    -8.68896839E-24
  -6.40000030E-02     2.23448196E-22
  -5.60000017E-02     4.20335711E-22
  -4.80000004E-02     4.59630602E-22
  -3.99999991E-02     3.59840050E-22
  -3.20000015E-02     2.34763743E-22
  -2.40000002E-02     1.99193159E-22
  -1.60000008E-02     2.93146443E-22
  -8.00000038E-03     4.37512002E-22
   0.00000000         4.81983562E-22
   8.00000038E-03     3.61961392E-22
   1.60000008E-02     1.88639235E-22
   2.40000002E-02     1.17159135E-22
   3.20000015E-02     1.56923922E-22
   3.99999991E-02     1.95468499E-22
   4.80000004E-02     1.72999797E-22
   5.60000017E-02     1.24978741E-22
   6.40000030E-02     7.22570083E-23
   7.19999969E-02    -1.11087519E-23
   7.99999982E-02    -1.21652260E-22
   8.79999995E-02    -2.28315329E-22
   9.60000008E-02    -3.57092113E-22
  0.104000002        -5.72344310E-22
  0.112000003        -8.68188556E-22
  0.119999997        -1.17452276E-21
  0.128000006        -1.46628265E-21
  0.136000007        -1.77118272E-21
  0.143999994        -2.07537677E-21
  0.151999995        -2.32333224E-21
  0.159999996        -2.49564208E-21
  0.167999998        -2.58076090E-21
  0.175999999        -2.49719203E-21
  0.184000000        -2.17739403E-21
  0.192000002        -1.69868021E-21
  0.200000003        -1.16295192E-21
  0.208000004        -4.55099990E-22
  0.216000006         6.71031491E-22
  0.224000007         2.20890626E-21
  0.231999993         3.79869852E-21
  0.239999995         5.10397580E-21
  0.247999996         6.09996386E-21
  0.256000012         6.84774362E-21
  0.263999999         7.15383679E-21
  0.272000015         6.67796399E-21
  0.280000001         5.29860518E-21
  0.287999988         3.17122185E-21
  0.296000004         4.76526260E-22
  0.303999990        -2.65762549E-21
  0.312000006        -5.95712980E-21
  0.319999993        -8.94633072E-21
  0.328000009        -1.12060856E-20
  0.335999995        -1.25523535E-20
  0.344000012        -1.28595194E-20
  0.351999998        -1.18505045E-20
  0.360000014        -9.24075855E-21
  0.368000001        -5.07982681E-21
  0.375999987         1.58115089E-22
  0.384000003         5.79643583E-21
  0.391999990         1.11757295E-20
  0.400000006         1.57022355E-20
  0.407999992         1.88501020E-20
  0.416000009         2.02176529E-20
  0.423999995         1.95563704E-20
  0.432000011         1.67614548E-20
  0.439999998         1.19271496E-20
  0.448000014         5.46008836E-21
  0.456000000        -1.91531651E-21
  0.463999987        -9.32466245E-21
  0.472000003        -1.59247261E-20
  0.479999989        -2.09698735E-20
  0.488000005        -2.38309474E-20
  0.495999992        -2.40697054E-20
  0.504000008        -2.15363323E-20
  0.512000024        -1.64197646E-20
  0.519999981        -9.25951148E-21
  0.527999997        -9.23933986E-22
  0.536000013         7.50513006E-21
  0.544000030         1.49428481E-20
  0.551999986         2.04835527E-20
  0.560000002         2.34578454E-20
  0.568000019         2.34349331E-20
  0.575999975         2.02911621E-20
  0.583999991         1.43235532E-20
  0.592000008         6.27008236E-21
  0.600000024        -2.81663521E-21
  0.607999980        -1.17444000E-20
  0.615999997        -1.93071322E-20
  0.624000013        -2.43991365E-20
  0.632000029        -2.62033160E-20
  0.639999986        -2.43948035E-20
  0.648000002        -1.91944644E-20
  0.656000018        -1.12437764E-20
  0.663999975        -1.47265150E-21
  0.671999991         8.93493275E-21
  0.680000007         1.86098900E-20
  0.688000023         2.62317196E-20
  0.695999980         3.07957306E-20
  0.703999996         3.17102208E-20
  0.712000012         2.87771353E-20
  0.720000029         2.22473215E-20
  0.727999985         1.29146481E-20
  0.736000001         2.02371332E-21
  0.744000018        -9.03088005E-21
  0.751999974        -1.89653047E-20
  0.759999990        -2.66764245E-20
  0.768000007        -3.12567514E-20
  0.776000023        -3.21220307E-20
  0.783999979        -2.91976500E-20
  0.791999996        -2.29860745E-20
  0.800000012        -1.44393375E-20
  0.808000028        -4.72113415E-21
  0.815999985         4.99635346E-21
  0.824000001         1.36324696E-20
  0.832000017         2.02546870E-20
  0.839999974         2.41766766E-20
  0.847999990         2.50634482E-20
  0.856000006         2.29488643E-20
  0.864000022         1.81898051E-20
  0.871999979         1.14579693E-20
  0.879999995         3.72390290E-21
  0.888000011        -3.91532170E-21
  0.896000028        -1.05180571E-20
  0.903999984        -1.54429240E-20
  0.912000000        -1.82789661E-20
  0.920000017        -1.87730756E-20
  0.927999973        -1.69048301E-20
  0.935999990        -1.29759871E-20
  0.944000006        -7.55717620E-21
  0.952000022        -1.35472595E-21
  0.959999979         4.87731539E-21
  0.967999995         1.03970415E-20
  0.976000011         1.45689221E-20
  0.984000027         1.69580249E-20
  0.991999984         1.73663920E-20
   1.00000000         1.58226516E-20
   1.00800002         1.25522307E-20
   1.01600003         7.93330912E-21
   1.02400005         2.46202494E-21
   1.03199995        -3.25838459E-21
   1.03999996        -8.55820772E-21
   1.04799998        -1.28152160E-20
   1.05599999        -1.55758675E-20
   1.06400001        -1.65991513E-20
   1.07200003        -1.58453296E-20
   1.08000004        -1.34628241E-20
   1.08800006        -9.75486584E-21
   1.09599996        -5.12169879E-21
   1.10399997        -4.53143066E-23
   1.11199999         4.88849404E-21
   1.12000000         9.05562599E-21
   1.12800002         1.19661054E-20
   1.13600004         1.33706153E-20
   1.14400005         1.32114622E-20
   1.15199995         1.15647596E-20
   1.15999997         8.67990990E-21
   1.16799998         4.98397281E-21
   1.17600000         9.50014712E-22
   1.18400002        -3.01199927E-21
   1.19200003        -6.50004624E-21
   1.20000005        -9.05750977E-21
   1.20799994        -1.02991402E-20
   1.21599996        -1.01053667E-20
   1.22399998        -8.63572521E-21
   1.23199999        -6.18321708E-21
   1.24000001        -3.09157684E-21
   1.24800003         2.22488285E-22
   1.25600004         3.30344392E-21
   1.26400006         5.79164642E-21
   1.27199996         7.50038912E-21
   1.27999997         8.34377165E-21
   1.28799999         8.24265851E-21
   1.29600000         7.15908745E-21
   1.30400002         5.21412451E-21
   1.31200004         2.72201189E-21
   1.32000005         8.19914699E-23
   1.32799995        -2.35938992E-21
   1.33599997        -4.35615848E-21
   1.34399998        -5.74101069E-21
   1.35200000        -6.42167088E-21
   1.36000001        -6.40053698E-21
   1.36800003        -5.75687697E-21
   1.37600005        -4.60021998E-21
   1.38399994        -3.06655341E-21
   1.39199996        -1.35017626E-21
   1.39999998         3.18145710E-22
   1.40799999         1.75621975E-21
   1.41600001         2.87708058E-21
   1.42400002         3.64946311E-21
   1.43200004         4.04735596E-21
   1.44000006         4.04993202E-21
   1.44799995         3.66106100E-21
   1.45599997         2.91933465E-21
   1.46399999         1.91498875E-21
   1.47200000         7.94945459E-22
   1.48000002        -2.90887726E-22
   1.48800004        -1.26120517E-21
   1.49600005        -2.09494819E-21
   1.50399995        -2.75567648E-21
   1.51199996        -3.16457452E-21
   1.51999998        -3.24986318E-21
   1.52800000        -2.98143418E-21
   1.53600001        -2.35702046E-21
   1.54400003        -1.40793017E-21
   1.55200005        -2.37421611E-22
   1.55999994         9.87470787E-22
   1.56799996         2.10622116E-21
   1.57599998         3.00844074E-21
   1.58399999         3.61200733E-21
   1.59200001         3.84367162E-21
   1.60000002         3.66391292E-21
   1.60800004         3.08770952E-21
   1.61600006         2.16774514E-21
   1.62399995         9.78253560E-22
   1.63199997        -3.70925099E-22
   1.63999999        -1.71998496E-21
   1.64800000        -2.87848231E-21
   1.65600002        -3.67270898E-21
   1.66400003        -3.99550693E-21
   1.67200005        -3.83134267E-21
   1.67999995        -3.24119495E-21
   1.68799996        -2.32607611E-21
   1.69599998        -1.20762957E-21
   1.70400000        -2.79195955E-23
   1.71200001         1.06161725E-21
   1.72000003         1.92547149E-21
   1.72800004         2.46200333E-21
   1.73599994         2.61763021E-21
   1.74399996         2.40728683E-21
   1.75199997         1.91378554E-21
   1.75999999         1.24865296E-21
   1.76800001         5.17001767E-22
   1.77600002        -1.82535244E-22
   1.78400004        -7.60505332E-22
   1.79200006        -1.15973832E-21
   1.79999995        -1.34869709E-21
   1.80799997        -1.28947219E-21
   1.81599998        -9.70862450E-22
   1.82400000        -4.93588274E-22
   1.83200002        -4.84894907E-23
   1.84000003         2.41540197E-22
   1.84800005         4.05322085E-22
   1.85599995         5.13920236E-22
   1.86399996         5.64875198E-22
   1.87199998         5.33436478E-22
   1.88000000         4.58121845E-22
   1.88800001         3.89394264E-22
   1.89600003         3.12921911E-22
   1.90400004         2.12059771E-22
   1.91199994         1.55248546E-22
   1.91999996         2.23236908E-22
   1.92799997         3.77207915E-22
   1.93599999         4.85410727E-22
   1.94400001         4.62372606E-22
   1.95200002         3.10229989E-22
   1.96000004         4.91942590E-23
   1.96800005        -3.07245596E-22
   1.97599995        -7.10142684E-22
   1.98399997        -1.07807413E-21
   1.99199998        -1.35280270E-21
   2.00000000        -1.50927282E-21
   2.00799990        -1.51488516E-21
   2.01600003        -1.32773192E-21
   2.02399993        -9.46411246E-22
   2.03200006        -4.33320967E-22
   2.03999996         1.18967356E-22
   2.04800010         6.30416943E-22
   2.05599999         1.04871123E-21
   2.06399989         1.34359819E-21
   2.07200003         1.49441295E-21
   2.07999992         1.48256676E-21
   2.08800006         1.30197178E-21
   2.09599996         9.79202212E-22
   2.10400009         5.75374798E-22
   2.11199999         1.62284693E-22
   2.11999989        -2.03387842E-22
   2.12800002        -4.87589549E-22
   2.13599992        -6.72211879E-22
   2.14400005        -7.49079596E-22
   2.15199995        -7.23499753E-22
   2.16000009        -6.20368092E-22
   2.16799998        -4.76967366E-22
   2.17600012        -3.25073878E-22
   2.18400002        -1.85910749E-22
   2.19199991        -7.84220131E-23
   2.20000005        -1.11737564E-23
   2.20799994         3.75501041E-23
   2.21600008         1.03356095E-22
   2.22399998         1.87926547E-22
   2.23200011         2.57829607E-22
   2.24000001         3.05613626E-22
   2.24799991         3.73475606E-22
   2.25600004         4.86474794E-22
   2.26399994         5.93148680E-22
   2.27200007         6.07012134E-22
   2.27999997         4.87674417E-22
   2.28800011         2.57273239E-22
   2.29600000        -3.67759349E-23
   2.30399990        -3.46969678E-22
   2.31200004        -6.35810379E-22
   2.31999993        -8.87115462E-22
   2.32800007        -1.09268630E-21
   2.33599997        -1.21623843E-21
   2.34400010        -1.19655038E-21
   2.35200000        -1.00125649E-21
   2.35999990        -6.55598948E-22
   2.36800003        -2.15199740E-22
   2.37599993         2.56979909E-22
   2.38400006         6.86967945E-22
   2.39199996         1.01216796E-21
   2.40000010         1.22485547E-21
   2.40799999         1.35482248E-21
   2.41599989         1.39531798E-21
   2.42400002         1.28808662E-21
   2.43199992         1.00139998E-21
   2.44000006         5.87078868E-22
   2.44799995         1.41110025E-22
   2.45600009        -2.62511427E-22
   2.46399999        -5.87065742E-22
   2.47199988        -8.20355514E-22
   2.48000002        -9.70415337E-22
   2.48799992        -1.05121933E-21
   2.49600005        -1.05555052E-21
   2.50399995        -9.57988341E-22
   2.51200008        -7.52743799E-22
   2.51999998        -4.73393586E-22
   2.52800012        -1.74077772E-22
   2.53600001         9.38649120E-23
   2.54399991         2.97015597E-22
   2.55200005         4.40035398E-22
   2.55999994         5.66228252E-22
   2.56800008         7.07374022E-22
   2.57599998         8.32589851E-22
   2.58400011         8.74489346E-22
   2.59200001         8.04078070E-22
   2.59999990         6.49620316E-22
   2.60800004         4.43378603E-22
   2.61599994         1.87883847E-22
   2.62400007        -1.15602012E-22
   2.63199997        -4.40471909E-22
   2.64000010        -7.54157639E-22
   2.64800000        -1.03481143E-21
   2.65599990        -1.24602037E-21
   2.66400003        -1.31941972E-21
   2.67199993        -1.19704808E-21
   2.68000007        -8.89417573E-22
   2.68799996        -4.70865193E-22
   2.69600010        -1.87700223E-23
   2.70400000         4.24994938E-22
   2.71199989         8.35337308E-22
   2.72000003         1.17482962E-21
   2.72799993         1.39985556E-21
   2.73600006         1.48212126E-21
   2.74399996         1.40792441E-21
   2.75200009         1.16832395E-21
   2.75999999         7.74361162E-22
   2.76799989         2.80335821E-22
   2.77600002        -2.31446867E-22
   2.78399992        -6.94174877E-22
   2.79200006        -1.06846391E-21
   2.79999995        -1.31536106E-21
   2.80800009        -1.38975198E-21
   2.81599998        -1.27444935E-21
   2.82399988        -1.00069316E-21
   2.83200002        -6.26684583E-22
   2.83999991        -2.15453993E-22
   2.84800005         1.68256988E-22
   2.85599995         4.77214248E-22
   2.86400008         7.09733991E-22
   2.87199998         8.85286416E-22
   2.88000011         9.84997121E-22
   2.88800001         9.59581613E-22
   2.89599991         8.07609541E-22
   2.90400004         5.92976923E-22
   2.91199994         3.62775648E-22
   2.92000008         1.04293186E-22
   2.92799997        -1.85068460E-22
   2.93600011        -4.45947942E-22
   2.94400001        -6.24552160E-22
   2.95199990        -7.43019024E-22
   2.96000004        -8.46471076E-22
   2.96799994        -9.16822373E-22
   2.97600007        -8.95940102E-22
   2.98399997        -7.69045679E-22
   2.99200010        -5.72667528E-22
   3.00000000        -3.36761817E-22
   3.00799990        -6.55205654E-23
   3.01600003         2.32285281E-22
   3.02399993         5.28514744E-22
   3.03200006         7.87596001E-22
   3.03999996         9.75356509E-22
   3.04800010         1.06726827E-21
   3.05599999         1.05908876E-21
   3.06399989         9.54583895E-22
   3.07200003         7.42828082E-22
   3.07999992         4.18083784E-22
   3.08800006         2.67118368E-23
   3.09599996        -3.44318701E-22
   3.10400009        -6.41907756E-22
   3.11199999        -8.77052778E-22
   3.11999989        -1.06246432E-21
   3.12800002        -1.15299334E-21
   3.13599992        -1.08139668E-21
   3.14400005        -8.41580543E-22
   3.15199995        -5.06639492E-22
   3.16000009        -1.59989032E-22
   3.16799998         1.69387899E-22
   3.17600012         4.85299050E-22
   3.18400002         7.53496410E-22
   3.19199991         8.94021390E-22
   3.20000005         8.60259254E-22
   3.20799994         6.88519262E-22
   3.21600008         4.39548399E-22
   3.22399998         1.29530935E-22
   3.23200011        -2.34741251E-22
   3.24000001        -5.89052106E-22
   3.24799991        -8.46407412E-22
   3.25600004        -9.79567133E-22
   3.26399994        -1.00532171E-21
   3.27200007        -9.05954824E-22
   3.27999997        -6.42380164E-22
   3.28800011        -2.42232401E-22
   3.29600000         1.95891227E-22
   3.30399990         5.89592773E-22
   3.31200004         9.04008445E-22
   3.31999993         1.10202339E-21
   3.32800007         1.13511233E-21
   3.33599997         9.96067528E-22
   3.34400010         7.27094636E-22
   3.35200000         3.70262127E-22
   3.35999990        -4.27212672E-23
   3.36800003        -4.55833972E-22
   3.37599993        -7.96767942E-22
   3.38400006        -1.02029871E-21
   3.39199996        -1.10228743E-21
   3.40000010        -1.00654279E-21
   3.40799999        -7.16369813E-22
   3.41599989        -2.96023854E-22
   3.42400002         1.34907231E-22
   3.43199992         4.94088904E-22
   3.44000006         7.61240272E-22
   3.44799995         9.17287158E-22
   3.45600009         9.18285691E-22
   3.46399999         7.48082527E-22
   3.47199988         4.54341371E-22
   3.48000002         1.09559186E-22
   3.48799992        -2.35232541E-22
   3.49600005        -5.40270210E-22
   3.50399995        -7.52214391E-22
   3.51200008        -8.25247108E-22
   3.51999998        -7.60381588E-22
   3.52800012        -5.96145897E-22
   3.53600001        -3.59681471E-22
   3.54399991        -5.52246494E-23
   3.55200005         2.87904822E-22
   3.55999994         5.85532701E-22
   3.56800008         7.48037947E-22
   3.57599998         7.51259629E-22
   3.58400011         6.35911908E-22
   3.59200001         4.49159224E-22
   3.59999990         2.16959594E-22
   3.60800004        -3.39641191E-23
   3.61599994        -2.64827220E-22
   3.62400007        -4.43552278E-22
   3.63199997        -5.51847457E-22
   3.64000010        -5.73164271E-22
   3.64800000        -4.98030482E-22
   3.65599990        -3.43584770E-22
   3.66400003        -1.49274205E-22
   3.67199993         4.46861367E-23
   3.68000007         2.02297901E-22
   3.68799996         2.92979709E-22
   3.69600010         3.13266006E-22
   3.70400000         2.95025875E-22
   3.71199989         2.69063062E-22
   3.72000003         2.34629473E-22
   3.72799993         1.84153949E-22
   3.73600006         1.33283919E-22
   3.74399996         9.81225773E-23
   3.75200009         6.70117397E-23
   3.75999999         2.68659171E-23
   3.76799989        -6.53138294E-24
   3.77600002        -1.97679755E-23
   3.78399992        -3.99818373E-23
   3.79200006        -1.01618803E-22
   3.79999995        -1.91397181E-22
   3.80800009        -2.64425948E-22
   3.81599998        -3.01938266E-22
   3.82399988        -3.16919782E-22
   3.83200002        -3.13422894E-22
   3.83999991        -2.76279082E-22
   3.84800005        -1.97520269E-22
   3.85599995        -8.57162060E-23
   3.86400008         4.64256065E-23
   3.87199998         1.81204354E-22
   3.88000011         2.88445185E-22
   3.88800001         3.39094145E-22
   3.89599991         3.24040432E-22
   3.90400004         2.50525260E-22
   3.91199994         1.32653449E-22
   3.92000008        -3.00028218E-24
   3.92799997        -1.18661316E-22
   3.93600011        -1.89717488E-22
   3.94400001        -2.18101436E-22
   3.95199990        -2.09417049E-22
   3.96000004        -1.50563633E-22
   3.96799994        -2.70588126E-23
   3.97600007         1.45296352E-22
   3.98399997         3.21885188E-22
   3.99200010         4.60594097E-22
   4.00000000         5.43671576E-22
   4.00799990         5.74255045E-22
   4.01599979         5.63737068E-22
   4.02400017         5.25764207E-22
   4.03200006         4.76364954E-22
   4.03999996         4.32021682E-22
   4.04799986         4.03170350E-22
   4.05600023         3.92354499E-22
   4.06400013         4.03930433E-22
   4.07200003         4.49942885E-22
   4.07999992         5.32917017E-22
   4.08799982         6.23597449E-22
   4.09600019         6.73269584E-22
   4.10400009         6.54761266E-22
   4.11199999         5.77631773E-22
   4.11999989         4.58946047E-22
   4.12799978         2.99747252E-22
   4.13600016         1.03317662E-22
   4.14400005        -1.02399466E-22
   4.15199995        -2.82639876E-22
   4.15999985        -4.28128268E-22
   4.16800022        -5.50572304E-22
   4.17600012        -6.51059754E-22
   4.18400002        -7.14545412E-22
   4.19199991        -7.40112633E-22
   4.19999981        -7.58311162E-22
   4.20800018        -8.04164756E-22
   4.21600008        -8.78810234E-22
   4.22399998        -9.50773533E-22
   4.23199987        -9.94293715E-22
   4.23999977        -1.01199378E-21
   4.24800014        -1.01277633E-21
   4.25600004        -9.81011569E-22
   4.26399994        -8.85236534E-22
   4.27199984        -7.15243042E-22
   4.28000021        -4.95740085E-22
   4.28800011        -2.62824901E-22
   4.29600000        -4.16037826E-23
   4.30399990         1.49825638E-22
   4.31199980         2.90853142E-22
   4.32000017         3.66583082E-22
   4.32800007         3.83648176E-22
   4.33599997         3.71827985E-22
   4.34399986         3.67295228E-22
   4.35200024         3.90079045E-22
   4.36000013         4.34950034E-22
   4.36800003         4.87593891E-22
   4.37599993         5.49134785E-22
   4.38399982         6.34113962E-22
   4.39200020         7.40806528E-22
   4.40000010         8.36878427E-22
   4.40799999         8.81625596E-22
   4.41599989         8.49487933E-22
   4.42399979         7.25916520E-22
   4.43200016         5.02097774E-22
   4.44000006         1.94764822E-22
   4.44799995        -1.38122539E-22
   4.45599985        -4.20799182E-22
   4.46400023        -6.00320675E-22
   4.47200012        -6.61289854E-22
   4.48000002        -6.12728233E-22
   4.48799992        -4.73372483E-22
   4.49599981        -2.67310655E-22
   4.50400019        -2.68950198E-23
   4.51200008         2.03894796E-22
   4.51999998         3.78561424E-22
   4.52799988         4.69684552E-22
   4.53599977         4.74431248E-22
   4.54400015         3.92359396E-22
   4.55200005         2.16843070E-22
   4.55999994        -3.33033093E-23
   4.56799984        -2.95281668E-22
   4.57600021        -5.05623893E-22
   4.58400011        -6.47273272E-22
   4.59200001        -7.22370407E-22
   4.59999990        -6.98431849E-22
   4.60799980        -5.31324452E-22
   4.61600018        -2.40505237E-22
   4.62400007         8.46974206E-23
   4.63199997         3.62862461E-22
   4.63999987         5.69951474E-22
   4.64799976         7.09207461E-22
   4.65600014         7.76097161E-22
   4.66400003         7.70712561E-22
   4.67199993         7.11023482E-22
   4.67999983         6.10848851E-22
   4.68800020         4.64551983E-22
   4.69600010         2.70234792E-22
   4.70400000         5.28192295E-23
   4.71199989        -1.49150701E-22
   4.71999979        -3.10270530E-22
   4.72800016        -4.27017552E-22
   4.73600006        -5.10647612E-22
   4.74399996        -5.72659652E-22
   4.75199986        -6.05540536E-22
   4.76000023        -5.79959582E-22
   4.76800013        -4.74829238E-22
   4.77600002        -3.05399257E-22
   4.78399992        -1.05142423E-22
   4.79199982         1.11224049E-22
   4.80000019         3.40361472E-22
   4.80800009         5.51075560E-22
   4.81599998         6.87750950E-22
   4.82399988         7.21964137E-22
   4.83199978         6.70324823E-22
   4.84000015         5.48257673E-22
   4.84800005         3.38831536E-22
   4.85599995         3.39230479E-23
   4.86399984        -3.15403579E-22
   4.87200022        -6.20516271E-22
   4.88000011        -8.19748508E-22
   4.88800001        -9.00923683E-22
   4.89599991        -8.72093733E-22
   4.90399981        -7.39206491E-22
   4.91200018        -5.14187263E-22
   4.92000008        -2.23963922E-22
   4.92799997         9.41931034E-23
   4.93599987         3.95962610E-22
   4.94399977         6.31075345E-22
   4.95200014         7.56786906E-22
   4.96000004         7.57114568E-22
   4.96799994         6.47190726E-22
   4.97599983         4.62297583E-22
   4.98400021         2.44186327E-22
   4.99200010         2.73215411E-23
   5.00000000        -1.69423568E-22
   5.00799990        -3.31348692E-22
   5.01599979        -4.29044558E-22
   5.02400017        -4.31210505E-22
   5.03200006        -3.47370065E-22
   5.03999996        -2.38717312E-22
   5.04799986        -1.66754997E-22
   5.05600023        -1.40561634E-22
   5.06400013        -1.29440387E-22
   5.07200003        -1.13961144E-22
   5.07999992        -1.01491140E-22
   5.08799982        -9.70235741E-23
   5.09600019        -8.46596688E-23
   5.10400009        -4.66607786E-23
   5.11199999         1.31421261E-23
   5.11999989         7.50160210E-23
   5.12799978         1.26066309E-22
   5.13600016         1.66881783E-22
   5.14400005         1.93085584E-22
   5.15199995         1.77757789E-22
   5.15999985         8.44522994E-23
   5.16800022        -9.67143975E-23
   5.17600012        -3.33484952E-22
   5.18400002        -5.79362218E-22
   5.19199991        -8.07535376E-22
   5.19999981        -1.00141664E-21
   5.20800018        -1.11808353E-21
   5.21600008        -1.09063138E-21
   5.22399998        -8.85116072E-22
   5.23199987        -5.43493054E-22
   5.23999977        -1.53419789E-22
   5.24800014         2.17475522E-22
   5.25600004         5.41190034E-22
   5.26399994         7.94007863E-22
   5.27199984         9.36153984E-22
   5.28000021         9.42855036E-22
   5.28800011         8.34943206E-22
   5.29600000         6.56084886E-22
   5.30399990         4.30647170E-22
   5.31199980         1.68848684E-22
   5.32000017        -8.98520838E-23
   5.32800007        -2.67954391E-22
   5.33599997        -3.00303797E-22
   5.34399986        -1.84484829E-22
   5.35200024         2.55185853E-23
   5.36000013         2.65103233E-22
   5.36800003         4.89241032E-22
   5.37599993         6.66671072E-22
   5.38399982         7.64347349E-22
   5.39200020         7.51387564E-22
   5.40000010         6.18476037E-22
   5.40799999         3.84710677E-22
   5.41599989         8.09785535E-23
   5.42399979        -2.65379549E-22
   5.43200016        -6.21473406E-22
   5.44000006        -9.34810825E-22
   5.44799995        -1.14848858E-21
   5.45599985        -1.23562669E-21
   5.46400023        -1.20904836E-21
   5.47200012        -1.09607429E-21
   5.48000002        -9.15617044E-22
   5.48799992        -6.82958815E-22
   5.49599981        -4.24227887E-22
   5.50400019        -1.74394074E-22
   5.51200008         4.15106560E-23
   5.51999998         2.24820764E-22
   5.52799988         3.98003626E-22
   5.53599977         5.77275435E-22
   5.54400015         7.52515546E-22
   5.55200005         9.03181769E-22
   5.55999994         1.02815975E-21
   5.56799984         1.14056736E-21
   5.57600021         1.23448285E-21
   5.58400011         1.28367698E-21
   5.59200001         1.28086919E-21
   5.59999990         1.25061560E-21
   5.60799980         1.20803296E-21
   5.61600018         1.12913324E-21
   5.62400007         9.82731058E-22
   5.63199997         7.74401552E-22
   5.63999987         5.39225279E-22
   5.64799976         3.04820347E-22
   5.65600014         8.03527218E-23
   5.66400003        -1.29199021E-22
   5.67199993        -3.19113522E-22
   5.67999983        -4.94106474E-22
   5.68800020        -6.67707622E-22
   5.69600010        -8.47849425E-22
   5.70400000        -1.02438150E-21
   5.71199989        -1.17055609E-21
   5.71999979        -1.25955060E-21
   5.72800016        -1.28301297E-21
   5.73600006        -1.25037629E-21
   5.74399996        -1.16893798E-21
   5.75199986        -1.03458323E-21
   5.76000023        -8.48085502E-22
   5.76800013        -6.30391497E-22
   5.77600002        -4.13678962E-22
   5.78399992        -2.25405051E-22
   5.79199982        -8.59246104E-23
   5.80000019        -8.57759386E-24
   5.80800009         8.12451554E-24
   5.81599998        -1.94844889E-23
   5.82399988        -7.43643524E-23
   5.83199978        -1.44694988E-22
   5.84000015        -2.11632713E-22
   5.84800005        -2.42165581E-22
   5.85599995        -2.04375559E-22
   5.86399984        -9.14442576E-23
   5.87200022         6.66415241E-23
   5.88000011         2.14144055E-22
   5.88800001         3.02004025E-22
   5.89599991         3.16684891E-22
   5.90399981         2.70971373E-22
   5.91200018         1.68973690E-22
   5.92000008         3.20461943E-24
   5.92799997        -2.06437275E-22
   5.93599987        -3.99235638E-22
   5.94399977        -5.17491290E-22
   5.95200014        -5.39817442E-22
   5.96000004        -4.53242520E-22
   5.96799994        -2.26104575E-22
   5.97599983         1.52577071E-22
   5.98400021         6.22030026E-22
   5.99200010         1.07392823E-21
   6.00000000         1.42374192E-21
   6.00799990         1.63599715E-21
   6.01599979         1.69363605E-21
   6.02400017         1.57871570E-21
   6.03200006         1.28822566E-21
   6.03999996         8.48142048E-22
   6.04799986         3.09648655E-22
   6.05600023        -2.53266305E-22
   6.06400013        -7.45385758E-22
   6.07200003        -1.07202971E-21
   6.07999992        -1.17516475E-21
   6.08799982        -1.05377994E-21
   6.09600019        -7.57714455E-22
   6.10400009        -3.67549355E-22
   6.11199999         3.04812856E-23
   6.11999989         3.68787399E-22
   6.12799978         6.06242105E-22
   6.13600016         7.12732218E-22
   6.14400005         6.55108718E-22
   6.15199995         4.14070489E-22
   6.15999985         1.88575227E-23
   6.16800022        -4.47283729E-22
   6.17600012        -8.86093603E-22
   6.18400002        -1.22318859E-21
   6.19199991        -1.40550426E-21
   6.19999981        -1.38478486E-21
   6.20800018        -1.13920633E-21
   6.21600008        -7.14713887E-22
   6.22399998        -2.14710344E-22
   6.23199987         2.65969339E-22