 -0.239999995         0.00000000    
 -0.231999993         0.00000000    
 -0.224000007        -1.89326617E-28
 -0.216000006         1.60927625E-26
 -0.208000004         6.25918214E-24
 -0.200000003         1.82876102E-23
 -0.192000002         1.03540266E-23
 -0.184000000        -3.11451058E-23
 -0.175999999        -6.08693026E-23
 -0.167999998        -3.23783352E-23
 -0.159999996         1.79803741E-23
 -0.151999995         2.88452733E-23
 -0.143999994         1.17805585E-23
 -0.136000007        -6.17578377E-24
 -0.128000006        -5.64710307E-23
 -0.119999997        -1.26474219E-22
 -0.112000003        -1.08179311E-22
 -0.104000002         1.06073393E-24
  -9.60000008E-02     1.08407916E-23
  -8.79999995E-02    -1.59084846E-22
  -7.99999982E-02    -2.88569712E-22
  -7.19999969E-02    -1.91685778E-22
  -6.40000030E-02    -2.99576303E-23
  -5.60000017E-02    -3.52238385E-23
  -4.80000004E-02    -1.40188131E-22
  -3.99999991E-02    -1.45575710E-22
  -3.20000015E-02    -4.07029003E-23
  -2.40000002E-02     8.64207850E-23
  -1.60000008E-02     2.34801154E-22
  -8.00000038E-03     3.77379950E-22
   0.00000000         4.02789399E-22
   8.00000038E-03     3.52672019E-22
   1.60000008E-02     4.19672790E-22
   2.40000002E-02     5.89668705E-22
   3.20000015E-02     6.06976894E-22
   3.99999991E-02     4.19619274E-22
   4.80000004E-02     2.70688393E-22
   5.60000017E-02     2.34210051E-22
   6.40000030E-02     7.45860034E-23
   7.19999969E-02    -3.04047844E-22
   7.99999982E-02    -6.70464622E-22
   8.79999995E-02    -8.59522244E-22
   9.60000008E-02    -9.57803256E-22
  0.104000002        -1.03524844E-21
  0.112000003        -1.01233255E-21
  0.119999997        -8.70110196E-22
  0.128000006        -6.79005928E-22
  0.136000007        -4.11190705E-22
  0.143999994         3.42484278E-24
  0.151999995         4.80152294E-22
  0.159999996         8.71855636E-22
  0.167999998         1.17576454E-21
  0.175999999         1.41131593E-21
  0.184000000         1.45957837E-21
  0.192000002         1.26365733E-21
  0.200000003         9.69651568E-22
  0.208000004         6.92780929E-22
  0.216000006         3.41768370E-22
  0.224000007        -1.38070298E-22
  0.231999993        -6.02275031E-22
  0.239999995        -9.20007806E-22
  0.247999996        -1.13123189E-21
  0.256000012        -1.25764270E-21
  0.263999999        -1.21081228E-21
  0.272000015        -9.72378174E-22
  0.280000001        -6.57790744E-22
  0.287999988        -3.40020103E-22
  0.296000004        -1.62126188E-23
  0.303999990         2.68330949E-22
  0.312000006         4.56966498E-22
  0.319999993         5.96636934E-22
  0.328000009         7.31798570E-22
  0.335999995         7.76137803E-22
  0.344000012         6.59891008E-22
  0.351999998         4.78450879E-22
  0.360000014         3.25899291E-22
  0.368000001         1.49481468E-22
  0.375999987        -8.14929918E-23
  0.384000003        -2.52078748E-22
  0.391999990        -2.95783712E-22
  0.400000006        -3.23542957E-22
  0.407999992        -4.23590841E-22
  0.416000009        -5.18747005E-22
  0.423999995        -5.23734120E-22
  0.432000011        -4.63003948E-22
  0.439999998        -3.63217158E-22
  0.448000014        -1.98413474E-22
  0.456000000         1.23397536E-23
  0.463999987         2.04343575E-22
  0.472000003         3.67115368E-22
  0.479999989         5.16441713E-22
  0.488000005         6.07926506E-22
  0.495999992         5.99216169E-22
  0.504000008         5.27185368E-22
  0.512000024         4.18996111E-22
  0.519999981         2.29296495E-22
  0.527999997        -4.59635928E-23
  0.536000013        -3.16567609E-22
  0.544000030        -5.24663083E-22
  0.551999986        -6.85365535E-22
  0.560000002        -7.66383443E-22
  0.568000019        -6.91273889E-22
  0.575999975        -4.82934285E-22
  0.583999991        -2.40333758E-22
  0.592000008         1.71076541E-23
  0.600000024         3.16507782E-22
  0.607999980         5.89231941E-22
  0.615999997         7.36523354E-22
  0.624000013         7.69131961E-22
  0.632000029         7.20272163E-22
  0.639999986         5.31000476E-22
  0.648000002         1.90675759E-22
  0.656000018        -1.49507229E-22
  0.663999975        -3.73063025E-22
  0.671999991        -5.50006647E-22
  0.680000007        -7.31784635E-22
  0.688000023        -7.89317208E-22
  0.695999980        -6.29304258E-22
  0.703999996        -3.73924966E-22
  0.712000012        -1.50980682E-22
  0.720000029         9.50985200E-23
  0.727999985         4.16135159E-22
  0.736000001         6.80790950E-22
  0.744000018         7.51166531E-22
  0.751999974         6.68313417E-22
  0.759999990         5.22292057E-22
  0.768000007         3.00222411E-22
  0.776000023        -1.02167411E-23
  0.783999979        -3.10384884E-22
  0.791999996        -4.97275195E-22
  0.800000012        -5.74212787E-22
  0.808000028        -5.83253915E-22
  0.815999985        -5.22734981E-22
  0.824000001        -3.83368124E-22
  0.832000017        -1.88022838E-22
  0.839999974         3.60546289E-23
  0.847999990         2.69007148E-22
  0.856000006         4.72287515E-22
  0.864000022         5.91373251E-22
  0.871999979         5.89578131E-22
  0.879999995         4.69954304E-22
  0.888000011         2.77858495E-22
  0.896000028         7.26609935E-23
  0.903999984        -1.22912026E-22
  0.912000000        -3.16002583E-22
  0.920000017        -4.72518645E-22
  0.927999973        -5.21185128E-22
  0.935999990        -4.57793528E-22
  0.944000006        -3.55800855E-22
  0.952000022        -2.42237954E-22
  0.959999979        -7.47737460E-23
  0.967999995         1.27669653E-22
  0.976000011         2.70928257E-22
  0.984000027         3.39270824E-22
  0.991999984         4.08088879E-22
   1.00000000         4.67610087E-22
   1.00800002         4.09283530E-22
   1.01600003         2.29554989E-22
   1.02400005         6.12812395E-23
   1.03199995        -4.07866710E-23
   1.03999996        -1.58233153E-22
   1.04799998        -3.12390862E-22
   1.05599999        -4.01723188E-22
   1.06400001        -3.83265408E-22
   1.07200003        -3.34852042E-22
   1.08000004        -2.93690189E-22
   1.08800006        -2.00928830E-22
   1.09599996        -4.23960546E-23
   1.10399997         1.10364632E-22
   1.11199999         2.22467585E-22
   1.12000000         3.22150978E-22
   1.12800002         3.98457480E-22
   1.13600004         3.99536137E-22
   1.14400005         3.29868738E-22
   1.15199995         2.38324068E-22
   1.15999997         1.26508954E-22
   1.16799998        -3.04673165E-23
   1.17600000        -2.00110409E-22
   1.18400002        -3.21175819E-22
   1.19200003        -3.85897805E-22
   1.20000005        -4.16603200E-22
   1.20799994        -3.96396647E-22
   1.21599996        -2.93466834E-22
   1.22399998        -1.25801138E-22
   1.23199999         5.14999827E-23
   1.24000001         2.01024036E-22
   1.24800003         3.14694689E-22
   1.25600004         3.93353336E-22
   1.26400006         4.31298858E-22
   1.27199996         4.07650474E-22
   1.27999997         3.01137515E-22
   1.28799999         1.27450312E-22
   1.29600000        -6.27009493E-23
   1.30400002        -2.34918840E-22
   1.31200004        -3.82226055E-22
   1.32000005        -4.77422002E-22
   1.32799995        -4.74007510E-22
   1.33599997        -3.71283355E-22
   1.34399998        -2.20044407E-22
   1.35200000        -5.25370161E-23
   1.36000001         1.31227125E-22
   1.36800003         3.05413672E-22
   1.37600005         4.18423133E-22
   1.38399994         4.55436840E-22
   1.39199996         4.36253460E-22
   1.39999998         3.57127858E-22
   1.40799999         2.02068602E-22
   1.41600001        -1.45125163E-25
   1.42400002        -1.92578491E-22
   1.43200004        -3.47732740E-22
   1.44000006        -4.54668730E-22
   1.44799995        -4.83065804E-22
   1.45599997        -4.17654669E-22
   1.46399999        -2.93040167E-22
   1.47200000        -1.44158739E-22
   1.48000002         3.36392851E-23
   1.48800004         2.31022094E-22
   1.49600005         3.86760200E-22
   1.50399995         4.52103127E-22
   1.51199996         4.40841475E-22
   1.51999998         3.77257544E-22
   1.52800000         2.53090358E-22
   1.53600001         7.46909787E-23
   1.54400003        -1.05423365E-22
   1.55200005        -2.40398406E-22
   1.55999994        -3.26250025E-22
   1.56799996        -3.68190516E-22
   1.57599998        -3.58808498E-22
   1.58399999        -3.01758406E-22
   1.59200001        -2.11088538E-22
   1.60000002        -8.61207907E-23
   1.60800004         6.86909658E-23
   1.61600006         2.10404059E-22
   1.62399995         2.91857128E-22
   1.63199997         3.14433267E-22
   1.63999999         3.03218694E-22
   1.64800000         2.54242953E-22
   1.65600002         1.54158819E-22
   1.66400003         2.73952207E-23
   1.67200005        -8.22560664E-23
   1.67999995        -1.57876109E-22
   1.68799996        -2.03980409E-22
   1.69599998        -2.21432827E-22
   1.70400000        -2.13154558E-22
   1.71200001        -1.86949811E-22
   1.72000003        -1.36174886E-22
   1.72800004        -5.07152838E-23
   1.73599994         4.65299571E-23
   1.74399996         1.14651252E-22
   1.75199997         1.48335347E-22
   1.75999999         1.72058136E-22
   1.76800001         1.84906977E-22
   1.77600002         1.61595695E-22
   1.78400004         1.03941076E-22
   1.79200006         4.13046529E-23
   1.79999995        -1.46592918E-23
   1.80799997        -6.93442183E-23
   1.81599998        -1.12417753E-22
   1.82400000        -1.31557033E-22
   1.83200002        -1.40907736E-22
   1.84000003        -1.52536063E-22
   1.84800005        -1.42963848E-22
   1.85599995        -9.05785427E-23
   1.86399996        -1.76112992E-23
   1.87199998         4.46222674E-23
   1.88000000         9.93101285E-23
   1.88800001         1.53844032E-22
   1.89600003         1.84858648E-22
   1.90400004         1.73373363E-22
   1.91199994         1.37439121E-22
   1.91999996         9.50571080E-23
   1.92799997         3.48537996E-23
   1.93599999        -4.46025174E-23
   1.94400001        -1.10538913E-22
   1.95200002        -1.42865588E-22
   1.96000004        -1.61929895E-22
   1.96800005        -1.81642027E-22
   1.97599995        -1.77350093E-22
   1.98399997        -1.28402978E-22
   1.99199998        -5.33856758E-23
   2.00000000         2.11689341E-23
   2.00799990         9.27022635E-23
   2.01600003         1.61936546E-22
   2.02399993         2.10976356E-22
   2.03200006         2.20660501E-22
   2.03999996         1.89740738E-22
   2.04800010         1.27829735E-22
   2.05599999         4.53232712E-23
   2.06399989        -4.55534798E-23
   2.07200003        -1.30025583E-22
   2.07999992        -1.90184267E-22
   2.08800006        -2.06821962E-22
   2.09599996        -1.77215911E-22
   2.10400009        -1.27076795E-22
   2.11199999        -8.33599164E-23
   2.11999989        -3.96779680E-23
   2.12800002         2.43920194E-23
   2.13599992         9.93510294E-23
   2.14400005         1.53836535E-22
   2.15199995         1.76358602E-22
   2.16000009         1.74924945E-22
   2.16799998         1.47418363E-22
   2.17600012         8.74592415E-23
   2.18400002         7.69584931E-24
   2.19199991        -7.10676080E-23
   2.20000005        -1.36383839E-22
   2.20799994        -1.71253221E-22
   2.21600008        -1.56420793E-22
   2.22399998        -1.05680212E-22
   2.23200011        -5.97224566E-23
   2.24000001        -2.72354796E-23
   2.24799991         1.97822539E-23
   2.25600004         7.88828404E-23
   2.26399994         1.07551478E-22
   2.27200007         9.77511122E-23
   2.27999997         9.09430027E-23
   2.28800011         9.85306582E-23
   2.29600000         7.88120638E-23
   2.30399990         1.69021306E-23
   2.31200004        -4.36924055E-23
   2.31999993        -7.31515009E-23
   2.32800007        -9.11344309E-23
   2.33599997        -1.09424966E-22
   2.34400010        -1.04378560E-22
   2.35200000        -6.65148204E-23
   2.35999990        -2.06106825E-23
   2.36800003         1.63063497E-23
   2.37599993         4.72496159E-23
   2.38400006         6.48624029E-23
   2.39199996         5.83102757E-23
   2.40000010         4.52524094E-23
   2.40799999         4.99360881E-23
   2.41599989         5.92793882E-23
   2.42400002         4.37996148E-23
   2.43199992         8.36912001E-24
   2.44000006        -1.77078258E-23
   2.44799995        -2.58209951E-23
   2.45600009        -3.03604416E-23
   2.46399999        -4.00148116E-23
   2.47199988        -5.13865161E-23
   2.48000002        -5.66814357E-23
   2.48799992        -4.58876034E-23
   2.49600005        -1.82822869E-23
   2.50399995         7.04991265E-24
   2.51200008         1.22223474E-23
   2.51999998         5.27141312E-24
   2.52800012         3.92506421E-24
   2.53600001         1.07162557E-23
   2.54399991         2.36603556E-23
   2.55200005         4.60069549E-23
   2.55999994         6.54450114E-23
   2.56800008         5.69519393E-23
   2.57599998         2.47376083E-23
   2.58400011         1.72250145E-24
   2.59200001        -5.57757792E-24
   2.59999990        -2.30565662E-23
   2.60800004        -5.03402941E-23
   2.61599994        -5.47615313E-23
   2.62400007        -3.39444386E-23
   2.63199997        -2.23979589E-23
   2.64000010        -2.74656976E-23
   2.64800000        -2.14569835E-23
   2.65599990        -1.15477877E-24
   2.66400003         8.88193482E-24
   2.67199993         1.08853970E-23
   2.68000007         2.77152332E-23
   2.68799996         4.93042231E-23
   2.69600010         4.73435125E-23
   2.70400000         3.04570266E-23
   2.71199989         2.39009645E-23
   2.72000003         1.51712830E-23
   2.72799993        -1.94518994E-23
   2.73600006        -5.80533974E-23
   2.74399996        -6.16588767E-23
   2.75200009        -3.53468408E-23
   2.75999999        -1.02092193E-23
   2.76799989         7.20537583E-24
   2.77600002         2.31808733E-23
   2.78399992         2.76824040E-23
   2.79200006         1.64231169E-23
   2.79999995         9.69485361E-24
   2.80800009         1.84083564E-23
   2.81599998         2.43836858E-23
   2.82399988         1.45188382E-23
   2.83200002         2.55373997E-26
   2.83999991        -1.09504275E-23
   2.84800005        -2.37269434E-23
   2.85599995        -3.48313360E-23
   2.86400008        -3.42242192E-23
   2.87199998        -2.74261188E-23
   2.88000011        -2.39467358E-23
   2.88800001        -1.44974601E-23
   2.89599991         1.01939493E-23
   2.90400004         3.47380990E-23
   2.91199994         4.09399751E-23
   2.92000008         3.37300704E-23
   2.92799997         2.41631692E-23
   2.93600011         1.27298358E-23
   2.94400001         3.70048537E-24
   2.95199990         4.94740151E-24
   2.96000004         5.80592949E-24
   2.96799994        -9.33756589E-24
   2.97600007        -2.60630981E-23
   2.98399997        -2.01683902E-23
   2.99200010        -5.08920321E-24
   3.00000000        -1.11221065E-23
   3.00799990        -2.80962562E-23
   3.01600003        -2.15771475E-23
   3.02399993         5.06469212E-24
   3.03200006         1.77867182E-23
   3.03999996         9.17629116E-24
   3.04800010        -1.65898139E-25
   3.05599999        -4.04004897E-24
   3.06399989        -9.40905167E-24
   3.07200003        -9.08146614E-24
   3.07999992         5.03226993E-24
   3.08800006         1.90992187E-23
   3.09599996         1.91918846E-23
   3.10400009         1.52994587E-23
   3.11199999         1.86624358E-23
   3.11999989         2.01874491E-23
   3.12800002         1.12831028E-23
   3.13599992         5.34812984E-25
   3.14400005        -5.00275707E-24
   3.15199995        -9.76046238E-24
   3.16000009        -1.36886789E-23
   3.16799998        -1.17647173E-23
   3.17600012        -1.07944729E-23
   3.18400002        -2.14663741E-23
   3.19199991        -3.64109826E-23
   3.20000005        -3.88789529E-23
   3.20799994        -2.62659506E-23
   3.21600008        -6.50511860E-24
   3.22399998         1.60946131E-23
   3.23200011         3.57650760E-23
   3.24000001         4.21503528E-23
   3.24799991         3.47644059E-23
   3.25600004         2.44994607E-23
   3.26399994         1.60588052E-23
   3.27200007         7.55345124E-24
   3.27999997         4.53045894E-24
   3.28800011         1.04133252E-23
   3.29600000         1.07059445E-23
   3.30399990        -6.94190339E-24
   3.31200004        -2.85288990E-23
   3.31999993        -3.54189964E-23
   3.32800007        -3.36836728E-23
   3.33599997        -3.54609417E-23
   3.34400010        -3.23539562E-23
   3.35200000        -1.42000706E-23
   3.35999990         7.90951860E-24
   3.36800003         2.08079513E-23
   3.37599993         2.79453155E-23
   3.38400006         3.19059842E-23
   3.39199996         2.59190237E-23
   3.40000010         1.48256515E-23
   3.40799999         1.33643151E-23
   3.41599989         1.64764171E-23
   3.42400002         5.64905503E-24
   3.43199992        -1.38313191E-23
   3.44000006        -1.99306512E-23
   3.44799995        -1.54694472E-23
   3.45600009        -2.12878280E-23
   3.46399999        -3.31476986E-23
   3.47199988        -2.79873429E-23
   3.48000002        -7.00022624E-24
   3.48799992         8.62233647E-24
   3.49600005         1.67064552E-23
   3.50399995         3.00808251E-23
   3.51200008         4.32696423E-23
   3.51999998         3.91042327E-23
   3.52800012         1.94198638E-23
   3.53600001         1.23569539E-25
   3.54399991        -1.31665808E-23
   3.55200005        -2.27265447E-23
   3.55999994        -2.67310093E-23
   3.56800008        -2.67549276E-23
   3.57599998        -3.07849371E-23
   3.58400011        -3.73138150E-23
   3.59200001        -3.36685456E-23
   3.59999990        -1.59311249E-23
   3.60800004         6.73305247E-24
   3.61599994         2.74050752E-23
   3.62400007         4.36187890E-23
   3.63199997         5.02759577E-23
   3.64000010         4.70844158E-23
   3.64800000         4.23945967E-23
   3.65599990         3.59847926E-23
   3.66400003         1.56790775E-23
   3.67199993        -1.65113384E-23
   3.68000007        -3.84696477E-23
   3.68799996        -4.07064439E-23
   3.69600010        -3.84543186E-23
   3.70400000        -4.11779776E-23
   3.71199989        -3.95826957E-23
   3.72000003        -3.07490471E-23
   3.72799993        -2.39017297E-23
   3.73600006        -1.61776250E-23
   3.74399996         4.66021000E-24
   3.75200009         3.14670273E-23
