 -0.239999995         0.00000000    
 -0.231999993         0.00000000    
 -0.224000007         0.00000000    
 -0.216000006         0.00000000    
 -0.208000004         0.00000000    
 -0.200000003         0.00000000    
 -0.192000002         0.00000000    
 -0.184000000         0.00000000    
 -0.175999999         0.00000000    
 -0.167999998         0.00000000    
 -0.159999996         0.00000000    
 -0.151999995        -1.57267811E-38
 -0.143999994         2.34576844E-38
 -0.136000007         2.61942704E-38
 -0.128000006         6.38227775E-38
 -0.119999997         4.09969036E-38
 -0.112000003        -5.17411230E-37
 -0.104000002        -1.93109242E-36
  -9.60000008E-02    -7.78763931E-37
  -8.79999995E-02     1.25974122E-35
  -7.99999982E-02     3.56400044E-35
  -7.19999969E-02     1.20857063E-35
  -6.40000030E-02    -1.44925252E-34
  -5.60000017E-02    -3.44285949E-34
  -4.80000004E-02    -1.04507096E-34
  -3.99999991E-02     1.01370950E-33
  -3.20000015E-02     2.12247040E-33
  -2.40000002E-02     5.79297759E-34
  -1.60000008E-02    -4.94494107E-33
  -8.00000038E-03    -9.34005126E-33
   0.00000000        -2.22162702E-33
   8.00000038E-03     1.83627631E-32
   1.60000008E-02     3.15794059E-32
   2.40000002E-02     6.04357792E-33
   3.20000015E-02    -5.54484388E-32
   3.99999991E-02    -8.69456277E-32
   4.80000004E-02    -1.14977483E-32
   5.60000017E-02     1.43489751E-31
   6.40000030E-02     2.06198119E-31
   7.19999969E-02     1.62733498E-32
   7.99999982E-02    -3.27862490E-31
   8.79999995E-02    -4.44129225E-31
   9.60000008E-02    -3.56857045E-32
  0.104000002         6.53900518E-31
  0.112000003         8.89529677E-31
  0.119999997         1.67742245E-31
  0.128000006        -1.05772298E-30
  0.136000007        -1.58453686E-30
  0.143999994        -6.47393922E-31
  0.151999995         1.11624182E-30
  0.159999996         2.14895056E-30
  0.167999998         1.57164112E-30
  0.175999999         7.76755382E-32
  0.184000000        -1.07807878E-30
  0.192000002        -1.78622122E-30
  0.200000003        -2.98848148E-30
  0.208000004        -4.34167766E-30
  0.216000006        -2.75682634E-30
  0.224000007         4.73634397E-30
  0.231999993         1.52449227E-29
  0.239999995         1.83352638E-29
  0.247999996         3.91929979E-30
  0.256000012        -2.46677335E-29
  0.263999999        -4.60209777E-29
  0.272000015        -3.45961657E-29
  0.280000001         1.39746560E-29
  0.287999988         6.94028596E-29
  0.296000004         8.40148781E-29
  0.303999990         3.31084871E-29
  0.312000006        -5.57265482E-29
  0.319999993        -1.16253056E-28
  0.328000009        -9.63608052E-29
  0.335999995        -6.39565976E-30
  0.344000012         8.41602677E-29
  0.351999998         1.05659345E-28
  0.360000014         5.24243969E-29
  0.368000001        -1.09712909E-29
  0.375999987        -1.50634233E-29
  0.384000003         3.52674004E-29
  0.391999990         5.07414350E-29
  0.400000006        -5.53909549E-29
  0.407999992        -2.51737051E-28
  0.416000009        -3.62219298E-28
  0.423999995        -1.89531404E-28
  0.432000011         2.83515280E-28
  0.439999998         7.87336917E-28
  0.448000014         8.91419756E-28
  0.456000000         3.27570013E-28
  0.463999987        -7.14427805E-28
  0.472000003        -1.58648315E-27
  0.479999989        -1.56593213E-27
  0.488000005        -4.10884780E-28
  0.495999992         1.32255034E-27
  0.504000008         2.51457868E-27
  0.512000024         2.20619801E-27
  0.519999981         3.48069900E-28
  0.527999997        -2.00248662E-27
  0.536000013        -3.28406647E-27
  0.544000030        -2.50001750E-27
  0.551999986        -8.62328512E-30
  0.560000002         2.59785936E-27
  0.568000019         3.53717757E-27
  0.575999975         2.11063298E-27
  0.583999991        -7.29838664E-28
  0.592000008        -2.99782571E-27
  0.600000024        -3.08166799E-27
  0.607999980        -9.30115637E-28
  0.615999997         1.88082717E-27
  0.624000013         3.27878557E-27
  0.632000029         2.20057738E-27
  0.639999986        -6.36937388E-28
  0.648000002        -3.25263991E-27
  0.656000018        -3.79332394E-27
  0.663999975        -1.77854315E-27
  0.671999991         1.63982188E-27
  0.680000007         4.46632167E-27
  0.688000023         5.05383508E-27
  0.695999980         2.93417873E-27
  0.703999996        -1.04760410E-27
  0.712000012        -5.13939721E-27
  0.720000029        -7.33502976E-27
  0.727999985        -6.14362716E-27
  0.736000001        -1.40931349E-27
  0.744000018         5.13782411E-27
  0.751999974         1.01962013E-26
  0.759999990         1.04270980E-26
  0.768000007         4.66079207E-27
  0.776000023        -4.68727091E-27
  0.783999979        -1.24028556E-26
  0.791999996        -1.35006272E-26
  0.800000012        -6.69478209E-27
  0.808000028         4.25526132E-27
  0.815999985         1.26593671E-26
  0.824000001         1.32832837E-26
  0.832000017         5.94840450E-27
  0.839999974        -4.33597242E-27
  0.847999990        -1.08644643E-26
  0.856000006        -9.83061974E-27
  0.864000022        -2.68361775E-27
  0.871999979         5.26419169E-27
  0.879999995         8.72414448E-27
  0.888000011         5.88513192E-27
  0.896000028        -8.47841354E-28
  0.903999984        -6.89902619E-27
  0.912000000        -8.57093445E-27
  0.920000017        -5.01508691E-27
  0.927999973         1.72118510E-27
  0.935999990         8.09503793E-27
  0.944000006         1.08810543E-26
  0.952000022         8.52255432E-27
  0.959999979         1.76125831E-27
  0.967999995        -6.71603511E-27
  0.976000011        -1.30207286E-26
  0.984000027        -1.39174107E-26
  0.991999984        -8.56909403E-27
   1.00000000         1.06192387E-27
   1.00800002         1.11186185E-26
   1.01600003         1.70669934E-26
   1.02400005         1.58866048E-26
   1.03199995         7.34012886E-27
   1.03999996        -5.73842691E-27
   1.04799998        -1.72302290E-26
   1.05599999        -2.10031874E-26
   1.06400001        -1.35828906E-26
   1.07200003         2.64806431E-27
   1.08000004         1.74196080E-26
   1.08800006         2.38101394E-26
   1.09599996         1.57487328E-26
   1.10399997        -1.00961870E-27
   1.11199999        -1.85108430E-26
   1.12000000        -2.36949904E-26
   1.12800002        -1.24445273E-26
   1.13600004         5.18466504E-27
   1.14400005         1.93488352E-26
   1.15199995         1.78411987E-26
   1.15999997         6.01635863E-27
   1.16799998        -7.74529521E-27
   1.17600000        -1.32149085E-26
   1.18400002        -8.33150207E-27
   1.19200003         2.72953885E-27
   1.20000005         1.09434113E-26
   1.20799994         1.05495355E-26
   1.21599996        -1.00577300E-27
   1.22399998        -1.69015791E-26
   1.23199999        -2.93475362E-26
   1.24000001        -2.81879107E-26
   1.24800003        -1.32172905E-26
   1.25600004         1.72840903E-26
   1.26400006         4.91120579E-26
   1.27199996         6.64951256E-26
   1.27999997         5.58557032E-26
   1.28799999         1.69892181E-26
   1.29600000        -3.26119998E-26
   1.30400002        -6.72204894E-26
   1.31200004        -7.53820258E-26
   1.32000005        -5.43815501E-26
   1.32799995        -2.18395957E-26
   1.33599997         3.99760810E-27
   1.34399998         2.01853143E-26
   1.35200000         3.27535418E-26
   1.36000001         5.32122487E-26
   1.36800003         7.46429618E-26
   1.37600005         7.99026364E-26
   1.38399994         5.18923550E-26
   1.39199996        -6.20872667E-27
   1.39999998        -6.26111073E-26
   1.40799999        -8.12558287E-26
   1.41600001        -4.43007829E-26
   1.42400002         2.78056459E-26
   1.43200004         8.20064483E-26
   1.44000006         7.78816364E-26
   1.44799995         1.08915036E-26
   1.45599997        -7.37942645E-26
   1.46399999        -1.11892487E-25
   1.47200000        -6.69279576E-26
   1.48000002         3.56129160E-26
   1.48800004         1.29493268E-25
   1.49600005         1.42230191E-25
   1.50399995         5.31533369E-26
   1.51199996        -8.91881209E-26
   1.51999998        -1.97647485E-25
   1.52800000        -1.99367251E-25
   1.53600001        -8.69296984E-26
   1.54400003         7.46155242E-26
   1.55200005         1.92223241E-25
   1.55999994         1.99686641E-25
   1.56799996         1.04481471E-25
   1.57599998        -2.16565861E-26
   1.58399999        -9.48784581E-26
   1.59200001        -7.43219139E-26
   1.60000002         9.42836693E-27
   1.60800004         8.15430480E-26
   1.61600006         7.94564123E-26
   1.62399995        -3.42247304E-27
   1.63199997        -1.12910339E-25
   1.63999999        -1.74490979E-25
   1.64800000        -1.47695518E-25
   1.65600002        -5.20180921E-26
   1.66400003         5.11140698E-26
   1.67200005         1.06706503E-25
   1.67999995         1.01894254E-25
   1.68799996         6.55060728E-26
   1.69599998         4.24999799E-26
   1.70400000         5.35284525E-26
   1.71200001         8.09119346E-26
   1.72000003         8.72393880E-26
   1.72800004         4.78217835E-26
   1.73599994        -2.56030970E-26
   1.74399996        -9.56895674E-26
   1.75199997        -1.26708268E-25
   1.75999999        -1.11967897E-25
   1.76800001        -7.69322731E-26
   1.77600002        -5.25808395E-26
   1.78400004        -5.28545311E-26
   1.79200006        -6.18993268E-26
   1.79999995        -4.68294950E-26
   1.80799997         7.19879949E-27
   1.81599998         9.34166126E-26
   1.82400000         1.81378597E-25
   1.83200002         2.36043157E-25
   1.84000003         2.43255121E-25
   1.84800005         2.10593025E-25
   1.85599995         1.67588520E-25
   1.86399996         1.23603065E-25
   1.87199998         6.41748207E-26
   1.88000000        -4.85869909E-26
   1.88800001        -2.32168568E-25
   1.89600003        -4.54775551E-25
   1.90400004        -6.34777339E-25
   1.91199994        -6.59745625E-25
   1.91999996        -4.54081304E-25
   1.92799997        -2.53622849E-26
   1.93599999         5.01149676E-25
   1.94400001         9.28301931E-25
   1.95200002         1.08956038E-24
   1.96000004         9.27648360E-25
   1.96800005         5.48000865E-25
   1.97599995         1.26942166E-25
   1.98399997        -1.70103260E-25
   1.99199998        -2.94511161E-25
   2.00000000        -3.37098803E-25
   2.00799990        -4.37615361E-25
   2.01600003        -6.39717186E-25
   2.02399993        -8.58215682E-25
   2.03200006        -9.09289101E-25
   2.03999996        -6.72791560E-25
   2.04800010        -1.57298298E-25
   2.05599999         4.71787090E-25
   2.06399989         9.75524328E-25
   2.07200003         1.20456053E-24
   2.07999992         1.14602379E-24
   2.08800006         8.85170468E-25
   2.09599996         5.24933191E-25
   2.10400009         8.75001558E-26
   2.11199999        -4.39609601E-25
   2.11999989        -1.02524623E-24
   2.12800002        -1.53298630E-24
   2.13599992        -1.75752688E-24
   2.14400005        -1.51104374E-24
   2.15199995        -8.62308391E-25
   2.16000009        -3.51848481E-26
   2.16799998         6.23294483E-25
   2.17600012         9.35794236E-25
   2.18400002         9.15869286E-25
   2.19199991         7.88362838E-25
   2.20000005         7.31495433E-25
   2.20799994         7.56568588E-25
   2.21600008         6.93499455E-25
   2.22399998         3.51775462E-25
   2.23200011        -2.73624096E-25
   2.24000001        -9.46757135E-25
   2.24799991        -1.33557888E-24
   2.25600004        -1.27737278E-24
   2.26399994        -8.03492401E-25
   2.27200007        -1.21614815E-25
   2.27999997         5.13591344E-25
   2.28800011         9.45156339E-25
   2.29600000         1.14168910E-24
   2.30399990         1.15650509E-24
   2.31200004         1.03837514E-24
   2.31999993         8.08042354E-25
   2.32800007         4.67881489E-25
   2.33599997         7.11264109E-26
   2.34400010        -3.03893034E-25
   2.35200000        -5.92873837E-25
   2.35999990        -7.63588119E-25
   2.36800003        -8.23271412E-25
   2.37599993        -7.95200093E-25
   2.38400006        -6.88623752E-25
   2.39199996        -5.28856985E-25
   2.40000010        -3.44005379E-25
   2.40799999        -1.63843353E-25
   2.41599989        -1.45557656E-26
   2.42400002         1.22020512E-25
   2.43199992         2.95474262E-25
   2.44000006         5.28832827E-25
   2.44799995         7.70534187E-25
   2.45600009         9.04780071E-25
   2.46399999         8.32766339E-25
   2.47199988         5.46664633E-25
   2.48000002         1.60843143E-25
   2.48799992        -1.47461227E-25
   2.49600005        -2.46984165E-25
   2.50399995        -1.46332317E-25
   2.51200008         1.49729744E-26
   2.51999998         5.13872868E-26
   2.52800012        -1.58261472E-25
   2.53600001        -5.90726557E-25
   2.54399991        -1.07715703E-24
   2.55200005        -1.37674441E-24
   2.55999994        -1.27999111E-24
   2.56800008        -7.15751199E-25
   2.57599998         1.97103467E-25
   2.58400011         1.17322845E-24
   2.59200001         1.87658985E-24
   2.59999990         2.06315841E-24
   2.60800004         1.68898630E-24
   2.61599994         9.22684748E-25
   2.62400007         5.07908094E-26
   2.63199997        -6.66040291E-25
   2.64000010        -1.09106139E-24
   2.64800000        -1.23659094E-24
   2.65599990        -1.19706497E-24
   2.66400003        -1.06622972E-24
   2.67199993        -8.91107632E-25
   2.68000007        -6.65174960E-25
   2.68799996        -3.55686733E-25
   2.69600010         7.45796988E-26
   2.70400000         6.26178065E-25
   2.71199989         1.22492941E-24
   2.72000003         1.70135525E-24
   2.72799993         1.82957413E-24
   2.73600006         1.44248176E-24
   2.74399996         5.63548327E-25
   2.75200009        -5.55926994E-25
   2.75999999        -1.53225857E-24
   2.76799989        -2.04290204E-24
   2.77600002        -1.98720018E-24
   2.78399992        -1.49901302E-24
   2.79200006        -8.19749740E-25
   2.79999995        -1.31898234E-25
   2.80800009         4.97500257E-25
   2.81599998         1.06329536E-24
   2.82399988         1.50665964E-24
   2.83200002         1.70470081E-24
   2.83999991         1.55814031E-24
   2.84800005         1.10204302E-24
   2.85599995         5.15096293E-25
   2.86400008        -7.74308887E-27
   2.87199998        -3.94746983E-25
   2.88000011        -7.19282634E-25
   2.88800001        -1.08622340E-24
   2.89599991        -1.45457204E-24
   2.90400004        -1.62966258E-24
   2.91199994        -1.39347496E-24
   2.92000008        -7.15974102E-25
   2.92799997         1.69928725E-25
   2.93600011         8.95155573E-25
   2.94400001         1.20388802E-24
   2.95199990         1.10031256E-24
   2.96000004         7.86153436E-25
   2.96799994         4.66358741E-25
   2.97600007         1.90902934E-25
   2.98399997        -1.34282159E-25
   2.99200010        -5.72755123E-25
   3.00000000        -1.02657073E-24
   3.00799990        -1.24850176E-24
   3.01600003        -1.03326559E-24
   3.02399993        -3.78848773E-25
   3.03200006         4.92386072E-25
   3.03999996         1.28039087E-24
   3.04800010         1.77009856E-24
   3.05599999         1.90071263E-24
   3.06399989         1.70616099E-24
   3.07200003         1.23041199E-24
   3.07999992         5.06865417E-25
   3.08800006        -3.89007675E-25
   3.09599996        -1.29510943E-24
   3.10400009        -1.99611746E-24
   3.11199999        -2.32165354E-24
   3.11999989        -2.21510446E-24
   3.12800002        -1.72414741E-24
   3.13599992        -9.37365055E-25
   3.14400005         4.73251462E-26
   3.15199995         1.09561440E-24
   3.16000009         1.98495942E-24
   3.16799998         2.43527416E-24
   3.17600012         2.23971101E-24
   3.18400002         1.40786675E-24
   3.19199991         2.00665876E-25
   3.20000005        -1.00824095E-24
   3.20799994        -1.92770232E-24
   3.21600008        -2.43958607E-24
   3.22399998        -2.53930243E-24
   3.23200011        -2.18465088E-24
   3.24000001        -1.26647782E-24
   3.24799991         2.62959091E-25
   3.25600004         2.19616391E-24
   3.26399994         3.99639538E-24
   3.27200007         4.98958980E-24
   3.27999997         4.70581444E-24
   3.28800011         3.14459205E-24
   3.29600000         7.61738290E-25
   3.30399990        -1.79958835E-24
   3.31200004        -4.02163696E-24
   3.31999993        -5.62753569E-24
   3.32800007        -6.48341862E-24
   3.33599997        -6.42280097E-24
   3.34400010        -5.22753273E-24
   3.35200000        -2.80529982E-24
   3.35999990         5.79361882E-25
   3.36800003         4.24472524E-24
   3.37599993         7.29641275E-24
   3.38400006         8.97921793E-24
   3.39199996         8.94465557E-24
   3.40000010         7.28901166E-24
   3.40799999         4.38669851E-24
   3.41599989         7.03687889E-25
   3.42400002        -3.27167478E-24
   3.43199992        -6.96753585E-24
   3.44000006        -9.70600574E-24
   3.44799995        -1.08117024E-23
   3.45600009        -9.85784174E-24
   3.46399999        -6.89113782E-24
   3.47199988        -2.48654164E-24
   3.48000002         2.42737036E-24
   3.48799992         6.86050636E-24
   3.49600005         1.00156376E-23
   3.50399995         1.14135827E-23
   3.51200008         1.08854727E-23
   3.51999998         8.53601615E-24
   3.52800012         4.72413613E-24
   3.53600001         4.57290834E-26
   3.54399991        -4.72221723E-24
   3.55200005        -8.76180550E-24
   3.55999994        -1.13855726E-23
   3.56800008        -1.21616461E-23
   3.57599998        -1.09590671E-23
   3.58400011        -7.91629018E-24
   3.59200001        -3.40794892E-24
   3.59999990         1.95218876E-24
   3.60800004         7.30133918E-24
   3.61599994         1.16014791E-23
   3.62400007         1.38504506E-23
   3.63199997         1.33942555E-23
   3.64000010         1.02051354E-23
   3.64800000         4.95702049E-24
   3.65599990        -1.16534605E-24
   3.66400003        -6.84109091E-24
   3.67199993        -1.09989290E-23
   3.68000007        -1.30324042E-23
   3.68799996        -1.28035840E-23
   3.69600010        -1.05112103E-23
   3.70400000        -6.55296420E-24
   3.71199989        -1.48159339E-24
   3.72000003         3.99091911E-24
   3.72799993         9.00703396E-24
   3.73600006         1.26727491E-23
   3.74399996         1.42517852E-23
   3.75200009         1.33547004E-23
   3.75999999         1.00410760E-23
   3.76799989         4.81833835E-24
   3.77600002        -1.44228800E-24
   3.78399992        -7.63528136E-24
   3.79200006        -1.25993424E-23
   3.79999995        -1.53502535E-23
   3.80800009        -1.53313823E-23
   3.81599998        -1.25830895E-23
   3.82399988        -7.73055130E-24
   3.83200002        -1.76831416E-24
   3.83999991         4.24257757E-24
   3.84800005         9.40279679E-24
   3.85599995         1.30373338E-23
   3.86400008         1.46592350E-23
   3.87199998         1.39639061E-23
   3.88000011         1.09476957E-23
   3.88800001         6.06373160E-24
   3.89599991         2.39687892E-25
   3.90400004        -5.36054454E-24
   3.91199994        -9.72713853E-24
   3.92000008        -1.23096104E-23
   3.92799997        -1.30295138E-23
   3.93600011        -1.20400614E-23
   3.94400001        -9.47760684E-24
   3.95199990        -5.45462527E-24
   3.96000004        -3.02113142E-25
   3.96799994         5.19983543E-24
   3.97600007         9.88267035E-24
   3.98399997         1.26136287E-23
   3.99200010         1.28126165E-23
   4.00000000         1.06881565E-23
   4.00799990         7.02975883E-24
   4.01599979         2.73270056E-24
   4.02400017        -1.56045976E-24
   4.03200006        -5.46408884E-24
   4.03999996        -8.60484584E-24
   4.04799986        -1.04495521E-23
   4.05600023        -1.04593150E-23
   4.06400013        -8.45988950E-24
   4.07200003        -4.91125354E-24
   4.07999992        -7.81192043E-25
   4.08799982         2.92045418E-24
   4.09600019         5.60760315E-24
   4.10400009         7.20531904E-24
   4.11199999         7.87219917E-24
   4.11999989         7.63205886E-24
   4.12799978         6.27855341E-24
   4.13600016         3.65952850E-24
   4.14400005         4.37183108E-26
   4.15199995        -3.76483591E-24
   4.15999985        -6.73795050E-24
   4.16800022        -8.12706435E-24
   4.17600012        -7.78109599E-24
   4.18400002        -6.07024680E-24
   4.19199991        -3.53176538E-24
   4.19999981        -5.82539019E-25
   4.20800018         2.50936200E-24
   4.21600008         5.42658324E-24
   4.22399998         7.66465144E-24
   4.23199987         8.63822334E-24
   4.23999977         7.97885553E-24
   4.24800014         5.76104922E-24
   4.25600004         2.48073306E-24
   4.26399994        -1.19610039E-24
   4.27199984        -4.69029834E-24
   4.28000021        -7.57434659E-24
   4.28800011        -9.47498230E-24
   4.29600000        -9.98995228E-24
   4.30399990        -8.79644675E-24
   4.31199980        -5.89717230E-24
   4.32000017        -1.78253929E-24
   4.32800007         2.67098442E-24
   4.33599997         6.52984190E-24
   4.34399986         9.14016449E-24
   4.35200024         1.02472322E-23
   4.36000013         9.87560926E-24
   4.36800003         8.15158688E-24
   4.37599993         5.25854956E-24
   4.38399982         1.55276679E-24
   4.39200020        -2.35460860E-24
   4.40000010        -5.71389269E-24
   4.40799999        -7.93953712E-24
   4.41599989        -8.86382257E-24
   4.42399979        -8.70901177E-24
   4.43200016        -7.78836613E-24
   4.44000006        -6.18593246E-24
   4.44799995        -3.73154322E-24
   4.45599985        -3.16194581E-25
   4.46400023         3.71240940E-24
   4.47200012         7.44640676E-24
   4.48000002         9.77867955E-24
   4.48799992         9.98071393E-24
   4.49599981         8.06785560E-24
   4.50400019         4.67094955E-24
   4.51200008         5.24973472E-25
   4.51999998        -4.00600015E-24
   4.52799988        -8.99120546E-24
   4.53599977        -1.45849842E-23
   4.54400015        -2.06167961E-23
   4.55200005        -2.65076986E-23
   4.55999994        -3.16094261E-23
   4.56799984        -3.56763196E-23
   4.57600021        -3.90467373E-23
   4.58400011        -4.23671886E-23
   4.59200001        -4.60500740E-23
   4.59999990        -4.99001160E-23
   4.60799980        -5.31831090E-23
   4.61600018        -5.50610965E-23
   4.62400007        -5.50264939E-23
   4.63199997        -5.30059434E-23
   4.63999987        -4.91002458E-23
   4.64799976        -4.32186724E-23
   4.65600014        -3.49471061E-23
   4.66400003        -2.37660914E-23
   4.67199993        -9.46669216E-24
   4.67999983         7.53851810E-24
   4.68800020         2.62188177E-23
   4.69600010         4.52209623E-23
   4.70400000         6.32560865E-23
   4.71199989         7.93643485E-23
   4.71999979         9.29608395E-23
   4.72800016         1.03710199E-22
   4.73600006         1.11371622E-22
   4.74399996         1.15705548E-22
   4.75199986         1.16493147E-22
   4.76000023         1.13634934E-22
   4.76800013         1.07263916E-22
   4.77600002         9.77920509E-23
   4.78399992         8.58508299E-23
   4.79199982         7.21565012E-23
   4.80000019         5.73814709E-23
   4.80800009         4.21168609E-23
   4.81599998         2.69446392E-23
   4.82399988         1.25255532E-23
   4.83199978        -4.17318266E-25
   4.84000015        -1.12635098E-23
   4.84800005        -1.96986756E-23
   4.85599995        -2.57980503E-23
   4.86399984        -2.98729413E-23
   4.87200022        -3.21765035E-23
   4.88000011        -3.27114522E-23
   4.88800001        -3.13186741E-23
   4.89599991        -2.80320713E-23
   4.90399981        -2.34160233E-23
   4.91200018        -1.85843449E-23
   4.92000008        -1.48295721E-23
   4.92799997        -1.30657107E-23
   4.93599987        -1.34902173E-23
   4.94399977        -1.56781388E-23
   4.95200014        -1.90097808E-23
   4.96000004        -2.30695398E-23
   4.96799994        -2.77220079E-23
   4.97599983        -3.28353980E-23
   4.98400021        -3.79618390E-23
   4.99200010        -4.22658105E-23
   5.00000000        -4.48226759E-23
   5.00799990        -4.50112704E-23
   5.01599979        -4.27376692E-23
   5.02400017        -3.83138382E-23
   5.03200006        -3.21717735E-23
   5.03999996        -2.46927158E-23
   5.04799986        -1.62968976E-23
   5.05600023        -7.68925365E-24
   5.06400013         6.18892688E-26
   5.07200003         5.74887749E-24
   5.07999992         8.46907342E-24
   5.08799982         7.96506387E-24
   5.09600019         4.64326881E-24
   5.10400009        -6.98751493E-25
   5.11199999        -7.18156012E-24
   5.11999989        -1.39668959E-23
   5.12799978        -2.01900082E-23
   5.13600016        -2.49192167E-23
   5.14400005        -2.73206071E-23
   5.15199995        -2.69975465E-23
   5.15999985        -2.42534544E-23
   5.16800022        -2.00417213E-23
   5.17600012        -1.55984322E-23
   5.18400002        -1.20092335E-23
   5.19199991        -9.97313692E-24
   5.19999981        -9.81501606E-24
   5.20800018        -1.15597973E-23
   5.21600008        -1.48546058E-23
   5.22399998        -1.87507946E-23
   5.23199987        -2.16206690E-23
   5.23999977        -2.14650535E-23
   5.24800014        -1.65976824E-23
   5.25600004        -6.33087106E-24
   5.26399994         8.77878179E-24
   5.27199984         2.72661662E-23
   5.28000021         4.73806994E-23
   5.28800011         6.74985804E-23
   5.29600000         8.60707201E-23
   5.30399990         1.01316921E-22
   5.31199980         1.11157746E-22
   5.32000017         1.13697614E-22
   5.32800007         1.08066636E-22
   5.33599997         9.50404283E-23
   5.34399986         7.69199273E-23
   5.35200024         5.66774851E-23
   5.36000013         3.69103979E-23
   5.36800003         1.92460983E-23
   5.37599993         4.45519491E-24
   5.38399982        -7.04160594E-24
   5.39200020        -1.48420693E-23
   5.40000010        -1.87356185E-23
   5.40799999        -1.91789678E-23
   5.41599989        -1.75638603E-23
   5.42399979        -1.59016988E-23
   5.43200016        -1.60498768E-23
   5.44000006        -1.89844205E-23
   5.44799995        -2.46074052E-23
   5.45599985        -3.21269851E-23
   5.46400023        -4.06233547E-23
   5.47200012        -4.93201896E-23
   5.48000002        -5.74135302E-23
   5.48799992        -6.37521790E-23
   5.49599981        -6.68153196E-23
   5.50400019        -6.51779662E-23
   5.51200008        -5.82058116E-23
   5.51999998        -4.64713668E-23
   5.52799988        -3.15701188E-23
   5.53599977        -1.54590752E-23
   5.54400015         2.13430903E-25
   5.55200005         1.43399877E-23
   5.55999994         2.60950896E-23
   5.56799984         3.45263529E-23
   5.57600021         3.84390999E-23
   5.58400011         3.67572957E-23
   5.59200001         2.91159283E-23
   5.59999990         1.62169323E-23
   5.60799980        -3.46797182E-25
   5.61600018        -1.87100799E-23
   5.62400007        -3.73951529E-23
   5.63199997        -5.55823316E-23
   5.63999987        -7.28994062E-23
   5.64799976        -8.89585316E-23
   5.65600014        -1.03045423E-22
   5.66400003        -1.14161691E-22
   5.67199993        -1.21339328E-22
   5.67999983        -1.23918095E-22
   5.68800020        -1.21550503E-22
   5.69600010        -1.13947133E-22
   5.70400000        -1.00623803E-22
   5.71199989        -8.09380566E-23
   5.71999979        -5.44589306E-23
   5.72800016        -2.14710804E-23
   5.73600006         1.67334406E-23
   5.74399996         5.79645211E-23
   5.75199986         9.95616931E-23
   5.76000023         1.38853429E-22
   5.76800013         1.73402696E-22
   5.77600002         2.01008133E-22
   5.78399992         2.19659493E-22
   5.79199982         2.27686790E-22
   5.80000019         2.24130479E-22
   5.80800009         2.09124893E-22
   5.81599998         1.83989626E-22
   5.82399988         1.50900332E-22
   5.83199978         1.12299512E-22
   5.84000015         7.03955743E-23
   5.84800005         2.70158102E-23
   5.85599995        -1.62125100E-23
   5.86399984        -5.76311801E-23
   5.87200022        -9.55617202E-23
   5.88000011        -1.28592342E-22
   5.88800001        -1.55893910E-22
   5.89599991        -1.77242896E-22
   5.90399981        -1.92651533E-22
   5.91200018        -2.01832473E-22
   5.92000008        -2.03900728E-22
   5.92799997        -1.97570958E-22
   5.93599987        -1.81754171E-22
   5.94399977        -1.56188161E-22
   5.95200014        -1.21731991E-22
   5.96000004        -8.02216510E-23
   5.96799994        -3.40807664E-23
   5.97599983         1.40427118E-23
   5.98400021         6.14804868E-23
   5.99200010         1.05659064E-22
   6.00000000         1.44294701E-22
   6.00799990         1.75702851E-22
   6.01599979         1.99091478E-22
   6.02400017         2.14660058E-22
   6.03200006         2.23417651E-22
   6.03999996         2.26837420E-22
   6.04799986         2.26512309E-22
   6.05600023         2.23886374E-22
   6.06400013         2.20016639E-22
   6.07200003         2.15280696E-22
   6.07999992         2.09072904E-22
   6.08799982         1.99688349E-22
   6.09600019         1.84575415E-22
   6.10400009         1.60976913E-22
   6.11199999         1.26690569E-22
   6.11999989         8.06536817E-23
   6.12799978         2.31429985E-23
   6.13600016        -4.42921291E-23
   6.14400005        -1.18958849E-22
   6.15199995        -1.97055195E-22
   6.15999985        -2.73697500E-22
   6.16800022        -3.43176279E-22
   6.17600012        -3.99573548E-22
   6.18400002        -4.37623982E-22
   6.19199991        -4.53511111E-22
   6.19999981        -4.45299940E-22
   6.20800018        -4.12985218E-22
   6.21600008        -3.58319859E-22
   6.22399998        -2.84659662E-22
   6.23199987        -1.96875271E-22