  -4.80000019         1.00000002E-24
  -4.75000000         1.00000002E-24
  -4.69999981         1.00000002E-24
  -4.65000010         1.00000002E-24
  -4.59999990         1.00000002E-24
  -4.55000019         1.00000002E-24
  -4.50000000         1.00000002E-24
  -4.44999981         9.99999231E-25
  -4.40000010         9.99987989E-25
  -4.34999990         9.99910484E-25
  -4.30000019         9.99536662E-25
  -4.25000000         9.98118192E-25
  -4.19999981         9.93628883E-25
  -4.15000010         9.81339909E-25
  -4.09999990         9.51566129E-25
  -4.05000019         8.86768700E-25
  -4.00000000         7.58994681E-25
  -3.95000005         5.30023809E-25
  -3.90000010         1.58612527E-25
  -3.84999990        -3.78320335E-25
  -3.79999995        -1.04139569E-24
  -3.75000000        -1.65101734E-24
  -3.70000005        -1.76728528E-24
  -3.65000010        -5.24695103E-25
  -3.59999990         3.56885880E-24
  -3.54999995         1.28389684E-23
  -3.50000000         3.05992519E-23
  -3.45000005         6.11603670E-23
  -3.40000010         1.09563313E-22
  -3.34999990         1.80875784E-22
  -3.29999995         2.78876189E-22
  -3.25000000         4.03968071E-22
  -3.20000005         5.50232829E-22
  -3.15000010         7.01657368E-22
  -3.09999990         8.27774139E-22
  -3.04999995         8.79226752E-22
  -3.00000000         7.84107343E-22
  -2.95000005         4.46275956E-22
  -2.90000010        -2.52798467E-22
  -2.84999990        -1.44689853E-21
  -2.79999995        -3.27081815E-21
  -2.75000000        -5.83747740E-21
  -2.70000005        -9.20551613E-21
  -2.65000010        -1.33376129E-20
  -2.59999990        -1.80514284E-20
  -2.54999995        -2.29671398E-20
  -2.50000000        -2.74580052E-20
  -2.45000005        -3.06129140E-20
  -2.40000010        -3.12221939E-20
  -2.34999990        -2.77995403E-20
  -2.29999995        -1.86533800E-20
  -2.25000000        -2.01953521E-21
  -2.20000005         2.37363952E-20
  -2.15000010         5.98448177E-20
  -2.09999990         1.06792739E-19
  -2.04999995         1.63936909E-19
  -2.00000000         2.29100544E-19
  -1.95000005         2.98198042E-19
  -1.89999998         3.64945469E-19
  -1.85000002         4.20724145E-19
  -1.79999995         4.54670732E-19
  -1.75000000         4.54064409E-19
  -1.70000005         4.05071044E-19
  -1.64999998         2.93880314E-19
  -1.60000002         1.08238593E-19
  -1.54999995        -1.60665772E-19
  -1.50000000        -5.16062371E-19
  -1.45000005        -9.53360191E-19
  -1.39999998        -1.45802370E-18
  -1.35000002        -2.00383014E-18
  -1.29999995        -2.55180835E-18
  -1.25000000        -3.05017474E-18
  -1.20000005        -3.43557184E-18
  -1.14999998        -3.63585667E-18
  -1.10000002        -3.57459650E-18
  -1.04999995        -3.17728697E-18
  -1.00000000        -2.37912199E-18
 -0.949999988        -1.13392483E-18
 -0.899999976         5.76368956E-19
 -0.850000024         2.73249541E-18
 -0.800000012         5.26988455E-18
 -0.750000000         8.07296845E-18
 -0.699999988         1.09728172E-17
 -0.649999976         1.37490462E-17
 -0.600000024         1.61367883E-17
 -0.550000012         1.78393113E-17
 -0.500000000         1.85465143E-17
 -0.449999988         1.79591731E-17
 -0.400000006         1.58181087E-17
 -0.349999994         1.19367159E-17
 -0.300000012         6.23423280E-18
 -0.250000000        -1.23372675E-18
 -0.200000003        -1.02515736E-17
 -0.150000006        -2.04312089E-17
 -0.100000001        -3.12138689E-17
  -5.00000007E-02    -4.18879862E-17
   8.88178420E-16    -5.16224825E-17
   5.00000007E-02    -5.95129187E-17
  0.100000001        -6.46369188E-17
  0.150000006        -6.61154545E-17
  0.200000003        -6.31785266E-17
  0.250000000        -5.52356438E-17
  0.300000012        -4.19529231E-17
  0.349999994        -2.33368181E-17
  0.400000006         1.80384569E-19
  0.449999988         2.76666256E-17
  0.500000000         5.76496646E-17
  0.550000012         8.81377155E-17
  0.600000024         1.16726315E-16
  0.649999976         1.40803968E-16
  0.699999988         1.57845860E-16
  0.750000000         1.65756592E-16
  0.800000012         1.63197084E-16
  0.850000024         1.49817457E-16
  0.899999976         1.26325911E-16
  0.949999988         9.43547256E-17
   1.00000000         5.61345873E-17
   1.04999995         1.40452025E-17
   1.10000002        -2.98441041E-17
   1.14999998        -7.41103933E-17
   1.20000005        -1.18073799E-16
   1.25000000        -1.61592525E-16
   1.29999995        -2.04572433E-16
   1.35000002        -2.46292644E-16
   1.39999998        -2.84717287E-16
   1.45000005        -3.15999908E-16
   1.50000000        -3.34380153E-16
   1.54999995        -3.32624227E-16
   1.60000002        -3.03077229E-16
   1.64999998        -2.39287152E-16
   1.70000005        -1.38037386E-16
   1.75000000        -1.49618444E-18
   1.79999995         1.60928332E-16
   1.85000002         3.31529331E-16
   1.89999998         4.84566214E-16
   1.95000005         5.88305410E-16
   2.00000000         6.09075081E-16
   2.04999995         5.17213670E-16
   2.09999990         2.94321079E-16
   2.15000010        -5.92802493E-17
   2.20000005        -5.18371935E-16
   2.25000000        -1.02962668E-15
   2.29999995        -1.51286045E-15
   2.34999990        -1.86770405E-15
   2.40000010        -1.98577239E-15
   2.45000005        -1.76734070E-15
   2.50000000        -1.14050911E-15
   2.54999995        -8.00387571E-17
   2.59999990         1.37732862E-15
   2.65000010         3.12413534E-15
   2.70000005         4.98251461E-15
   2.75000000         6.71499557E-15
   2.79999995         8.04601340E-15
   2.84999990         8.69291957E-15
   2.90000010         8.40389329E-15
   2.95000005         6.99882741E-15
   3.00000000         4.40811108E-15
   3.04999995         7.03549007E-16
   3.09999990        -3.88447446E-15
   3.15000010        -8.96869062E-15
   3.20000005        -1.40288129E-14
   3.25000000        -1.84581066E-14
   3.29999995        -2.16296843E-14
   3.34999990        -2.29759838E-14
   3.40000010        -2.20717558E-14
   3.45000005        -1.87091214E-14
   3.50000000        -1.29531090E-14
   3.54999995        -5.16785813E-15
   3.59999990         3.99306154E-15
   3.65000010         1.36343785E-14
   3.70000005         2.27024261E-14
   3.75000000         3.00971440E-14
   3.79999995         3.48020834E-14
   3.84999990         3.60189919E-14
   3.90000010         3.32914543E-14
   3.95000005         2.66015779E-14
   4.00000000         1.64241704E-14
   4.05000019         3.72571592E-15
   4.09999990        -1.00998574E-14
   4.15000010        -2.33592900E-14
   4.19999981        -3.42438649E-14
   4.25000000        -4.10515060E-14
   4.30000019        -4.24214801E-14
   4.34999990        -3.75510543E-14
   4.40000010        -2.63627553E-14
   4.44999981        -9.59520108E-15
   4.50000000         1.12010036E-14
   4.55000019         3.37694316E-14
   4.59999990         5.53506859E-14
   4.65000010         7.29650715E-14
   4.69999981         8.37484379E-14
   4.75000000         8.53075138E-14
   4.80000019         7.60567282E-14
   4.84999990         5.54967618E-14
   4.90000010         2.43969528E-14
   4.94999981        -1.51507852E-14
   5.00000000        -5.98282207E-14
   5.05000019        -1.05343529E-13
   5.09999990        -1.46827171E-13
   5.15000010        -1.79336445E-13
   5.19999981        -1.98415489E-13
   5.25000000        -2.00644541E-13
   5.30000019        -1.84108262E-13
   5.34999990        -1.48720269E-13
   5.40000010        -9.63567334E-14
   5.44999981        -3.07750007E-14
   5.50000000         4.26812584E-14
   5.55000019         1.17565002E-13
   5.59999990         1.86950715E-13
   5.65000010         2.44140049E-13
   5.69999981         2.83376838E-13
   5.75000000         3.00495739E-13
   5.80000019         2.93429669E-13
   5.84999990         2.62510256E-13
   5.90000010         2.10512082E-13
   5.94999981         1.42418426E-13
   6.00000000         6.49191055E-14
   6.05000019        -1.43112434E-14
   6.09999990        -8.74731873E-14
   6.15000010        -1.47535413E-13
   6.19999981        -1.89047630E-13
   6.25000000        -2.08769051E-13
   6.30000019        -2.06033934E-13
   6.34999990        -1.82810500E-13
   6.40000010        -1.43448973E-13
   6.44999981        -9.41511951E-14
   6.50000000        -4.22245145E-14
   6.55000019         4.79589250E-15
   6.59999990         4.00584581E-14
   6.65000010         5.82378045E-14
   6.69999981         5.62088557E-14
   6.75000000         3.34668545E-14
   6.80000019        -7.76710917E-15
   6.84999990        -6.27790192E-14
   6.90000010        -1.24912193E-13
   6.94999981        -1.86367943E-13
   7.00000000        -2.39151418E-13
   7.05000019        -2.76035081E-13
   7.09999990        -2.91411372E-13
   7.15000010        -2.81926636E-13
   7.19999981        -2.46824046E-13
   7.25000000        -1.87967941E-13
   7.30000019        -1.09563868E-13
   7.34999990        -1.76233404E-14
   7.40000010         8.07525637E-14
   7.44999981         1.78182542E-13
   7.50000000         2.67811516E-13
   7.55000019         3.44018867E-13
   7.59999990         4.02941054E-13
   7.65000010         4.42740896E-13
   7.69999981         4.63587068E-13
   7.75000000         4.67350117E-13
   7.80000019         4.57068302E-13
   7.84999990         4.36276151E-13
   7.90000010         4.08313411E-13
   7.94999981         3.75730832E-13
   8.00000000         3.39885455E-13
   8.05000019         3.00777009E-13
   8.10000038         2.57131637E-13
   8.14999962         2.06700691E-13
   8.19999981         1.46719632E-13
   8.25000000         7.44632220E-14
   8.30000019        -1.21663332E-14
   8.35000038        -1.14079265E-13
   8.39999962        -2.30529056E-13
   8.44999981        -3.58800636E-13
   8.50000000        -4.94120261E-13
   8.55000019        -6.29835051E-13
   8.60000038        -7.57874503E-13
   8.64999962        -8.69455983E-13
   8.69999981        -9.55943115E-13
   8.75000000        -1.00972854E-12
   8.80000019        -1.02500636E-12
   8.85000038        -9.98329132E-13
   8.89999962        -9.28895958E-13
   8.94999981        -8.18580067E-13
   9.00000000        -6.71747543E-13
   9.05000019        -4.94929564E-13
   9.10000038        -2.96395802E-13
   9.14999962        -8.56408653E-14
   9.19999981         1.27226422E-13
   9.25000000         3.32200088E-13
   9.30000019         5.20173314E-13
   9.35000038         6.83733181E-13
   9.39999962         8.17826980E-13
   9.44999981         9.20162059E-13
   9.50000000         9.91240835E-13
   9.55000019         1.03401261E-12
   9.60000038         1.05322034E-12
   9.64999962         1.05459044E-12
   9.69999981         1.04403519E-12
   9.75000000         1.02699229E-12
   9.80000019         1.00794872E-12
   9.85000038         9.90110663E-13
   9.89999962         9.75140433E-13
   9.94999981         9.62897513E-13
   10.0000000         9.51191057E-13
   10.0500002         9.35635792E-13
   10.1000004         9.09754151E-13
   10.1499996         8.65448555E-13
   10.1999998         7.93876358E-13
   10.2500000         6.86617159E-13
   10.3000002         5.36905860E-13
   10.3500004         3.40647622E-13
   10.3999996         9.69810983E-14
   10.4499998        -1.91704942E-13
   10.5000000        -5.20224705E-13
   10.5500002        -8.81302572E-13
   10.6000004        -1.26627203E-12
   10.6499996        -1.66557154E-12
   10.6999998        -2.06898040E-12
   10.7500000        -2.46569085E-12
   10.8000002        -2.84439768E-12
   10.8500004        -3.19356520E-12
   10.8999996        -3.50191989E-12
   10.9499998        -3.75904733E-12
   11.0000000        -3.95586862E-12
   11.0500002        -4.08475944E-12
   11.1000004        -4.13918769E-12
   11.1499996        -4.11295997E-12
   11.1999998        -3.99934946E-12
   11.2500000        -3.79048529E-12
   11.3000002        -3.47733452E-12
   11.3500004        -3.05039761E-12
   11.3999996        -2.50099377E-12
   11.4499998        -1.82278845E-12
   11.5000000        -1.01312285E-12
   11.5500002        -7.38086689E-14
   11.6000004         9.88733292E-13
   11.6499996         2.16384593E-12
   11.6999998         3.43719541E-12
   11.7500000         4.79116443E-12
   11.8000002         6.20486908E-12
   11.8500004         7.65382289E-12
   11.8999996         9.10949267E-12
   11.9499998         1.05390887E-11
   12.0000000         1.19058608E-11
   12.0500002         1.31699417E-11
   12.1000004         1.42895522E-11
   12.1499996         1.52221707E-11
   12.1999998         1.59253201E-11
   12.2500000         1.63567528E-11
   12.3000002         1.64741554E-11
   12.3500004         1.62347479E-11
   12.3999996         1.55952994E-11
   12.4499998         1.45130193E-11
   12.5000000         1.29474946E-11
   12.5500002         1.08635306E-11
   12.6000004         8.23441575E-12
   12.6499996         5.04504771E-12
   12.6999998         1.29442756E-12
   12.7500000        -3.00268729E-12
   12.8000002        -7.81487115E-12
   12.8500004        -1.30935228E-11
   12.8999996        -1.87724038E-11
   12.9499998        -2.47669454E-11
   13.0000000        -3.09733836E-11
   13.0500002        -3.72680012E-11
   13.1000004        -4.35068995E-11
   13.1499996        -4.95266848E-11
   13.1999998        -5.51462001E-11
   13.2500000        -6.01691821E-11
   13.3000002        -6.43873913E-11
   13.3500004        -6.75838205E-11
   13.3999996        -6.95355371E-11
   13.4499998        -7.00161942E-11
   13.5000000        -6.87981824E-11
   13.5500002        -6.56551896E-11
   13.6000004        -6.03651990E-11
   13.6499996        -5.27146347E-11
   13.6999998        -4.25032821E-11
   13.7500000        -2.95499111E-11
   13.8000002        -1.36979534E-11
   13.8500004         5.17922120E-12
   13.8999996         2.71738344E-11
   13.9499998         5.23401565E-11
   14.0000000         8.06915923E-11
   14.0500002         1.12198119E-10
   14.1000004         1.46783627E-10
   14.1499996         1.84323071E-10
   14.1999998         2.24639182E-10
   14.2500000         2.67499606E-10
   14.3000002         3.12614296E-10
   14.3500004         3.59633934E-10
   14.3999996         4.08149764E-10
   14.4499998         4.57694188E-10
   14.5000000         5.07743125E-10
   14.5500002         5.57718594E-10
   14.6000004         6.06991957E-10
   14.6499996         6.54887755E-10
   14.6999998         7.00688341E-10
   14.7500000         7.43639539E-10
   14.8000002         7.82957310E-10
   14.8500004         8.17836632E-10
   14.8999996         8.47460713E-10
   14.9499998         8.71011652E-10
   15.0000000         8.87680263E-10
   15.0500002         8.96674957E-10
   15.1000004         8.97229735E-10
   15.1499996         8.88610241E-10
   15.1999998         8.70119199E-10
   15.2500000         8.41102799E-10
   15.3000002         8.00957078E-10
   15.3500004         7.49136420E-10
   15.3999996         6.85162205E-10
   15.4499998         6.08631812E-10
   15.5000000         5.19225385E-10
   15.5500002         4.16710055E-10
   15.6000004         3.00939551E-10
   15.6499996         1.71850909E-10
   15.6999998         2.94588694E-11
   15.7500000        -1.26149216E-10
   15.8000002        -2.94816366E-10
   15.8500004        -4.76313988E-10
   15.8999996        -6.70334788E-10
   15.9499998        -8.76480721E-10
   16.0000000        -1.09424925E-09
   16.0499992        -1.32301992E-09
   16.1000004        -1.56204694E-09
   16.1499996        -1.81045923E-09
   16.2000008        -2.06727369E-09
   16.2500000        -2.33141906E-09
   16.2999992        -2.60176880E-09
   16.3500004        -2.87718471E-09
   16.3999996        -3.15655524E-09
   16.4500008        -3.43883233E-09
   16.5000000        -3.72305009E-09
   16.5499992        -4.00832834E-09
   16.6000004        -4.29385372E-09
   16.6499996        -4.57884175E-09
   16.7000008        -4.86249130E-09
   16.7500000        -5.14393816E-09
   16.7999992        -5.42222223E-09
   16.8500004        -5.69628256E-09
   16.8999996        -5.96498095E-09
   16.9500008        -6.22716279E-09
   17.0000000        -6.48174225E-09
   17.0499992        -6.72779565E-09
   17.1000004        -6.96465285E-09
   17.1499996        -7.19195592E-09
   17.2000008        -7.40967288E-09
   17.2500000        -7.61806440E-09
   17.2999992        -7.81759191E-09
   17.3500004        -8.00880162E-09
   17.3999996        -8.19218116E-09
   17.4500008        -8.36803959E-09
   17.5000000        -8.53642135E-09
   17.5499992        -8.69708128E-09
   17.6000004        -8.84952822E-09
   17.6499996        -8.99312624E-09
   17.7000008        -9.12724385E-09
   17.7500000        -9.25140675E-09
   17.7999992        -9.36543820E-09
   17.8500004        -9.46953360E-09
   17.8999996        -9.56426849E-09
   17.9500008        -9.65052216E-09
   18.0000000        -9.72934000E-09
   18.0499992        -9.80176118E-09
   18.1000004        -9.86864634E-09
   18.1499996        -9.93055504E-09
   18.2000008        -9.98769689E-09
   18.2500000        -1.00399733E-08
   18.2999992        -1.00871036E-08
   18.3500004        -1.01287920E-08
   18.3999996        -1.01649142E-08
   18.4500008        -1.01956612E-08
   18.5000000        -1.02216013E-08
   18.5499992        -1.02436459E-08
   18.6000004        -1.02629203E-08
   18.6499996        -1.02805711E-08
   18.7000008        -1.02975592E-08
   18.7500000        -1.03144959E-08
   18.7999992        -1.03315720E-08
   18.8500004        -1.03486029E-08
   18.8999996        -1.03652003E-08
   18.9500008        -1.03810214E-08
   19.0000000        -1.03960547E-08
   19.0499992        -1.04108633E-08
   19.1000004        -1.04267261E-08
   19.1499996        -1.04456372E-08
   19.2000008        -1.04701474E-08
   19.2500000        -1.05030988E-08
   19.2999992        -1.05472990E-08
   19.3500004        -1.06052145E-08
   19.3999996        -1.06787850E-08
   19.4500008        -1.07693880E-08
   19.5000000        -1.08779910E-08
   19.5499992        -1.10054561E-08
   19.6000004        -1.11529488E-08
   19.6499996        -1.13223377E-08
   19.7000008        -1.15165211E-08
   19.7500000        -1.17395764E-08
   19.7999992        -1.19967209E-08
   19.8500004        -1.22940778E-08
   19.8999996        -1.26383100E-08
   19.9500008        -1.30362174E-08
   20.0000000        -1.34943861E-08
   20.0499992        -1.40190073E-08
   20.1000004        -1.46158943E-08
   20.1499996        -1.52907376E-08
   20.2000008        -1.60495333E-08
   20.2500000        -1.68991203E-08
   20.2999992        -1.78477126E-08
   20.3500004        -1.89053022E-08
   20.3999996        -2.00838937E-08
   20.4500008        -2.13974651E-08
   20.5000000        -2.28617463E-08
   20.5499992        -2.44938150E-08
   20.6000004        -2.63116640E-08
   20.6499996        -2.83338135E-08
   20.7000008        -3.05790913E-08
   20.7500000        -3.30666694E-08
   20.7999992        -3.58163064E-08
   20.8500004        -3.88488246E-08
   20.8999996        -4.21867092E-08
   20.9500008        -4.58547404E-08
   21.0000000        -4.98805335E-08
   21.0499992        -5.42949614E-08
   21.1000004        -5.91323577E-08
   21.1499996        -6.44306084E-08
   21.2000008        -7.02311169E-08
   21.2500000        -7.65787362E-08
   21.2999992        -8.35218188E-08
   21.3500004        -9.11123124E-08
   21.3999996        -9.94060869E-08
   21.4500008        -1.08463375E-07
   21.5000000        -1.18349355E-07
   21.5499992        -1.29134648E-07
   21.6000004        -1.40895963E-07
   21.6499996        -1.53716641E-07
   21.7000008        -1.67687006E-07
   21.7500000        -1.82904756E-07
   21.7999992        -1.99475338E-07
   21.8500004        -2.17512309E-07
   21.8999996        -2.37137698E-07
   21.9500008        -2.58482658E-07
   22.0000000        -2.81688159E-07
   22.0499992        -3.06905690E-07
   22.1000004        -3.34298335E-07
   22.1499996        -3.64041540E-07
   22.2000008        -3.96324282E-07
   22.2500000        -4.31349861E-07
   22.2999992        -4.69336982E-07
   22.3500004        -5.10520579E-07
   22.3999996        -5.55153008E-07
   22.4500008        -6.03505271E-07
   22.5000000        -6.55868007E-07
   22.5499992        -7.12553231E-07
   22.6000004        -7.73895692E-07
   22.6499996        -8.40254700E-07
   22.7000008        -9.12015707E-07
   22.7500000        -9.89592536E-07
   22.7999992        -1.07342896E-06
   22.8500004        -1.16400111E-06
   22.8999996        -1.26181862E-06
   22.9500008        -1.36742699E-06
   23.0000000        -1.48140919E-06
   23.0499992        -1.60438776E-06
   23.1000004        -1.73702733E-06
   23.1499996        -1.88003628E-06
   23.2000008        -2.03417039E-06
   23.2500000        -2.20023526E-06
   23.2999992        -2.37908921E-06
   23.3500004        -2.57164788E-06
   23.3999996        -2.77888671E-06
   23.4500008        -3.00184456E-06
   23.5000000        -3.24162897E-06
   23.5499992        -3.49941865E-06
   23.6000004        -3.77646825E-06
   23.6499996        -4.07411153E-06
   23.7000008        -4.39376936E-06
   23.7500000        -4.73695127E-06
   23.7999992        -5.10526115E-06
   23.8500004        -5.50040522E-06
   23.8999996        -5.92419246E-06
   23.9500008        -6.37854555E-06
   24.0000000        -6.86550356E-06
   24.0499992        -7.38722883E-06
   24.1000004        -7.94601783E-06
   24.1499996        -8.54430436E-06
   24.2000008        -9.18466594E-06
   24.2500000        -9.86983741E-06
   24.2999992        -1.06027128E-05
   24.3500004        -1.13863562E-05
   24.3999996        -1.22240108E-05
   24.4500008        -1.31191064E-05
   24.5000000        -1.40752691E-05
   24.5499992        -1.50963260E-05
   24.6000004        -1.61863227E-05
   24.6499996        -1.73495191E-05
   24.7000008        -1.85904137E-05
   24.7500000        -1.99137357E-05
   24.7999992        -2.13244748E-05
   24.8500004        -2.28278823E-05
   24.8999996        -2.44294897E-05
   24.9500008        -2.61351215E-05
   25.0000000        -2.79509095E-05
   25.0499992        -2.98832983E-05
   25.1000004        -3.19390783E-05
   25.1499996        -3.41253799E-05
   25.2000008        -3.64496955E-05
   25.2500000        -3.89198976E-05
   25.2999992        -4.15442591E-05
   25.3500004        -4.43314530E-05
   25.3999996        -4.72905922E-05
   25.4500008        -5.04312302E-05
   25.5000000        -5.37633859E-05
   25.5499992        -5.72975296E-05
   25.6000004        -6.10446441E-05
   25.6499996        -6.50162110E-05
   25.7000008        -6.92242393E-05
   25.7500000        -7.36813236E-05
   25.7999992        -7.84006115E-05
   25.8500004        -8.33958620E-05
   25.8999996        -8.86814159E-05
   25.9500008        -9.42722545E-05
   26.0000000        -1.00183970E-04
   26.0499992        -1.06432853E-04
   26.1000004        -1.13035887E-04
   26.1499996        -1.20010758E-04
   26.2000008        -1.27375912E-04
   26.2500000        -1.35150578E-04
   26.2999992        -1.43354715E-04
   26.3500004        -1.52009088E-04
   26.3999996        -1.61135336E-04
   26.4500008        -1.70755840E-04
   26.5000000        -1.80893869E-04
   26.5499992        -1.91573548E-04
   26.6000004        -2.02819967E-04
   26.6499996        -2.14659085E-04
   26.7000008        -2.27117867E-04
   26.7500000        -2.40224283E-04
   26.7999992        -2.54007231E-04
   26.8500004        -2.68496602E-04
   26.8999996        -2.83723377E-04
   26.9500008        -2.99719482E-04
   27.0000000        -3.16518068E-04
   27.0499992        -3.34153243E-04
   27.1000004        -3.52660340E-04
   27.1499996        -3.72075767E-04
   27.2000008        -3.92437010E-04
   27.2500000        -4.13782778E-04
   27.2999992        -4.36152855E-04
   27.3500004        -4.59588249E-04
   27.3999996        -4.84131015E-04
   27.4500008        -5.09824429E-04
   27.5000000        -5.36713051E-04
   27.5499992        -5.64842543E-04
   27.6000004        -5.94259996E-04
   27.6499996        -6.25013607E-04
   27.7000008        -6.57152734E-04
   27.7500000        -6.90727960E-04
   27.7999992        -7.25791033E-04
   27.8500004        -7.62394862E-04
   27.8999996        -8.00593640E-04
   27.9500008        -8.40442604E-04
   28.0000000        -8.81998334E-04
   28.0499992        -9.25318396E-04
   28.1000004        -9.70461813E-04
   28.1499996        -1.01748854E-03
   28.2000008        -1.06645969E-03
   28.2500000        -1.11743750E-03
   28.2999992        -1.17048528E-03
   28.3500004        -1.22566731E-03
   28.3999996        -1.28304877E-03
   28.4500008        -1.34269556E-03
   28.5000000        -1.40467484E-03
   28.5499992        -1.46905438E-03
   28.6000004        -1.53590285E-03
   28.6499996        -1.60528999E-03
   28.7000008        -1.67728611E-03
   28.7500000        -1.75196212E-03
   28.7999992        -1.82938948E-03
   28.8500004        -1.90964015E-03
   28.8999996        -1.99278630E-03
   28.9500008        -2.07890081E-03
   29.0000000        -2.16805725E-03
   29.0499992        -2.26032874E-03
   29.1000004        -2.35578953E-03
   29.1499996        -2.45451345E-03
   29.2000008        -2.55657383E-03
   29.2500000        -2.66204425E-03
   29.2999992        -2.77099758E-03
   29.3500004        -2.88350647E-03
   29.3999996        -2.99964333E-03
   29.4500008        -3.11948056E-03
   29.5000000        -3.24308942E-03
   29.5499992        -3.37054185E-03
   29.6000004        -3.50190769E-03
   29.6499996        -3.63725633E-03
   29.7000008        -3.77665414E-03
   29.7500000        -3.92016629E-03
   29.7999992        -4.06785728E-03
   29.8500004        -4.21978999E-03
   29.8999996        -4.37602540E-03
   29.9500008        -4.53662500E-03
   30.0000000        -4.70164744E-03
   30.0499992        -4.87115001E-03
   30.1000004        -5.04518626E-03
   30.1499996        -5.22380695E-03
   30.2000008        -5.40705957E-03
   30.2500000        -5.59498882E-03
   30.2999992        -5.78763755E-03
   30.3500004        -5.98504581E-03
   30.3999996        -6.18725270E-03
   30.4500008        -6.39429176E-03
   30.5000000        -6.60619233E-03
   30.5499992        -6.82298094E-03
   30.6000004        -7.04467855E-03
   30.6499996        -7.27130240E-03
   30.7000008        -7.50286831E-03
   30.7500000        -7.73938606E-03
   30.7999992        -7.98086263E-03
   30.8500004        -8.22730176E-03
   30.8999996        -8.47869925E-03
   30.9500008        -8.73504952E-03
   31.0000000        -8.99633672E-03
   31.0499992        -9.26254224E-03
   31.1000004        -9.53364000E-03
   31.1499996        -9.80960019E-03
   31.2000008        -1.00903893E-02
   31.2500000        -1.03759663E-02
   31.2999992        -1.06662866E-02
   31.3500004        -1.09613007E-02
   31.3999996        -1.12609537E-02
   31.4500008        -1.15651786E-02
   31.5000000        -1.18739083E-02
   31.5499992        -1.21870637E-02
   31.6000004        -1.25045637E-02
   31.6499996        -1.28263198E-02
   31.7000008        -1.31522417E-02
   31.7500000        -1.34822289E-02
   31.7999992        -1.38161741E-02
   31.8500004        -1.41539657E-02
   31.8999996        -1.44954789E-02
   31.9500008        -1.48405861E-02
   32.0000000        -1.51891503E-02
   32.0499992        -1.55410329E-02
   32.0999985        -1.58960856E-02
   32.1500015        -1.62541624E-02
   32.2000008        -1.66151058E-02
   32.2500000        -1.69787556E-02
   32.2999992        -1.73449405E-02
   32.3499985        -1.77134871E-02
   32.4000015        -1.80842075E-02
   32.4500008        -1.84569154E-02
   32.5000000        -1.88314095E-02
   32.5499992        -1.92074869E-02
   32.5999985        -1.95849501E-02
   32.6500015        -1.99635886E-02
   32.7000008        -2.03431901E-02
   32.7500000        -2.07235292E-02
   32.7999992        -2.11043749E-02
   32.8499985        -2.14854926E-02
   32.9000015        -2.18666475E-02
   32.9500008        -2.22475976E-02
   33.0000000        -2.26281043E-02
   33.0499992        -2.30079293E-02
   33.0999985        -2.33868267E-02
   33.1500015        -2.37645376E-02
   33.2000008        -2.41408013E-02
   33.2500000        -2.45153494E-02
   33.2999992        -2.48879232E-02
   33.3499985        -2.52582505E-02
   33.4000015        -2.56260708E-02
   33.4500008        -2.59911194E-02
   33.5000000        -2.63531264E-02
   33.5499992        -2.67118234E-02
   33.5999985        -2.70669293E-02
   33.6500015        -2.74181701E-02
   33.7000008        -2.77652685E-02
   33.7500000        -2.81079579E-02
   33.7999992        -2.84459759E-02
   33.8499985        -2.87790578E-02
   33.9000015        -2.91069429E-02
   33.9500008        -2.94293612E-02
   34.0000000        -2.97460407E-02
   34.0499992        -3.00567131E-02
   34.0999985        -3.03611122E-02
   34.1500015        -3.06589846E-02
   34.2000008        -3.09500806E-02
   34.2500000        -3.12341601E-02
   34.2999992        -3.15109864E-02
   34.3499985        -3.17803286E-02
   34.4000015        -3.20419483E-02
   34.4500008        -3.22955996E-02
   34.5000000        -3.25410552E-02
   34.5499992        -3.27780843E-02
   34.5999985        -3.30064781E-02
   34.6500015        -3.32260393E-02
   34.7000008        -3.34365703E-02
   34.7500000        -3.36378925E-02
   34.7999992        -3.38298306E-02
   34.8499985        -3.40122022E-02
   34.9000015        -3.41848284E-02
   34.9500008        -3.43475491E-02
   35.0000000        -3.45002040E-02
   35.0499992        -3.46426554E-02
   35.0999985        -3.47747803E-02
   35.1500015        -3.48964445E-02
   35.2000008        -3.50075439E-02
   35.2500000        -3.51079665E-02
   35.2999992        -3.51976119E-02
   35.3499985        -3.52763869E-02
   35.4000015        -3.53442132E-02
   35.4500008        -3.54010276E-02
   35.5000000        -3.54467779E-02
   35.5499992        -3.54814306E-02
   35.5999985        -3.55049409E-02
   35.6500015        -3.55172828E-02