  -4.80000019         1.00000002E-24
  -4.75000000         1.00000002E-24
  -4.69999981         1.00000002E-24
  -4.65000010         1.00000002E-24
  -4.59999990         1.00000012E-24
  -4.55000019         1.00000012E-24
  -4.50000000         2.67997330E-22
  -4.44999981         2.19670757E-21
  -4.40000010         4.09185731E-21
  -4.34999990        -1.03628969E-20
  -4.30000019        -5.17540866E-20
  -4.25000000        -3.80590840E-20
  -4.19999981         1.96782765E-19
  -4.15000010         5.10212136E-19
  -4.09999990         1.14935914E-20
  -4.05000019        -2.05262636E-18
  -4.00000000        -3.63862524E-18
  -3.95000005         8.73226449E-19
  -3.90000010         1.38116026E-17
  -3.84999990         2.23208302E-17
  -3.79999995        -3.57210296E-19
  -3.75000000        -6.29081775E-17
  -3.70000005        -1.12341292E-16
  -3.65000010        -4.34562677E-17
  -3.59999990         1.91269436E-16
  -3.54999995         4.38664917E-16
  -3.50000000         3.54071630E-16
  -3.45000005        -3.07542575E-16
  -3.40000010        -1.27309031E-15
  -3.34999990        -1.64455460E-15
  -3.29999995        -4.58285959E-16
  -3.25000000         2.29363054E-15
  -3.20000005         5.00251856E-15
  -3.15000010         4.99403765E-15
  -3.09999990         3.45499975E-16
  -3.04999995        -8.06709774E-15
  -3.00000000        -1.58212321E-14
  -2.95000005        -1.64704066E-14
  -2.90000010        -5.06090920E-15
  -2.84999990         1.78255305E-14
  -2.79999995         4.36168130E-14
  -2.75000000         5.69372701E-14
  -2.70000005         4.15053463E-14
  -2.65000010        -1.03699211E-14
  -2.59999990        -8.87197827E-14
  -2.54999995        -1.63159633E-13
  -2.50000000        -1.90935904E-13
  -2.45000005        -1.35148159E-13
  -2.40000010         1.38032760E-14
  -2.34999990         2.23916046E-13
  -2.29999995         4.22829632E-13
  -2.25000000         5.16717962E-13
  -2.20000005         4.21845772E-13
  -2.15000010         9.90936459E-14
  -2.09999990        -4.19302613E-13
  -2.04999995        -1.01890263E-12
  -2.00000000        -1.51010086E-12
  -1.95000005        -1.64685442E-12
  -1.89999998        -1.14441854E-12
  -1.85000002         3.16450425E-13
  -1.79999995         3.10278149E-12
  -1.75000000         7.65153652E-12
  -1.70000005         1.44836105E-11
  -1.64999998         2.41941380E-11
  -1.60000002         3.74131073E-11
  -1.54999995         5.47414405E-11
  -1.50000000         7.66747221E-11
  -1.45000005         1.03529345E-10
  -1.39999998         1.35385647E-10
  -1.35000002         1.72059617E-10
  -1.29999995         2.13109072E-10
  -1.25000000         2.57872668E-10
  -1.20000005         3.05535680E-10
  -1.14999998         3.55217911E-10
  -1.10000002         4.06081446E-10
  -1.04999995         4.57453159E-10
  -1.00000000         5.08941833E-10
 -0.949999988         5.60514968E-10
 -0.899999976         6.12499274E-10
 -0.850000024         6.65483502E-10
 -0.800000012         7.20135895E-10
 -0.750000000         7.76975928E-10
 -0.699999988         8.36159808E-10
 -0.649999976         8.97339869E-10
 -0.600000024         9.59644697E-10
 -0.550000012         1.02179687E-09
 -0.500000000         1.08234210E-09
 -0.449999988         1.13992527E-09
 -0.400000006         1.19353782E-09
 -0.349999994         1.24267951E-09
 -0.300000012         1.28742383E-09
 -0.250000000         1.32841149E-09
 -0.200000003         1.36680822E-09
 -0.150000006         1.40425238E-09
 -0.100000001         1.44278400E-09
  -5.00000007E-02     1.48473378E-09
   8.88178420E-16     1.53252544E-09
   5.00000007E-02     1.58835245E-09
  0.100000001         1.65371339E-09
  0.150000006         1.72883541E-09
  0.200000003         1.81207016E-09
  0.250000000         1.89938176E-09
  0.300000012         1.98402939E-09
  0.349999994         2.05650075E-09
  0.400000006         2.10469930E-09
  0.449999988         2.11435780E-09
  0.500000000         2.06963291E-09
  0.550000012         1.95385153E-09
  0.600000024         1.75037551E-09
  0.649999976         1.44356382E-09
  0.699999988         1.01980679E-09
  0.750000000         4.68597938E-10
  0.800000012        -2.16438853E-10
  0.850000024        -1.03669573E-09
  0.899999976        -1.98805505E-09
  0.949999988        -3.06081471E-09
   1.00000000        -4.24011315E-09
   1.04999995        -5.50681634E-09
   1.10000002        -6.83875845E-09
   1.14999998        -8.21220247E-09
   1.20000005        -9.60337943E-09
   1.25000000        -1.09899743E-08
   1.29999995        -1.23524702E-08
   1.35000002        -1.36752867E-08
   1.39999998        -1.49476911E-08
   1.45000005        -1.61644405E-08
   1.50000000        -1.73260801E-08
   1.54999995        -1.84387847E-08
   1.60000002        -1.95136973E-08
   1.64999998        -2.05657624E-08
   1.70000005        -2.16121681E-08
   1.75000000        -2.26705765E-08
   1.79999995        -2.37573516E-08
   1.85000002        -2.48860310E-08
   1.89999998        -2.60662176E-08
   1.95000005        -2.73030043E-08
   2.00000000        -2.85969790E-08
   2.04999995        -2.99447152E-08
   2.09999990        -3.13396704E-08
   2.15000010        -3.27733716E-08
   2.20000005        -3.42367876E-08
   2.25000000        -3.57218504E-08
   2.29999995        -3.72228932E-08
   2.34999990        -3.87379266E-08
   2.40000010        -4.02695584E-08
   2.45000005        -4.18254089E-08
   2.50000000        -4.34180052E-08
   2.54999995        -4.50641089E-08
   2.59999990        -4.67835761E-08
   2.65000010        -4.85979719E-08
   2.70000005        -5.05291133E-08
   2.75000000        -5.25978052E-08
   2.79999995        -5.48229053E-08
   2.84999990        -5.72208130E-08
   2.90000010        -5.98053518E-08
   2.95000005        -6.25881142E-08
   3.00000000        -6.55792007E-08
   3.04999995        -6.87883173E-08
   3.09999990        -7.22261575E-08
   3.15000010        -7.59059091E-08
   3.20000005        -7.98447672E-08
   3.25000000        -8.40652987E-08
   3.29999995        -8.85964440E-08
   3.34999990        -9.34740001E-08
   3.40000010        -9.87405002E-08
   3.45000005        -1.04444581E-07
   3.50000000        -1.10639924E-07
   3.54999995        -1.17384054E-07
   3.59999990        -1.24737227E-07
   3.65000010        -1.32761542E-07
   3.70000005        -1.41520459E-07
   3.75000000        -1.51079050E-07
   3.79999995        -1.61504531E-07
   3.84999990        -1.72867573E-07
   3.90000010        -1.85243664E-07
   3.95000005        -1.98714915E-07
   4.00000000        -2.13371720E-07
   4.05000019        -2.29314381E-07
   4.09999990        -2.46654622E-07
   4.15000010        -2.65516690E-07
   4.19999981        -2.86038016E-07
   4.25000000        -3.08369835E-07
   4.30000019        -3.32677303E-07
   4.34999990        -3.59139591E-07
   4.40000010        -3.87949854E-07
   4.44999981        -4.19315086E-07
   4.50000000        -4.53456153E-07
   4.55000019        -4.90608272E-07
   4.59999990        -5.31021840E-07
   4.65000010        -5.74963735E-07
   4.69999981        -6.22719142E-07
   4.75000000        -6.74594389E-07
   4.80000019        -7.30919112E-07
   4.84999990        -7.92049946E-07
   4.90000010        -8.58373369E-07
   4.94999981        -9.30308147E-07
   5.00000000        -1.00830835E-06
   5.05000019        -1.09286486E-06
   5.09999990        -1.18450828E-06
   5.15000010        -1.28380930E-06
   5.19999981        -1.39138206E-06
   5.25000000        -1.50788469E-06
   5.30000019        -1.63402228E-06
   5.34999990        -1.77054915E-06
   5.40000010        -1.91827212E-06
   5.44999981        -2.07805351E-06
   5.50000000        -2.25081567E-06
   5.55000019        -2.43754403E-06
   5.59999990        -2.63929314E-06
   5.65000010        -2.85719238E-06
   5.69999981        -3.09245024E-06
   5.75000000        -3.34636070E-06
   5.80000019        -3.62030914E-06
   5.84999990        -3.91577896E-06
   5.90000010        -4.23435768E-06
   5.94999981        -4.57774195E-06
   6.00000000        -4.94774713E-06
   6.05000019        -5.34631045E-06
   6.09999990        -5.77549872E-06
   6.15000010        -6.23751703E-06
   6.19999981        -6.73471550E-06
   6.25000000        -7.26959661E-06
   6.30000019        -7.84482381E-06
   6.34999990        -8.46323292E-06
   6.40000010        -9.12784253E-06
   6.44999981        -9.84186227E-06
   6.50000000        -1.06087055E-05
   6.55000019        -1.14320037E-05
   6.59999990        -1.23156178E-05
   6.65000010        -1.32636505E-05
   6.69999981        -1.42804593E-05
   6.75000000        -1.53706751E-05
   6.80000019        -1.65392084E-05
   6.84999990        -1.77912752E-05
   6.90000010        -1.91324034E-05
   6.94999981        -2.05684573E-05
   7.00000000        -2.21056471E-05
   7.05000019        -2.37505483E-05
   7.09999990        -2.55101222E-05
   7.15000010        -2.73917394E-05
   7.19999981        -2.94031888E-05
   7.25000000        -3.15527104E-05
   7.30000019        -3.38490172E-05
   7.34999990        -3.63013060E-05
   7.40000010        -3.89192937E-05
   7.44999981        -4.17132505E-05
   7.50000000        -4.46940066E-05
   7.55000019        -4.78729926E-05
   7.59999990        -5.12622573E-05
   7.65000010        -5.48745156E-05
   7.69999981        -5.87231552E-05
   7.75000000        -6.28222842E-05
   7.80000019        -6.71867383E-05
   7.84999990        -7.18321462E-05
   7.90000010        -7.67749370E-05
   7.94999981        -8.20323912E-05
   8.00000000        -8.76226622E-05
   8.05000019        -9.35648131E-05
   8.10000038        -9.98788746E-05
   8.14999962        -1.06585881E-04
   8.19999981        -1.13707873E-04
   8.25000000        -1.21267993E-04
   8.30000019        -1.29290493E-04
   8.35000038        -1.37800773E-04
   8.39999962        -1.46825463E-04
   8.44999981        -1.56392445E-04
   8.50000000        -1.66530896E-04
   8.55000019        -1.77271329E-04
   8.60000038        -1.88645645E-04
   8.64999962        -2.00687209E-04
   8.69999981        -2.13430845E-04
   8.75000000        -2.26912918E-04
   8.80000019        -2.41171438E-04
   8.85000038        -2.56245956E-04
   8.89999962        -2.72177771E-04
   8.94999981        -2.89010000E-04
   9.00000000        -3.06787406E-04
   9.05000019        -3.25556670E-04
   9.10000038        -3.45366454E-04
   9.14999962        -3.66267283E-04
   9.19999981        -3.88311775E-04
   9.25000000        -4.11554502E-04
   9.30000019        -4.36052302E-04
   9.35000038        -4.61864140E-04
   9.39999962        -4.89051163E-04
   9.44999981        -5.17676934E-04
   9.50000000        -5.47807198E-04
   9.55000019        -5.79510175E-04
   9.60000038        -6.12856471E-04
   9.64999962        -6.47919311E-04
   9.69999981        -6.84774306E-04
   9.75000000        -7.23499688E-04
   9.80000019        -7.64176482E-04
   9.85000038        -8.06888216E-04
   9.89999962        -8.51721154E-04
   9.94999981        -8.98764469E-04
   10.0000000        -9.48110071E-04
   10.0500002        -9.99852666E-04
   10.1000004        -1.05408987E-03
   10.1499996        -1.11092220E-03
   10.1999998        -1.17045315E-03
   10.2500000        -1.23278913E-03
   10.3000002        -1.29803957E-03
   10.3500004        -1.36631692E-03
   10.3999996        -1.43773656E-03
   10.4499998        -1.51241687E-03
   10.5000000        -1.59047963E-03
   10.5500002        -1.67204929E-03
   10.6000004        -1.75725354E-03
   10.6499996        -1.84622302E-03
   10.6999998        -1.93909125E-03
   10.7500000        -2.03599501E-03
   10.8000002        -2.13707401E-03
   10.8500004        -2.24247063E-03
   10.8999996        -2.35233060E-03
   10.9499998        -2.46680179E-03
   11.0000000        -2.58603599E-03
   11.0500002        -2.71018664E-03
   11.1000004        -2.83941044E-03
   11.1499996        -2.97386688E-03
   11.1999998        -3.11371754E-03
   11.2500000        -3.25912703E-03
   11.3000002        -3.41026182E-03
   11.3500004        -3.56729073E-03
   11.3999996        -3.73038533E-03
   11.4499998        -3.89971817E-03
   11.5000000        -4.07546526E-03
   11.5500002        -4.25780239E-03
   11.6000004        -4.44690883E-03
   11.6499996        -4.64296388E-03
   11.6999998        -4.84614866E-03
   11.7500000        -5.05664619E-03
   11.8000002        -5.27463900E-03
   11.8500004        -5.50031150E-03
   11.8999996        -5.73384855E-03
   11.9499998        -5.97543456E-03
   12.0000000        -6.22525485E-03
   12.0500002        -6.48349524E-03
   12.1000004        -6.75033918E-03
   12.1499996        -7.02597201E-03
   12.1999998        -7.31057534E-03
   12.2500000        -7.60433264E-03
   12.3000002        -7.90742412E-03
   12.3500004        -8.22002720E-03
   12.3999996        -8.54232162E-03
   12.4499998        -8.87448061E-03
   12.5000000        -9.21667740E-03
   12.5500002        -9.56908055E-03
   12.6000004        -9.93185677E-03
   12.6499996        -1.03051672E-02
   12.6999998        -1.06891692E-02
   12.7500000        -1.10840192E-02
   12.8000002        -1.14898654E-02
   12.8500004        -1.19068529E-02
   12.8999996        -1.23351207E-02
   12.9499998        -1.27748009E-02
   13.0000000        -1.32260239E-02
   13.0500002        -1.36889080E-02
   13.1000004        -1.41635677E-02
   13.1499996        -1.46501102E-02
   13.1999998        -1.51486360E-02
   13.2500000        -1.56592336E-02
   13.3000002        -1.61819886E-02
   13.3500004        -1.67169720E-02
   13.3999996        -1.72642507E-02
   13.4499998        -1.78238787E-02
   13.5000000        -1.83959045E-02
   13.5500002        -1.89803578E-02
   13.6000004        -1.95772648E-02
   13.6499996        -2.01866366E-02
   13.6999998        -2.08084770E-02
   13.7500000        -2.14427728E-02
   13.8000002        -2.20895037E-02
   13.8500004        -2.27486361E-02
   13.8999996        -2.34201215E-02
   13.9499998        -2.41038986E-02
   14.0000000        -2.47998927E-02
   14.0500002        -2.55080163E-02
   14.1000004        -2.62281671E-02
   14.1499996        -2.69602258E-02
   14.1999998        -2.77040638E-02
   14.2500000        -2.84595359E-02
   14.3000002        -2.92264819E-02
   14.3500004        -3.00047249E-02
   14.3999996        -3.07940710E-02
   14.4499998        -3.15943174E-02
   14.5000000        -3.24052349E-02
   14.5500002        -3.32265906E-02
   14.6000004        -3.40581313E-02
   14.6499996        -3.48995738E-02
   14.6999998        -3.57506424E-02
   14.7500000        -3.66110280E-02
   14.8000002        -3.74804139E-02
   14.8500004        -3.83584611E-02
   14.8999996        -3.92448232E-02
   14.9499998        -4.01391275E-02
   15.0000000        -4.10409942E-02
   15.0500002        -4.19500247E-02
   15.1000004        -4.28658016E-02
   15.1499996        -4.37878966E-02
   15.1999998        -4.47158515E-02
   15.2500000        -4.56492156E-02
   15.3000002        -4.65875119E-02
   15.3500004        -4.75302488E-02
   15.3999996        -4.84769195E-02
   15.4499998        -4.94270064E-02
   15.5000000        -5.03799804E-02
   15.5500002        -5.13353013E-02
   15.6000004        -5.22923991E-02
   15.6499996        -5.32507151E-02
   15.6999998        -5.42096570E-02
   15.7500000        -5.51686361E-02
   15.8000002        -5.61270490E-02
   15.8500004        -5.70842810E-02
   15.8999996        -5.80397137E-02
   15.9499998        -5.89927062E-02
   16.0000000        -5.99426255E-02
   16.0499992        -6.08888231E-02
   16.1000004        -6.18306510E-02
   16.1499996        -6.27674460E-02
   16.2000008        -6.36985302E-02
   16.2500000        -6.46232516E-02
   16.2999992        -6.55409172E-02
   16.3500004        -6.64508566E-02
   16.3999996        -6.73523918E-02
   16.4500008        -6.82448521E-02
   16.5000000        -6.91275373E-02
   16.5499992        -6.99997842E-02
   16.6000004        -7.08608925E-02
   16.6499996        -7.17102066E-02
   16.7000008        -7.25470334E-02
   16.7500000        -7.33707026E-02
   16.7999992        -7.41805583E-02
   16.8500004        -7.49759376E-02
   16.8999996        -7.57561848E-02
   16.9500008        -7.65206441E-02
   17.0000000        -7.72686824E-02
   17.0499992        -7.79996738E-02
   17.1000004        -7.87129924E-02
   17.1499996        -7.94080347E-02
   17.2000008        -8.00841972E-02
   17.2500000        -8.07408914E-02
   17.2999992        -8.13775584E-02
   17.3500004        -8.19936320E-02
   17.3999996        -8.25885832E-02
   17.4500008        -8.31618756E-02
   17.5000000        -8.37130100E-02
   17.5499992        -8.42414796E-02
   17.6000004        -8.47468078E-02
   17.6499996        -8.52285400E-02
   17.7000008        -8.56862441E-02
   17.7500000        -8.61195028E-02
   17.7999992        -8.65279138E-02
   17.8500004        -8.69111121E-02
   17.8999996        -8.72687548E-02
   17.9500008        -8.76005143E-02
   18.0000000        -8.79060775E-02
   18.0499992        -8.81851688E-02
   18.1000004        -8.84375200E-02
   18.1499996        -8.86629075E-02
   18.2000008        -8.88611153E-02
   18.2500000        -8.90319496E-02
   18.2999992        -8.91752616E-02
   18.3500004        -8.92909095E-02
   18.3999996        -8.93787816E-02
   18.4500008        -8.94387886E-02
   18.5000000        -8.94708931E-02
   18.5499992        -8.94750580E-02
   18.6000004        -8.94512758E-02
   18.6499996        -8.93995762E-02
   18.7000008        -8.93200040E-02
   18.7500000        -8.92126411E-02
   18.7999992        -8.90775844E-02
   18.8500004        -8.89149681E-02
   18.8999996        -8.87249336E-02
   18.9500008        -8.85076672E-02
   19.0000000        -8.82633552E-02
   19.0499992        -8.79922360E-02
   19.1000004        -8.76945630E-02
   19.1499996        -8.73705894E-02
   19.2000008        -8.70206207E-02
   19.2500000        -8.66449773E-02
   19.2999992        -8.62440243E-02
   19.3500004        -8.58181119E-02
   19.3999996        -8.53676274E-02
   19.4500008        -8.48929882E-02
   19.5000000        -8.43946263E-02
   19.5499992        -8.38729888E-02
   19.6000004        -8.33285600E-02
   19.6499996        -8.27618241E-02
   19.7000008        -8.21732730E-02
   19.7500000        -8.15634280E-02
   19.7999992        -8.09328333E-02
   19.8500004        -8.02820474E-02
   19.8999996        -7.96116143E-02
   19.9500008        -7.89221153E-02
   20.0000000        -7.82141462E-02
   20.0499992        -7.74883181E-02
   20.1000004        -7.67452493E-02
   20.1499996        -7.59855583E-02
   20.2000008        -7.52098858E-02
   20.2500000        -7.44188875E-02
   20.2999992        -7.36131966E-02
   20.3500004        -7.27934986E-02
   20.3999996        -7.19604418E-02
   20.4500008        -7.11147040E-02
   20.5000000        -7.02569634E-02
   20.5499992        -6.93878904E-02
   20.6000004        -6.85081705E-02
   20.6499996        -6.76184818E-02
   20.7000008        -6.67194948E-02
   20.7500000        -6.58118874E-02
   20.7999992        -6.48963377E-02
   20.8500004        -6.39735386E-02
   20.8999996        -6.30441606E-02
   20.9500008        -6.21088743E-02
   21.0000000        -6.11683577E-02
   21.0499992        -6.02232739E-02
   21.1000004        -5.92742786E-02
   21.1499996        -5.83220161E-02
   21.2000008        -5.73671348E-02
   21.2500000        -5.64102605E-02
   21.2999992        -5.54520227E-02
   21.3500004        -5.44930361E-02
   21.3999996        -5.35339080E-02
   21.4500008        -5.25752306E-02
   21.5000000        -5.16175814E-02
   21.5499992        -5.06615378E-02
   21.6000004        -4.97076586E-02
   21.6499996        -4.87565026E-02
   21.7000008        -4.78086136E-02
   21.7500000        -4.68644984E-02
   21.7999992        -4.59246784E-02
   21.8500004        -4.49896418E-02
   21.8999996        -4.40598689E-02
   21.9500008        -4.31358404E-02
   22.0000000        -4.22179997E-02
   22.0499992        -4.13067825E-02
   22.1000004        -4.04026136E-02
   22.1499996        -3.95059027E-02
   22.2000008        -3.86170372E-02
   22.2500000        -3.77363786E-02
   22.2999992        -3.68642770E-02
   22.3500004        -3.60010602E-02
   22.3999996        -3.51470560E-02
   22.4500008        -3.43025774E-02
   22.5000000        -3.34679149E-02
   22.5499992        -3.26433554E-02
   22.6000004        -3.18291597E-02
   22.6499996        -3.10255755E-02
   22.7000008        -3.02328411E-02
   22.7500000        -2.94511616E-02
   22.7999992        -2.86807325E-02
   22.8500004        -2.79217269E-02
   22.8999996        -2.71743163E-02
   22.9500008        -2.64386535E-02
   23.0000000        -2.57148761E-02
   23.0499992        -2.50030998E-02
   23.1000004        -2.43034307E-02
   23.1499996        -2.36159619E-02
   23.2000008        -2.29407661E-02
   23.2500000        -2.22779121E-02
   23.2999992        -2.16274392E-02
   23.3500004        -2.09893826E-02
   23.3999996        -2.03637686E-02
   23.4500008        -1.97506174E-02
   23.5000000        -1.91499367E-02
   23.5499992        -1.85617171E-02
   23.6000004        -1.79859381E-02
   23.6499996        -1.74225755E-02
   23.7000008        -1.68715958E-02
   23.7500000        -1.63329467E-02
   23.7999992        -1.58065651E-02
   23.8500004        -1.52923716E-02
   23.8999996        -1.47902798E-02
   23.9500008        -1.43001992E-02
   24.0000000        -1.38220321E-02
   24.0499992        -1.33556686E-02
   24.1000004        -1.29009960E-02
   24.1499996        -1.24578960E-02
   24.2000008        -1.20262485E-02
   24.2500000        -1.16059277E-02
   24.2999992        -1.11967968E-02
   24.3500004        -1.07987076E-02
   24.3999996        -1.04115112E-02
   24.4500008        -1.00350529E-02
   24.5000000        -9.66918189E-03
   24.5499992        -9.31373611E-03
   24.6000004        -8.96855351E-03
   24.6499996        -8.63346364E-03
   24.7000008        -8.30829795E-03
   24.7500000        -7.99288694E-03
   24.7999992        -7.68704992E-03
   24.8500004        -7.39060342E-03
   24.8999996        -7.10336119E-03
   24.9500008        -6.82513928E-03
   25.0000000        -6.55575749E-03
   25.0499992        -6.29503606E-03
   25.1000004        -6.04279060E-03
   25.1499996        -5.79883577E-03
   25.2000008        -5.56298671E-03
   25.2500000        -5.33506135E-03
   25.2999992        -5.11487527E-03
   25.3500004        -4.90224035E-03
   25.3999996        -4.69696661E-03
   25.4500008        -4.49886825E-03
   25.5000000        -4.30776551E-03
   25.5499992        -4.12348006E-03
   25.6000004        -3.94583400E-03
   25.6499996        -3.77464946E-03
   25.7000008        -3.60975135E-03
   25.7500000        -3.45096900E-03
   25.7999992        -3.29813454E-03
   25.8500004        -3.15108011E-03
   25.8999996        -3.00963549E-03
   25.9500008        -2.87363352E-03
   26.0000000        -2.74291192E-03
   26.0499992        -2.61731283E-03
   26.1000004        -2.49667861E-03
   26.1499996        -2.38085049E-03
   26.2000008        -2.26967293E-03
   26.2500000        -2.16299505E-03
   26.2999992        -2.06067227E-03
   26.3500004        -1.96256163E-03
   26.3999996        -1.86852063E-03
   26.4500008        -1.77840970E-03
   26.5000000        -1.69209484E-03
   26.5499992        -1.60944904E-03
   26.6000004        -1.53034856E-03
   26.6499996        -1.45466952E-03
   26.7000008        -1.38228945E-03
   26.7500000        -1.31308916E-03
   26.7999992        -1.24695373E-03
   26.8500004        -1.18377001E-03
   26.8999996        -1.12342439E-03
   26.9500008        -1.06580404E-03
   27.0000000        -1.01080025E-03
   27.0499992        -9.58312070E-04
   27.1000004        -9.08243528E-04
   27.1499996        -8.60501430E-04
   27.2000008        -8.14993226E-04
   27.2500000        -7.71628926E-04
   27.2999992        -7.30322325E-04
   27.3500004        -6.90990710E-04
   27.3999996        -6.53552474E-04
   27.4500008        -6.17926649E-04
   27.5000000        -5.84035122E-04
   27.5499992        -5.51805249E-04
   27.6000004        -5.21169743E-04
   27.6499996        -4.92063002E-04
   27.7000008        -4.64418641E-04
   27.7500000        -4.38169314E-04
   27.7999992        -4.13248956E-04
   27.8500004        -3.89594352E-04
   27.8999996        -3.67144967E-04
   27.9500008        -3.45842360E-04
   28.0000000        -3.25631321E-04
   28.0499992        -3.06461880E-04
   28.1000004        -2.88290117E-04
   28.1499996        -2.71075813E-04
   28.2000008        -2.54778890E-04
   28.2500000        -2.39357381E-04
   28.2999992        -2.24767951E-04
   28.3500004        -2.10968181E-04
   28.3999996        -1.97917354E-04
   28.4500008        -1.85576180E-04
   28.5000000        -1.73906781E-04
   28.5499992        -1.62873665E-04
   28.6000004        -1.52445064E-04
   28.6499996        -1.42592340E-04
   28.7000008        -1.33287962E-04
   28.7500000        -1.24503335E-04
   28.7999992        -1.16208968E-04
   28.8500004        -1.08376436E-04
   28.8999996        -1.00980520E-04
   28.9500008        -9.39994716E-05
   29.0000000        -8.74138641E-05
   29.0499992        -8.12054204E-05
   29.1000004        -7.53567219E-05
   29.1499996        -6.98512231E-05
   29.2000008        -6.46724293E-05
   29.2500000        -5.98024126E-05
   29.2999992        -5.52211968E-05
   29.3500004        -5.09078345E-05
   29.3999996        -4.68426260E-05
   29.4500008        -4.30086475E-05
   29.5000000        -3.93915798E-05
   29.5499992        -3.59786063E-05
   29.6000004        -3.27579946E-05
   29.6499996        -2.97198676E-05
   29.7000008        -2.68570275E-05
   29.7500000        -2.41643756E-05
   29.7999992        -2.16369735E-05
   29.8500004        -1.92682910E-05
   29.8999996        -1.70499370E-05
   29.9500008        -1.49725902E-05
   30.0000000        -1.30267017E-05
   30.0499992        -1.12022690E-05
   30.1000004        -9.48851266E-06
   30.1499996        -7.87471981E-06
   30.2000008        -6.35200240E-06
   30.2500000        -4.91433775E-06
   30.2999992        -3.55767361E-06
   30.3500004        -2.27791247E-06
   30.3999996        -1.06989194E-06
   30.4500008         7.16074737E-08
   30.5000000         1.15008834E-06
   30.5499992         2.16692501E-06
   30.6000004         3.12287125E-06
   30.6499996         4.01992384E-06
   30.7000008         4.86179670E-06
   30.7500000         5.65307346E-06
   30.7999992         6.39857581E-06
   30.8500004         7.10372888E-06
   30.8999996         7.77488185E-06
   30.9500008         8.41810561E-06
   31.0000000         9.03683122E-06
   31.0499992         9.63056300E-06
   31.1000004         1.01962942E-05
   31.1499996         1.07316137E-05
   31.2000008         1.12367270E-05
   31.2500000         1.17138452E-05
   31.2999992         1.21651465E-05
   31.3500004         1.25917186E-05
   31.3999996         1.29942291E-05
   31.4500008         1.33739422E-05
   31.5000000         1.37325787E-05
   31.5499992         1.40714546E-05
   31.6000004         1.43916077E-05
   31.6499996         1.46953216E-05
   31.7000008         1.49873076E-05
   31.7500000         1.52735647E-05
   31.7999992         1.55582711E-05
   31.8500004         1.58414005E-05
   31.8999996         1.61191892E-05
   31.9500008         1.63868299E-05
   32.0000000         1.66407699E-05
   32.0499992         1.68790393E-05
   32.0999985         1.71005522E-05
   32.1500015         1.73052504E-05
   32.2000008         1.74952838E-05
   32.2500000         1.76755166E-05
   32.2999992         1.78520586E-05
   32.3499985         1.80297593E-05
   32.4000015         1.82109980E-05
   32.4500008         1.83966531E-05
   32.5000000         1.85877143E-05
   32.5499992         1.87853475E-05
   32.5999985         1.89893435E-05
   32.6500015         1.91970048E-05
   32.7000008         1.94042386E-05
   32.7500000         1.96081128E-05
   32.7999992         1.98083617E-05
   32.8499985         2.00065388E-05
   32.9000015         2.02040937E-05
   32.9500008         2.04016087E-05
   33.0000000         2.05998422E-05
   33.0499992         2.08009060E-05
   33.0999985         2.10078797E-05
   33.1500015         2.12233208E-05
   33.2000008         2.14486572E-05
   33.2500000         2.16853368E-05
   33.2999992         2.19362973E-05
   33.3499985         2.22054641E-05
   33.4000015         2.24951418E-05
   33.4500008         2.28037607E-05
   33.5000000         2.31263766E-05
   33.5499992         2.34576728E-05
   33.5999985         2.37946842E-05
   33.6500015         2.41371727E-05
   33.7000008         2.44863368E-05
   33.7500000         2.48441156E-05
   33.7999992         2.52139034E-05
   33.8499985         2.56010171E-05
   33.9000015         2.60111392E-05
   33.9500008         2.64474929E-05
   34.0000000         2.69096508E-05
   34.0499992         2.73955939E-05
   34.0999985         2.79051819E-05
   34.1500015         2.84415382E-05
   34.2000008         2.90090920E-05
   34.2500000         2.96107009E-05
   34.2999992         3.02469707E-05
   34.3499985         3.09179995E-05
   34.4000015         3.16248224E-05
   34.4500008         3.23685563E-05
   34.5000000         3.31486845E-05
   34.5499992         3.39634098E-05
   34.5999985         3.48126523E-05
   34.6500015         3.57005702E-05
   34.7000008         3.66343775E-05
   34.7500000         3.76203170E-05
   34.7999992         3.86609136E-05
   34.8499985         3.97562108E-05
   34.9000015         4.09070453E-05
   34.9500008         4.21162695E-05
   35.0000000         4.33867062E-05
   35.0499992         4.47189159E-05
   35.0999985         4.61120471E-05
   35.1500015         4.75669767E-05
   35.2000008         4.90876664E-05
   35.2500000         5.06786673E-05
   35.2999992         5.23417111E-05
   35.3499985         5.40757719E-05
   35.4000015         5.58808788E-05
   35.4500008         5.77613646E-05
   35.5000000         5.97245707E-05
   35.5499992         6.17765472E-05
   35.5999985         6.39198552E-05
   35.6500015         6.61558079E-05