  -4.80000019         1.00000002E-24
  -4.75000000         1.00000002E-24
  -4.69999981         1.00000002E-24
  -4.65000010         1.00000002E-24
  -4.59999990         1.00000002E-24
  -4.55000019         1.00000002E-24
  -4.50000000         1.00000002E-24
  -4.44999981         9.99996667E-25
  -4.40000010         9.99973790E-25
  -4.34999990         9.99906342E-25
  -4.30000019         9.99812764E-25
  -4.25000000         9.99770954E-25
  -4.19999981         9.99593066E-25
  -4.15000010         9.98113755E-25
  -4.09999990         9.93539052E-25
  -4.05000019         9.88393903E-25
  -4.00000000         1.00181509E-24
  -3.95000005         1.08425746E-24
  -3.90000010         1.31742394E-24
  -3.84999990         1.77961912E-24
  -3.79999995         2.48361102E-24
  -3.75000000         3.35400938E-24
  -3.70000005         4.36762188E-24
  -3.65000010         5.95768227E-24
  -3.59999990         9.61054726E-24
  -3.54999995         1.82701574E-23
  -3.50000000         3.58611150E-23
  -3.45000005         6.52318675E-23
  -3.40000010         1.04417643E-22
  -3.34999990         1.42444702E-22
  -3.29999995         1.57587588E-22
  -3.25000000         1.22039672E-22
  -3.20000005         1.58669021E-23
  -3.15000010        -1.51372159E-22
  -3.09999990        -3.20621875E-22
  -3.04999995        -3.82187483E-22
  -3.00000000        -2.13294332E-22
  -2.95000005         2.35218228E-22
  -2.90000010         8.17701559E-22
  -2.84999990         1.08933345E-21
  -2.79999995         3.03621279E-22
  -2.75000000        -2.39592642E-21
  -2.70000005        -7.54068671E-21
  -2.65000010        -1.47129759E-20
  -2.59999990        -2.19351819E-20
  -2.54999995        -2.54122001E-20
  -2.50000000        -2.00170761E-20
  -2.45000005        -7.92097986E-22
  -2.40000010         3.45845151E-20
  -2.34999990         8.28969908E-20
  -2.29999995         1.33081082E-19
  -2.25000000         1.65820154E-19
  -2.20000005         1.56231334E-19
  -2.15000010         8.01450513E-20
  -2.09999990        -7.66767735E-20
  -2.04999995        -3.08384280E-19
  -2.00000000        -5.81022622E-19
  -1.95000005        -8.30057960E-19
  -1.89999998        -9.66121003E-19
  -1.85000002        -8.89883591E-19
  -1.79999995        -5.14610669E-19
  -1.75000000         2.07371310E-19
  -1.70000005         1.25955960E-18
  -1.64999998         2.54307208E-18
  -1.60000002         3.86999221E-18
  -1.54999995         4.97125250E-18
  -1.50000000         5.52034119E-18
  -1.45000005         5.17282773E-18
  -1.39999998         3.62075276E-18
  -1.35000002         6.59656169E-19
  -1.29999995        -3.73655019E-18
  -1.25000000        -9.34205872E-18
  -1.20000005        -1.56219329E-17
  -1.14999998        -2.17112610E-17
  -1.10000002        -2.64523823E-17
  -1.04999995        -2.85068938E-17
  -1.00000000        -2.65461267E-17
 -0.949999988        -1.95042042E-17
 -0.899999976        -6.85612745E-18
 -0.850000024         1.11335069E-17
 -0.800000012         3.32509434E-17
 -0.750000000         5.73125322E-17
 -0.699999988         8.03081599E-17
 -0.649999976         9.87015597E-17
 -0.600000024         1.08849418E-16
 -0.550000012         1.07480838E-16
 -0.500000000         9.21744297E-17
 -0.449999988         6.17797112E-17
 -0.400000006         1.67454890E-17
 -0.349999994        -4.06703300E-17
 -0.300000012        -1.06334200E-16
 -0.250000000        -1.74347359E-16
 -0.200000003        -2.37376695E-16
 -0.150000006        -2.87244357E-16
 -0.100000001        -3.15782591E-16
  -5.00000007E-02    -3.15898132E-16
   8.88178420E-16    -2.82713499E-16
   5.00000007E-02    -2.14585924E-16
  0.100000001        -1.13781208E-16
  0.150000006         1.33800435E-17
  0.200000003         1.56981820E-16
  0.250000000         3.04515068E-16
  0.300000012         4.42230131E-16
  0.349999994         5.56574497E-16
  0.400000006         6.35470481E-16
  0.449999988         6.69286260E-16
  0.500000000         6.51495021E-16
  0.550000012         5.79130402E-16
  0.600000024         4.53176179E-16
  0.649999976         2.78953969E-16
  0.699999988         6.64197709E-17
  0.750000000        -1.69866105E-16
  0.800000012        -4.11393606E-16
  0.850000024        -6.37185458E-16
  0.899999976        -8.26071105E-16
  0.949999988        -9.59410820E-16
   1.00000000        -1.02367934E-15
   1.04999995        -1.01226610E-15
   1.10000002        -9.26031369E-16
   1.14999998        -7.72552070E-16
   1.20000005        -5.64431363E-16
   1.25000000        -3.17352223E-16
   1.29999995        -4.85733095E-17
   1.35000002         2.23747353E-16
   1.39999998         4.80530367E-16
   1.45000005         7.01676641E-16
   1.50000000         8.66726622E-16
   1.54999995         9.56889309E-16
   1.60000002         9.58435038E-16
   1.64999998         8.66670241E-16
   1.70000005         6.89131183E-16
   1.75000000         4.46569481E-16
   1.79999995         1.70866279E-16
   1.85000002        -9.99452423E-17
   1.89999998        -3.28260737E-16
   1.95000005        -4.83119482E-16
   2.00000000        -5.44177429E-16
   2.04999995        -5.02476461E-16
   2.09999990        -3.58428371E-16
   2.15000010        -1.18675219E-16
   2.20000005         2.06009093E-16
   2.25000000         6.00181024E-16
   2.29999995         1.04043206E-15
   2.34999990         1.49097789E-15
   2.40000010         1.90099054E-15
   2.45000005         2.20649245E-15
   2.50000000         2.33819189E-15
   2.54999995         2.23422135E-15
   2.59999990         1.85439843E-15
   2.65000010         1.19139282E-15
   2.70000005         2.74814175E-16
   2.75000000        -8.33372635E-16
   2.79999995        -2.05043256E-15
   2.84999990        -3.28702867E-15
   2.90000010        -4.45862516E-15
   2.95000005        -5.49022192E-15
   3.00000000        -6.31385262E-15
   3.04999995        -6.86205870E-15
   3.09999990        -7.06301472E-15
   3.15000010        -6.84278743E-15
   3.20000005        -6.13718315E-15
   3.25000000        -4.91091534E-15
   3.29999995        -3.17750476E-15
   3.34999990        -1.01151870E-15
   3.40000010         1.45338900E-15
   3.45000005         4.04207341E-15
   3.50000000         6.56627945E-15
   3.54999995         8.85419633E-15
   3.59999990         1.07707320E-14
   3.65000010         1.22217800E-14
   3.70000005         1.31427640E-14
   3.75000000         1.34790352E-14
   3.79999995         1.31699198E-14
   3.84999990         1.21471267E-14
   3.90000010         1.03519420E-14
   3.95000005         7.76661789E-15
   4.00000000         4.44766497E-15
   4.05000019         5.45962286E-16
   4.09999990        -3.69741147E-15
   4.15000010        -7.98140088E-15
   4.19999981        -1.19921408E-14
   4.25000000        -1.54504349E-14
   4.30000019        -1.81424310E-14
   4.34999990        -1.99236549E-14
   4.40000010        -2.06986189E-14
   4.44999981        -2.03899668E-14
   4.50000000        -1.89167648E-14
   4.55000019        -1.61982024E-14
   4.59999990        -1.21874548E-14
   4.65000010        -6.92547521E-15
   4.69999981        -5.92821419E-16
   4.75000000         6.46505436E-15
   4.80000019         1.37554398E-14
   4.84999990         2.06990356E-14
   4.90000010         2.67163187E-14
   4.94999981         3.13113013E-14
   5.00000000         3.41251143E-14
   5.05000019         3.49447034E-14
   5.09999990         3.36712910E-14
   5.15000010         3.02709721E-14
   5.19999981         2.47374566E-14
   5.25000000         1.70908074E-14
   5.30000019         7.41798844E-15
   5.34999990        -4.06054635E-15
   5.40000010        -1.69299236E-14
   5.44999981        -3.05591225E-14
   5.50000000        -4.41385006E-14
   5.55000019        -5.67726984E-14
   5.59999990        -6.76011913E-14
   5.65000010        -7.59056311E-14
   5.69999981        -8.11672439E-14
   5.75000000        -8.30579976E-14
   5.80000019        -8.13773216E-14
   5.84999990        -7.59700530E-14
   5.90000010        -6.66695567E-14
   5.94999981        -5.32991925E-14
   6.00000000        -3.57386206E-14
   6.05000019        -1.40314752E-14
   6.09999990         1.15096785E-14
   6.15000010         4.02467807E-14
   6.19999981         7.12345290E-14
   6.25000000         1.03308516E-13
   6.30000019         1.35208400E-13
   6.34999990         1.65685987E-13
   6.40000010         1.93556000E-13
   6.44999981         2.17674186E-13
   6.50000000         2.36863101E-13
   6.55000019         2.49833411E-13
   6.59999990         2.55155977E-13
   6.65000010         2.51322211E-13
   6.69999981         2.36895545E-13
   6.75000000         2.10718162E-13
   6.80000019         1.72112270E-13
   6.84999990         1.21016424E-13
   6.90000010         5.80211809E-14
   6.94999981        -1.56912277E-14
   7.00000000        -9.84617458E-14
   7.05000019        -1.88264985E-13
   7.09999990        -2.82765239E-13
   7.15000010        -3.79299836E-13
   7.19999981        -4.74813060E-13
   7.25000000        -5.65794915E-13
   7.30000019        -6.48286275E-13
   7.34999990        -7.17992506E-13
   7.40000010        -7.70507139E-13
   7.44999981        -8.01603413E-13
   7.50000000        -8.07528523E-13
   7.55000019        -7.85232231E-13
   7.59999990        -7.32494143E-13
   7.65000010        -6.47954672E-13
   7.69999981        -5.31095187E-13
   7.75000000        -3.82231112E-13
   7.80000019        -2.02568892E-13
   7.84999990         5.65880520E-15
   7.90000010         2.39010634E-13
   7.94999981         4.92673719E-13
   8.00000000         7.60394894E-13
   8.05000019         1.03456013E-12
   8.10000038         1.30642925E-12
   8.14999962         1.56648967E-12
   8.19999981         1.80485791E-12
   8.25000000         2.01165517E-12
   8.30000019         2.17731172E-12
   8.35000038         2.29279399E-12
   8.39999962         2.34979072E-12
   8.44999981         2.34091479E-12
   8.50000000         2.25996478E-12
   8.55000019         2.10226129E-12
   8.60000038         1.86502072E-12
   8.64999962         1.54770315E-12
   8.69999981         1.15225342E-12
   8.75000000         6.83180238E-13
   8.80000019         1.47459681E-13
   8.85000038        -4.45702476E-13
   8.89999962        -1.08517860E-12
   8.94999981        -1.75822182E-12
   9.00000000        -2.45070956E-12
   9.05000019        -3.14731401E-12
   9.10000038        -3.83163683E-12
   9.14999962        -4.48635313E-12
   9.19999981        -5.09343219E-12
   9.25000000        -5.63445427E-12
   9.30000019        -6.09101051E-12
   9.35000038        -6.44513219E-12
   9.39999962        -6.67968502E-12
   9.44999981        -6.77866530E-12
   9.50000000        -6.72738905E-12
   9.55000019        -6.51258691E-12
   9.60000038        -6.12248013E-12
   9.64999962        -5.54691189E-12
   9.69999981        -4.77759846E-12
   9.75000000        -3.80852294E-12
   9.80000019        -2.63646028E-12
   9.85000038        -1.26157418E-12
   9.89999962         3.11983105E-13
   9.94999981         2.07551424E-12
   10.0000000         4.01529157E-12
   10.0500002         6.11212079E-12
   10.1000004         8.34092604E-12
   10.1499996         1.06703145E-11
   10.1999998         1.30621278E-11
   10.2500000         1.54710220E-11
   10.3000002         1.78441758E-11
   10.3500004         2.01212137E-11
   10.3999996         2.22345042E-11
   10.4499998         2.41098669E-11
   10.5000000         2.56677301E-11
   10.5500002         2.68247074E-11
   10.6000004         2.74955093E-11
   10.6499996         2.75951224E-11
   10.6999998         2.70411835E-11
   10.7500000         2.57565341E-11
   10.8000002         2.36719411E-11
   10.8500004         2.07290018E-11
   10.8999996         1.68832223E-11
   10.9499998         1.21072128E-11
   11.0000000         6.39385636E-12
   11.0500002        -2.40683233E-13
   11.1000004        -7.75433016E-12
   11.1499996        -1.60770026E-11
   11.1999998        -2.51091457E-11
   11.2500000        -3.47209865E-11
   11.3000002        -4.47524448E-11
   11.3500004        -5.50136464E-11
   11.3999996        -6.52860196E-11
   11.4499998        -7.53239415E-11
   11.5000000        -8.48570311E-11
   11.5500002        -9.35930430E-11
   11.6000004        -1.01221725E-10
   11.6499996        -1.07419539E-10
   11.6999998        -1.11855532E-10
   11.7500000        -1.14198366E-10
   11.8000002        -1.14124321E-10
   11.8500004        -1.11326441E-10
   11.8999996        -1.05524235E-10
   11.9499998        -9.64739261E-11
   12.0000000        -8.39784908E-11
   12.0500002        -6.78972920E-11
   12.1000004        -4.81545463E-11
   12.1499996        -2.47467116E-11
   12.1999998         2.25151690E-12
   12.2500000         3.26820376E-11
   12.3000002         6.62983279E-11
   12.3500004         1.02759808E-10
   12.3999996         1.41624781E-10
   12.4499998         1.82341656E-10
   12.5000000         2.24239016E-10
   12.5500002         2.66515976E-10
   12.6000004         3.08235243E-10
   12.6499996         3.48321816E-10
   12.6999998         3.85569437E-10
   12.7500000         4.18657192E-10
   12.8000002         4.46175791E-10
   12.8500004         4.66660932E-10
   12.8999996         4.78630635E-10
   12.9499998         4.80619600E-10
   13.0000000         4.71207295E-10
   13.0500002         4.49033005E-10
   13.1000004         4.12798129E-10
   13.1499996         3.61255886E-10
   13.1999998         2.93194524E-10
   13.2500000         2.07419748E-10
   13.3000002         1.02745708E-10
   13.3500004        -2.20001708E-11
   13.3999996        -1.67953471E-10
   13.4499998        -3.36171424E-10
   13.5000000        -5.27578703E-10
   13.5500002        -7.42908013E-10
   13.6000004        -9.82645076E-10
   13.6499996        -1.24698696E-09
   13.6999998        -1.53581792E-09
   13.7500000        -1.84870552E-09
   13.8000002        -2.18491247E-09
   13.8500004        -2.54341703E-09
   13.8999996        -2.92293700E-09
   13.9499998        -3.32194627E-09
   14.0000000        -3.73868758E-09
   14.0500002        -4.17117851E-09
   14.1000004        -4.61722038E-09
   14.1499996        -5.07441689E-09
   14.1999998        -5.54020918E-09
   14.2500000        -6.01193229E-09
   14.3000002        -6.48688792E-09
   14.3500004        -6.96242752E-09
   14.3999996        -7.43602557E-09
   14.4499998        -7.90533417E-09
   14.5000000        -8.36819858E-09
   14.5500002        -8.82262352E-09
   14.6000004        -9.26671007E-09
   14.6499996        -9.69854685E-09
   14.6999998        -1.01161000E-08
   14.7500000        -1.05171187E-08
   14.8000002        -1.08990728E-08
   14.8500004        -1.12591589E-08
   14.8999996        -1.15943717E-08
   14.9499998        -1.19016415E-08
   15.0000000        -1.21780150E-08
   15.0500002        -1.24208785E-08
   15.1000004        -1.26281563E-08
   15.1499996        -1.27984912E-08
   15.1999998        -1.29313493E-08
   15.2500000        -1.30270532E-08
   15.3000002        -1.30867237E-08
   15.3500004        -1.31121540E-08
   15.3999996        -1.31056206E-08
   15.4499998        -1.30696733E-08
   15.5000000        -1.30069342E-08
   15.5500002        -1.29199336E-08
   15.6000004        -1.28110154E-08
   15.6499996        -1.26823139E-08
   15.6999998        -1.25358159E-08
   15.7500000        -1.23734614E-08
   15.8000002        -1.21972885E-08
   15.8500004        -1.20095693E-08
   15.8999996        -1.18129115E-08
   15.9499998        -1.16103180E-08
   16.0000000        -1.14051968E-08
   16.0499992        -1.12013288E-08
   16.1000004        -1.10028306E-08
   16.1499996        -1.08141212E-08
   16.2000008        -1.06399192E-08
   16.2500000        -1.04852802E-08
   16.2999992        -1.03556532E-08
   16.3500004        -1.02569482E-08
   16.3999996        -1.01955697E-08
   16.4500008        -1.01784066E-08
   16.5000000        -1.02127586E-08
   16.5499992        -1.03062217E-08
   16.6000004        -1.04665467E-08
   16.6499996        -1.07015259E-08
   16.7000008        -1.10189537E-08
   16.7500000        -1.14266863E-08
   16.7999992        -1.19328263E-08
   16.8500004        -1.25459998E-08
   16.8999996        -1.32757050E-08
   16.9500008        -1.41326542E-08
   17.0000000        -1.51290696E-08
   17.0499992        -1.62788609E-08
   17.1000004        -1.75976869E-08
   17.1499996        -1.91028953E-08
   17.2000008        -2.08133653E-08
   17.2500000        -2.27493402E-08
   17.2999992        -2.49322802E-08
   17.3500004        -2.73847913E-08
   17.3999996        -3.01307068E-08
   17.4500008        -3.31952741E-08
   17.5000000        -3.66055275E-08
   17.5499992        -4.03907059E-08
   17.6000004        -4.45828263E-08
   17.6499996        -4.92172454E-08
   17.7000008        -5.43332632E-08
   17.7500000        -5.99746670E-08
   17.7999992        -6.61902746E-08
   17.8500004        -7.30343288E-08
   17.8999996        -8.05668421E-08
   17.9500008        -8.88537457E-08
   18.0000000        -9.79669537E-08
   18.0499992        -1.07984206E-07
   18.1000004        -1.18988908E-07
   18.1499996        -1.31069896E-07
   18.2000008        -1.44321220E-07
   18.2500000        -1.58842113E-07
   18.2999992        -1.74737124E-07
   18.3500004        -1.92116659E-07
   18.3999996        -2.11097515E-07
   18.4500008        -2.31804208E-07
   18.5000000        -2.54370008E-07
   18.5499992        -2.78938614E-07
   18.6000004        -3.05665878E-07
   18.6499996        -3.34721562E-07
   18.7000008        -3.66291374E-07
   18.7500000        -4.00579012E-07
   18.7999992        -4.37808268E-07
   18.8500004        -4.78225047E-07
   18.8999996        -5.22099469E-07
   18.9500008        -5.69727490E-07
   19.0000000        -6.21432719E-07
   19.0499992        -6.77567527E-07
   19.1000004        -7.38513791E-07
   19.1499996        -8.04684248E-07
   19.2000008        -8.76522620E-07
   19.2500000        -9.54504571E-07
   19.2999992        -1.03913817E-06
   19.3500004        -1.13096530E-06
   19.3999996        -1.23056293E-06
   19.4500008        -1.33854473E-06
   19.5000000        -1.45556282E-06
   19.5499992        -1.58231069E-06
   19.6000004        -1.71952570E-06
   19.6499996        -1.86799309E-06
   19.7000008        -2.02854949E-06
   19.7500000        -2.20208744E-06
   19.7999992        -2.38956227E-06
   19.8500004        -2.59199692E-06
   19.8999996        -2.81048960E-06
   19.9500008        -3.04622017E-06
   20.0000000        -3.30045759E-06
   20.0499992        -3.57456724E-06
   20.1000004        -3.87001865E-06
   20.1499996        -4.18839181E-06
   20.2000008        -4.53138682E-06
   20.2500000        -4.90082584E-06
   20.2999992        -5.29866702E-06
   20.3500004        -5.72700719E-06
   20.3999996        -6.18808963E-06
   20.4500008        -6.68431221E-06
   20.5000000        -7.21823199E-06
   20.5499992        -7.79257152E-06
   20.6000004        -8.41022484E-06
   20.6499996        -9.07426329E-06
   20.7000008        -9.78794560E-06
   20.7500000        -1.05547224E-05
   20.7999992        -1.13782471E-05
   20.8500004        -1.22623842E-05
   20.8999996        -1.32112255E-05
   20.9500008        -1.42290955E-05
   21.0000000        -1.53205765E-05
   21.0499992        -1.64905159E-05
   21.1000004        -1.77440415E-05
   21.1499996        -1.90865940E-05
   21.2000008        -2.05239321E-05
   21.2500000        -2.20621678E-05
   21.2999992        -2.37077820E-05
   21.3500004        -2.54676524E-05
   21.3999996        -2.73490787E-05
   21.4500008        -2.93598023E-05
   21.5000000        -3.15080397E-05
   21.5499992        -3.38024947E-05
   21.6000004        -3.62523897E-05
   21.6499996        -3.88674889E-05
   21.7000008        -4.16581133E-05
   21.7500000        -4.46351878E-05
   21.7999992        -4.78102265E-05
   21.8500004        -5.11953804E-05
   21.8999996        -5.48034623E-05
   21.9500008        -5.86479582E-05
   22.0000000        -6.27430636E-05
   22.0499992        -6.71036978E-05
   22.1000004        -7.17455259E-05
   22.1499996        -7.66850062E-05
   22.2000008        -8.19394190E-05
   22.2500000        -8.75268888E-05
   22.2999992        -9.34664349E-05
   22.3500004        -9.97779935E-05
   22.3999996        -1.06482476E-04
   22.4500008        -1.13601804E-04
   22.5000000        -1.21158962E-04
   22.5499992        -1.29178021E-04
   22.6000004        -1.37684227E-04
   22.6499996        -1.46704013E-04
   22.7000008        -1.56265000E-04
   22.7500000        -1.66396218E-04
   22.7999992        -1.77127979E-04
   22.8500004        -1.88492006E-04
   22.8999996        -2.00521536E-04
   22.9500008        -2.13251216E-04
   23.0000000        -2.26717297E-04
   23.0499992        -2.40957655E-04
   23.1000004        -2.56011728E-04
   23.1499996        -2.71920726E-04
   23.2000008        -2.88727577E-04
   23.2500000        -3.06476984E-04
   23.2999992        -3.25215544E-04
   23.3500004        -3.44991771E-04
   23.3999996        -3.65856045E-04
   23.4500008        -3.87860811E-04
   23.5000000        -4.11060551E-04
   23.5499992        -4.35511785E-04
   23.6000004        -4.61273245E-04
   23.6499996        -4.88405873E-04
   23.7000008        -5.16972912E-04
   23.7500000        -5.47039730E-04
   23.7999992        -5.78674313E-04
   23.8500004        -6.11946918E-04
   23.8999996        -6.46930304E-04
   23.9500008        -6.83699618E-04
   24.0000000        -7.22332916E-04
   24.0499992        -7.62910466E-04
   24.1000004        -8.05515447E-04
   24.1499996        -8.50233599E-04
   24.2000008        -8.97153572E-04
   24.2500000        -9.46366577E-04
   24.2999992        -9.97966737E-04
   24.3500004        -1.05205120E-03
   24.3999996        -1.10871973E-03
   24.4500008        -1.16807513E-03
   24.5000000        -1.23022310E-03
   24.5499992        -1.29527226E-03
   24.6000004        -1.36333436E-03
   24.6499996        -1.43452396E-03
   24.7000008        -1.50895829E-03
   24.7500000        -1.58675830E-03
   24.7999992        -1.66804728E-03
   24.8500004        -1.75295200E-03
   24.8999996        -1.84160180E-03
   24.9500008        -1.93412928E-03
   25.0000000        -2.03066971E-03
   25.0499992        -2.13136175E-03
   25.1000004        -2.23634671E-03
   25.1499996        -2.34576827E-03
   25.2000008        -2.45977356E-03
   25.2500000        -2.57851253E-03
   25.2999992        -2.70213722E-03
   25.3500004        -2.83080270E-03
   25.3999996        -2.96466658E-03
   25.4500008        -3.10388906E-03
   25.5000000        -3.24863219E-03
   25.5499992        -3.39906081E-03
   25.6000004        -3.55534186E-03
   25.6499996        -3.71764391E-03
   25.7000008        -3.88613809E-03
   25.7500000        -4.06099716E-03
   25.7999992        -4.24239459E-03
   25.8500004        -4.43050731E-03
   25.8999996        -4.62551136E-03
   25.9500008        -4.82758647E-03
   26.0000000        -5.03691053E-03
   26.0499992        -5.25366515E-03
   26.1000004        -5.47803100E-03
   26.1499996        -5.71019016E-03
   26.2000008        -5.95032377E-03
   26.2500000        -6.19861437E-03
   26.2999992        -6.45524357E-03
   26.3500004        -6.72039203E-03
   26.3999996        -6.99424138E-03
   26.4500008        -7.27697089E-03
   26.5000000        -7.56875938E-03
   26.5499992        -7.86978379E-03
   26.6000004        -8.18021968E-03
   26.6499996        -8.50023981E-03
   26.7000008        -8.83001648E-03
   26.7500000        -9.16971546E-03
   26.7999992        -9.51950252E-03
   26.8500004        -9.87953972E-03
   26.8999996        -1.02499863E-02
   26.9500008        -1.06309960E-02
   27.0000000        -1.10227205E-02
   27.0499992        -1.14253042E-02
   27.1000004        -1.18388869E-02
   27.1499996        -1.22636054E-02
   27.2000008        -1.26995863E-02
   27.2500000        -1.31469527E-02
   27.2999992        -1.36058228E-02
   27.3500004        -1.40763037E-02
   27.3999996        -1.45584987E-02
   27.4500008        -1.50525039E-02
   27.5000000        -1.55584048E-02
   27.5499992        -1.60762817E-02
   27.6000004        -1.66062023E-02
   27.6499996        -1.71482284E-02
   27.7000008        -1.77024100E-02
   27.7500000        -1.82687864E-02
   27.7999992        -1.88473910E-02
   27.8500004        -1.94382407E-02
   27.8999996        -2.00413428E-02
   27.9500008        -2.06567012E-02
   28.0000000        -2.12842952E-02
   28.0499992        -2.19241027E-02
   28.1000004        -2.25760806E-02
   28.1499996        -2.32401788E-02
   28.2000008        -2.39163321E-02
   28.2500000        -2.46044602E-02
   28.2999992        -2.53044758E-02
   28.3500004        -2.60162707E-02
   28.3999996        -2.67397258E-02
   28.4500008        -2.74747070E-02
   28.5000000        -2.82210670E-02
   28.5499992        -2.89786402E-02
   28.6000004        -2.97472477E-02
   28.6499996        -3.05266958E-02
   28.7000008        -3.13167721E-02
   28.7500000        -3.21172588E-02
   28.7999992        -3.29279043E-02
   28.8500004        -3.37484591E-02
   28.8999996        -3.45786512E-02
   28.9500008        -3.54181901E-02
   29.0000000        -3.62667739E-02
   29.0499992        -3.71240787E-02
   29.1000004        -3.79897729E-02
   29.1499996        -3.88635024E-02
   29.2000008        -3.97448987E-02
   29.2500000        -4.06335779E-02
   29.2999992        -4.15291339E-02
   29.3500004        -4.24311608E-02
   29.3999996        -4.33392264E-02
   29.4500008        -4.42528911E-02
   29.5000000        -4.51716930E-02
   29.5499992        -4.60951589E-02
   29.6000004        -4.70227972E-02
   29.6499996        -4.79541197E-02
   29.7000008        -4.88886051E-02
   29.7500000        -4.98257205E-02
   29.7999992        -5.07649258E-02
   29.8500004        -5.17056659E-02
   29.8999996        -5.26473708E-02
   29.9500008        -5.35894670E-02
   30.0000000        -5.45313656E-02
   30.0499992        -5.54724708E-02
   30.1000004        -5.64121753E-02
   30.1499996        -5.73498681E-02
   30.2000008        -5.82849197E-02
   30.2500000        -5.92167042E-02
   30.2999992        -6.01445772E-02
   30.3500004        -6.10678904E-02
   30.3999996        -6.19859919E-02
   30.4500008        -6.28982335E-02
   30.5000000        -6.38039410E-02
   30.5499992        -6.47024661E-02
   30.6000004        -6.55931458E-02
   30.6499996        -6.64753020E-02
   30.7000008        -6.73482642E-02
   30.7500000        -6.82113618E-02
   30.7999992        -6.90639317E-02
   30.8500004        -6.99053034E-02
   30.8999996        -7.07348064E-02
   30.9500008        -7.15517849E-02
   31.0000000        -7.23555610E-02
   31.0499992        -7.31455088E-02
   31.1000004        -7.39209577E-02
   31.1499996        -7.46812820E-02
   31.2000008        -7.54258484E-02
   31.2500000        -7.61540309E-02
   31.2999992        -7.68652186E-02
   31.3500004        -7.75587931E-02
   31.3999996        -7.82341585E-02
   31.4500008        -7.88907483E-02
   31.5000000        -7.95279816E-02
   31.5499992        -8.01453069E-02
   31.6000004        -8.07421878E-02
   31.6499996        -8.13180879E-02
   31.7000008        -8.18725005E-02
   31.7500000        -8.24049339E-02
   31.7999992        -8.29149038E-02
   31.8500004        -8.34019557E-02
   31.8999996        -8.38656425E-02
   31.9500008        -8.43055546E-02
   32.0000000        -8.47212896E-02
   32.0499992        -8.51124525E-02
   32.0999985        -8.54787081E-02
   32.1500015        -8.58197063E-02
   32.2000008        -8.61351416E-02
   32.2500000        -8.64247158E-02
   32.2999992        -8.66881609E-02
   32.3499985        -8.69252235E-02
   32.4000015        -8.71356800E-02
   32.4500008        -8.73193443E-02
   32.5000000        -8.74760374E-02
   32.5499992        -8.76056254E-02
   32.5999985        -8.77079815E-02
   32.6500015        -8.77830237E-02
   32.7000008        -8.78306627E-02
   32.7500000        -8.78508613E-02
   32.7999992        -8.78435820E-02
   32.8499985        -8.78088325E-02
   32.9000015        -8.77466574E-02
   32.9500008        -8.76570940E-02
   33.0000000        -8.75402465E-02
   33.0499992        -8.73962343E-02
   33.0999985        -8.72251838E-02
   33.1500015        -8.70272592E-02
   33.2000008        -8.68026316E-02
   33.2500000        -8.65515023E-02
   33.2999992        -8.62741172E-02
   33.3499985        -8.59707147E-02
   33.4000015        -8.56415853E-02
   33.4500008        -8.52870420E-02
   33.5000000        -8.49074125E-02
   33.5499992        -8.45030472E-02
   33.5999985        -8.40743184E-02
   33.6500015        -8.36216137E-02
   33.7000008        -8.31453353E-02
   33.7500000        -8.26459229E-02
   33.7999992        -8.21238160E-02
   33.8499985        -8.15794840E-02
   33.9000015        -8.10134038E-02
   33.9500008        -8.04260969E-02
   34.0000000        -7.98180848E-02
   34.0499992        -7.91898966E-02
   34.0999985        -7.85420612E-02
   34.1500015        -7.78751522E-02
   34.2000008        -7.71897361E-02
   34.2500000        -7.64864013E-02
   34.2999992        -7.57657513E-02
   34.3499985        -7.50284046E-02
   34.4000015        -7.42749870E-02
   34.4500008        -7.35061392E-02
   34.5000000        -7.27225021E-02
   34.5499992        -7.19247162E-02
   34.5999985        -7.11134300E-02
   34.6500015        -7.02892840E-02
   34.7000008        -6.94529414E-02
   34.7500000        -6.86050504E-02
   34.7999992        -6.77462816E-02
   34.8499985        -6.68773055E-02
   34.9000015        -6.59988001E-02
   34.9500008        -6.51114434E-02
   35.0000000        -6.42159060E-02
   35.0499992        -6.33128434E-02
   35.0999985        -6.24029413E-02
   35.1500015        -6.14868440E-02
   35.2000008        -6.05652072E-02
   35.2500000        -5.96386902E-02
   35.2999992        -5.87079339E-02
   35.3499985        -5.77735938E-02
   35.4000015        -5.68363070E-02
   35.4500008        -5.58967181E-02
   35.5000000        -5.49554341E-02
   35.5499992        -5.40130809E-02
   35.5999985        -5.30702434E-02
   35.6500015        -5.21275178E-02