  -4.80000019         1.00000002E-24
  -4.75000000         1.00000002E-24
  -4.69999981         1.00000002E-24
  -4.65000010         1.00000002E-24
  -4.59999990         1.00000002E-24
  -4.55000019         1.00000002E-24
  -4.50000000         1.00000002E-24
  -4.44999981         9.99998442E-25
  -4.40000010         9.99988581E-25
  -4.34999990         9.99973889E-25
  -4.30000019         1.00005761E-24
  -4.25000000         1.00064265E-24
  -4.19999981         1.00266312E-24
  -4.15000010         1.00777010E-24
  -4.09999990         1.01903070E-24
  -4.05000019         1.04407407E-24
  -4.00000000         1.10336091E-24
  -3.95000005         1.24343766E-24
  -3.90000010         1.54702920E-24
  -3.84999990         2.12274995E-24
  -3.79999995         3.05870521E-24
  -3.75000000         4.34877954E-24
  -3.70000005         5.84628761E-24
  -3.65000010         7.33723709E-24
  -3.59999990         8.79975602E-24
  -3.54999995         1.07772481E-23
  -3.50000000         1.45484568E-23
  -3.45000005         2.15452397E-23
  -3.40000010         3.14822049E-23
  -3.34999990         3.91895401E-23
  -3.29999995         3.12898428E-23
  -3.25000000        -1.46759178E-23
  -3.20000005        -1.25181674E-22
  -3.15000010        -3.17237800E-22
  -3.09999990        -5.78072475E-22
  -3.04999995        -8.46426597E-22
  -3.00000000        -1.01112268E-21
  -2.95000005        -9.45097067E-22
  -2.90000010        -5.84963308E-22
  -2.84999990        -4.38454003E-23
  -2.79999995         2.88238011E-22
  -2.75000000        -2.65911051E-22
  -2.70000005        -2.50382402E-21
  -2.65000010        -6.94782924E-21
  -2.59999990        -1.32607360E-20
  -2.54999995        -1.96465606E-20
  -2.50000000        -2.25408946E-20
  -2.45000005        -1.69520957E-20
  -2.40000010         2.27552701E-21
  -2.34999990         3.82784420E-20
  -2.29999995         8.94925089E-20
  -2.25000000         1.47337876E-19
  -2.20000005         1.95408792E-19
  -2.15000010         2.11219897E-19
  -2.09999990         1.71008192E-19
  -2.04999995         5.71356138E-20
  -2.00000000        -1.33461740E-19
  -1.95000005        -3.82179493E-19
  -1.89999998        -6.45615761E-19
  -1.85000002        -8.58369302E-19
  -1.79999995        -9.42328290E-19
  -1.75000000        -8.21282246E-19
  -1.70000005        -4.38250835E-19
  -1.64999998         2.27706744E-19
  -1.60000002         1.14805679E-18
  -1.54999995         2.23651998E-18
  -1.50000000         3.34670079E-18
  -1.45000005         4.27605641E-18
  -1.39999998         4.77742175E-18
  -1.35000002         4.58071447E-18
  -1.29999995         3.42825170E-18
  -1.25000000         1.12581794E-18
  -1.20000005        -2.39272415E-18
  -1.14999998        -6.99655501E-18
  -1.10000002        -1.23016588E-17
  -1.04999995        -1.76490002E-17
  -1.00000000        -2.21375039E-17
 -0.949999988        -2.47228734E-17
 -0.899999976        -2.43769829E-17
 -0.850000024        -2.02838930E-17
 -0.800000012        -1.20338037E-17
 -0.750000000         2.28494039E-19
 -0.699999988         1.57358853E-17
 -0.649999976         3.31280641E-17
 -0.600000024         5.05704279E-17
 -0.550000012         6.59370813E-17
 -0.500000000         7.70255499E-17
 -0.449999988         8.17776098E-17
 -0.400000006         7.84958204E-17
 -0.349999994         6.60586636E-17
 -0.300000012         4.41384865E-17
 -0.250000000         1.34107567E-17
 -0.200000003        -2.42845504E-17
 -0.150000006        -6.58946568E-17
 -0.100000001        -1.07290772E-16
  -5.00000007E-02    -1.43636711E-16
   8.88178420E-16    -1.69979144E-16
   5.00000007E-02    -1.81976241E-16
  0.100000001        -1.76620465E-16
  0.150000006        -1.52789616E-16
  0.200000003        -1.11494947E-16
  0.250000000        -5.57779004E-17
  0.300000012         9.69036463E-18
  0.349999994         7.91710909E-17
  0.400000006         1.46422867E-16
  0.449999988         2.05156184E-16
  0.500000000         2.49359909E-16
  0.550000012         2.73580683E-16
  0.600000024         2.73286366E-16
  0.649999976         2.45410962E-16
  0.699999988         1.89067534E-16
  0.750000000         1.06272433E-16
  0.800000012         2.41929484E-18
  0.850000024        -1.13762481E-16
  0.899999976        -2.30909811E-16
  0.949999988        -3.36325761E-16
   1.00000000        -4.17598413E-16
   1.04999995        -4.64137791E-16
   1.10000002        -4.68261254E-16
   1.14999998        -4.25646629E-16
   1.20000005        -3.35240791E-16
   1.25000000        -1.98936712E-16
   1.29999995        -2.14037533E-17
   1.35000002         1.89678179E-16
   1.39999998         4.23020615E-16
   1.45000005         6.63123407E-16
   1.50000000         8.90210346E-16
   1.54999995         1.08118652E-15
   1.60000002         1.21178598E-15
   1.64999998         1.25962354E-15
   1.70000005         1.20746569E-15
   1.75000000         1.04587774E-15
   1.79999995         7.74583731E-16
   1.85000002         4.02331465E-16
   1.89999998        -5.44041917E-17
   1.95000005        -5.73165543E-16
   2.00000000        -1.12695140E-15
   2.04999995        -1.68493986E-15
   2.09999990        -2.21264361E-15
   2.15000010        -2.67216448E-15
   2.20000005        -3.02340004E-15
   2.25000000        -3.22680568E-15
   2.29999995        -3.24765709E-15
   2.34999990        -3.06102461E-15
   2.40000010        -2.65615641E-15
   2.45000005        -2.03897199E-15
   2.50000000        -1.23192070E-15
   2.54999995        -2.71365983E-16
   2.59999990         7.96504573E-16
   2.65000010         1.91981436E-15
   2.70000005         3.04397489E-15
   2.75000000         4.11307468E-15
   2.79999995         5.07020793E-15
   2.84999990         5.85796467E-15
   2.90000010         6.42035346E-15
   2.95000005         6.70679459E-15
   3.00000000         6.67773544E-15
   3.04999995         6.31043950E-15
   3.09999990         5.60308906E-15
   3.15000010         4.57572069E-15
   3.20000005         3.26762547E-15
   3.25000000         1.73216988E-15
   3.29999995         3.09386593E-17
   3.34999990        -1.77079480E-15
   3.40000010        -3.60608184E-15
   3.45000005        -5.40598662E-15
   3.50000000        -7.09844103E-15
   3.54999995        -8.60834333E-15
   3.59999990        -9.86050282E-15
   3.65000010        -1.07857237E-14
   3.70000005        -1.13286413E-14
   3.75000000        -1.14548695E-14
   3.79999995        -1.11548149E-14
   3.84999990        -1.04426770E-14
   3.90000010        -9.35088375E-15
   3.95000005        -7.92196881E-15
   4.00000000        -6.20076229E-15
   4.05000019        -4.22942948E-15
   4.09999990        -2.04643986E-15
   4.15000010         3.11276191E-16
   4.19999981         2.80506395E-15
   4.25000000         5.39247898E-15
   4.30000019         8.02769038E-15
   4.34999990         1.06638594E-14
   4.40000010         1.32554024E-14
   4.44999981         1.57574810E-14
   4.50000000         1.81209316E-14
   4.55000019         2.02829036E-14
   4.59999990         2.21558696E-14
   4.65000010         2.36192512E-14
   4.69999981         2.45179989E-14
   4.75000000         2.46707341E-14
   4.80000019         2.38873066E-14
   4.84999990         2.19926802E-14
   4.90000010         1.88522988E-14
   4.94999981         1.43939663E-14
   5.00000000         8.62289959E-15
   5.05000019         1.62898084E-15
   5.09999990        -6.41250443E-15
   5.15000010        -1.52443874E-14
   5.19999981        -2.45336198E-14
   5.25000000        -3.38795662E-14
   5.30000019        -4.28261925E-14
   5.34999990        -5.08805441E-14
   5.40000010        -5.75391853E-14
   5.44999981        -6.23221432E-14
   5.50000000        -6.48109564E-14
   5.55000019        -6.46850940E-14
   5.59999990        -6.17503011E-14
   5.65000010        -5.59536243E-14
   5.69999981        -4.73830942E-14
   5.75000000        -3.62537115E-14
   5.80000019        -2.28846534E-14
   5.84999990        -7.67399822E-15
   5.90000010         8.92334556E-15
   5.94999981         2.64114139E-14
   6.00000000         4.42627265E-14
   6.05000019         6.19244036E-14
   6.09999990         7.88246557E-14
   6.15000010         9.43826858E-14
   6.19999981         1.08022484E-13
   6.25000000         1.19188513E-13
   6.30000019         1.27359278E-13
   6.34999990         1.32054971E-13
   6.40000010         1.32837941E-13
   6.44999981         1.29308009E-13
   6.50000000         1.21099149E-13
   6.55000019         1.07885401E-13
   6.59999990         8.94037313E-14
   6.65000010         6.54972428E-14
   6.69999981         3.61762825E-14
   6.75000000         1.68827600E-15
   6.80000019        -3.74169859E-14
   6.84999990        -8.02408270E-14
   6.90000010        -1.25518641E-13
   6.94999981        -1.71636631E-13
   7.00000000        -2.16679552E-13
   7.05000019        -2.58501553E-13
   7.09999990        -2.94811105E-13
   7.15000010        -3.23263660E-13
   7.19999981        -3.41561442E-13
   7.25000000        -3.47563910E-13
   7.30000019        -3.39414532E-13
   7.34999990        -3.15684788E-13
   7.40000010        -2.75528678E-13
   7.44999981        -2.18831016E-13
   7.50000000        -1.46325823E-13
   7.55000019        -5.96607250E-14
   7.59999990         3.86094998E-14
   7.65000010         1.45104144E-13
   7.69999981         2.55761585E-13
   7.75000000         3.66026409E-13
   7.80000019         4.71054456E-13
   7.84999990         5.65916780E-13
   7.90000010         6.45795754E-13
   7.94999981         7.06177738E-13
   8.00000000         7.43052592E-13
   8.05000019         7.53126240E-13
   8.10000038         7.34040704E-13
   8.14999962         6.84581569E-13
   8.19999981         6.04838499E-13
   8.25000000         4.96286822E-13
   8.30000019         3.61766688E-13
   8.35000038         2.05356823E-13
   8.39999962         3.21636740E-14
   8.44999981        -1.51938981E-13
   8.50000000        -3.40581431E-13
   8.55000019        -5.27153354E-13
   8.60000038        -7.05034880E-13
   8.64999962        -8.67813688E-13
   8.69999981        -1.00951018E-12
   8.75000000        -1.12482148E-12
   8.80000019        -1.20938405E-12
   8.85000038        -1.26002496E-12
   8.89999962        -1.27495800E-12
   8.94999981        -1.25387829E-12
   9.00000000        -1.19792327E-12
   9.05000019        -1.10949824E-12
   9.10000038        -9.91996741E-13
   9.14999962        -8.49466981E-13
   9.19999981        -6.86280731E-13
   9.25000000        -5.06847873E-13
   9.30000019        -3.15391539E-13
   9.35000038        -1.15774062E-13
   9.39999962         8.86504344E-14
   9.44999981         2.95177999E-13
   9.50000000         5.01890359E-13
   9.55000019         7.07759209E-13
   9.60000038         9.12672282E-13
   9.64999962         1.11733593E-12
   9.69999981         1.32302340E-12
   9.75000000         1.53117894E-12
   9.80000019         1.74292265E-12
   9.85000038         1.95852709E-12
   9.89999962         2.17694829E-12
   9.94999981         2.39546881E-12
   10.0000000         2.60948468E-12
   10.0500002         2.81242846E-12
   10.1000004         2.99580131E-12
   10.1499996         3.14928032E-12
   10.1999998         3.26089199E-12
   10.2500000         3.31725598E-12
   10.3000002         3.30393959E-12
   10.3500004         3.20595829E-12
   10.3999996         3.00844787E-12
   10.4499998         2.69749479E-12
   10.5000000         2.26107371E-12
   10.5500002         1.69000642E-12
   10.6000004         9.78855994E-13
   10.6499996         1.26666757E-13
   10.6999998        -8.62487599E-13
   10.7500000        -1.97915946E-12
   10.8000002        -3.20836044E-12
   10.8500004        -4.52953734E-12
   10.8999996        -5.91666950E-12
   10.9499998        -7.33849266E-12
   11.0000000        -8.75887644E-12
   11.0500002        -1.01374039E-11
   11.1000004        -1.14301858E-11
   11.1499996        -1.25909266E-11
   11.1999998        -1.35721868E-11
   11.2500000        -1.43267880E-11
   11.3000002        -1.48092424E-11
   11.3500004        -1.49771202E-11
   11.3999996        -1.47922959E-11
   11.4499998        -1.42220454E-11
   11.5000000        -1.32400167E-11
   11.5500002        -1.18271191E-11
   11.6000004        -9.97236408E-12
   11.6499996        -7.67366812E-12
   11.6999998        -4.93860508E-12
   11.7500000        -1.78502991E-12
   11.8000002         1.75847303E-12
   11.8500004         5.65239695E-12
   11.8999996         9.84633989E-12
   11.9499998         1.42792748E-11
   12.0000000         1.88799618E-11
   12.0500002         2.35674466E-11
   12.1000004         2.82516215E-11
   12.1499996         3.28338433E-11
   12.1999998         3.72076571E-11
   12.2500000         4.12597317E-11
   12.3000002         4.48711103E-11
   12.3500004         4.79187870E-11
   12.3999996         5.02776813E-11
   12.4499998         5.18228689E-11
   12.5000000         5.24320899E-11
   12.5500002         5.19882609E-11
   12.6000004         5.03821151E-11
   12.6499996         4.75146658E-11
   12.6999998         4.32996833E-11
   12.7500000         3.76660231E-11
   12.8000002         3.05598671E-11
   12.8500004         2.19467985E-11
   12.8999996         1.18135822E-11
   12.9499998         1.69578544E-13
   13.0000000        -1.29523206E-11
   13.0500002        -2.74953827E-11
   13.1000004        -4.33792620E-11
   13.1499996        -6.05007502E-11
   13.1999998        -7.87349491E-11
   13.2500000        -9.79367074E-11
   13.3000002        -1.17942073E-10
   13.3500004        -1.38569961E-10
   13.3999996        -1.59623495E-10
   13.4499998        -1.80891607E-10
   13.5000000        -2.02150519E-10
   13.5500002        -2.23165278E-10
   13.6000004        -2.43691317E-10
   13.6499996        -2.63476380E-10
   13.6999998        -2.82262241E-10
   13.7500000        -2.99786779E-10
   13.8000002        -3.15786092E-10
   13.8500004        -3.29997002E-10
   13.8999996        -3.42159856E-10
   13.9499998        -3.52021662E-10
   14.0000000        -3.59340363E-10
   14.0500002        -3.63889058E-10
   14.1000004        -3.65461550E-10
   14.1499996        -3.63877789E-10
   14.1999998        -3.58990060E-10
   14.2500000        -3.50688784E-10
   14.3000002        -3.38908623E-10
   14.3500004        -3.23633675E-10
   14.3999996        -3.04902381E-10
   14.4499998        -2.82811830E-10
   14.5000000        -2.57521088E-10
   14.5500002        -2.29253935E-10
   14.6000004        -1.98300584E-10
   14.6499996        -1.65018346E-10
   14.6999998        -1.29831174E-10
   14.7500000        -9.32278768E-11
   14.8000002        -5.57591369E-11
   14.8500004        -1.80331618E-11
   14.8999996         1.92897573E-11
   14.9499998         5.55035948E-11
   15.0000000         8.98636443E-11
   15.0500002         1.21594165E-10
   15.1000004         1.49896484E-10
   15.1499996         1.73957446E-10
   15.1999998         1.92958372E-10
   15.2500000         2.06084413E-10
   15.3000002         2.12534185E-10
   15.3500004         2.11529516E-10
   15.3999996         2.02325171E-10
   15.4499998         1.84218071E-10
   15.5000000         1.56556046E-10
   15.5500002         1.18745638E-10
   15.6000004         7.02593400E-11
   15.6499996         1.06419561E-11
   15.6999998        -6.04837153E-11
   15.7500000        -1.43411921E-10
   15.8000002        -2.38349673E-10
   15.8500004        -3.45413503E-10
   15.8999996        -4.64627281E-10
   15.9499998        -5.95921479E-10
   16.0000000        -7.39133477E-10
   16.0499992        -8.94009478E-10
   16.1000004        -1.06020692E-09
   16.1499996        -1.23729893E-09
   16.2000008        -1.42477763E-09
   16.2500000        -1.62205949E-09
   16.2999992        -1.82849080E-09
   16.3500004        -2.04335371E-09
   16.3999996        -2.26587238E-09
   16.4500008        -2.49522047E-09
   16.5000000        -2.73052980E-09
   16.5499992        -2.97089686E-09
   16.6000004        -3.21539040E-09
   16.6499996        -3.46306006E-09
   16.7000008        -3.71294240E-09
   16.7500000        -3.96406552E-09
   16.7999992        -4.21545732E-09
   16.8500004        -4.46614967E-09
   16.8999996        -4.71518335E-09
   16.9500008        -4.96161379E-09
   17.0000000        -5.20451549E-09
   17.0499992        -5.44298917E-09
   17.1000004        -5.67616132E-09
   17.1499996        -5.90319216E-09
   17.2000008        -6.12327655E-09
   17.2500000        -6.33564579E-09
   17.2999992        -6.53957555E-09
   17.3500004        -6.73438416E-09
   17.3999996        -6.91943747E-09
   17.4500008        -7.09415193E-09
   17.5000000        -7.25799776E-09
   17.5499992        -7.41049933E-09
   17.6000004        -7.55123875E-09
   17.6499996        -7.67985586E-09
   17.7000008        -7.79605180E-09
   17.7500000        -7.89958676E-09
   17.7999992        -7.99028577E-09
   17.8500004        -8.06803602E-09
   17.8999996        -8.13279399E-09
   17.9500008        -8.18458634E-09
   18.0000000        -8.22351431E-09
   18.0499992        -8.24974844E-09
   18.1000004        -8.26353297E-09
   18.1499996        -8.26518676E-09
   18.2000008        -8.25509083E-09
   18.2500000        -8.23369462E-09
   18.2999992        -8.20150259E-09
   18.3500004        -8.15907342E-09
   18.3999996        -8.10700751E-09
   18.4500008        -8.04594968E-09
   18.5000000        -7.97657496E-09
   18.5499992        -7.89958676E-09
   18.6000004        -7.81571430E-09
   18.6499996        -7.72570807E-09
   18.7000008        -7.63033370E-09
   18.7500000        -7.53037188E-09
   18.7999992        -7.42660422E-09
   18.8500004        -7.31980476E-09
   18.8999996        -7.21072269E-09
   18.9500008        -7.10006409E-09
   19.0000000        -6.98847114E-09
   19.0499992        -6.87650292E-09
   19.1000004        -6.76462264E-09
   19.1499996        -6.65319444E-09
   19.2000008        -6.54248877E-09
   19.2500000        -6.43269704E-09
   19.2999992        -6.32396091E-09
   19.3500004        -6.21639940E-09
   19.3999996        -6.11014395E-09
   19.4500008        -6.00535843E-09
   19.5000000        -5.90225602E-09
   19.5499992        -5.80109294E-09
   19.6000004        -5.70215342E-09
   19.6499996        -5.60571278E-09
   19.7000008        -5.51200019E-09
   19.7500000        -5.42115153E-09
   19.7999992        -5.33317746E-09
   19.8500004        -5.24794608E-09
   19.8999996        -5.16519361E-09
   19.9500008        -5.08456344E-09
   20.0000000        -5.00567054E-09
   20.0499992        -4.92818719E-09
   20.1000004        -4.85193574E-09
   20.1499996        -4.77696815E-09
   20.2000008        -4.70362149E-09
   20.2500000        -4.63253214E-09
   20.2999992        -4.56459537E-09
   20.3500004        -4.50088145E-09
   20.3999996        -4.44250592E-09
   20.4500008        -4.39048309E-09
   20.5000000        -4.34557990E-09
   20.5499992        -4.30820224E-09
   20.6000004        -4.27833191E-09
   20.6499996        -4.25553104E-09
   20.7000008        -4.23902913E-09
   20.7500000        -4.22786250E-09
   20.7999992        -4.22107149E-09
   20.8500004        -4.21790469E-09
   20.8999996        -4.21800816E-09
   20.9500008        -4.22156088E-09
   21.0000000        -4.22933910E-09
   21.0499992        -4.24268354E-09
   21.1000004        -4.26338298E-09
   21.1499996        -4.29348423E-09
   21.2000008        -4.33506031E-09
   21.2500000        -4.38997905E-09
   21.2999992        -4.45970461E-09
   21.3500004        -4.54517091E-09
   21.3999996        -4.64675365E-09
   21.4500008        -4.76433470E-09
   21.5000000        -4.89746510E-09
   21.5499992        -5.04558884E-09
   21.6000004        -5.20830357E-09
   21.6499996        -5.38559908E-09
   21.7000008        -5.57805802E-09
   21.7500000        -5.78697135E-09
   21.7999992        -6.01436323E-09
   21.8500004        -6.26291730E-09
   21.8999996        -6.53583010E-09
   21.9500008        -6.83659751E-09
   22.0000000        -7.16878423E-09
   22.0499992        -7.53579599E-09
   22.1000004        -7.94070054E-09
   22.1499996        -8.38609981E-09
   22.2000008        -8.87410057E-09
   22.2500000        -9.40635836E-09
   22.2999992        -9.98423300E-09
   22.3500004        -1.06090123E-08
   22.3999996        -1.12822232E-08
   22.4500008        -1.20059802E-08
   22.5000000        -1.27833681E-08
   22.5499992        -1.36188003E-08
   22.6000004        -1.45183403E-08
   22.6499996        -1.54899258E-08
   22.7000008        -1.65434830E-08
   22.7500000        -1.76908799E-08
   22.7999992        -1.89457445E-08
   22.8500004        -2.03231423E-08
   22.8999996        -2.18391580E-08
   22.9500008        -2.35104558E-08
   23.0000000        -2.53538683E-08
   23.0499992        -2.73861360E-08
   23.1000004        -2.96238376E-08
   23.1499996        -3.20835731E-08
   23.2000008        -3.47824027E-08
   23.2500000        -3.77385660E-08
   23.2999992        -4.09723171E-08
   23.3500004        -4.45068764E-08
   23.3999996        -4.83693228E-08
   23.4500008        -5.25913322E-08
   23.5000000        -5.72096823E-08
   23.5499992        -6.22664516E-08
   23.6000004        -6.78089833E-08
   23.6499996        -7.38895380E-08
   23.7000008        -8.05649307E-08
   23.7500000        -8.78959838E-08
   23.7999992        -9.59471862E-08
   23.8500004        -1.04786487E-07
   23.8999996        -1.14485353E-07
   23.9500008        -1.25119087E-07
   24.0000000        -1.36767468E-07
   24.0499992        -1.49515458E-07
   24.1000004        -1.63454388E-07
   24.1499996        -1.78682910E-07
   24.2000008        -1.95308274E-07
   24.2500000        -2.13447407E-07
   24.2999992        -2.33228135E-07
   24.3500004        -2.54790251E-07
   24.3999996        -2.78286535E-07
   24.4500008        -3.03883752E-07
   24.5000000        -3.31763516E-07
   24.5499992        -3.62123274E-07
   24.6000004        -3.95177125E-07
   24.6499996        -4.31156877E-07
   24.7000008        -4.70312870E-07
   24.7500000        -5.12915108E-07
   24.7999992        -5.59254431E-07
   24.8500004        -6.09643735E-07
   24.8999996        -6.64419531E-07
   24.9500008        -7.23943458E-07
   25.0000000        -7.88603927E-07
   25.0499992        -8.58818510E-07
   25.1000004        -9.35035871E-07
   25.1499996        -1.01773799E-06
   25.2000008        -1.10744327E-06
   25.2500000        -1.20470884E-06
   25.2999992        -1.31013360E-06
   25.3500004        -1.42436102E-06
   25.3999996        -1.54808254E-06
   25.4500008        -1.68203985E-06
   25.5000000        -1.82702888E-06
   25.5499992        -1.98390194E-06
   25.6000004        -2.15357181E-06
   25.6499996        -2.33701508E-06
   25.7000008        -2.53527674E-06
   25.7500000        -2.74947479E-06
   25.7999992        -2.98080408E-06
   25.8500004        -3.23054473E-06
   25.8999996        -3.50006621E-06
   25.9500008        -3.79083508E-06
   26.0000000        -4.10442135E-06
   26.0499992        -4.44250827E-06
   26.1000004        -4.80689641E-06
   26.1499996        -5.19951436E-06
   26.2000008        -5.62242485E-06
   26.2500000        -6.07783295E-06
   26.2999992        -6.56809380E-06
   26.3500004        -7.09571987E-06
   26.3999996        -7.66338871E-06
   26.4500008        -8.27395161E-06
   26.5000000        -8.93044398E-06
   26.5499992        -9.63609000E-06
   26.6000004        -1.03943157E-05
   26.6499996        -1.12087573E-05
   26.7000008        -1.20832728E-05
   26.7500000        -1.30219551E-05
   26.7999992        -1.40291413E-05
   26.8500004        -1.51094300E-05
   26.8999996        -1.62676970E-05
   26.9500008        -1.75091081E-05
   27.0000000        -1.88391368E-05
   27.0499992        -2.02635892E-05
   27.1000004        -2.17886100E-05
   27.1499996        -2.34207146E-05
   27.2000008        -2.51668025E-05
   27.2500000        -2.70341807E-05
   27.2999992        -2.90305834E-05
   27.3500004        -3.11641998E-05
   27.3999996        -3.34436954E-05
   27.4500008        -3.58782381E-05
   27.5000000        -3.84775158E-05
   27.5499992        -4.12517657E-05
   27.6000004        -4.42118071E-05
   27.6499996        -4.73690561E-05
   27.7000008        -5.07355580E-05
   27.7500000        -5.43240167E-05
   27.7999992        -5.81478198E-05
   27.8500004        -6.22210719E-05
   27.8999996        -6.65586340E-05
   27.9500008        -7.11761240E-05
   28.0000000        -7.60899784E-05
   28.0499992        -8.13174702E-05
   28.1000004        -8.68767602E-05
   28.1499996        -9.27869041E-05
   28.2000008        -9.90679400E-05
   28.2500000        -1.05740866E-04
   28.2999992        -1.12827707E-04
   28.3500004        -1.20351564E-04
   28.3999996        -1.28336644E-04
   28.4500008        -1.36808318E-04
   28.5000000        -1.45793121E-04
   28.5499992        -1.55318863E-04
   28.6000004        -1.65414691E-04
   28.6499996        -1.76111003E-04
   28.7000008        -1.87439698E-04
   28.7500000        -1.99433998E-04
   28.7999992        -2.12128740E-04
   28.8500004        -2.25560158E-04
   28.8999996        -2.39766217E-04
   28.9500008        -2.54786399E-04
   29.0000000        -2.70661985E-04
   29.0499992        -2.87435862E-04
   29.1000004        -3.05152818E-04
   29.1499996        -3.23859451E-04
   29.2000008        -3.43604217E-04
   29.2500000        -3.64437466E-04
   29.2999992        -3.86411557E-04
   29.3500004        -4.09580913E-04
   29.3999996        -4.34001937E-04
   29.4500008        -4.59733244E-04
   29.5000000        -4.86835575E-04
   29.5499992        -5.15371969E-04
   29.6000004        -5.45407587E-04
   29.6499996        -5.77010214E-04
   29.7000008        -6.10249757E-04
   29.7500000        -6.45198685E-04
   29.7999992        -6.81931910E-04
   29.8500004        -7.20526965E-04
   29.8999996        -7.61064002E-04
   29.9500008        -8.03625677E-04
   30.0000000        -8.48297437E-04
   30.0499992        -8.95167526E-04
   30.1000004        -9.44326748E-04
   30.1499996        -9.95868933E-04
   30.2000008        -1.04989065E-03
   30.2500000        -1.10649120E-03
   30.2999992        -1.16577290E-03
   30.3500004        -1.22784125E-03
   30.3999996        -1.29280402E-03
   30.4500008        -1.36077288E-03
   30.5000000        -1.43186166E-03
   30.5499992        -1.50618772E-03
   30.6000004        -1.58387108E-03
   30.6499996        -1.66503468E-03
   30.7000008        -1.74980436E-03
   30.7500000        -1.83830934E-03
   30.7999992        -1.93068152E-03
   30.8500004        -2.02705548E-03
   30.8999996        -2.12756917E-03
   30.9500008        -2.23236252E-03
   31.0000000        -2.34157941E-03
   31.0499992        -2.45536561E-03
   31.1000004        -2.57387012E-03
   31.1499996        -2.69724405E-03
   31.2000008        -2.82564200E-03
   31.2500000        -2.95922020E-03
   31.2999992        -3.09813768E-03
   31.3500004        -3.24255601E-03
   31.3999996        -3.39263841E-03
   31.4500008        -3.54855065E-03
   31.5000000        -3.71046062E-03
   31.5499992        -3.87853803E-03
   31.6000004        -4.05295426E-03
   31.6499996        -4.23388230E-03
   31.7000008        -4.42149630E-03
   31.7500000        -4.61597322E-03
   31.7999992        -4.81748814E-03
   31.8500004        -5.02622081E-03
   31.8999996        -5.24234865E-03
   31.9500008        -5.46605140E-03
   32.0000000        -5.69750881E-03
   32.0499992        -5.93690015E-03
   32.0999985        -6.18440704E-03
   32.1500015        -6.44020736E-03
   32.2000008        -6.70448039E-03
   32.2500000        -6.97740540E-03
   32.2999992        -7.25915888E-03
   32.3499985        -7.54991733E-03
   32.4000015        -7.84985442E-03
   32.4500008        -8.15914199E-03
   32.5000000        -8.47795233E-03
   32.5499992        -8.80645122E-03
   32.5999985        -9.14480444E-03
   32.6500015        -9.49317496E-03
   32.7000008        -9.85171925E-03
   32.7500000        -1.02205919E-02
   32.7999992        -1.05999447E-02
   32.8499985        -1.09899230E-02
   32.9000015        -1.13906674E-02
   32.9500008        -1.18023176E-02
   33.0000000        -1.22250002E-02
   33.0499992        -1.26588410E-02
   33.0999985        -1.31039592E-02
   33.1500015        -1.35604655E-02
   33.2000008        -1.40284654E-02
   33.2500000        -1.45080546E-02
   33.2999992        -1.49993226E-02
   33.3499985        -1.55023513E-02
   33.4000015        -1.60172135E-02
   33.4500008        -1.65439732E-02
   33.5000000        -1.70826856E-02
   33.5499992        -1.76333953E-02
   33.5999985        -1.81961376E-02
   33.6500015        -1.87709369E-02
   33.7000008        -1.93578061E-02
   33.7500000        -1.99567489E-02
   33.7999992        -2.05677543E-02
   33.8499985        -2.11908054E-02
   33.9000015        -2.18258705E-02
   33.9500008        -2.24728994E-02
   34.0000000        -2.31318418E-02
   34.0499992        -2.38026213E-02
   34.0999985        -2.44851541E-02
   34.1500015        -2.51793433E-02
   34.2000008        -2.58850791E-02
   34.2500000        -2.66022347E-02
   34.2999992        -2.73306668E-02
   34.3499985        -2.80702226E-02
   34.4000015        -2.88207326E-02
   34.4500008        -2.95820162E-02
   34.5000000        -3.03538721E-02
   34.5499992        -3.11360806E-02
   34.5999985        -3.19284163E-02
   34.6500015        -3.27306278E-02
   34.7000008        -3.35424617E-02
   34.7500000        -3.43636349E-02
   34.7999992        -3.51938605E-02
   34.8499985        -3.60328220E-02
   34.9000015        -3.68802063E-02
   34.9500008        -3.77356634E-02
   35.0000000        -3.85988466E-02
   35.0499992        -3.94693799E-02
   35.0999985        -4.03468832E-02
   35.1500015        -4.12309505E-02
   35.2000008        -4.21211682E-02
   35.2500000        -4.30171117E-02
   35.2999992        -4.39183265E-02
   35.3499985        -4.48243581E-02
   35.4000015        -4.57347333E-02
   35.4500008        -4.66489643E-02
   35.5000000        -4.75665592E-02
   35.5499992        -4.84869927E-02
   35.5999985        -4.94097508E-02
   35.6500015        -5.03342897E-02