  -4.80000019         1.00000002E-24
  -4.75000000         1.00000002E-24
  -4.69999981         1.00000002E-24
  -4.65000010         1.00000002E-24
  -4.59999990         1.00000002E-24
  -4.55000019         1.00000002E-24
  -4.50000000         1.00000002E-24
  -4.44999981         1.00000229E-24
  -4.40000010         1.00003157E-24
  -4.34999990         1.00020798E-24
  -4.30000019         1.00087713E-24
  -4.25000000         1.00263511E-24
  -4.19999981         1.00591342E-24
  -4.15000010         1.01009576E-24
  -4.09999990         1.01345493E-24
  -4.05000019         1.01692454E-24
  -4.00000000         1.03420197E-24
  -3.95000005         1.10389201E-24
  -3.90000010         1.28395178E-24
  -3.84999990         1.58761570E-24
  -3.79999995         1.80389158E-24
  -3.75000000         1.15181748E-24
  -3.70000005        -2.23466230E-24
  -3.65000010        -1.18916600E-23
  -3.59999990        -3.34277347E-23
  -3.54999995        -7.43266891E-23
  -3.50000000        -1.42637310E-22
  -3.45000005        -2.44117008E-22
  -3.40000010        -3.77749692E-22
  -3.34999990        -5.30203739E-22
  -3.29999995        -6.70616487E-22
  -3.25000000        -7.47814794E-22
  -3.20000005        -6.92325283E-22
  -3.15000010        -4.24920924E-22
  -3.09999990         1.28203604E-22
  -3.04999995         1.01604972E-21
  -3.00000000         2.24439202E-21
  -2.95000005         3.76540208E-21
  -2.90000010         5.48230026E-21
  -2.84999990         7.27307924E-21
  -2.79999995         9.03142369E-21
  -2.75000000         1.07152015E-20
  -2.70000005         1.23852881E-20
  -2.65000010         1.42126334E-20
  -2.59999990         1.64318912E-20
  -2.54999995         1.92267616E-20
  -2.50000000         2.25454264E-20
  -2.45000005         2.58622461E-20
  -2.40000010         2.79214008E-20
  -2.34999990         2.65163408E-20
  -2.29999995         1.83732001E-20
  -2.25000000        -7.85796187E-22
  -2.20000005        -3.59237367E-20
  -2.15000010        -9.20531434E-20
  -2.09999990        -1.73250162E-19
  -2.04999995        -2.81336612E-19
  -2.00000000        -4.14318303E-19
  -1.95000005        -5.64756012E-19
  -1.89999998        -7.18332329E-19
  -1.85000002        -8.52948426E-19
  -1.79999995        -9.38709064E-19
  -1.75000000        -9.39118519E-19
  -1.70000005        -8.13709356E-19
  -1.64999998        -5.22168618E-19
  -1.60000002        -2.98353481E-20
  -1.54999995         6.85742499E-19
  -1.50000000         1.62768124E-18
  -1.45000005         2.77270445E-18
  -1.39999998         4.06494751E-18
  -1.35000002         5.41155495E-18
  -1.29999995         6.68114401E-18
  -1.25000000         7.70628011E-18
  -1.20000005         8.29104304E-18
  -1.14999998         8.22441695E-18
  -1.10000002         7.29964722E-18
  -1.04999995         5.33876884E-18
  -1.00000000         2.22049191E-18
 -0.949999988        -2.09131856E-18
 -0.899999976        -7.52194622E-18
 -0.850000024        -1.38663512E-17
 -0.800000012        -2.07789325E-17
 -0.750000000        -2.77747133E-17
 -0.699999988        -3.42432127E-17
 -0.649999976        -3.94755304E-17
 -0.600000024        -4.27047211E-17
 -0.550000012        -4.31590716E-17
 -0.500000000        -4.01273918E-17
 -0.449999988        -3.30341824E-17
 -0.400000006        -2.15205396E-17
 -0.349999994        -5.52432862E-18
 -0.300000012         1.46492032E-17
 -0.250000000         3.82764296E-17
 -0.200000003         6.41934904E-17
 -0.150000006         9.08107596E-17
 -0.100000001         1.16167181E-16
  -5.00000007E-02     1.38024310E-16
   8.88178420E-16     1.53996519E-16
   5.00000007E-02     1.61713333E-16
  0.100000001         1.59008135E-16
  0.150000006         1.44127871E-16
  0.200000003         1.15954350E-16
  0.250000000         7.42220958E-17
  0.300000012         1.97092325E-17
  0.349999994        -4.56301413E-17
  0.400000006        -1.18626832E-16
  0.449999988        -1.94980764E-16
  0.500000000        -2.69484035E-16
  0.550000012        -3.36376239E-16
  0.600000024        -3.89801571E-16
  0.649999976        -4.24317687E-16
  0.699999988        -4.35398467E-16
  0.750000000        -4.19877594E-16
  0.800000012        -3.76293937E-16
  0.850000024        -3.05118288E-16
  0.899999976        -2.08852133E-16
  0.949999988        -9.19916360E-17
   1.00000000         3.91559939E-17
   1.04999995         1.76822945E-16
   1.10000002         3.12314256E-16
   1.14999998         4.36718435E-16
   1.20000005         5.41749991E-16
   1.25000000         6.20632317E-16
   1.29999995         6.68892495E-16
   1.35000002         6.84932493E-16
   1.39999998         6.70269241E-16
   1.45000005         6.29399055E-16
   1.50000000         5.69311331E-16
   1.54999995         4.98733423E-16
   1.60000002         4.27206890E-16
   1.64999998         3.64072072E-16
   1.70000005         3.17389175E-16
   1.75000000         2.92788850E-16
   1.79999995         2.92248919E-16
   1.85000002         3.12860036E-16
   1.89999998         3.45753767E-16
   1.95000005         3.75476868E-16
   2.00000000         3.80149048E-16
   2.04999995         3.32689713E-16
   2.09999990         2.03232969E-16
   2.15000010        -3.73918195E-17
   2.20000005        -4.13482045E-16
   2.25000000        -9.40115621E-16
   2.29999995        -1.61919231E-15
   2.34999990        -2.43630901E-15
   2.40000010        -3.35873297E-15
   2.45000005        -4.33456871E-15
   2.50000000        -5.29315971E-15
   2.54999995        -6.14683128E-15
   2.59999990        -6.79421814E-15
   2.65000010        -7.12552576E-15
   2.70000005        -7.03002491E-15
   2.75000000        -6.40576163E-15
   2.79999995        -5.17097944E-15
   2.84999990        -3.27618686E-15
   2.90000010        -7.15353788E-16
   2.95000005         2.46536287E-15
   3.00000000         6.16271399E-15
   3.04999995         1.02160220E-14
   3.09999990         1.44114745E-14
   3.15000010         1.84905632E-14
   3.20000005         2.21619767E-14
   3.25000000         2.51163633E-14
   3.29999995         2.70437020E-14
   3.34999990         2.76532252E-14
   3.40000010         2.66957138E-14
   3.45000005         2.39873175E-14
   3.50000000         1.94332143E-14
   3.54999995         1.30484460E-14
   3.59999990         4.97281354E-15
   3.65000010        -4.52295816E-15
   3.70000005        -1.50415619E-14
   3.75000000        -2.60741525E-14
   3.79999995        -3.70247181E-14
   3.84999990        -4.72414398E-14
   3.90000010        -5.60523917E-14
   3.95000005        -6.28036102E-14
   4.00000000        -6.68982217E-14
   4.05000019        -6.78361244E-14
   4.09999990        -6.52531821E-14
   4.15000010        -5.89582433E-14
   4.19999981        -4.89644776E-14
   4.25000000        -3.55104536E-14
   4.30000019        -1.90661865E-14
   4.34999990        -3.20612903E-16
   4.40000010         1.98504526E-14
   4.44999981         4.04335413E-14
   4.50000000         6.03388731E-14
   4.55000019         7.84673704E-14
   4.59999990         9.37770098E-14
   4.65000010         1.05344302E-13
   4.69999981         1.12418430E-13
   4.75000000         1.14467531E-13
   4.80000019         1.11216680E-13
   4.84999990         1.02675674E-13
   4.90000010         8.91532196E-14
   4.94999981         7.12523370E-14
   5.00000000         4.98425730E-14
   5.05000019         2.60072742E-14
   5.09999990         9.68634585E-16
   5.15000010        -2.40018610E-14
   5.19999981        -4.76765776E-14
   5.25000000        -6.89567354E-14
   5.30000019        -8.69401258E-14
   5.34999990        -1.00966741E-13
   5.40000010        -1.10642723E-13
   5.44999981        -1.15846243E-13
   5.50000000        -1.16719636E-13
   5.55000019        -1.13650036E-13
   5.59999990        -1.07237746E-13
   5.65000010        -9.82488965E-14
   5.69999981        -8.75496642E-14
   5.75000000        -7.60227181E-14
   5.80000019        -6.44724346E-14
   5.84999990        -5.35312998E-14
   5.90000010        -4.35830808E-14
   5.94999981        -3.47172208E-14
   6.00000000        -2.67230323E-14
   6.05000019        -1.91239897E-14
   6.09999990        -1.12442387E-14
   6.15000010        -2.29431262E-15
   6.19999981         8.53705110E-15
   6.25000000         2.19941083E-14
   6.30000019         3.86713502E-14
   6.34999990         5.89351430E-14
   6.40000010         8.28472355E-14
   6.44999981         1.10091413E-13
   6.50000000         1.39911303E-13
   6.55000019         1.71074160E-13
   6.59999990         2.01877577E-13
   6.65000010         2.30213065E-13
   6.69999981         2.53689946E-13
   6.75000000         2.69811029E-13
   6.80000019         2.76179307E-13
   6.84999990         2.70708748E-13
   6.90000010         2.51814140E-13
   6.94999981         2.18562785E-13
   7.00000000         1.70781046E-13
   7.05000019         1.09119927E-13
   7.09999990         3.50856192E-14
   7.15000010        -4.89607134E-14
   7.19999981        -1.39837916E-13
   7.25000000        -2.33626595E-13
   7.30000019        -3.25812294E-13
   7.34999990        -4.11499665E-13
   7.40000010        -4.85695414E-13
   7.44999981        -5.43639678E-13
   7.50000000        -5.81152422E-13
   7.55000019        -5.94954966E-13
   7.59999990        -5.82928616E-13
   7.65000010        -5.44288301E-13
   7.69999981        -4.79662100E-13
   7.75000000        -3.91084978E-13
   7.80000019        -2.81918179E-13
   7.84999990        -1.56706299E-13
   7.90000010        -2.09729559E-14
   7.94999981         1.19048990E-13
   8.00000000         2.56757370E-13
   8.05000019         3.85583736E-13
   8.10000038         4.99432093E-13
   8.14999962         5.93105046E-13
   8.19999981         6.62656453E-13
   8.25000000         7.05614441E-13
   8.30000019         7.21044481E-13
   8.35000038         7.09460431E-13
   8.39999962         6.72630896E-13
   8.44999981         6.13355124E-13
   8.50000000         5.35277172E-13
   8.55000019         4.42778437E-13
   8.60000038         3.40932469E-13
   8.64999962         2.35453584E-13
   8.69999981         1.32535489E-13
   8.75000000         3.84853519E-14
   8.80000019        -4.08894788E-14
   8.85000038        -1.01096709E-13
   8.89999962        -1.39836208E-13
   8.94999981        -1.57727672E-13
   9.00000000        -1.58664653E-13
   9.05000019        -1.49624725E-13
   9.10000038        -1.39882179E-13
   9.14999962        -1.39716485E-13
   9.19999981        -1.58844807E-13
   9.25000000        -2.04887648E-13
   9.30000019        -2.82178361E-13
   9.35000038        -3.91148133E-13
   9.39999962        -5.28384248E-13
   9.44999981        -6.87317553E-13
   9.50000000        -8.59388190E-13
   9.55000019        -1.03549417E-12
   9.60000038        -1.20754481E-12
   9.64999962        -1.36998171E-12
   9.69999981        -1.52115516E-12
   9.75000000        -1.66437762E-12
   9.80000019        -1.80835457E-12
   9.85000038        -1.96649533E-12
   9.89999962        -2.15446758E-12
   9.94999981        -2.38539136E-12
   10.0000000        -2.66239721E-12
   10.0500002        -2.96892133E-12
   10.1000004        -3.25802211E-12
   10.1499996        -3.44298526E-12
   10.1999998        -3.39222964E-12
   10.2500000        -2.93167205E-12
   10.3000002        -1.85699047E-12
   10.3500004         4.34472133E-14
   10.3999996         2.95673338E-12
   10.4499998         7.00900666E-12
   10.5000000         1.22314294E-11
   10.5500002         1.85364432E-11
   10.6000004         2.57117782E-11
   10.6499996         3.34371350E-11
   10.6999998         4.13240171E-11
   10.7500000         4.89740505E-11
   10.8000002         5.60461504E-11
   10.8500004         6.23196217E-11
   10.8999996         6.77396958E-11
   10.9499998         7.24346833E-11
   11.0000000         7.66991193E-11
   11.0500002         8.09444317E-11
   11.1000004         8.56260896E-11
   11.1499996         9.11611550E-11
   11.1999998         9.78526080E-11
   11.2500000         1.05834334E-10
   11.3000002         1.15046299E-10
   11.3500004         1.25241775E-10
   11.3999996         1.36021999E-10
   11.4499998         1.46888529E-10
   11.5000000         1.57301297E-10
   11.5500002         1.66733044E-10
   11.6000004         1.74713632E-10
   11.6499996         1.80864670E-10
   11.6999998         1.84926366E-10
   11.7500000         1.86780064E-10
   11.8000002         1.86467591E-10
   11.8500004         1.84203902E-10
   11.8999996         1.80374687E-10
   11.9499998         1.75509177E-10
   12.0000000         1.70220560E-10
   12.0500002         1.65114158E-10
   12.1000004         1.60674127E-10
   12.1499996         1.57149460E-10
   12.1999998         1.54468147E-10
   12.2500000         1.52205679E-10
   12.3000002         1.49625812E-10
   12.3500004         1.45792725E-10
   12.3999996         1.39733267E-10
   12.4499998         1.30608441E-10
   12.5000000         1.17844123E-10
   12.5500002         1.01174798E-10
   12.6000004         8.05724723E-11
   12.6499996         5.60622729E-11
   12.6999998         2.74609727E-11
   12.7500000        -5.89892284E-12
   12.8000002        -4.53832458E-11
   12.8500004        -9.31384553E-11
   12.8999996        -1.52001106E-10
   12.9499998        -2.25234775E-10
   13.0000000        -3.16143500E-10
   13.0500002        -4.27647806E-10
   13.1000004        -5.61927671E-10
   13.1499996        -7.20229321E-10
   13.1999998        -9.02894370E-10
   13.2500000        -1.10961984E-09
   13.3000002        -1.33989675E-09
   13.3500004        -1.59352420E-09
   13.3999996        -1.87107552E-09
   13.4499998        -2.17419660E-09
   13.5000000        -2.50565835E-09
   13.5500002        -2.86914070E-09
   13.6000004        -3.26880167E-09
   13.6499996        -3.70873110E-09
   13.6999998        -4.19242552E-09
   13.7500000        -4.72241624E-09
   13.8000002        -5.30014477E-09
   13.8500004        -5.92611471E-09
   13.8999996        -6.60029142E-09
   13.9499998        -7.32264738E-09
   14.0000000        -8.09373102E-09
   14.0500002        -8.91512464E-09
   14.1000004        -9.78970505E-09
   14.1499996        -1.07216609E-08
   14.1999998        -1.17162955E-08
   14.2500000        -1.27796902E-08
   14.3000002        -1.39183483E-08
   14.3500004        -1.51389106E-08
   14.3999996        -1.64480465E-08
   14.4499998        -1.78525266E-08
   14.5000000        -1.93594794E-08
   14.5500002        -2.09767403E-08
   14.6000004        -2.27132215E-08
   14.6499996        -2.45792062E-08
   14.6999998        -2.65865356E-08
   14.7500000        -2.87486159E-08
   14.8000002        -3.10803507E-08
   14.8500004        -3.35980097E-08
   14.8999996        -3.63191184E-08
   14.9499998        -3.92625168E-08
   15.0000000        -4.24484554E-08
   15.0500002        -4.58989753E-08
   15.1000004        -4.96382988E-08
   15.1499996        -5.36933378E-08
   15.1999998        -5.80941979E-08
   15.2500000        -6.28745411E-08
   15.3000002        -6.80719197E-08
   15.3500004        -7.37279038E-08
   15.3999996        -7.98881814E-08
   15.4499998        -8.66025758E-08
   15.5000000        -9.39250882E-08
   15.5500002        -1.01914068E-07
   15.6000004        -1.10632357E-07
   15.6499996        -1.20147675E-07
   15.6999998        -1.30533053E-07
   15.7500000        -1.41867233E-07
   15.8000002        -1.54235181E-07
   15.8500004        -1.67728530E-07
   15.8999996        -1.82445945E-07
   15.9499998        -1.98493368E-07
   16.0000000        -2.15984372E-07
   16.0499992        -2.35040474E-07
   16.1000004        -2.55791520E-07
   16.1499996        -2.78376348E-07
   16.2000008        -3.02943334E-07
   16.2500000        -3.29651385E-07
   16.2999992        -3.58671087E-07
   16.3500004        -3.90185875E-07
   16.3999996        -4.24393278E-07
   16.4500008        -4.61506175E-07
   16.5000000        -5.01754414E-07
   16.5499992        -5.45385717E-07
   16.6000004        -5.92667334E-07
   16.6499996        -6.43887290E-07
   16.7000008        -6.99355439E-07
   16.7500000        -7.59404998E-07
   16.7999992        -8.24394021E-07
   16.8500004        -8.94706375E-07
   16.8999996        -9.70753263E-07
   16.9500008        -1.05297522E-06
   17.0000000        -1.14184274E-06
   17.0499992        -1.23785867E-06
   17.1000004        -1.34155948E-06
   17.1499996        -1.45351771E-06
   17.2000008        -1.57434351E-06
   17.2500000        -1.70468763E-06
   17.2999992        -1.84524413E-06
   17.3500004        -1.99675310E-06
   17.3999996        -2.16000308E-06
   17.4500008        -2.33583569E-06
   17.5000000        -2.52514792E-06
   17.5499992        -2.72889656E-06
   17.6000004        -2.94810229E-06
   17.6499996        -3.18385128E-06
   17.7000008        -3.43730130E-06
   17.7500000        -3.70968428E-06
   17.7999992        -4.00231193E-06
   17.8500004        -4.31657963E-06
   17.8999996        -4.65396988E-06
   17.9500008        -5.01606200E-06
   18.0000000        -5.40453220E-06
   18.0499992        -5.82116354E-06
   18.1000004        -6.26784913E-06
   18.1499996        -6.74659987E-06
   18.2000008        -7.25955033E-06
   18.2500000        -7.80896607E-06
   18.2999992        -8.39725180E-06
   18.3500004        -9.02695228E-06
   18.3999996        -9.70076599E-06
   18.4500008        -1.04215515E-05
   18.5000000        -1.11923282E-05
   18.5499992        -1.20162940E-05
   18.6000004        -1.28968231E-05
   18.6499996        -1.38374808E-05
   18.7000008        -1.48420313E-05
   18.7500000        -1.59144511E-05
   18.7999992        -1.70589319E-05
   18.8500004        -1.82798958E-05
   18.8999996        -1.95820048E-05
   18.9500008        -2.09701775E-05
   19.0000000        -2.24495961E-05
   19.0499992        -2.40257250E-05
   19.1000004        -2.57043102E-05
   19.1499996        -2.74914109E-05
   19.2000008        -2.93933899E-05
   19.2500000        -3.14169520E-05
   19.2999992        -3.35691439E-05
   19.3500004        -3.58573670E-05
   19.3999996        -3.82894068E-05
   19.4500008        -4.08734450E-05
   19.5000000        -4.36180671E-05
   19.5499992        -4.65322810E-05
   19.6000004        -4.96255307E-05
   19.6499996        -5.29077188E-05
   19.7000008        -5.63892136E-05
   19.7500000        -6.00808817E-05
   19.7999992        -6.39940772E-05
   19.8500004        -6.81407109E-05
   19.8999996        -7.25332211E-05
   19.9500008        -7.71846317E-05
   20.0000000        -8.21085487E-05
   20.0499992        -8.73191748E-05
   20.1000004        -9.28313530E-05
   20.1499996        -9.86605592E-05
   20.2000008        -1.04822931E-04
   20.2500000        -1.11335263E-04
   20.2999992        -1.18215088E-04
   20.3500004        -1.25480656E-04
   20.3999996        -1.33150970E-04
   20.4500008        -1.41245808E-04
   20.5000000        -1.49785745E-04
   20.5499992        -1.58792172E-04
   20.6000004        -1.68287326E-04
   20.6499996        -1.78294344E-04
   20.7000008        -1.88837192E-04
   20.7500000        -1.99940725E-04
   20.7999992        -2.11630730E-04
   20.8500004        -2.23933952E-04
   20.8999996        -2.36878172E-04
   20.9500008        -2.50492012E-04
   21.0000000        -2.64805218E-04
   21.0499992        -2.79848551E-04
   21.1000004        -2.95653823E-04
   21.1499996        -3.12253833E-04
   21.2000008        -3.29682574E-04
   21.2500000        -3.47975001E-04
   21.2999992        -3.67167260E-04
   21.3500004        -3.87296663E-04
   21.3999996        -4.08401625E-04
   21.4500008        -4.30521701E-04
   21.5000000        -4.53697692E-04
   21.5499992        -4.77971567E-04
   21.6000004        -5.03386487E-04
   21.6499996        -5.29986806E-04
   21.7000008        -5.57817984E-04
   21.7500000        -5.86926704E-04
   21.7999992        -6.17360929E-04
   21.8500004        -6.49169669E-04
   21.8999996        -6.82403333E-04
   21.9500008        -7.17113493E-04
   22.0000000        -7.53353001E-04
   22.0499992        -7.91176106E-04
   22.1000004        -8.30637931E-04
   22.1499996        -8.71795171E-04
   22.2000008        -9.14705393E-04
   22.2500000        -9.59427503E-04
   22.2999992        -1.00602140E-03
   22.3500004        -1.05454819E-03
   22.3999996        -1.10506976E-03
   22.4500008        -1.15764909E-03
   22.5000000        -1.21235021E-03
   22.5499992        -1.26923842E-03
   22.6000004        -1.32837985E-03
   22.6499996        -1.38984167E-03
   22.7000008        -1.45369174E-03
   22.7500000        -1.51999912E-03
   22.7999992        -1.58883352E-03
   22.8500004        -1.66026573E-03
   22.8999996        -1.73436664E-03
   22.9500008        -1.81120785E-03
   23.0000000        -1.89086155E-03
   23.0499992        -1.97340082E-03
   23.1000004        -2.05889856E-03
   23.1499996        -2.14742823E-03
   23.2000008        -2.23906338E-03
   23.2500000        -2.33387761E-03
   23.2999992        -2.43194564E-03
   23.3500004        -2.53334083E-03
   23.3999996        -2.63813743E-03
   23.4500008        -2.74640881E-03
   23.5000000        -2.85822898E-03
   23.5499992        -2.97367107E-03
   23.6000004        -3.09280772E-03
   23.6499996        -3.21571110E-03
   23.7000008        -3.34245176E-03
   23.7500000        -3.47310072E-03
   23.7999992        -3.60772666E-03
   23.8500004        -3.74639756E-03
   23.8999996        -3.88918072E-03
   23.9500008        -4.03614203E-03
   24.0000000        -4.18734504E-03
   24.0499992        -4.34285263E-03
   24.1000004        -4.50272579E-03
   24.1499996        -4.66702227E-03
   24.2000008        -4.83579980E-03
   24.2500000        -5.00911288E-03
   24.2999992        -5.18701319E-03
   24.3500004        -5.36955008E-03
   24.3999996        -5.55677107E-03
   24.4500008        -5.74871991E-03
   24.5000000        -5.94543805E-03
   24.5499992        -6.14696229E-03
   24.6000004        -6.35332754E-03
   24.6499996        -6.56456454E-03
   24.7000008        -6.78070216E-03
   24.7500000        -7.00176274E-03
   24.7999992        -7.22776633E-03
   24.8500004        -7.45872827E-03
   24.8999996        -7.69466069E-03
   24.9500008        -7.93556962E-03
   25.0000000        -8.18145927E-03
   25.0499992        -8.43232684E-03
   25.1000004        -8.68816581E-03
   25.1499996        -8.94896500E-03
   25.2000008        -9.21470672E-03
   25.2500000        -9.48536955E-03
   25.2999992        -9.76092555E-03
   25.3500004        -1.00413403E-02
   25.3999996        -1.03265764E-02
   25.4500008        -1.06165884E-02
   25.5000000        -1.09113269E-02
   25.5499992        -1.12107359E-02
   25.6000004        -1.15147550E-02
   25.6499996        -1.18233142E-02
   25.7000008        -1.21363401E-02
   25.7500000        -1.24537535E-02
   25.7999992        -1.27754658E-02
   25.8500004        -1.31013840E-02
   25.8999996        -1.34314066E-02
   25.9500008        -1.37654301E-02
   26.0000000        -1.41033409E-02
   26.0499992        -1.44450217E-02
   26.1000004        -1.47903468E-02
   26.1499996        -1.51391849E-02
   26.2000008        -1.54913981E-02
   26.2500000        -1.58468373E-02
   26.2999992        -1.62053574E-02
   26.3500004        -1.65667981E-02
   26.3999996        -1.69309936E-02
   26.4500008        -1.72977764E-02
   26.5000000        -1.76669676E-02
   26.5499992        -1.80383846E-02
   26.6000004        -1.84118394E-02
   26.6499996        -1.87871382E-02
   26.7000008        -1.91640798E-02
   26.7500000        -1.95424594E-02
   26.7999992        -1.99220683E-02
   26.8500004        -2.03026887E-02
   26.8999996        -2.06840988E-02
   26.9500008        -2.10660733E-02
   27.0000000        -2.14483775E-02
   27.0499992        -2.18307767E-02
   27.1000004        -2.22130325E-02
   27.1499996        -2.25949008E-02
   27.2000008        -2.29761358E-02
   27.2500000        -2.33564842E-02
   27.2999992        -2.37356946E-02
   27.3500004        -2.41135005E-02
   27.3999996        -2.44896412E-02
   27.4500008        -2.48638466E-02
   27.5000000        -2.52358560E-02
   27.5499992        -2.56053936E-02
   27.6000004        -2.59721912E-02
   27.6499996        -2.63359789E-02
   27.7000008        -2.66964883E-02
   27.7500000        -2.70534512E-02
   27.7999992        -2.74065994E-02
   27.8500004        -2.77556591E-02
   27.8999996        -2.81003620E-02
   27.9500008        -2.84404363E-02
   28.0000000        -2.87756100E-02
   28.0499992        -2.91056074E-02
   28.1000004        -2.94301547E-02
   28.1499996        -2.97489818E-02
   28.2000008        -3.00618187E-02
   28.2500000        -3.03684101E-02
   28.2999992        -3.06684934E-02
   28.3500004        -3.09618190E-02
   28.3999996        -3.12481392E-02
   28.4500008        -3.15272100E-02
   28.5000000        -3.17987949E-02
   28.5499992        -3.20626572E-02
   28.6000004        -3.23185660E-02
   28.6499996        -3.25662941E-02
   28.7000008        -3.28056291E-02
   28.7500000        -3.30363549E-02
   28.7999992        -3.32582667E-02
   28.8500004        -3.34711671E-02
   28.8999996        -3.36748585E-02
   28.9500008        -3.38691548E-02
   29.0000000        -3.40538844E-02
   29.0499992        -3.42288613E-02
   29.1000004        -3.43939252E-02
   29.1499996        -3.45489271E-02
   29.2000008        -3.46937180E-02
   29.2500000        -3.48281637E-02
   29.2999992        -3.49521451E-02
   29.3500004        -3.50655578E-02
   29.3999996        -3.51682976E-02
   29.4500008        -3.52602713E-02
   29.5000000        -3.53413932E-02
   29.5499992        -3.54115777E-02
   29.6000004        -3.54707576E-02
   29.6499996        -3.55188809E-02
   29.7000008        -3.55558842E-02
   29.7500000        -3.55817378E-02
   29.7999992        -3.55964117E-02
   29.8500004        -3.55998948E-02
   29.8999996        -3.55921946E-02
   29.9500008        -3.55733186E-02
   30.0000000        -3.55432816E-02
   30.0499992        -3.55021097E-02
   30.1000004        -3.54498364E-02
   30.1499996        -3.53864990E-02
   30.2000008        -3.53121646E-02
   30.2500000        -3.52268927E-02
   30.2999992        -3.51307690E-02
   30.3500004        -3.50238830E-02
   30.3999996        -3.49063464E-02
   30.4500008        -3.47782783E-02
   30.5000000        -3.46397907E-02
   30.5499992        -3.44910137E-02
   30.6000004        -3.43320705E-02
   30.6499996        -3.41631062E-02
   30.7000008        -3.39842625E-02
   30.7500000        -3.37956958E-02
   30.7999992        -3.35975774E-02
   30.8500004        -3.33900899E-02
   30.8999996        -3.31734307E-02
   30.9500008        -3.29478048E-02
   31.0000000        -3.27134170E-02
   31.0499992        -3.24704722E-02
   31.1000004        -3.22191864E-02
   31.1499996        -3.19597758E-02
   31.2000008        -3.16924639E-02
   31.2500000        -3.14174779E-02
   31.2999992        -3.11350524E-02
   31.3500004        -3.08454297E-02
   31.3999996        -3.05488575E-02
   31.4500008        -3.02455872E-02
   31.5000000        -2.99358759E-02
   31.5499992        -2.96199862E-02
   31.6000004        -2.92981789E-02
   31.6499996        -2.89707165E-02
   31.7000008        -2.86378674E-02
   31.7500000        -2.82998998E-02
   31.7999992        -2.79570855E-02
   31.8500004        -2.76096985E-02
   31.8999996        -2.72580180E-02
   31.9500008        -2.69023161E-02
   32.0000000        -2.65428759E-02
   32.0499992        -2.61799637E-02
   32.0999985        -2.58138552E-02
   32.1500015        -2.54448149E-02
   32.2000008        -2.50731111E-02
   32.2500000        -2.46990100E-02
   32.2999992        -2.43227798E-02
   32.3499985        -2.39446927E-02
   32.4000015        -2.35650167E-02
   32.4500008        -2.31840163E-02
   32.5000000        -2.28019580E-02
   32.5499992        -2.24190988E-02
   32.5999985        -2.20356863E-02
   32.6500015        -2.16519646E-02
   32.7000008        -2.12681722E-02
   32.7500000        -2.08845362E-02
   32.7999992        -2.05012932E-02
   32.8499985        -2.01186780E-02
   32.9000015        -1.97369289E-02
   32.9500008        -1.93562731E-02
   33.0000000        -1.89769324E-02
   33.0499992        -1.85991265E-02
   33.0999985        -1.82230659E-02
   33.1500015        -1.78489462E-02
   33.2000008        -1.74769536E-02
   33.2500000        -1.71072688E-02
   33.2999992        -1.67400613E-02
   33.3499985        -1.63755063E-02
   33.4000015        -1.60137713E-02
   33.4500008        -1.56550221E-02
   33.5000000        -1.52994152E-02
   33.5499992        -1.49471033E-02
   33.5999985        -1.45982327E-02
   33.6500015        -1.42529448E-02
   33.7000008        -1.39113748E-02
   33.7500000        -1.35736447E-02
   33.7999992        -1.32398782E-02
   33.8499985        -1.29101863E-02
   33.9000015        -1.25846826E-02
   33.9500008        -1.22634657E-02
   34.0000000        -1.19466260E-02
   34.0499992        -1.16342437E-02
   34.0999985        -1.13263922E-02
   34.1500015        -1.10231405E-02
   34.2000008        -1.07245538E-02
   34.2500000        -1.04306899E-02
   34.2999992        -1.01415990E-02
   34.3499985        -9.85733233E-03
   34.4000015        -9.57793463E-03
   34.4500008        -9.30344965E-03
   34.5000000        -9.03390907E-03
   34.5499992        -8.76933895E-03
   34.5999985        -8.50976165E-03
   34.6500015        -8.25519394E-03
   34.7000008        -8.00565071E-03
   34.7500000        -7.76113896E-03
   34.7999992        -7.52166053E-03
   34.8499985        -7.28720985E-03
   34.9000015        -7.05777574E-03
   34.9500008        -6.83334144E-03
   35.0000000        -6.61388692E-03
   35.0499992        -6.39938423E-03
   35.0999985        -6.18980452E-03
   35.1500015        -5.98511798E-03
   35.2000008        -5.78529807E-03
   35.2500000        -5.59031358E-03
   35.2999992        -5.40013099E-03
   35.3499985        -5.21471305E-03
   35.4000015        -5.03401645E-03
   35.4500008        -4.85799368E-03
   35.5000000        -4.68659028E-03
   35.5499992        -4.51974850E-03
   35.5999985        -4.35740547E-03
   35.6500015        -4.19949787E-03