  -4.80000019         1.00000002E-24
  -4.75000000         1.00000002E-24
  -4.69999981         1.00000002E-24
  -4.65000010         1.00000002E-24
  -4.59999990         1.00000002E-24
  -4.55000019         1.00000002E-24
  -4.50000000         1.00000002E-24
  -4.44999981         9.99993906E-25
  -4.40000010         9.99927740E-25
  -4.34999990         9.99551454E-25
  -4.30000019         9.98041179E-25
  -4.25000000         9.93161877E-25
  -4.19999981         9.79459363E-25
  -4.15000010         9.44465790E-25
  -4.09999990         8.61658074E-25
  -4.05000019         6.80272920E-25
  -4.00000000         3.16857889E-25
  -3.95000005        -3.38003577E-25
  -3.90000010        -1.37550836E-24
  -3.84999990        -2.76402011E-24
  -3.79999995        -4.17891491E-24
  -3.75000000        -4.80320366E-24
  -3.70000005        -3.19167166E-24
  -3.65000010         2.66224956E-24
  -3.59999990         1.49149900E-23
  -3.54999995         3.50418325E-23
  -3.50000000         6.26486383E-23
  -3.45000005         9.41635747E-23
  -3.40000010         1.21802863E-22
  -3.34999990         1.33284727E-22
  -3.29999995         1.12731631E-22
  -3.25000000         4.30442300E-23
  -3.20000005        -9.02261680E-23
  -3.15000010        -2.93804618E-22
  -3.09999990        -5.61070894E-22
  -3.04999995        -8.66894673E-22
  -3.00000000        -1.16424651E-21
  -2.95000005        -1.38412823E-21
  -2.90000010        -1.44040417E-21
  -2.84999990        -1.24083049E-21
  -2.79999995        -7.04792011E-22
  -2.75000000         2.13170942E-22
  -2.70000005         1.49700223E-21
  -2.65000010         3.04523574E-21
  -2.59999990         4.65683863E-21
  -2.54999995         6.03475068E-21
  -2.50000000         6.81360787E-21
  -2.45000005         6.61410629E-21
  -2.40000010         5.12031181E-21
  -2.34999990         2.16923511E-21
  -2.29999995        -2.16376393E-21
  -2.25000000        -7.50292801E-21
  -2.20000005        -1.31511224E-20
  -2.15000010        -1.81223171E-20
  -2.09999990        -2.12324371E-20
  -2.04999995        -2.12460904E-20
  -2.00000000        -1.70712097E-20
  -1.95000005        -7.99016163E-21
  -1.89999998         6.08787119E-21
  -1.85000002         2.43757234E-20
  -1.79999995         4.49943731E-20
  -1.75000000         6.48514899E-20
  -1.70000005         7.96859790E-20
  -1.64999998         8.43587029E-20
  -1.60000002         7.34517191E-20
  -1.54999995         4.21865764E-20
  -1.50000000        -1.24121238E-20
  -1.45000005        -9.02840691E-20
  -1.39999998        -1.87298118E-19
  -1.35000002        -2.94725564E-19
  -1.29999995        -3.99497346E-19
  -1.25000000        -4.85393668E-19
  -1.20000005        -5.35109859E-19
  -1.14999998        -5.32902890E-19
  -1.10000002        -4.67318427E-19
  -1.04999995        -3.33397007E-19
  -1.00000000        -1.33807657E-19
 -0.949999988         1.21425810E-19
 -0.899999976         4.16604501E-19
 -0.850000024         7.33061676E-19
 -0.800000012         1.05221189E-18
 -0.750000000         1.35811641E-18
 -0.699999988         1.63882574E-18
 -0.649999976         1.88606320E-18
 -0.600000024         2.09327153E-18
 -0.550000012         2.25253109E-18
 -0.500000000         2.35125014E-18
 -0.449999988         2.36969192E-18
 -0.400000006         2.28031837E-18
 -0.349999994         2.04957737E-18
 -0.300000012         1.64223496E-18
 -0.250000000         1.02778670E-18
 -0.200000003         1.87979638E-19
 -0.150000006        -8.75847060E-19
 -0.100000001        -2.13698306E-18
  -5.00000007E-02    -3.54038886E-18
   8.88178420E-16    -5.00349889E-18
   5.00000007E-02    -6.42130094E-18
  0.100000001        -7.67569594E-18
  0.150000006        -8.64861585E-18
  0.200000003        -9.23779592E-18
  0.250000000        -9.37352467E-18
  0.300000012        -9.03413743E-18
  0.349999994        -8.25755380E-18
  0.400000006        -7.14598519E-18
  0.449999988        -5.86113671E-18
  0.500000000        -4.60804659E-18
  0.550000012        -3.60715846E-18
  0.600000024        -3.05620510E-18
  0.649999976        -3.08581423E-18
  0.699999988        -3.71488054E-18
  0.750000000        -4.81327630E-18
  0.800000012        -6.07985691E-18
  0.850000024        -7.04266867E-18
  0.899999976        -7.08580449E-18
  0.949999988        -5.50376491E-18
   1.00000000        -1.58012631E-18
   1.04999995         5.31650610E-18
   1.10000002         1.56290615E-17
   1.14999998         2.95122889E-17
   1.20000005         4.67476987E-17
   1.25000000         6.66825827E-17
   1.29999995         8.82001247E-17
   1.35000002         1.09725257E-16
   1.39999998         1.29268570E-16
   1.45000005         1.44509327E-16
   1.50000000         1.52917320E-16
   1.54999995         1.51912447E-16
   1.60000002         1.39059225E-16
   1.64999998         1.12291211E-16
   1.70000005         7.01560796E-17
   1.75000000         1.20676155E-17
   1.79999995        -6.14543381E-17
   1.85000002        -1.48580048E-16
   1.89999998        -2.46029031E-16
   1.95000005        -3.49019317E-16
   2.00000000        -4.51331289E-16
   2.04999995        -5.45502823E-16
   2.09999990        -6.23162086E-16
   2.15000010        -6.75491305E-16
   2.20000005        -6.93800293E-16
   2.25000000        -6.70175485E-16
   2.29999995        -5.98161750E-16
   2.34999990        -4.73427519E-16
   2.40000010        -2.94367269E-16
   2.45000005        -6.25997450E-17
   2.50000000         2.16669109E-16
   2.54999995         5.34440203E-16
   2.59999990         8.77887022E-16
   2.65000010         1.23050551E-15
   2.70000005         1.57246246E-15
   2.75000000         1.88116531E-15
   2.79999995         2.13207934E-15
   2.84999990         2.29981558E-15
   2.90000010         2.35950874E-15
   2.95000005         2.28846089E-15
   3.00000000         2.06800489E-15
   3.04999995         1.68547867E-15
   3.09999990         1.13616108E-15
   3.15000010         4.24982449E-16
   3.20000005        -4.32191097E-16
   3.25000000        -1.40788300E-15
   3.29999995        -2.46308203E-15
   3.34999990        -3.54814076E-15
   3.40000010        -4.60449312E-15
   3.45000005        -5.56711176E-15
   3.50000000        -6.36756849E-15
   3.54999995        -6.93753865E-15
   3.59999990        -7.21257533E-15
   3.65000010        -7.13600525E-15
   3.70000005        -6.66281453E-15
   3.75000000        -5.76340276E-15
   3.79999995        -4.42707699E-15
   3.84999990        -2.66510934E-15
   3.90000010        -5.13135312E-16
   3.95000005         1.96739940E-15
   4.00000000         4.68905920E-15
   4.05000019         7.53981550E-15
   4.09999990         1.03862443E-14
   4.15000010         1.30786088E-14
   4.19999981         1.54576957E-14
   4.25000000         1.73630777E-14
   4.30000019         1.86422838E-14
   4.34999990         1.91601953E-14
   4.40000010         1.88080159E-14
   4.44999981         1.75111712E-14
   4.50000000         1.52356816E-14
   4.55000019         1.19927134E-14
   4.59999990         7.84119829E-15
   4.65000010         2.88852338E-15
   4.69999981        -2.71066150E-15
   4.75000000        -8.75754564E-15
   4.80000019        -1.50142638E-14
   4.84999990        -2.12111839E-14
   4.90000010        -2.70565854E-14
   4.94999981        -3.22487703E-14
   5.00000000        -3.64904267E-14
   5.05000019        -3.95046815E-14
   5.09999990        -4.10518855E-14
   5.15000010        -4.09458539E-14
   5.19999981        -3.90680869E-14
   5.25000000        -3.53786316E-14
   5.30000019        -2.99224248E-14
   5.34999990        -2.28306432E-14
   5.40000010        -1.43169287E-14
   5.44999981        -4.66916155E-15
   5.50000000         5.76238886E-15
   5.55000019         1.65794604E-14
   5.59999990         2.73517747E-14
   5.65000010         3.76339856E-14
   5.69999981         4.69832066E-14
   5.75000000         5.49770868E-14
   5.80000019         6.12322557E-14
   5.84999990         6.54228868E-14
   5.90000010         6.72985837E-14
   5.94999981         6.67003209E-14
   6.00000000         6.35728178E-14
   6.05000019         5.79716600E-14
   6.09999990         5.00637299E-14
   6.15000010         4.01203186E-14
   6.19999981         2.85032753E-14
   6.25000000         1.56454778E-14
   6.30000019         2.02782737E-15
   6.34999990        -1.18447774E-14
   6.40000010        -2.54661370E-14
   6.44999981        -3.83485087E-14
   6.50000000        -5.00388102E-14
   6.55000019        -6.01315398E-14
   6.59999990        -6.82795224E-14
   6.65000010        -7.42035963E-14
   6.69999981        -7.77022286E-14
   6.75000000        -7.86608598E-14
   6.80000019        -7.70602657E-14
   6.84999990        -7.29819918E-14
   6.90000010        -6.66089905E-14
   6.94999981        -5.82196780E-14
   7.00000000        -4.81747380E-14
   7.05000019        -3.68973041E-14
   7.09999990        -2.48483586E-14
   7.15000010        -1.25003106E-14
   7.19999981        -3.11766040E-16
   7.25000000         1.12937918E-14
   7.30000019         2.19439708E-14
   7.34999990         3.13278083E-14
   7.40000010         3.92015962E-14
   7.44999981         4.53918180E-14
   7.50000000         4.97969552E-14
   7.55000019         5.23889810E-14
   7.59999990         5.32145569E-14
   7.65000010         5.23944867E-14
   7.69999981         5.01196713E-14
   7.75000000         4.66416626E-14
   7.80000019         4.22568847E-14
   7.84999990         3.72851096E-14
   7.90000010         3.20443711E-14
   7.94999981         2.68259044E-14
   8.00000000         2.18732181E-14
   8.05000019         1.73689408E-14
   8.10000038         1.34317318E-14
   8.14999962         1.01233837E-14
   8.19999981         7.46409075E-15
   8.25000000         5.45199872E-15
   8.30000019         4.08230028E-15
   8.35000038         3.36126179E-15
   8.39999962         3.31187193E-15
   8.44999981         3.96975840E-15
   8.50000000         5.37025368E-15
   8.55000019         7.52947916E-15
   8.60000038         1.04235290E-14
   8.64999962         1.39701957E-14
   8.69999981         1.80169888E-14
   8.75000000         2.23379309E-14
   8.80000019         2.66398791E-14
   8.85000038         3.05774354E-14
   8.89999962         3.37742055E-14
   8.94999981         3.58475321E-14
   9.00000000         3.64337704E-14
   9.05000019         3.52114544E-14
   9.10000038         3.19207720E-14
   9.14999962         2.63784305E-14
   9.19999981         1.84879001E-14
   9.25000000         8.24518642E-15
   9.30000019        -4.25931746E-15
   9.35000038        -1.88428713E-14
   9.39999962        -3.52364723E-14
   9.44999981        -5.30955251E-14
   9.50000000        -7.20157034E-14
   9.55000019        -9.15540498E-14
   9.60000038        -1.11255026E-13
   9.64999962        -1.30679281E-13
   9.69999981        -1.49432550E-13
   9.75000000        -1.67190385E-13
   9.80000019        -1.83714209E-13
   9.85000038        -1.98854808E-13
   9.89999962        -2.12540150E-13
   9.94999981        -2.24747304E-13
   10.0000000        -2.35460197E-13
   10.0500002        -2.44618426E-13
   10.1000004        -2.52063507E-13
   10.1499996        -2.57490128E-13
   10.1999998        -2.60409695E-13
   10.2500000        -2.60131516E-13
   10.3000002        -2.55763238E-13
   10.3500004        -2.46231177E-13
   10.3999996        -2.30316336E-13
   10.4499998        -2.06702372E-13
   10.5000000        -1.74031145E-13
   10.5500002        -1.30963098E-13
   10.6000004        -7.62417202E-14
   10.6499996        -8.76360362E-15
   10.6999998         7.23427462E-14
   10.7500000         1.67628335E-13
   10.8000002         2.77224370E-13
   10.8500004         4.00737034E-13
   10.8999996         5.37143951E-13
   10.9499998         6.84704084E-13
   11.0000000         8.40893924E-13
   11.0500002         1.00238123E-12
   11.1000004         1.16504517E-12
   11.1499996         1.32404482E-12
   11.1999998         1.47393057E-12
   11.2500000         1.60879112E-12
   11.3000002         1.72242223E-12
   11.3500004         1.80850495E-12
   11.3999996         1.86078366E-12
   11.4499998         1.87323854E-12
   11.5000000         1.84025516E-12
   11.5500002         1.75679057E-12
   11.6000004         1.61854471E-12
   11.6499996         1.42213596E-12
   11.6999998         1.16528033E-12
   11.7500000         8.46964209E-13
   11.8000002         4.67599538E-13
   11.8500004         2.91439914E-14
   11.8999996        -4.64823872E-13
   11.9499998        -1.00908463E-12
   12.0000000        -1.59680786E-12
   12.0500002        -2.21962639E-12
   12.1000004        -2.86773990E-12
   12.1499996        -3.53002610E-12
   12.1999998        -4.19415240E-12
   12.2500000        -4.84667861E-12
   12.3000002        -5.47315014E-12
   12.3500004        -6.05819301E-12
   12.3999996        -6.58563395E-12
   12.4499998        -7.03864788E-12
   12.5000000        -7.39994697E-12
   12.5500002        -7.65203005E-12
   12.6000004        -7.77746357E-12
   12.6499996        -7.75919953E-12
   12.6999998        -7.58092721E-12
   12.7500000        -7.22743350E-12
   12.8000002        -6.68497549E-12
   12.8500004        -5.94168941E-12
   12.8999996        -4.98802432E-12
   12.9499998        -3.81722605E-12
   13.0000000        -2.42587916E-12
   13.0500002        -8.14492354E-13
   13.1000004         1.01186984E-12
   13.1499996         3.04296280E-12
   13.1999998         5.26276071E-12
   13.2500000         7.64892837E-12
   13.3000002         1.01724107E-11
   13.3500004         1.27971357E-11
   13.3999996         1.54798865E-11
   13.4499998         1.81703402E-11
   13.5000000         2.08112381E-11
   13.5500002         2.33387615E-11
   13.6000004         2.56830408E-11
   13.6499996         2.77688653E-11
   13.6999998         2.95165663E-11
   13.7500000         3.08430920E-11
   13.8000002         3.16632519E-11
   13.8500004         3.18910939E-11
   13.8999996         3.14414154E-11
   13.9499998         3.02313174E-11
   14.0000000         2.81817313E-11
   14.0500002         2.52189172E-11
   14.1000004         2.12758231E-11
   14.1499996         1.62933157E-11
   14.1999998         1.02212292E-11
   14.2500000         3.01928881E-12
   14.3000002        -5.34216334E-12
   14.3500004        -1.48815682E-11
   14.3999996        -2.56057051E-11
   14.4499998        -3.75093741E-11
   14.5000000        -5.05752454E-11
   14.5500002        -6.47738321E-11
   14.6000004        -8.00635461E-11
   14.6499996        -9.63908675E-11
   14.6999998        -1.13690612E-10
   14.7500000        -1.31886044E-10
   14.8000002        -1.50889232E-10
   14.8500004        -1.70601006E-10
   14.8999996        -1.90911148E-10
   14.9499998        -2.11698381E-10
   15.0000000        -2.32830352E-10
   15.0500002        -2.54163773E-10
   15.1000004        -2.75544504E-10
   15.1499996        -2.96807995E-10
   15.1999998        -3.17779580E-10
   15.2500000        -3.38275324E-10
   15.3000002        -3.58102936E-10
   15.3500004        -3.77062798E-10
   15.3999996        -3.94949434E-10
   15.4499998        -4.11553153E-10
   15.5000000        -4.26661956E-10
   15.5500002        -4.40063680E-10
   15.6000004        -4.51548410E-10
   15.6499996        -4.60911226E-10
   15.6999998        -4.67955119E-10
   15.7500000        -4.72493988E-10
   15.8000002        -4.74355610E-10
   15.8500004        -4.73384887E-10
   15.8999996        -4.69446704E-10
   15.9499998        -4.62428484E-10
   16.0000000        -4.52242799E-10
   16.0499992        -4.38829362E-10
   16.1000004        -4.22157004E-10
   16.1499996        -4.02225114E-10
   16.2000008        -3.79064696E-10
   16.2500000        -3.52739088E-10
   16.2999992        -3.23344324E-10
   16.3500004        -2.91008995E-10
   16.3999996        -2.55893529E-10
   16.4500008        -2.18189258E-10
   16.5000000        -1.78117021E-10
   16.5499992        -1.35925243E-10
   16.6000004        -9.18880527E-11
   16.6499996        -4.63030170E-11
   16.7000008         5.11226803E-13
   16.7500000         4.82173398E-11
   16.7999992         9.64618108E-11
   16.8500004         1.44877374E-10
   16.8999996         1.93085603E-10
   16.9500008         2.40699433E-10
   17.0000000         2.87325636E-10
   17.0499992         3.32567446E-10
   17.1000004         3.76026960E-10
   17.1499996         4.17307466E-10
   17.2000008         4.56015586E-10
   17.2500000         4.91763519E-10
   17.2999992         5.24170651E-10
   17.3500004         5.52865642E-10
   17.3999996         5.77488002E-10
   17.4500008         5.97689842E-10
   17.5000000         6.13137541E-10
   17.5499992         6.23513574E-10
   17.6000004         6.28518293E-10
   17.6499996         6.27871533E-10
   17.7000008         6.21314666E-10
   17.7500000         6.08611994E-10
   17.7999992         5.89552518E-10
   17.8500004         5.63951497E-10
   17.8999996         5.31651778E-10
   17.9500008         4.92525687E-10
   18.0000000         4.46475829E-10
   18.0499992         3.93437088E-10
   18.1000004         3.33377964E-10
   18.1499996         2.66301842E-10
   18.2000008         1.92248509E-10
   18.2500000         1.11295369E-10
   18.2999992         2.35583497E-11
   18.3500004        -7.08072073E-11
   18.3999996        -1.71606285E-10
   18.4500008        -2.78604001E-10
   18.5000000        -3.91526173E-10
   18.5499992        -5.10059994E-10
   18.6000004        -6.33855357E-10
   18.6499996        -7.62526708E-10
   18.7000008        -8.95655106E-10
   18.7500000        -1.03279141E-09
   18.7999992        -1.17345988E-09
   18.8500004        -1.31716171E-09
   18.8999996        -1.46337986E-09
   18.9500008        -1.61158442E-09
   19.0000000        -1.76123782E-09
   19.0499992        -1.91180116E-09
   19.1000004        -2.06273953E-09
   19.1499996        -2.21352914E-09
   19.2000008        -2.36366327E-09
   19.2500000        -2.51265808E-09
   19.2999992        -2.66005840E-09
   19.3500004        -2.80544321E-09
   19.3999996        -2.94843128E-09
   19.4500008        -3.08868420E-09
   19.5000000        -3.22590954E-09
   19.5499992        -3.35986461E-09
   19.6000004        -3.49035756E-09
   19.6499996        -3.61724717E-09
   19.7000008        -3.74044484E-09
   19.7500000        -3.85991061E-09
   19.7999992        -3.97565136E-09
   19.8500004        -4.08772038E-09
   19.8999996        -4.19621049E-09
   19.9500008        -4.30125091E-09
   20.0000000        -4.40300196E-09
   20.0499992        -4.50164972E-09
   20.1000004        -4.59739757E-09
   20.1499996        -4.69046535E-09
   20.2000008        -4.78107820E-09
   20.2500000        -4.86946306E-09
   20.2999992        -4.95584462E-09
   20.3500004        -5.04043784E-09
   20.3999996        -5.12344700E-09
   20.4500008        -5.20506038E-09
   20.5000000        -5.28544941E-09
   20.5499992        -5.36476685E-09
   20.6000004        -5.44314505E-09
   20.6499996        -5.52069546E-09
   20.7000008        -5.59751090E-09
   20.7500000        -5.67366332E-09
   20.7999992        -5.74920644E-09
   20.8500004        -5.82417625E-09
   20.8999996        -5.89859228E-09
   20.9500008        -5.97246030E-09
   21.0000000        -6.04577055E-09
   21.0499992        -6.11850437E-09
   21.1000004        -6.19063334E-09
   21.1499996        -6.26212193E-09
   21.2000008        -6.33293062E-09
   21.2500000        -6.40301856E-09
   21.2999992        -6.47234621E-09
   21.3500004        -6.54087806E-09
   21.3999996        -6.60858523E-09
   21.4500008        -6.67544819E-09
   21.5000000        -6.74145895E-09
   21.5499992        -6.80662193E-09
   21.6000004        -6.87095358E-09
   21.6499996        -6.93448365E-09
   21.7000008        -6.99725433E-09
   21.7500000        -7.05931935E-09
   21.7999992        -7.12074710E-09
   21.8500004        -7.18161886E-09
   21.8999996        -7.24203186E-09
   21.9500008        -7.30210337E-09
   22.0000000        -7.36197014E-09
   22.0499992        -7.42179296E-09
   22.1000004        -7.48175299E-09
   22.1499996        -7.54204699E-09
   22.2000008        -7.60288188E-09
   22.2500000        -7.66446018E-09
   22.2999992        -7.72696662E-09
   22.3500004        -7.79055842E-09
   22.3999996        -7.85534571E-09
   22.4500008        -7.92139243E-09
   22.5000000        -7.98871191E-09
   22.5499992        -8.05727840E-09
   22.6000004        -8.12703416E-09
   22.6499996        -8.19791435E-09
   22.7000008        -8.26986213E-09
   22.7500000        -8.34284286E-09
   22.7999992        -8.41684589E-09
   22.8500004        -8.49187920E-09
   22.8999996        -8.56794635E-09
   22.9500008        -8.64501448E-09
   23.0000000        -8.72298322E-09
   23.0499992        -8.80164741E-09
   23.1000004        -8.88067930E-09
   23.1499996        -8.95962682E-09
   23.2000008        -9.03794284E-09
   23.2500000        -9.11503140E-09
   23.2999992        -9.19031873E-09
   23.3500004        -9.26333321E-09
   23.3999996        -9.33377908E-09
   23.4500008        -9.40159151E-09
   23.5000000        -9.46695167E-09
   23.5499992        -9.53026635E-09
   23.6000004        -9.59209778E-09
   23.6499996        -9.65305791E-09
   23.7000008        -9.71367609E-09
   23.7500000        -9.77428094E-09
   23.7999992        -9.83488846E-09
   23.8500004        -9.89514870E-09
   23.8999996        -9.95434757E-09
   23.9500008        -1.00114850E-08
   24.0000000        -1.00654001E-08
   24.0499992        -1.01149515E-08
   24.1000004        -1.01591997E-08
   24.1499996        -1.01975841E-08
   24.2000008        -1.02300390E-08
   24.2500000        -1.02570414E-08
   24.2999992        -1.02795745E-08
   24.3500004        -1.02989990E-08
   24.3999996        -1.03168638E-08
   24.4500008        -1.03346798E-08
   24.5000000        -1.03536930E-08
   24.5499992        -1.03747038E-08
   24.6000004        -1.03979598E-08
   24.6499996        -1.04231637E-08
   24.7000008        -1.04495816E-08
   24.7500000        -1.04762607E-08
   24.7999992        -1.05023226E-08
   24.8500004        -1.05272804E-08
   24.8999996        -1.05513394E-08
   24.9500008        -1.05756319E-08
   25.0000000        -1.06023244E-08
   25.0499992        -1.06345945E-08
   25.1000004        -1.06764491E-08
   25.1499996        -1.07324230E-08
   25.2000008        -1.08071818E-08
   25.2500000        -1.09051017E-08
   25.2999992        -1.10298970E-08
   25.3500004        -1.11843557E-08
   25.3999996        -1.13702550E-08
   25.4500008        -1.15884751E-08
   25.5000000        -1.18393331E-08
   25.5499992        -1.21230883E-08
   25.6000004        -1.24405721E-08
   25.6499996        -1.27938380E-08
   25.7000008        -1.31867539E-08
   25.7500000        -1.36254155E-08
   25.7999992        -1.41183394E-08
   25.8500004        -1.46763632E-08
   25.8999996        -1.53122883E-08
   25.9500008        -1.60402944E-08
   26.0000000        -1.68752248E-08
   26.0499992        -1.78318764E-08
   26.1000004        -1.89244069E-08
   26.1499996        -2.01659720E-08
   26.2000008        -2.15687113E-08
   26.2500000        -2.31440627E-08
   26.2999992        -2.49034340E-08
   26.3500004        -2.68591336E-08
   26.3999996        -2.90254363E-08
   26.4500008        -3.14196491E-08
   26.5000000        -3.40630208E-08
   26.5499992        -3.69813868E-08
   26.6000004        -4.02054532E-08
   26.6499996        -4.37706866E-08
   26.7000008        -4.77169237E-08
   26.7500000        -5.20877066E-08
   26.7999992        -5.69295189E-08
   26.8500004        -6.22910790E-08
   26.8999996        -6.82228674E-08
   26.9500008        -7.47768780E-08
   27.0000000        -8.20068706E-08
   27.0499992        -8.99688786E-08
   27.1000004        -9.87221611E-08
   27.1499996        -1.08330411E-07
   27.2000008        -1.18863085E-07
   27.2500000        -1.30396828E-07
   27.2999992        -1.43016763E-07
   27.3500004        -1.56817663E-07
   27.3999996        -1.71904958E-07
   27.4500008        -1.88395518E-07
   27.5000000        -2.06418136E-07
   27.5499992        -2.26113912E-07
   27.6000004        -2.47636564E-07
   27.6499996        -2.71152544E-07
   27.7000008        -2.96841279E-07
   27.7500000        -3.24895467E-07
   27.7999992        -3.55521451E-07
   27.8500004        -3.88939725E-07
   27.8999996        -4.25385934E-07
   27.9500008        -4.65111953E-07
   28.0000000        -5.08387245E-07
   28.0499992        -5.55500890E-07
   28.1000004        -6.06763479E-07
   28.1499996        -6.62509706E-07
   28.2000008        -7.23100925E-07
   28.2500000        -7.88928276E-07
   28.2999992        -8.60414787E-07
   28.3500004        -9.38018729E-07
   28.3999996        -1.02223612E-06
   28.4500008        -1.11360305E-06
   28.5000000        -1.21269784E-06
   28.5499992        -1.32014418E-06
   28.6000004        -1.43661293E-06
   28.6499996        -1.56282533E-06
   28.7000008        -1.69955501E-06
   28.7500000        -1.84763269E-06
   28.7999992        -2.00794921E-06
   28.8500004        -2.18145942E-06
   28.8999996        -2.36918754E-06
   28.9500008        -2.57223178E-06
   29.0000000        -2.79176948E-06
   29.0499992        -3.02906210E-06
   29.1000004        -3.28545980E-06
   29.1499996        -3.56240776E-06
   29.2000008        -3.86145030E-06
   29.2500000        -4.18423724E-06
   29.2999992        -4.53252869E-06
   29.3500004        -4.90820139E-06
   29.3999996        -5.31325668E-06
   29.4500008        -5.74982550E-06
   29.5000000        -6.22017797E-06
   29.5499992        -6.72673377E-06
   29.6000004        -7.27206998E-06
   29.6499996        -7.85893099E-06
   29.7000008        -8.49024400E-06
   29.7500000        -9.16912541E-06
   29.7999992        -9.89889759E-06
   29.8500004        -1.06830967E-05
   29.8999996        -1.15254943E-05
   29.9500008        -1.24300996E-05
   30.0000000        -1.34011825E-05
   30.0499992        -1.44432825E-05
   30.1000004        -1.55612233E-05
   30.1499996        -1.67601302E-05
   30.2000008        -1.80454426E-05
   30.2500000        -1.94229306E-05
   30.2999992        -2.08987112E-05
   30.3500004        -2.24792730E-05
   30.3999996        -2.41714843E-05
   30.4500008        -2.59826229E-05
   30.5000000        -2.79203905E-05
   30.5499992        -2.99929416E-05
   30.6000004        -3.22089036E-05
   30.6499996        -3.45774024E-05
   30.7000008        -3.71080860E-05
   30.7500000        -3.98111515E-05
   30.7999992        -4.26973820E-05
   30.8500004        -4.57781643E-05
   30.8999996        -4.90655220E-05
   30.9500008        -5.25721443E-05
   31.0000000        -5.63114154E-05
   31.0499992        -6.02974578E-05
   31.1000004        -6.45451510E-05
   31.1499996        -6.90701636E-05
   31.2000008        -7.38890085E-05
   31.2500000        -7.90190679E-05
   31.2999992        -8.44786045E-05
   31.3500004        -9.02868414E-05
   31.3999996        -9.64639694E-05
   31.4500008        -1.03031198E-04
   31.5000000        -1.10010777E-04
   31.5499992        -1.17426083E-04
   31.6000004        -1.25301580E-04
   31.6499996        -1.33662950E-04
   31.7000008        -1.42537087E-04
   31.7500000        -1.51952132E-04
   31.7999992        -1.61937554E-04
   31.8500004        -1.72524204E-04
   31.8999996        -1.83744312E-04
   31.9500008        -1.95631626E-04
   32.0000000        -2.08221361E-04
   32.0499992        -2.21550348E-04
   32.0999985        -2.35657048E-04
   32.1500015        -2.50581565E-04
   32.2000008        -2.66365823E-04
   32.2500000        -2.83053494E-04
   32.2999992        -3.00690124E-04
   32.3499985        -3.19323270E-04
   32.4000015        -3.39002378E-04
   32.4500008        -3.59778962E-04
   32.5000000        -3.81706632E-04
   32.5499992        -4.04841296E-04
   32.5999985        -4.29240899E-04
   32.6500015        -4.54965775E-04
   32.7000008        -4.82078583E-04
   32.7500000        -5.10644459E-04
   32.7999992        -5.40730893E-04
   32.8499985        -5.72408026E-04
   32.9000015        -6.05748559E-04
   32.9500008        -6.40827813E-04
   33.0000000        -6.77723903E-04
   33.0499992        -7.16517505E-04
   33.0999985        -7.57292495E-04
   33.1500015        -8.00135313E-04
   33.2000008        -8.45135481E-04
   33.2500000        -8.92385491E-04
   33.2999992        -9.41980747E-04
   33.3499985        -9.94020025E-04
   33.4000015        -1.04860472E-03
   33.4500008        -1.10584009E-03
   33.5000000        -1.16583402E-03
   33.5499992        -1.22869795E-03
   33.5999985        -1.29454641E-03
   33.6500015        -1.36349734E-03
   33.7000008        -1.43567217E-03
   33.7500000        -1.51119544E-03
   33.7999992        -1.59019546E-03
   33.8499985        -1.67280389E-03
   33.9000015        -1.75915565E-03
   33.9500008        -1.84938894E-03
   34.0000000        -1.94364600E-03
   34.0499992        -2.04207189E-03
   34.0999985        -2.14481540E-03
   34.1500015        -2.25202856E-03
   34.2000008        -2.36386689E-03
   34.2500000        -2.48048920E-03
   34.2999992        -2.60205776E-03
   34.3499985        -2.72873812E-03
   34.4000015        -2.86069885E-03
   34.4500008        -2.99811130E-03
   34.5000000        -3.14115104E-03
   34.5499992        -3.28999595E-03
   34.5999985        -3.44482693E-03
   34.6500015        -3.60582839E-03
   34.7000008        -3.77318636E-03
   34.7500000        -3.94709082E-03
   34.7999992        -4.12773294E-03
   34.8499985        -4.31530830E-03
   34.9000015        -4.51001385E-03
   34.9500008        -4.71204799E-03
   35.0000000        -4.92161186E-03
   35.0499992        -5.13890851E-03
   35.0999985        -5.36414282E-03
   35.1500015        -5.59752109E-03
   35.2000008        -5.83925098E-03
   35.2500000        -6.08954160E-03
   35.2999992        -6.34860201E-03
   35.3499985        -6.61664270E-03
   35.4000015        -6.89387461E-03
   35.4500008        -7.18050869E-03
   35.5000000        -7.47675635E-03
   35.5499992        -7.78282853E-03
   35.5999985        -8.09893478E-03
   35.6500015        -8.42528511E-03