  -4.80000019         1.00000002E-24
  -4.75000000         1.00000002E-24
  -4.69999981         1.00000002E-24
  -4.65000010         1.00000002E-24
  -4.59999990         1.00000012E-24
  -4.55000019         1.00000012E-24
  -4.50000000         3.71047909E-22
  -4.44999981         3.80628573E-21
  -4.40000010         6.70673840E-21
  -4.34999990        -2.67102549E-20
  -4.30000019        -1.17377187E-19
  -4.25000000        -6.27748465E-20
  -4.19999981         5.50270942E-19
  -4.15000010         1.37042238E-18
  -4.09999990         8.44641297E-20
  -4.05000019        -5.51876541E-18
  -4.00000000        -1.05636730E-17
  -3.95000005         9.84783270E-20
  -3.90000010         3.53649424E-17
  -3.84999990         6.47397208E-17
  -3.79999995         1.40186368E-17
  -3.75000000        -1.56233612E-16
  -3.70000005        -3.22380290E-16
  -3.65000010        -1.87022281E-16
  -3.59999990         4.50497861E-16
  -3.54999995         1.25809168E-15
  -3.50000000         1.25916424E-15
  -3.45000005        -4.76022934E-16
  -3.40000010        -3.54745085E-15
  -3.34999990        -5.50076664E-15
  -3.29999995        -2.96634072E-15
  -3.25000000         5.31289007E-15
  -3.20000005         1.55664361E-14
  -3.15000010         1.91705782E-14
  -3.09999990         7.44422783E-15
  -3.04999995        -2.07377840E-14
  -3.00000000        -5.32942255E-14
  -2.95000005        -6.64062040E-14
  -2.90000010        -3.54113847E-14
  -2.84999990         4.75862703E-14
  -2.79999995         1.57442744E-13
  -2.75000000         2.32492058E-13
  -2.70000005         1.93834667E-13
  -2.65000010        -1.16363794E-14
  -2.59999990        -3.59156850E-13
  -2.54999995        -7.14627251E-13
  -2.50000000        -8.55974742E-13
  -2.45000005        -5.61361342E-13
  -2.40000010         2.57084447E-13
  -2.34999990         1.43131286E-12
  -2.29999995         2.50011882E-12
  -2.25000000         2.81157237E-12
  -2.20000005         1.76985564E-12
  -2.15000010        -8.35715178E-13
  -2.09999990        -4.54100256E-12
  -2.04999995        -8.10231483E-12
  -2.00000000        -9.68910802E-12
  -1.95000005        -7.39238965E-12
  -1.89999998         6.25382518E-14
  -1.85000002         1.26230805E-11
  -1.79999995         2.85004121E-11
  -1.75000000         4.42484278E-11
  -1.70000005         5.53901196E-11
  -1.64999998         5.74746466E-11
  -1.60000002         4.73008716E-11
  -1.54999995         2.39697359E-11
  -1.50000000        -1.05492819E-11
  -1.45000005        -5.15360497E-11
  -1.39999998        -9.23397955E-11
  -1.35000002        -1.25727165E-10
  -1.29999995        -1.45443602E-10
  -1.25000000        -1.47622997E-10
  -1.20000005        -1.31722022E-10
  -1.14999998        -1.00757132E-10
  -1.10000002        -6.07525696E-11
  -1.04999995        -1.94584054E-11
  -1.00000000         1.54369104E-11
 -0.949999988         3.82181058E-11
 -0.899999976         4.67074643E-11
 -0.850000024         4.30410672E-11
 -0.800000012         3.33835841E-11
 -0.750000000         2.65744475E-11
 -0.699999988         3.19900009E-11
 -0.649999976         5.71483416E-11
 -0.600000024         1.05701788E-10
 -0.550000012         1.76396578E-10
 -0.500000000         2.63315536E-10
 -0.449999988         3.57321950E-10
 -0.400000006         4.48237170E-10
 -0.349999994         5.27082988E-10
 -0.300000012         5.87777105E-10
 -0.250000000         6.27938035E-10
 -0.200000003         6.48789245E-10
 -0.150000006         6.54409638E-10
 -0.100000001         6.50690946E-10
  -5.00000007E-02     6.44322373E-10
   8.88178420E-16     6.41980191E-10
   5.00000007E-02     6.49708509E-10
  0.100000001         6.72346234E-10
  0.150000006         7.12862436E-10
  0.200000003         7.71625541E-10
  0.250000000         8.45832460E-10
  0.300000012         9.29405719E-10
  0.349999994         1.01354358E-09
  0.400000006         1.08784404E-09
  0.449999988         1.14168763E-09
  0.500000000         1.16548182E-09
  0.550000012         1.15145526E-09
  0.600000024         1.09387899E-09
  0.649999976         9.88789606E-10
  0.699999988         8.33471070E-10
  0.750000000         6.26030061E-10
  0.800000012         3.65340869E-10
  0.850000024         5.14120344E-11
  0.899999976        -3.14038379E-10
  0.949999988        -7.27144622E-10
   1.00000000        -1.18183974E-09
   1.04999995        -1.67019765E-09
   1.10000002        -2.18300000E-09
   1.14999998        -2.71034484E-09
   1.20000005        -3.24223337E-09
   1.25000000        -3.76916587E-09
   1.29999995        -4.28278657E-09
   1.35000002        -4.77656625E-09
   1.39999998        -5.24645660E-09
   1.45000005        -5.69141223E-09
   1.50000000        -6.11361228E-09
   1.54999995        -6.51818377E-09
   1.60000002        -6.91232627E-09
   1.64999998        -7.30399696E-09
   1.70000005        -7.70059749E-09
   1.75000000        -8.10814083E-09
   1.79999995        -8.53111182E-09
   1.85000002        -8.97284469E-09
   1.89999998        -9.43597556E-09
   1.95000005        -9.92259519E-09
   2.00000000        -1.04339968E-08
   2.04999995        -1.09701501E-08
   2.09999990        -1.15291900E-08
   2.15000010        -1.21072947E-08
   2.20000005        -1.26992452E-08
   2.25000000        -1.32997640E-08
   2.29999995        -1.39053213E-08
   2.34999990        -1.45157344E-08
   2.40000010        -1.51348196E-08
   2.45000005        -1.57697908E-08
   2.50000000        -1.64296718E-08
   2.54999995        -1.71234209E-08
   2.59999990        -1.78584507E-08
   2.65000010        -1.86399216E-08
   2.70000005        -1.94708747E-08
   2.75000000        -2.03530366E-08
   2.79999995        -2.12879954E-08
   2.84999990        -2.22783409E-08
   2.90000010        -2.33283437E-08
   2.95000005        -2.44440272E-08
   3.00000000        -2.56328665E-08
   3.04999995        -2.69035141E-08
   3.09999990        -2.82657844E-08
   3.15000010        -2.97307938E-08
   3.20000005        -3.13109396E-08
   3.25000000        -3.30195640E-08
   3.29999995        -3.48705527E-08
   3.34999990        -3.68781059E-08
   3.40000010        -3.90568609E-08
   3.45000005        -4.14222825E-08
   3.50000000        -4.39911076E-08
   3.54999995        -4.67818104E-08
   3.59999990        -4.98150072E-08
   3.65000010        -5.31135953E-08
   3.70000005        -5.67024827E-08
   3.75000000        -6.06080093E-08
   3.79999995        -6.48575096E-08
   3.84999990        -6.94795546E-08
   3.90000010        -7.45049036E-08
   3.95000005        -7.99678617E-08
   4.00000000        -8.59073097E-08
   4.05000019        -9.23670456E-08
   4.09999990        -9.93956490E-08
   4.15000010        -1.07045992E-07
   4.19999981        -1.15374760E-07
   4.25000000        -1.24442153E-07
   4.30000019        -1.34311918E-07
   4.34999990        -1.45052169E-07
   4.40000010        -1.56736576E-07
   4.44999981        -1.69445812E-07
   4.50000000        -1.83268313E-07
   4.55000019        -1.98300242E-07
   4.59999990        -2.14645027E-07
   4.65000010        -2.32412916E-07
   4.69999981        -2.51721218E-07
   4.75000000        -2.72694905E-07
   4.80000019        -2.95467572E-07
   4.84999990        -3.20182693E-07
   4.90000010        -3.46995193E-07
   4.94999981        -3.76073160E-07
   5.00000000        -4.07599174E-07
   5.05000019        -4.41771306E-07
   5.09999990        -4.78803429E-07
   5.15000010        -5.18926129E-07
   5.19999981        -5.62387299E-07
   5.25000000        -6.09453366E-07
   5.30000019        -6.60410365E-07
   5.34999990        -7.15564340E-07
   5.40000010        -7.75242370E-07
   5.44999981        -8.39793415E-07
   5.50000000        -9.09590540E-07
   5.55000019        -9.85031988E-07
   5.59999990        -1.06654397E-06
   5.65000010        -1.15458170E-06
   5.69999981        -1.24963253E-06
   5.75000000        -1.35221831E-06
   5.80000019        -1.46289835E-06
   5.84999990        -1.58227169E-06
   5.90000010        -1.71097952E-06
   5.94999981        -1.84970702E-06
   6.00000000        -1.99918691E-06
   6.05000019        -2.16020226E-06
   6.09999990        -2.33358878E-06
   6.15000010        -2.52023756E-06
   6.19999981        -2.72109924E-06
   6.25000000        -2.93718517E-06
   6.30000019        -3.16957289E-06
   6.34999990        -3.41940927E-06
   6.40000010        -3.68791461E-06
   6.44999981        -3.97638587E-06
   6.50000000        -4.28620342E-06
   6.55000019        -4.61883428E-06
   6.59999990        -4.97583687E-06
   6.65000010        -5.35887011E-06
   6.69999981        -5.76969296E-06
   6.75000000        -6.21017625E-06
   6.80000019        -6.68230496E-06
   6.84999990        -7.18818637E-06
   6.90000010        -7.73005377E-06
   6.94999981        -8.31027410E-06
   7.00000000        -8.93135530E-06
   7.05000019        -9.59595218E-06
   7.09999990        -1.03068787E-05
   7.15000010        -1.10671099E-05
   7.19999981        -1.18797961E-05
   7.25000000        -1.27482663E-05
   7.30000019        -1.36760427E-05
   7.34999990        -1.46668453E-05
   7.40000010        -1.57246050E-05
   7.44999981        -1.68534680E-05
   7.50000000        -1.80578099E-05
   7.55000019        -1.93422438E-05
   7.59999990        -2.07116391E-05
   7.65000010        -2.21711289E-05
   7.69999981        -2.37261193E-05
   7.75000000        -2.53823036E-05
   7.80000019        -2.71456829E-05
   7.84999990        -2.90225689E-05
   7.90000010        -3.10196010E-05
   7.94999981        -3.31437623E-05
   8.00000000        -3.54023869E-05
   8.05000019        -3.78031800E-05
   8.10000038        -4.03542399E-05
   8.14999962        -4.30640648E-05
   8.19999981        -4.59415605E-05
   8.25000000        -4.89960730E-05
   8.30000019        -5.22373994E-05
   8.35000038        -5.56757986E-05
   8.39999962        -5.93220320E-05
   8.44999981        -6.31873627E-05
   8.50000000        -6.72835668E-05
   8.55000019        -7.16229697E-05
   8.60000038        -7.62184791E-05
   8.64999962        -8.10835700E-05
   8.69999981        -8.62323213E-05
   8.75000000        -9.16794306E-05
   8.80000019        -9.74402428E-05
   8.85000038        -1.03530758E-04
   8.89999962        -1.09967674E-04
   8.94999981        -1.16768359E-04
   9.00000000        -1.23950915E-04
   9.05000019        -1.31534209E-04
   9.10000038        -1.39537879E-04
   9.14999962        -1.47982340E-04
   9.19999981        -1.56888855E-04
   9.25000000        -1.66279468E-04
   9.30000019        -1.76177171E-04
   9.35000038        -1.86605757E-04
   9.39999962        -1.97589994E-04
   9.44999981        -2.09155507E-04
   9.50000000        -2.21328926E-04
   9.55000019        -2.34137755E-04
   9.60000038        -2.47610558E-04
   9.64999962        -2.61776906E-04
   9.69999981        -2.76667328E-04
   9.75000000        -2.92313460E-04
   9.80000019        -3.08747956E-04
   9.85000038        -3.26004549E-04
   9.89999962        -3.44118191E-04
   9.94999981        -3.63124884E-04
   10.0000000        -3.83061793E-04
   10.0500002        -4.03967191E-04
   10.1000004        -4.25880542E-04
   10.1499996        -4.48842387E-04
   10.1999998        -4.72894520E-04
   10.2500000        -4.98079928E-04
   10.3000002        -5.24442818E-04
   10.3500004        -5.52028534E-04
   10.3999996        -5.80883818E-04
   10.4499998        -6.11056574E-04
   10.5000000        -6.42595929E-04
   10.5500002        -6.75552175E-04
   10.6000004        -7.09976943E-04
   10.6499996        -7.45922793E-04
   10.6999998        -7.83443917E-04
   10.7500000        -8.22595553E-04
   10.8000002        -8.63434165E-04
   10.8500004        -9.06017201E-04
   10.8999996        -9.50403453E-04
   10.9499998        -9.96652641E-04
   11.0000000        -1.04482623E-03
   11.0500002        -1.09498634E-03
   11.1000004        -1.14719628E-03
   11.1499996        -1.20152044E-03
   11.1999998        -1.25802401E-03
   11.2500000        -1.31677336E-03
   11.3000002        -1.37783599E-03
   11.3500004        -1.44127978E-03
   11.3999996        -1.50717399E-03
   11.4499998        -1.57558860E-03
   11.5000000        -1.64659461E-03
   11.5500002        -1.72026374E-03
   11.6000004        -1.79666781E-03
   11.6499996        -1.87587936E-03
   11.6999998        -1.95797184E-03
   11.7500000        -2.04301905E-03
   11.8000002        -2.13109469E-03
   11.8500004        -2.22227303E-03
   11.8999996        -2.31662858E-03
   11.9499998        -2.41423585E-03
   12.0000000        -2.51517026E-03
   12.0500002        -2.61950609E-03
   12.1000004        -2.72731786E-03
   12.1499996        -2.83868029E-03
   12.1999998        -2.95366696E-03
   12.2500000        -3.07235238E-03
   12.3000002        -3.19480896E-03
   12.3500004        -3.32110911E-03
   12.3999996        -3.45132430E-03
   12.4499998        -3.58552486E-03
   12.5000000        -3.72378062E-03
   12.5500002        -3.86615982E-03
   12.6000004        -4.01272951E-03
   12.6499996        -4.16355534E-03
   12.6999998        -4.31870157E-03
   12.7500000        -4.47823014E-03
   12.8000002        -4.64220205E-03
   12.8500004        -4.81067505E-03
   12.8999996        -4.98370593E-03
   12.9499998        -5.16134780E-03
   13.0000000        -5.34365186E-03
   13.0500002        -5.53066703E-03
   13.1000004        -5.72243938E-03
   13.1499996        -5.91901224E-03
   13.1999998        -6.12042705E-03
   13.2500000        -6.32672058E-03
   13.3000002        -6.53792592E-03
   13.3500004        -6.75407192E-03
   13.3999996        -6.97518419E-03
   13.4499998        -7.20128510E-03
   13.5000000        -7.43239326E-03
   13.5500002        -7.66852265E-03
   13.6000004        -7.90968444E-03
   13.6499996        -8.15588422E-03
   13.6999998        -8.40712246E-03
   13.7500000        -8.66339449E-03
   13.8000002        -8.92469101E-03
   13.8500004        -9.19099525E-03
   13.8999996        -9.46228951E-03
   13.9499998        -9.73854773E-03
   14.0000000        -1.00197429E-02
   14.0500002        -1.03058387E-02
   14.1000004        -1.05967941E-02
   14.1499996        -1.08925626E-02
   14.1999998        -1.11930901E-02
   14.2500000        -1.14983181E-02
   14.3000002        -1.18081821E-02
   14.3500004        -1.21226115E-02
   14.3999996        -1.24415290E-02
   14.4499998        -1.27648488E-02
   14.5000000        -1.30924815E-02
   14.5500002        -1.34243295E-02
   14.6000004        -1.37602920E-02
   14.6499996        -1.41002601E-02
   14.6999998        -1.44441146E-02
   14.7500000        -1.47917336E-02
   14.8000002        -1.51429884E-02
   14.8500004        -1.54977422E-02
   14.8999996        -1.58558525E-02
   14.9499998        -1.62171721E-02
   15.0000000        -1.65815465E-02
   15.0500002        -1.69488136E-02
   15.1000004        -1.73188075E-02
   15.1499996        -1.76913571E-02
   15.1999998        -1.80662777E-02
   15.2500000        -1.84433851E-02
   15.3000002        -1.88224856E-02
   15.3500004        -1.92033816E-02
   15.3999996        -1.95858683E-02
   15.4499998        -1.99697334E-02
   15.5000000        -2.03547645E-02
   15.5500002        -2.07407400E-02
   15.6000004        -2.11274382E-02
   15.6499996        -2.15146225E-02
   15.6999998        -2.19020620E-02
   15.7500000        -2.22895145E-02
   15.8000002        -2.26767398E-02
   15.8500004        -2.30634902E-02
   15.8999996        -2.34495141E-02
   15.9499998        -2.38345508E-02
   16.0000000        -2.42183413E-02
   16.0499992        -2.46006306E-02
   16.1000004        -2.49811504E-02
   16.1499996        -2.53596324E-02
   16.2000008        -2.57358104E-02
   16.2500000        -2.61094142E-02
   16.2999992        -2.64801681E-02
   16.3500004        -2.68478058E-02
   16.3999996        -2.72120498E-02
   16.4500008        -2.75726244E-02
   16.5000000        -2.79292557E-02
   16.5499992        -2.82816663E-02
   16.6000004        -2.86295786E-02
   16.6499996        -2.89727189E-02
   16.7000008        -2.93108132E-02
   16.7500000        -2.96435952E-02
   16.7999992        -2.99707931E-02
   16.8500004        -3.02921478E-02
   16.8999996        -3.06073911E-02
   16.9500008        -3.09162624E-02
   17.0000000        -3.12185045E-02
   17.0499992        -3.15138586E-02
   17.1000004        -3.18020657E-02
   17.1499996        -3.20828818E-02
   17.2000008        -3.23560610E-02
   17.2500000        -3.26213762E-02
   17.2999992        -3.28786075E-02
   17.3500004        -3.31275240E-02
   17.3999996        -3.33679020E-02
   17.4500008        -3.35995294E-02
   17.5000000        -3.38221975E-02
   17.5499992        -3.40357050E-02
   17.6000004        -3.42398658E-02
   17.6499996        -3.44344899E-02
   17.7000008        -3.46194096E-02
   17.7500000        -3.47944610E-02
   17.7999992        -3.49594876E-02
   17.8500004        -3.51143330E-02
   17.8999996        -3.52588519E-02
   17.9500008        -3.53928991E-02
   18.0000000        -3.55163477E-02
   18.0499992        -3.56290936E-02
   18.1000004        -3.57310437E-02
   18.1499996        -3.58220898E-02
   18.2000008        -3.59021537E-02
   18.2500000        -3.59711684E-02
   18.2999992        -3.60290632E-02
   18.3500004        -3.60757820E-02
   18.3999996        -3.61112840E-02
   18.4500008        -3.61355245E-02
   18.5000000        -3.61484885E-02
   18.5499992        -3.61501686E-02
   18.6000004        -3.61405760E-02
   18.6499996        -3.61197107E-02
   18.7000008        -3.60875912E-02
   18.7500000        -3.60442400E-02
   18.7999992        -3.59896980E-02
   18.8500004        -3.59240100E-02
   18.8999996        -3.58472355E-02
   18.9500008        -3.57594378E-02
   19.0000000        -3.56607065E-02
   19.0499992        -3.55511382E-02
   19.1000004        -3.54308523E-02
   19.1499996        -3.52999493E-02
   19.2000008        -3.51585448E-02
   19.2500000        -3.50067616E-02
   19.2999992        -3.48447524E-02
   19.3500004        -3.46726663E-02
   19.3999996        -3.44906673E-02
   19.4500008        -3.42989154E-02
   19.5000000        -3.40975709E-02
   19.5499992        -3.38868313E-02
   19.6000004        -3.36668827E-02
   19.6499996        -3.34379189E-02
   19.7000008        -3.32001373E-02
   19.7500000        -3.29537317E-02
   19.7999992        -3.26989293E-02
   19.8500004        -3.24359685E-02
   19.8999996        -3.21650803E-02
   19.9500008        -3.18864956E-02
   20.0000000        -3.16004492E-02
   20.0499992        -3.13071795E-02
   20.1000004        -3.10069472E-02
   20.1499996        -3.07000056E-02
   20.2000008        -3.03866174E-02
   20.2500000        -3.00670359E-02
   20.2999992        -2.97415257E-02
   20.3500004        -2.94103641E-02
   20.3999996        -2.90738121E-02
   20.4500008        -2.87321340E-02
   20.5000000        -2.83855926E-02
   20.5499992        -2.80344617E-02
   20.6000004        -2.76790205E-02
   20.6499996        -2.73195524E-02
   20.7000008        -2.69563310E-02
   20.7500000        -2.65896283E-02
   20.7999992        -2.62197107E-02
   20.8500004        -2.58468557E-02
   20.8999996        -2.54713371E-02
   20.9500008        -2.50934325E-02
   21.0000000        -2.47134119E-02
   21.0499992        -2.43315473E-02
   21.1000004        -2.39481106E-02
   21.1499996        -2.35633664E-02
   21.2000008        -2.31775735E-02
   21.2500000        -2.27909815E-02
   21.2999992        -2.24038325E-02
   21.3500004        -2.20163744E-02
   21.3999996        -2.16288548E-02
   21.4500008        -2.12415196E-02
   21.5000000        -2.08546054E-02
   21.5499992        -2.04683430E-02
   21.6000004        -2.00829562E-02
   21.6499996        -1.96986664E-02
   21.7000008        -1.93156861E-02
   21.7500000        -1.89342275E-02
   21.7999992        -1.85544975E-02
   21.8500004        -1.81767009E-02
   21.8999996        -1.78010333E-02
   21.9500008        -1.74276885E-02
   22.0000000        -1.70568470E-02
   22.0499992        -1.66886840E-02
   22.1000004        -1.63233709E-02
   22.1499996        -1.59610659E-02
   22.2000008        -1.56019293E-02
   22.2500000        -1.52461138E-02
   22.2999992        -1.48937628E-02
   22.3500004        -1.45450160E-02
   22.3999996        -1.41999992E-02
   22.4500008        -1.38588278E-02
   22.5000000        -1.35216126E-02
   22.5499992        -1.31884702E-02
   22.6000004        -1.28595075E-02
   22.6499996        -1.25348270E-02
   22.7000008        -1.22145237E-02
   22.7500000        -1.18986871E-02
   22.7999992        -1.15873981E-02
   22.8500004        -1.12807332E-02
   22.8999996        -1.09787565E-02
   22.9500008        -1.06815230E-02
   23.0000000        -1.03890868E-02
   23.0499992        -1.01014981E-02
   23.1000004        -9.81880631E-03
   23.1499996        -9.54104867E-03
   23.2000008        -9.26825125E-03
   23.2500000        -9.00043268E-03
   23.2999992        -8.73761065E-03
   23.3500004        -8.47980380E-03
   23.3999996        -8.22702609E-03
   23.4500008        -7.97928497E-03
   23.5000000        -7.73658231E-03
   23.5499992        -7.49891624E-03
   23.6000004        -7.26628350E-03
   23.6499996        -7.03867432E-03
   23.7000008        -6.81606634E-03
   23.7500000        -6.59843069E-03
   23.7999992        -6.38573663E-03
   23.8500004        -6.17795903E-03
   23.8999996        -5.97507227E-03
   23.9500008        -5.77704422E-03
   24.0000000        -5.58383251E-03
   24.0499992        -5.39539102E-03
   24.1000004        -5.21167601E-03
   24.1499996        -5.03264507E-03
   24.2000008        -4.85824933E-03
   24.2500000        -4.68843104E-03
   24.2999992        -4.52312734E-03
   24.3500004        -4.36228095E-03
   24.3999996        -4.20583738E-03
   24.4500008        -4.05374030E-03
   24.5000000        -3.90592427E-03
   24.5499992        -3.76231549E-03
   24.6000004        -3.62284272E-03
   24.6499996        -3.48744052E-03
   24.7000008        -3.35604488E-03
   24.7500000        -3.22858640E-03
   24.7999992        -3.10498849E-03
   24.8500004        -2.98517803E-03
   24.8999996        -2.86909053E-03
   24.9500008        -2.75666383E-03
   25.0000000        -2.64782808E-03
   25.0499992        -2.54250062E-03
   25.1000004        -2.44059367E-03
   25.1499996        -2.34202575E-03
   25.2000008        -2.24672328E-03
   25.2500000        -2.15461501E-03
   25.2999992        -2.06562458E-03
   25.3500004        -1.97967514E-03
   25.3999996        -1.89669628E-03
   25.4500008        -1.81662431E-03
   25.5000000        -1.73939217E-03
   25.5499992        -1.66492222E-03
   25.6000004        -1.59313018E-03
   25.6499996        -1.52393733E-03
   25.7000008        -1.45727792E-03
   25.7500000        -1.39309291E-03
   25.7999992        -1.33131794E-03
   25.8500004        -1.27187883E-03
   25.8999996        -1.21469924E-03
   25.9500008        -1.15971023E-03
   26.0000000        -1.10685057E-03
   26.0499992        -1.05605810E-03
   26.1000004        -1.00726669E-03
   26.1499996        -9.60411213E-04
   26.2000008        -9.15436016E-04
   26.2500000        -8.72292323E-04
   26.2999992        -8.30925477E-04
   26.3500004        -7.91267841E-04
   26.3999996        -7.53244909E-04
   26.4500008        -7.16790266E-04
   26.5000000        -6.81854377E-04
   26.5499992        -6.48397312E-04
   26.6000004        -6.16376346E-04
   26.6499996        -5.85741247E-04
   26.7000008        -5.56441490E-04
   26.7500000        -5.28432196E-04
   26.7999992        -5.01670584E-04
   26.8500004        -4.76107409E-04
   26.8999996        -4.51686181E-04
   26.9500008        -4.28353320E-04
   27.0000000        -4.06068400E-04
   27.0499992        -3.84801504E-04
   27.1000004        -3.64519976E-04
   27.1499996        -3.45179636E-04
   27.2000008        -3.26731330E-04
   27.2500000        -3.09134513E-04
   27.2999992        -2.92363140E-04
   27.3500004        -2.76396866E-04
   27.3999996        -2.61208945E-04
   27.4500008        -2.46764161E-04
   27.5000000        -2.33027211E-04
   27.5499992        -2.19968468E-04
   27.6000004        -2.07559453E-04
   27.6499996        -1.95764689E-04
   27.7000008        -1.84543009E-04
   27.7500000        -1.73859589E-04
   27.7999992        -1.63695760E-04
   27.8500004        -1.54043999E-04
   27.8999996        -1.44892678E-04
   27.9500008        -1.36216695E-04
   28.0000000        -1.27984182E-04
   28.0499992        -1.20170080E-04
   28.1000004        -1.12761052E-04
   28.1499996        -1.05746905E-04
   28.2000008        -9.91105044E-05
   28.2500000        -9.28282243E-05
   28.2999992        -8.68790667E-05
   28.3500004        -8.12491999E-05
   28.3999996        -7.59254617E-05
   28.4500008        -7.08868101E-05
   28.5000000        -6.61067170E-05
   28.5499992        -6.15662138E-05
   28.6000004        -5.72627541E-05
   28.6499996        -5.32031518E-05
   28.7000008        -4.93867446E-05
   28.7500000        -4.57962997E-05
   28.7999992        -4.24054342E-05
   28.8500004        -3.91930698E-05
   28.8999996        -3.61491002E-05
   28.9500008        -3.32679447E-05
   29.0000000        -3.05412977E-05
   29.0499992        -2.79605556E-05
   29.1000004        -2.55244286E-05
   29.1499996        -2.32389211E-05
   29.2000008        -2.11058759E-05
   29.2500000        -1.91120143E-05
   29.2999992        -1.72322143E-05
   29.3500004        -1.54453464E-05
   29.3999996        -1.37463458E-05
   29.4500008        -1.21421745E-05
   29.5000000        -1.06375364E-05
   29.5499992        -9.22673371E-06
   29.6000004        -7.89921341E-06
   29.6499996        -6.64940126E-06
   29.7000008        -5.47751824E-06
   29.7500000        -4.38099505E-06
   29.7999992        -3.34900528E-06
   29.8500004        -2.36875030E-06
   29.8999996        -1.43656302E-06
   29.9500008        -5.59582816E-07
   30.0000000         2.55399527E-07
   30.0499992         1.01338492E-06
   30.1000004         1.72919931E-06
   30.1499996         2.41398493E-06
   30.2000008         3.06564061E-06
   30.2500000         3.67391226E-06
   30.2999992         4.23356187E-06
   30.3500004         4.75023626E-06
   30.3999996         5.23346580E-06
   30.4500008         5.68700989E-06
   30.5000000         6.10896359E-06
   30.5499992         6.50052198E-06
   30.6000004         6.87064039E-06
   30.6499996         7.22893174E-06
   30.7000008         7.57466432E-06
   30.7500000         7.89593469E-06
   30.7999992         8.18161698E-06
   30.8500004         8.43325506E-06
   30.8999996         8.66359369E-06
   30.9500008         8.88380418E-06
   31.0000000         9.09420578E-06
   31.0499992         9.28827558E-06
   31.1000004         9.46350519E-06
   31.1499996         9.62509966E-06
   31.2000008         9.77842956E-06
   31.2500000         9.92071455E-06
   31.2999992         1.00433099E-05
   31.3500004         1.01423720E-05
   31.3999996         1.02246368E-05
   31.4500008         1.03006714E-05
   31.5000000         1.03734201E-05
   31.5499992         1.04359342E-05
   31.6000004         1.04812134E-05
   31.6499996         1.05123063E-05
   31.7000008         1.05403406E-05
   31.7500000         1.05726522E-05
   31.7999992         1.06050647E-05
   31.8500004         1.06272655E-05
   31.8999996         1.06344896E-05
   31.9500008         1.06315856E-05
   32.0000000         1.06253401E-05
   32.0499992         1.06154012E-05
   32.0999985         1.05953413E-05
   32.1500015         1.05622103E-05
   32.2000008         1.05218560E-05
   32.2500000         1.04824803E-05
   32.2999992         1.04438213E-05
   32.3499985         1.03956763E-05
   32.4000015         1.03287066E-05
   32.4500008         1.02456061E-05
   32.5000000         1.01597270E-05
   32.5499992         1.00827174E-05
   32.5999985         1.00152911E-05
   32.6500015         9.95093251E-06
   32.7000008         9.88661668E-06
   32.7500000         9.82666825E-06
   32.7999992         9.77524905E-06
   32.8499985         9.72768521E-06
   32.9000015         9.67257711E-06
   32.9500008         9.60315174E-06
   33.0000000         9.52428036E-06
   33.0499992         9.44634030E-06
   33.0999985         9.37309596E-06
   33.1500015         9.29833004E-06
   33.2000008         9.21548326E-06
   33.2500000         9.12845735E-06
   33.2999992         9.04990884E-06
   33.3499985         8.98825601E-06
   33.4000015         8.93850392E-06
   33.4500008         8.88772138E-06
   33.5000000         8.82874610E-06
   33.5499992         8.76629747E-06
   33.5999985         8.70944223E-06
   33.6500015         8.66110076E-06
   33.7000008         8.61812168E-06
   33.7500000         8.58108524E-06
   33.7999992         8.55963390E-06
   33.8499985         8.56408951E-06
   33.9000015         8.59190823E-06
   33.9500008         8.62579145E-06
   34.0000000         8.64793128E-06
   34.0499992         8.65590573E-06
   34.0999985         8.66325627E-06
   34.1500015         8.68517327E-06
   34.2000008         8.72622422E-06
   34.2500000         8.78307856E-06
   34.2999992         8.85595455E-06
   34.3499985         8.95221910E-06
   34.4000015         9.07678077E-06
   34.4500008         9.22225081E-06
   34.5000000         9.37352615E-06
   34.5499992         9.52363553E-06
   34.5999985         9.68245786E-06
   34.6500015         9.86707437E-06
   34.7000008         1.00842326E-05
   34.7500000         1.03252614E-05
   34.7999992         1.05790350E-05
   34.8499985         1.08470249E-05
   34.9000015         1.11422978E-05
   34.9500008         1.14743589E-05
   35.0000000         1.18390662E-05
   35.0499992         1.22260517E-05
   35.0999985         1.26337673E-05
   35.1500015         1.30725639E-05
   35.2000008         1.35515929E-05
   35.2500000         1.40663542E-05
   35.2999992         1.46036527E-05
   35.3499985         1.51588847E-05
   35.4000015         1.57442519E-05
   35.4500008         1.63767345E-05
   35.5000000         1.70595449E-05
   35.5499992         1.77793809E-05
   35.5999985         1.85230219E-05
   35.6500015         1.92934313E-05