  -4.80000019         1.00000002E-24
  -4.75000000         1.00000002E-24
  -4.69999981         1.00000002E-24
  -4.65000010         1.00000002E-24
  -4.59999990         1.00000002E-24
  -4.55000019         1.00000002E-24
  -4.50000000         1.00000002E-24
  -4.44999981         9.99999724E-25
  -4.40000010         9.99995681E-25
  -4.34999990         9.99965211E-25
  -4.30000019         9.99807932E-25
  -4.25000000         9.99186605E-25
  -4.19999981         9.97157754E-25
  -4.15000010         9.91396801E-25
  -4.09999990         9.76621929E-25
  -4.05000019         9.41359946E-25
  -4.00000000         8.61307820E-25
  -3.95000005         6.86071195E-25
  -3.90000010         3.14201031E-25
  -3.84999990        -4.50005851E-25
  -3.79999995        -1.96387376E-24
  -3.75000000        -4.83897495E-24
  -3.70000005        -1.00491224E-23
  -3.65000010        -1.90260329E-23
  -3.59999990        -3.36913941E-23
  -3.54999995        -5.63476150E-23
  -3.50000000        -8.93255097E-23
  -3.45000005        -1.34277556E-22
  -3.40000010        -1.91028449E-22
  -3.34999990        -2.55960398E-22
  -3.29999995        -3.19982027E-22
  -3.25000000        -3.66137054E-22
  -3.20000005        -3.66913217E-22
  -3.15000010        -2.81661486E-22
  -3.09999990        -5.55026061E-23
  -3.04999995         3.78210210E-22
  -3.00000000         1.09168838E-21
  -2.95000005         2.15758774E-21
  -2.90000010         3.65162516E-21
  -2.84999990         5.65741617E-21
  -2.79999995         8.24413920E-21
  -2.75000000         1.13851419E-20
  -2.70000005         1.48458418E-20
  -2.65000010         1.81656294E-20
  -2.59999990         2.08495510E-20
  -2.54999995         2.26361464E-20
  -2.50000000         2.33636970E-20
  -2.45000005         2.20388913E-20
  -2.40000010         1.56280946E-20
  -2.34999990        -7.27581029E-22
  -2.29999995        -3.06108105E-20
  -2.25000000        -7.17300331E-20
  -2.20000005        -1.14934045E-19
  -2.15000010        -1.51702055E-19
  -2.09999990        -1.87341610E-19
  -2.04999995        -2.46436155E-19
  -2.00000000        -3.55680736E-19
  -1.95000005        -5.06637785E-19
  -1.89999998        -6.28810863E-19
  -1.85000002        -6.13964728E-19
  -1.79999995        -4.00922500E-19
  -1.75000000        -6.64845448E-20
  -1.70000005         1.73776817E-19
  -1.64999998         1.12546310E-19
  -1.60000002        -2.17684753E-19
  -1.54999995        -4.12930294E-19
  -1.50000000         1.47755176E-19
  -1.45000005         1.84842834E-18
  -1.39999998         4.33867564E-18
  -1.35000002         6.41845502E-18
  -1.29999995         6.61473051E-18
  -1.25000000         4.31716150E-18
  -1.20000005         7.75368139E-19
  -1.14999998        -1.02008534E-18
  -1.10000002         1.86148498E-18
  -1.04999995         9.42095438E-18
  -1.00000000         1.67887009E-17
 -0.949999988         1.56715521E-17
 -0.899999976         1.23807030E-19
 -0.850000024        -2.58583872E-17
 -0.800000012        -4.48883489E-17
 -0.750000000        -3.32072021E-17
 -0.699999988         2.06482181E-17
 -0.649999976         9.40569671E-17
 -0.600000024         1.22870758E-16
 -0.550000012         2.59945048E-17
 -0.500000000        -2.34640355E-16
 -0.449999988        -5.82195550E-16
 -0.400000006        -7.91341431E-16
 -0.349999994        -5.49356029E-16
 -0.300000012         3.64065481E-16
 -0.250000000         1.82660643E-15
 -0.200000003         3.18721092E-15
 -0.150000006         3.32656943E-15
 -0.100000001         1.09920556E-15
  -5.00000007E-02    -3.87819795E-15
   8.88178420E-16    -1.03830400E-14
   5.00000007E-02    -1.52049851E-14
  0.100000001        -1.37816894E-14
  0.150000006        -2.12616196E-15
  0.200000003         2.02928393E-14
  0.250000000         4.78243442E-14
  0.300000012         6.77399895E-14
  0.349999994         6.27959124E-14
  0.400000006         1.79073946E-14
  0.449999988        -7.02487249E-14
  0.500000000        -1.84075249E-13
  0.550000012        -2.81298991E-13
  0.600000024        -3.01493476E-13
  0.649999976        -1.85266990E-13
  0.699999988         9.62931313E-14
  0.750000000         5.10231560E-13
  0.800000012         9.41542851E-13
  0.850000024         1.19859927E-12
  0.899999976         1.05437631E-12
  0.949999988         3.23727021E-13
   1.00000000        -1.03662998E-12
   1.04999995        -2.83181898E-12
   1.10000002        -4.56993991E-12
   1.14999998        -5.47150129E-12
   1.20000005        -4.56331240E-12
   1.25000000        -8.48872459E-13
   1.29999995         6.47962023E-12
   1.35000002         1.78431835E-11
   1.39999998         3.31530914E-11
   1.45000005         5.18102436E-11
   1.50000000         7.28419061E-11
   1.54999995         9.51488541E-11
   1.60000002         1.17797772E-10
   1.64999998         1.40272655E-10
   1.70000005         1.62604666E-10
   1.75000000         1.85333138E-10
   1.79999995         2.09301548E-10
   1.85000002         2.35345798E-10
   1.89999998         2.63968680E-10
   1.95000005         2.95101027E-10
   2.00000000         3.28024996E-10
   2.04999995         3.61481789E-10
   2.09999990         3.93930277E-10
   2.15000010         4.23877600E-10
   2.20000005         4.50186138E-10
   2.25000000         4.72279771E-10
   2.29999995         4.90210927E-10
   2.34999990         5.04599029E-10
   2.40000010         5.16485743E-10
   2.45000005         5.27162480E-10
   2.50000000         5.38013856E-10
   2.54999995         5.50387902E-10
   2.59999990         5.65481661E-10
   2.65000010         5.84217619E-10
   2.70000005         6.07102035E-10
   2.75000000         6.34084452E-10
   2.79999995         6.64466815E-10
   2.84999990         6.96919633E-10
   2.90000010         7.29645400E-10
   2.95000005         7.60683905E-10
   3.00000000         7.88296317E-10
   3.04999995         8.11326062E-10
   3.09999990         8.29423474E-10
   3.15000010         8.43055070E-10
   3.20000005         8.53284055E-10
   3.25000000         8.61386185E-10
   3.29999995         8.68421557E-10
   3.34999990         8.74897488E-10
   3.40000010         8.80629125E-10
   3.45000005         8.84831097E-10
   3.50000000         8.86395179E-10
   3.54999995         8.84244400E-10
   3.59999990         8.77632078E-10
   3.65000010         8.66278493E-10
   3.70000005         8.50299609E-10
   3.75000000         8.29957270E-10
   3.79999995         8.05321088E-10
   3.84999990         7.75962350E-10
   3.90000010         7.40785489E-10
   3.95000005         6.98053171E-10
   4.00000000         6.45597353E-10
   4.05000019         5.81147241E-10
   4.09999990         5.02670461E-10
   4.15000010         4.08625161E-10
   4.19999981         2.98053637E-10
   4.25000000         1.70504028E-10
   4.30000019         2.58220546E-11
   4.34999990        -1.36107139E-10
   4.40000010        -3.15580340E-10
   4.44999981        -5.13200926E-10
   4.50000000        -7.29895422E-10
   4.55000019        -9.66862368E-10
   4.59999990        -1.22552501E-09
   4.65000010        -1.50756052E-09
   4.69999981        -1.81503901E-09
   4.75000000        -2.15065366E-09
   4.80000019        -2.51796894E-09
   4.84999990        -2.92158675E-09
   4.90000010        -3.36714856E-09
   4.94999981        -3.86113941E-09
   5.00000000        -4.41052705E-09
   5.05000019        -5.02232300E-09
   5.09999990        -5.70316816E-09
   5.15000010        -6.45903242E-09
   5.19999981        -7.29506899E-09
   5.25000000        -8.21561397E-09
   5.30000019        -9.22430665E-09
   5.34999990        -1.03243041E-08
   5.40000010        -1.15186127E-08
   5.44999981        -1.28105624E-08
   5.50000000        -1.42044874E-08
   5.55000019        -1.57065738E-08
   5.59999990        -1.73258297E-08
   5.65000010        -1.90750011E-08
   5.69999981        -2.09712958E-08
   5.75000000        -2.30367352E-08
   5.80000019        -2.52981511E-08
   5.84999990        -2.77868342E-08
   5.90000010        -3.05380361E-08
   5.94999981        -3.35904460E-08
   6.00000000        -3.69857247E-08
   6.05000019        -4.07681142E-08
   6.09999990        -4.49839526E-08
   6.15000010        -4.96810166E-08
   6.19999981        -5.49075878E-08
   6.25000000        -6.07113719E-08
   6.30000019        -6.71384939E-08
   6.34999990        -7.42328297E-08
   6.40000010        -8.20359887E-08
   6.44999981        -9.05880668E-08
   6.50000000        -9.99289895E-08
   6.55000019        -1.10100295E-07
   6.59999990        -1.21147053E-07
   6.65000010        -1.33119585E-07
   6.69999981        -1.46074882E-07
   6.75000000        -1.60077946E-07
   6.80000019        -1.75203041E-07
   6.84999990        -1.91535094E-07
   6.90000010        -2.09171191E-07
   6.94999981        -2.28222120E-07
   7.00000000        -2.48813677E-07
   7.05000019        -2.71087316E-07
   7.09999990        -2.95200692E-07
   7.15000010        -3.21326866E-07
   7.19999981        -3.49653988E-07
   7.25000000        -3.80384449E-07
   7.30000019        -4.13734341E-07
   7.34999990        -4.49933566E-07
   7.40000010        -4.89226352E-07
   7.44999981        -5.31871876E-07
   7.50000000        -5.78145887E-07
   7.55000019        -6.28342320E-07
   7.59999990        -6.82775010E-07
   7.65000010        -7.41780298E-07
   7.69999981        -8.05719765E-07
   7.75000000        -8.74983584E-07
   7.80000019        -9.49993535E-07
   7.84999990        -1.03120612E-06
   7.90000010        -1.11911595E-06
   7.94999981        -1.21425762E-06
   8.00000000        -1.31720878E-06
   8.05000019        -1.42859244E-06
   8.10000038        -1.54907877E-06
   8.14999962        -1.67938822E-06
   8.19999981        -1.82029362E-06
   8.25000000        -1.97262352E-06
   8.30000019        -2.13726480E-06
   8.35000038        -2.31516651E-06
   8.39999962        -2.50734206E-06
   8.44999981        -2.71487488E-06
   8.50000000        -2.93892140E-06
   8.55000019        -3.18071739E-06
   8.60000038        -3.44158434E-06
   8.64999962        -3.72293380E-06
   8.69999981        -4.02627757E-06
   8.75000000        -4.35323136E-06
   8.80000019        -4.70552277E-06
   8.85000038        -5.08499897E-06
   8.89999962        -5.49363267E-06
   8.94999981        -5.93353025E-06
   9.00000000        -6.40693952E-06
   9.05000019        -6.91625610E-06
   9.10000038        -7.46403612E-06
   9.14999962        -8.05299715E-06
   9.19999981        -8.68603729E-06
   9.25000000        -9.36623746E-06
   9.30000019        -1.00968718E-05
   9.35000038        -1.08814247E-05
   9.39999962        -1.17235986E-05
   9.44999981        -1.26273280E-05
   9.50000000        -1.35967903E-05
   9.55000019        -1.46364246E-05
   9.60000038        -1.57509439E-05
   9.64999962        -1.69453469E-05
   9.69999981        -1.82249423E-05
   9.75000000        -1.95953598E-05
   9.80000019        -2.10625640E-05
   9.85000038        -2.26328812E-05
   9.89999962        -2.43130125E-05
   9.94999981        -2.61100504E-05
   10.0000000        -2.80315053E-05
   10.0500002        -3.00853135E-05
   10.1000004        -3.22798624E-05
   10.1499996        -3.46240304E-05
   10.1999998        -3.71271744E-05
   10.2500000        -3.97991826E-05
   10.3000002        -4.26504957E-05
   10.3500004        -4.56921334E-05
   10.3999996        -4.89357080E-05
   10.4499998        -5.23934723E-05
   10.5000000        -5.60783337E-05
   10.5500002        -6.00039020E-05
   10.6000004        -6.41845036E-05
   10.6499996        -6.86351996E-05
   10.6999998        -7.33718771E-05
   10.7500000        -7.84112417E-05
   10.8000002        -8.37708430E-05
   10.8500004        -8.94691329E-05
   10.8999996        -9.55255091E-05
   10.9499998        -1.01960315E-04
   11.0000000        -1.08794920E-04
   11.0500002        -1.16051706E-04
   11.1000004        -1.23754187E-04
   11.1499996        -1.31926965E-04
   11.1999998        -1.40595832E-04
   11.2500000        -1.49787826E-04
   11.3000002        -1.59531191E-04
   11.3500004        -1.69855513E-04
   11.3999996        -1.80791758E-04
   11.4499998        -1.92372274E-04
   11.5000000        -2.04630880E-04
   11.5500002        -2.17602879E-04
   11.6000004        -2.31325161E-04
   11.6499996        -2.45836185E-04
   11.6999998        -2.61176116E-04
   11.7500000        -2.77386775E-04
   11.8000002        -2.94511818E-04
   11.8500004        -3.12596647E-04
   11.8999996        -3.31688585E-04
   11.9499998        -3.51836876E-04
   12.0000000        -3.73092742E-04
   12.0500002        -3.95509414E-04
   12.1000004        -4.19142190E-04
   12.1499996        -4.44048550E-04
   12.1999998        -4.70288156E-04
   12.2500000        -4.97922942E-04
   12.3000002        -5.27017110E-04
   12.3500004        -5.57637191E-04
   12.3999996        -5.89852280E-04
   12.4499998        -6.23733737E-04
   12.5000000        -6.59355428E-04
   12.5500002        -6.96794013E-04
   12.6000004        -7.36128597E-04
   12.6499996        -7.77440844E-04
   12.6999998        -8.20815389E-04
   12.7500000        -8.66339309E-04
   12.8000002        -9.14102653E-04
   12.8500004        -9.64198378E-04
   12.8999996        -1.01672206E-03
   12.9499998        -1.07177207E-03
   13.0000000        -1.12945016E-03
   13.0500002        -1.18986063E-03
   13.1000004        -1.25311094E-03
   13.1499996        -1.31931121E-03
   13.1999998        -1.38857518E-03
   13.2500000        -1.46101927E-03
   13.3000002        -1.53676292E-03
   13.3500004        -1.61592860E-03
   13.3999996        -1.69864215E-03
   13.4499998        -1.78503187E-03
   13.5000000        -1.87522953E-03
   13.5500002        -1.96936983E-03
   13.6000004        -2.06759013E-03
   13.6499996        -2.17003119E-03
   13.6999998        -2.27683666E-03
   13.7500000        -2.38815299E-03
   13.8000002        -2.50412920E-03
   13.8500004        -2.62491801E-03
   13.8999996        -2.75067333E-03
   13.9499998        -2.88155326E-03
   14.0000000        -3.01771774E-03
   14.0500002        -3.15932976E-03
   14.1000004        -3.30655416E-03
   14.1499996        -3.45955859E-03
   14.1999998        -3.61851277E-03
   14.2500000        -3.78358830E-03
   14.3000002        -3.95495957E-03
   14.3500004        -4.13280167E-03
   14.3999996        -4.31729108E-03
   14.4499998        -4.50860756E-03
   14.5000000        -4.70693130E-03
   14.5500002        -4.91244439E-03
   14.6000004        -5.12532936E-03
   14.6499996        -5.34577016E-03
   14.6999998        -5.57395071E-03
   14.7500000        -5.81005542E-03
   14.8000002        -6.05427008E-03
   14.8500004        -6.30677911E-03
   14.8999996        -6.56776736E-03
   14.9499998        -6.83742017E-03
   15.0000000        -7.11592101E-03
   15.0500002        -7.40345335E-03
   15.1000004        -7.70019880E-03
   15.1499996        -8.00633710E-03
   15.1999998        -8.32204707E-03
   15.2500000        -8.64750519E-03
   15.3000002        -8.98288470E-03
   15.3500004        -9.32835694E-03
   15.3999996        -9.68408957E-03
   15.4499998        -1.00502484E-02
   15.5000000        -1.04269963E-02
   15.5500002        -1.08144870E-02
   15.6000004        -1.12128770E-02
   15.6499996        -1.16223106E-02
   15.6999998        -1.20429331E-02
   15.7500000        -1.24748806E-02
   15.8000002        -1.29182870E-02
   15.8500004        -1.33732753E-02
   15.8999996        -1.38399657E-02
   15.9499998        -1.43184690E-02
   16.0000000        -1.48088895E-02
   16.0499992        -1.53113250E-02
   16.1000004        -1.58258639E-02
   16.1499996        -1.63525864E-02
   16.2000008        -1.68915633E-02
   16.2500000        -1.74428541E-02
   16.2999992        -1.80065148E-02
   16.3500004        -1.85825825E-02
   16.3999996        -1.91710945E-02
   16.4500008        -1.97720677E-02
   16.5000000        -2.03855094E-02
   16.5499992        -2.10114233E-02
   16.6000004        -2.16497909E-02
   16.6499996        -2.23005898E-02
   16.7000008        -2.29637772E-02
   16.7500000        -2.36393027E-02
   16.7999992        -2.43271012E-02
   16.8500004        -2.50270944E-02
   16.8999996        -2.57391892E-02
   16.9500008        -2.64632814E-02
   17.0000000        -2.71992460E-02
   17.0499992        -2.79469509E-02
   17.1000004        -2.87062433E-02
   17.1499996        -2.94769537E-02
   17.2000008        -3.02589033E-02
   17.2500000        -3.10518946E-02
   17.2999992        -3.18557136E-02
   17.3500004        -3.26701403E-02
   17.3999996        -3.34949233E-02
   17.4500008        -3.43298130E-02
   17.5000000        -3.51745300E-02
   17.5499992        -3.60287726E-02
   17.6000004        -3.68922390E-02
   17.6499996        -3.77646051E-02
   17.7000008        -3.86455245E-02
   17.7500000        -3.95346396E-02
   17.7999992        -4.04315889E-02
   17.8500004        -4.13359739E-02
   17.8999996        -4.22473922E-02
   17.9500008        -4.31654230E-02
   18.0000000        -4.40896302E-02
   18.0499992        -4.50195596E-02
   18.1000004        -4.59547490E-02
   18.1499996        -4.68947105E-02
   18.2000008        -4.78389598E-02
   18.2500000        -4.87869829E-02
   18.2999992        -4.97382581E-02
   18.3500004        -5.06922565E-02
   18.3999996        -5.16484156E-02
   18.4500008        -5.26061803E-02
   18.5000000        -5.35649732E-02
   18.5499992        -5.45242094E-02
   18.6000004        -5.54832928E-02
   18.6499996        -5.64416163E-02
   18.7000008        -5.73985614E-02
   18.7500000        -5.83535060E-02
   18.7999992        -5.93058206E-02
   18.8500004        -6.02548607E-02
   18.8999996        -6.11999705E-02
   18.9500008        -6.21404983E-02
   19.0000000        -6.30757734E-02
   19.0499992        -6.40051216E-02
   19.1000004        -6.49278834E-02
   19.1499996        -6.58433810E-02
   19.2000008        -6.67509437E-02
   19.2500000        -6.76498860E-02
   19.2999992        -6.85395449E-02
   19.3500004        -6.94192126E-02
   19.3999996        -7.02882335E-02
   19.4500008        -7.11459070E-02
   19.5000000        -7.19915554E-02
   19.5499992        -7.28245080E-02
   19.6000004        -7.36441016E-02
   19.6499996        -7.44496584E-02
   19.7000008        -7.52405226E-02
   19.7500000        -7.60160387E-02
   19.7999992        -7.67755732E-02
   19.8500004        -7.75184780E-02
   19.8999996        -7.82441348E-02
   19.9500008        -7.89519325E-02
   20.0000000        -7.96412602E-02
   20.0499992        -8.03115144E-02
   20.1000004        -8.09621364E-02
   20.1499996        -8.15925375E-02
   20.2000008        -8.22021887E-02
   20.2500000        -8.27905163E-02
   20.2999992        -8.33570212E-02
   20.3500004        -8.39012042E-02
   20.3999996        -8.44225660E-02
   20.4500008        -8.49206448E-02
   20.5000000        -8.53949934E-02
   20.5499992        -8.58451724E-02
   20.6000004        -8.62707794E-02
   20.6499996        -8.66714120E-02
   20.7000008        -8.70467126E-02
   20.7500000        -8.73963386E-02
   20.7999992        -8.77199769E-02
   20.8500004        -8.80173296E-02
   20.8999996        -8.82881135E-02
   20.9500008        -8.85320902E-02
   21.0000000        -8.87490213E-02
   21.0499992        -8.89386982E-02
   21.1000004        -8.91009420E-02
   21.1499996        -8.92355964E-02
   21.2000008        -8.93425494E-02
   21.2500000        -8.94216970E-02
   21.2999992        -8.94729719E-02
   21.3500004        -8.94963071E-02
   21.3999996        -8.94917026E-02
   21.4500008        -8.94591510E-02
   21.5000000        -8.93986747E-02
   21.5499992        -8.93103406E-02
   21.6000004        -8.91942158E-02
   21.6499996        -8.90504271E-02
   21.7000008        -8.88791084E-02
   21.7500000        -8.86804163E-02
   21.7999992        -8.84545296E-02
   21.8500004        -8.82016867E-02
   21.8999996        -8.79221037E-02
   21.9500008        -8.76160413E-02
   22.0000000        -8.72837827E-02
   22.0499992        -8.69256109E-02
   22.1000004        -8.65418762E-02
   22.1499996        -8.61329213E-02
   22.2000008        -8.56991112E-02
   22.2500000        -8.52408558E-02
   22.2999992        -8.47585723E-02
   22.3500004        -8.42526928E-02
   22.3999996        -8.37236941E-02
   22.4500008        -8.31720307E-02
   22.5000000        -8.25981870E-02
   22.5499992        -8.20026696E-02
   22.6000004        -8.13859999E-02
   22.6499996        -8.07487369E-02
   22.7000008        -8.00914168E-02
   22.7500000        -7.94146284E-02
   22.7999992        -7.87189677E-02
   22.8500004        -7.80050382E-02
   22.8999996        -7.72734433E-02
   22.9500008        -7.65247867E-02
   23.0000000        -7.57597163E-02
   23.0499992        -7.49788508E-02
   23.1000004        -7.41828308E-02
   23.1499996        -7.33723193E-02
   23.2000008        -7.25479871E-02
   23.2500000        -7.17105195E-02
   23.2999992        -7.08605722E-02
   23.3500004        -6.99988231E-02
   23.3999996        -6.91259578E-02
   23.4500008        -6.82426542E-02
   23.5000000        -6.73495680E-02
   23.5499992        -6.64473847E-02
   23.6000004        -6.55367747E-02
   23.6499996        -6.46184459E-02
   23.7000008        -6.36930615E-02
   23.7500000        -6.27613142E-02
   23.7999992        -6.18238598E-02
   23.8500004        -6.08813688E-02
   23.8999996        -5.99344894E-02
   23.9500008        -5.89838810E-02
   24.0000000        -5.80301993E-02
   24.0499992        -5.70740812E-02
   24.1000004        -5.61161637E-02
   24.1499996        -5.51570766E-02
   24.2000008        -5.41974306E-02
   24.2500000        -5.32378331E-02
   24.2999992        -5.22788689E-02
   24.3500004        -5.13211153E-02
   24.3999996        -5.03651500E-02
   24.4500008        -4.94115278E-02
   24.5000000        -4.84608039E-02
   24.5499992        -4.75135036E-02
   24.6000004        -4.65701409E-02
   24.6499996        -4.56312187E-02
   24.7000008        -4.46972214E-02
   24.7500000        -4.37686257E-02
   24.7999992        -4.28459011E-02
   24.8500004        -4.19294983E-02
   24.8999996        -4.10198569E-02
   24.9500008        -4.01174016E-02
   25.0000000        -3.92225273E-02
   25.0499992        -3.83356027E-02
   25.1000004        -3.74569856E-02
   25.1499996        -3.65870185E-02
   25.2000008        -3.57260406E-02
   25.2500000        -3.48743722E-02
   25.2999992        -3.40323336E-02
   25.3500004        -3.32002267E-02
   25.3999996        -3.23783234E-02
   25.4500008        -3.15668881E-02
   25.5000000        -3.07661500E-02
   25.5499992        -2.99763232E-02
   25.6000004        -2.91976016E-02
   25.6499996        -2.84301639E-02
   25.7000008        -2.76741926E-02
   25.7500000        -2.69298535E-02
   25.7999992        -2.61973068E-02
   25.8500004        -2.54766848E-02
   25.8999996        -2.47681085E-02
   25.9500008        -2.40716748E-02
   26.0000000        -2.33874731E-02
   26.0499992        -2.27155741E-02
   26.1000004        -2.20560338E-02
   26.1499996        -2.14088932E-02
   26.2000008        -2.07741894E-02
   26.2500000        -2.01519523E-02
   26.2999992        -1.95422005E-02
   26.3500004        -1.89449377E-02
   26.3999996        -1.83601473E-02
   26.4500008        -1.77878048E-02
   26.5000000        -1.72278769E-02
   26.5499992        -1.66803207E-02
   26.6000004        -1.61450729E-02
   26.6499996        -1.56220607E-02
   26.7000008        -1.51112042E-02
   26.7500000        -1.46124214E-02
   26.7999992        -1.41256284E-02
   26.8500004        -1.36507340E-02
   26.8999996        -1.31876320E-02
   26.9500008        -1.27362097E-02
   27.0000000        -1.22963469E-02
   27.0499992        -1.18679181E-02
   27.1000004        -1.14507852E-02
   27.1499996        -1.10448003E-02
   27.2000008        -1.06498133E-02
   27.2500000        -1.02656735E-02
   27.2999992        -9.89223085E-03
   27.3500004        -9.52933729E-03
   27.3999996        -9.17682983E-03
   27.4500008        -8.83454271E-03
   27.5000000        -8.50230455E-03
   27.5499992        -8.17994587E-03
   27.6000004        -7.86729064E-03
   27.6499996        -7.56416237E-03
   27.7000008        -7.27037666E-03
   27.7500000        -6.98575564E-03
   27.7999992        -6.71012141E-03
   27.8500004        -6.44329702E-03
   27.8999996        -6.18510041E-03
   27.9500008        -5.93534252E-03
   28.0000000        -5.69383241E-03
   28.0499992        -5.46038151E-03
   28.1000004        -5.23480121E-03
   28.1499996        -5.01690386E-03
   28.2000008        -4.80650086E-03
   28.2500000        -4.60340502E-03
   28.2999992        -4.40743566E-03
   28.3500004        -4.21841908E-03
   28.3999996        -4.03618300E-03
   28.4500008        -3.86055163E-03
   28.5000000        -3.69134755E-03
   28.5499992        -3.52839194E-03
   28.6000004        -3.37150809E-03
   28.6499996        -3.22051975E-03
   28.7000008        -3.07525229E-03
   28.7500000        -2.93553458E-03
   28.7999992        -2.80120224E-03
   28.8500004        -2.67209951E-03
   28.8999996        -2.54807435E-03
   28.9500008        -2.42897356E-03
   29.0000000        -2.31463974E-03
   29.0499992        -2.20491341E-03
   29.1000004        -2.09963671E-03
   29.1499996        -1.99865992E-03
   29.2000008        -1.90184137E-03
   29.2500000        -1.80904800E-03
   29.2999992        -1.72015338E-03
   29.3500004        -1.63503573E-03
   29.3999996        -1.55357353E-03
   29.4500008        -1.47564127E-03
   29.5000000        -1.40110683E-03
   29.5499992        -1.32983399E-03
   29.6000004        -1.26168889E-03
   29.6499996        -1.19654741E-03
   29.7000008        -1.13429688E-03
   29.7500000        -1.07483426E-03
   29.7999992        -1.01806002E-03
   29.8500004        -9.63874394E-04
   29.8999996        -9.12176503E-04
   29.9500008        -8.62865127E-04
   30.0000000        -8.15840089E-04
   30.0499992        -7.71003368E-04
   30.1000004        -7.28261832E-04
   30.1499996        -6.87530497E-04
   30.2000008        -6.48733752E-04
   30.2500000        -6.11801050E-04
   30.2999992        -5.76660852E-04
   30.3500004        -5.43236441E-04
   30.3999996        -5.11448306E-04
   30.4500008        -4.81218798E-04
   30.5000000        -4.52475768E-04
   30.5499992        -4.25151462E-04
   30.6000004        -3.99179902E-04
   30.6499996        -3.74496361E-04
   30.7000008        -3.51039926E-04
   30.7500000        -3.28754715E-04
   30.7999992        -3.07587819E-04
   30.8500004        -2.87486444E-04
   30.8999996        -2.68398260E-04
   30.9500008        -2.50275101E-04
   31.0000000        -2.33074985E-04
   31.0499992        -2.16758708E-04
   31.1000004        -2.01283416E-04
   31.1499996        -1.86600140E-04
   31.2000008        -1.72658139E-04
   31.2500000        -1.59412011E-04
   31.2999992        -1.46823877E-04
   31.3500004        -1.34860195E-04
   31.3999996        -1.23487625E-04
   31.4500008        -1.12673319E-04
   31.5000000        -1.02387319E-04
   31.5499992        -9.26024513E-05
   31.6000004        -8.32901787E-05
   31.6499996        -7.44180070E-05
   31.7000008        -6.59531142E-05
   31.7500000        -5.78695544E-05
   31.7999992        -5.01511677E-05
   31.8500004        -4.27861196E-05
   31.8999996        -3.57582976E-05
   31.9500008        -2.90440257E-05
   32.0000000        -2.26159718E-05
   32.0499992        -1.64482844E-05
   32.0999985        -1.05171130E-05
   32.1500015        -4.79810979E-06
   32.2000008         7.32975707E-07
   32.2500000         6.09504696E-06
   32.2999992         1.12976259E-05
   32.3499985         1.63440563E-05
   32.4000015         2.12399063E-05
   32.4500008         2.59981862E-05
   32.5000000         3.06366455E-05
   32.5499992         3.51715462E-05
   32.5999985         3.96157557E-05
   32.6500015         4.39825781E-05
   32.7000008         4.82889263E-05
   32.7500000         5.25524738E-05
   32.7999992         5.67855386E-05
   32.8499985         6.09933741E-05
   32.9000015         6.51793671E-05
   32.9500008         6.93514303E-05
   33.0000000         7.35224530E-05
   33.0499992         7.77055684E-05
   33.0999985         8.19105771E-05
   33.1500015         8.61458539E-05
   33.2000008         9.04217522E-05
   33.2500000         9.47493390E-05
   33.2999992         9.91348134E-05
   33.3499985         1.03576487E-04
   33.4000015         1.08069369E-04
   33.4500008         1.12613765E-04
   33.5000000         1.17219621E-04
   33.5499992         1.21903082E-04
   33.5999985         1.26679995E-04
   33.6500015         1.31562716E-04
   33.7000008         1.36560659E-04
   33.7500000         1.41680517E-04
   33.7999992         1.46923834E-04
   33.8499985         1.52285749E-04
   33.9000015         1.57759365E-04
   33.9500008         1.63343633E-04
   34.0000000         1.69047838E-04
   34.0499992         1.74887886E-04
   34.0999985         1.80877963E-04
   34.1500015         1.87024765E-04
   34.2000008         1.93327767E-04
   34.2500000         1.99782837E-04
   34.2999992         2.06384953E-04
   34.3499985         2.13129912E-04
   34.4000015         2.20017158E-04
   34.4500008         2.27053606E-04
   34.5000000         2.34254330E-04
   34.5499992         2.41637652E-04
   34.5999985         2.49217002E-04
   34.6500015         2.56995729E-04
   34.7000008         2.64968374E-04
   34.7500000         2.73126090E-04
   34.7999992         2.81461282E-04
   34.8499985         2.89970136E-04
   34.9000015         2.98653322E-04
   34.9500008         3.07516457E-04
   35.0000000         3.16568883E-04
   35.0499992         3.25820060E-04
   35.0999985         3.35274934E-04
   35.1500015         3.44932516E-04
   35.2000008         3.54787888E-04
   35.2500000         3.64836334E-04
   35.2999992         3.75075353E-04
   35.3499985         3.85504507E-04
   35.4000015         3.96124349E-04
   35.4500008         4.06935957E-04
   35.5000000         4.17940406E-04
   35.5499992         4.29137406E-04
   35.5999985         4.40524222E-04
   35.6500015         4.52096428E-04