  -4.80000019         1.00000002E-24
  -4.75000000         1.00000002E-24
  -4.69999981         1.00000002E-24
  -4.65000010         1.00000002E-24
  -4.59999990         1.00000002E-24
  -4.55000019         1.00000002E-24
  -4.50000000         1.00000002E-24
  -4.44999981         1.00000002E-24
  -4.40000010         1.00000446E-24
  -4.34999990         1.00004922E-24
  -4.30000019         1.00026626E-24
  -4.25000000         1.00090356E-24
  -4.19999981         1.00204711E-24
  -4.15000010         1.00289445E-24
  -4.09999990         1.00141750E-24
  -4.05000019         9.96915573E-25
  -4.00000000         9.97943459E-25
  -3.95000005         1.03266744E-24
  -3.90000010         1.14773395E-24
  -3.84999990         1.37526687E-24
  -3.79999995         1.66460813E-24
  -3.75000000         1.82659402E-24
  -3.70000005         1.59891239E-24
  -3.65000010         9.40497129E-25
  -3.59999990         5.19564697E-25
  -3.54999995         2.06672327E-24
  -3.50000000         7.97462013E-24
  -3.45000005         1.95532365E-23
  -3.40000010         3.40198664E-23
  -3.34999990         4.16594415E-23
  -3.29999995         2.60995104E-23
  -3.25000000        -2.88861962E-23
  -3.20000005        -1.24661114E-22
  -3.15000010        -2.29022073E-22
  -3.09999990        -2.64882276E-22
  -3.04999995        -1.23405311E-22
  -3.00000000         2.83449007E-22
  -2.95000005         9.31305405E-22
  -2.90000010         1.58177158E-21
  -2.84999990         1.73304133E-21
  -2.79999995         7.03235141E-22
  -2.75000000        -2.09269182E-21
  -2.70000005        -6.68450833E-21
  -2.65000010        -1.20368560E-20
  -2.59999990        -1.57411453E-20
  -2.54999995        -1.42227325E-20
  -2.50000000        -3.70362768E-21
  -2.45000005         1.80818305E-20
  -2.40000010         4.97962761E-20
  -2.34999990         8.47942329E-20
  -2.29999995         1.10766321E-19
  -2.25000000         1.11542501E-19
  -2.20000005         7.12807383E-20
  -2.15000010        -1.96349154E-20
  -2.09999990        -1.58584172E-19
  -2.04999995        -3.26720393E-19
  -2.00000000        -4.88943306E-19
  -1.95000005        -5.98774487E-19
  -1.89999998        -6.07531331E-19
  -1.85000002        -4.75684015E-19
  -1.79999995        -1.83465674E-19
  -1.75000000         2.61896394E-19
  -1.70000005         8.23630302E-19
  -1.64999998         1.43713987E-18
  -1.60000002         2.01443274E-18
  -1.54999995         2.44985999E-18
  -1.50000000         2.62731298E-18
  -1.45000005         2.43108113E-18
  -1.39999998         1.76358298E-18
  -1.35000002         5.71739123E-19
  -1.29999995        -1.12059667E-18
  -1.25000000        -3.18267956E-18
  -1.20000005        -5.36270125E-18
  -1.14999998        -7.30299317E-18
  -1.10000002        -8.59193743E-18
  -1.04999995        -8.84780425E-18
  -1.00000000        -7.81563752E-18
 -0.949999988        -5.44838930E-18
 -0.899999976        -1.94333801E-18
 -0.850000024         2.28325837E-18
 -0.800000012         6.67938997E-18
 -0.750000000         1.06726309E-17
 -0.699999988         1.37788305E-17
 -0.649999976         1.56686967E-17
 -0.600000024         1.61764102E-17
 -0.550000012         1.52625179E-17
 -0.500000000         1.29660594E-17
 -0.449999988         9.38553037E-18
 -0.400000006         4.70944735E-18
 -0.349999994        -7.17971782E-19
 -0.300000012        -6.34476316E-18
 -0.250000000        -1.14340978E-17
 -0.200000003        -1.52012454E-17
 -0.150000006        -1.70502984E-17
 -0.100000001        -1.68334084E-17
  -5.00000007E-02    -1.50147079E-17
   8.88178420E-16    -1.26309330E-17
   5.00000007E-02    -1.10078177E-17
  0.100000001        -1.12950719E-17
  0.150000006        -1.39787353E-17
  0.200000003        -1.85692833E-17
  0.250000000        -2.36174871E-17
  0.300000012        -2.70867108E-17
  0.349999994        -2.69584547E-17
  0.400000006        -2.18380248E-17
  0.449999988        -1.13181882E-17
  0.500000000         4.03375412E-18
  0.550000012         2.30175430E-17
  0.600000024         4.42517441E-17
  0.649999976         6.64508134E-17
  0.699999988         8.83300516E-17
  0.750000000         1.08157220E-16
  0.800000012         1.23215898E-16
  0.850000024         1.29589397E-16
  0.899999976         1.22615378E-16
  0.949999988         9.80915835E-17
   1.00000000         5.39329866E-17
   1.04999995        -8.33288183E-18
   1.10000002        -8.29177824E-17
   1.14999998        -1.60411179E-16
   1.20000005        -2.29650140E-16
   1.25000000        -2.80230607E-16
   1.29999995        -3.04750517E-16
   1.35000002        -2.99953690E-16
   1.39999998        -2.66421667E-16
   1.45000005        -2.07141722E-16
   1.50000000        -1.25835837E-16
   1.54999995        -2.60652006E-17
   1.60000002         8.82834846E-17
   1.64999998         2.11321340E-16
   1.70000005         3.33284727E-16
   1.75000000         4.39837819E-16
   1.79999995         5.13597157E-16
   1.85000002         5.37959413E-16
   1.89999998         5.02112184E-16
   1.95000005         4.05257170E-16
   2.00000000         2.58071907E-16
   2.04999995         8.04092877E-17
   2.09999990        -1.04167933E-16
   2.15000010        -2.74914178E-16
   2.20000005        -4.18734893E-16
   2.25000000        -5.31205225E-16
   2.29999995        -6.13394738E-16
   2.34999990        -6.66212377E-16
   2.40000010        -6.85403232E-16
   2.45000005        -6.60263559E-16
   2.50000000        -5.77448142E-16
   2.54999995        -4.28609233E-16
   2.59999990        -2.18272158E-16
   2.65000010         3.24125032E-17
   2.70000005         2.88996233E-16
   2.75000000         5.13932264E-16
   2.79999995         6.79904506E-16
   2.84999990         7.80377754E-16
   2.90000010         8.31953537E-16
   2.95000005         8.66367904E-16
   3.00000000         9.14708339E-16
   3.04999995         9.90484012E-16
   3.09999990         1.07946472E-15
   3.15000010         1.14175626E-15
   3.20000005         1.12621120E-15
   3.25000000         9.91307752E-16
   3.29999995         7.22988519E-16
   3.34999990         3.40650287E-16
   3.40000010        -1.12350821E-16
   3.45000005        -5.89822287E-16
   3.50000000        -1.06530339E-15
   3.54999995        -1.54407965E-15
   3.59999990        -2.05672220E-15
   3.65000010        -2.63483320E-15
   3.70000005        -3.27900218E-15
   3.75000000        -3.93442611E-15
   3.79999995        -4.48807014E-15
   3.84999990        -4.79262295E-15
   3.90000010        -4.71027060E-15
   3.95000005        -4.15915496E-15
   4.00000000        -3.14240203E-15
   4.05000019        -1.74605064E-15
   4.09999990        -1.05819793E-16
   4.15000010         1.64255009E-15
   4.19999981         3.40582419E-15
   4.25000000         5.14717189E-15
   4.30000019         6.86293622E-15
   4.34999990         8.53234922E-15
   4.40000010         1.00657525E-14
   4.44999981         1.12812303E-14
   4.50000000         1.19294265E-14
   4.55000019         1.17649183E-14
   4.59999990         1.06391853E-14
   4.65000010         8.57593076E-15
   4.69999981         5.79217350E-15
   4.75000000         2.64862417E-15
   4.80000019        -4.57312876E-16
   4.84999990        -3.21615657E-15
   4.90000010        -5.49834201E-15
   4.94999981        -7.37486854E-15
   5.00000000        -9.05758080E-15
   5.05000019        -1.07852095E-14
   5.09999990        -1.27057932E-14
   5.15000010        -1.48078113E-14
   5.19999981        -1.69293121E-14
   5.25000000        -1.88362187E-14
   5.30000019        -2.03257126E-14
   5.34999990        -2.12956958E-14
   5.40000010        -2.17358429E-14
   5.44999981        -2.16349630E-14
   5.50000000        -2.08460907E-14
   5.55000019        -1.89823201E-14
   5.59999990        -1.54154796E-14
   5.65000010        -9.41317879E-15
   5.69999981        -3.90658822E-16
   5.75000000         1.18023750E-14
   5.80000019         2.66669553E-14
   5.84999990         4.30026159E-14
   5.90000010         5.90520132E-14
   5.94999981         7.28032408E-14
   6.00000000         8.23517009E-14
   6.05000019         8.62049689E-14
   6.09999990         8.34452543E-14
   6.15000010         7.37315076E-14
   6.19999981         5.71952221E-14
   6.25000000         3.43272638E-14
   6.30000019         5.94559319E-15
   6.34999990        -2.67225732E-14
   6.40000010        -6.18892890E-14
   6.44999981        -9.70932997E-14
   6.50000000        -1.29247727E-13
   6.55000019        -1.54921499E-13
   6.59999990        -1.70834091E-13
   6.65000010        -1.74445866E-13
   6.69999981        -1.64466544E-13
   6.75000000        -1.41116556E-13
   6.80000019        -1.06056657E-13
   6.84999990        -6.20204029E-14
   6.90000010        -1.22904371E-14
   6.94999981         3.97938315E-14
   7.00000000         9.11433472E-14
   7.05000019         1.38987929E-13
   7.09999990         1.80772836E-13
   7.15000010         2.14035075E-13
   7.19999981         2.36417846E-13
   7.25000000         2.45907380E-13
   7.30000019         2.41250894E-13
   7.34999990         2.22398990E-13
   7.40000010         1.90766131E-13
   7.44999981         1.49147648E-13
   7.50000000         1.01257930E-13
   7.55000019         5.10087544E-14
   7.59999990         1.76007782E-15
   7.65000010        -4.42032173E-14
   7.69999981        -8.58012663E-14
   7.75000000        -1.22885643E-13
   7.80000019        -1.55713658E-13
   7.84999990        -1.84416610E-13
   7.90000010        -2.08693251E-13
   7.94999981        -2.27843569E-13
   8.00000000        -2.41091462E-13
   8.05000019        -2.48006531E-13
   8.10000038        -2.48787265E-13
   8.14999962        -2.44234185E-13
   8.19999981        -2.35393248E-13
   8.25000000        -2.23013990E-13
   8.30000019        -2.07071583E-13
   8.35000038        -1.86591370E-13
   8.39999962        -1.59894762E-13
   8.44999981        -1.25204914E-13
   8.50000000        -8.13929612E-14
   8.55000019        -2.85796675E-14
   8.60000038         3.16349933E-14
   8.64999962         9.63868064E-14
   8.69999981         1.62096411E-13
   8.75000000         2.25113697E-13
   8.80000019         2.82200261E-13
   8.85000038         3.30692206E-13
   8.89999962         3.68352809E-13
   8.94999981         3.93082268E-13
   9.00000000         4.02724620E-13
   9.05000019         3.95168300E-13
   9.10000038         3.68792291E-13
   9.14999962         3.23138353E-13
   9.19999981         2.59560575E-13
   9.25000000         1.81588048E-13
   9.30000019         9.48289434E-14
   9.35000038         6.41509042E-15
   9.39999962        -7.58518682E-14
   9.44999981        -1.44401404E-13
   9.50000000        -1.92614018E-13
   9.55000019        -2.15248622E-13
   9.60000038        -2.08618523E-13
   9.64999962        -1.70670214E-13
   9.69999981        -1.01140674E-13
   9.75000000        -1.88877802E-15
   9.80000019         1.22644313E-13
   9.85000038         2.65023897E-13
   9.89999962         4.14698332E-13
   9.94999981         5.58358156E-13
   10.0000000         6.80840584E-13
   10.0500002         7.66476834E-13
   10.1000004         8.00651049E-13
   10.1499996         7.71294432E-13
   10.1999998         6.70091912E-13
   10.2500000         4.93290684E-13
   10.3000002         2.42124761E-13
   10.3500004        -7.70590053E-14
   10.3999996        -4.52885532E-13
   10.4499998        -8.69219139E-13
   10.5000000        -1.30566586E-12
   10.5500002        -1.73840694E-12
   10.6000004        -2.14144262E-12
   10.6499996        -2.48824615E-12
   10.6999998        -2.75370764E-12
   10.7500000        -2.91615798E-12
   10.8000002        -2.95921122E-12
   10.8500004        -2.87319734E-12
   10.8999996        -2.65602839E-12
   10.9499998        -2.31344588E-12
   11.0000000        -1.85866925E-12
   11.0500002        -1.31150321E-12
   11.1000004        -6.96973458E-13
   11.1499996        -4.35557894E-14
   11.1999998         6.18916376E-13
   11.2500000         1.26153005E-12
   11.3000002         1.85855498E-12
   11.3500004         2.38943544E-12
   11.3999996         2.84024909E-12
   11.4499998         3.20443498E-12
   11.5000000         3.48271108E-12
   11.5500002         3.68224722E-12
   11.6000004         3.81527145E-12
   11.6499996         3.89734208E-12
   11.6999998         3.94550018E-12
   11.7500000         3.97643203E-12
   11.8000002         4.00473708E-12
   11.8500004         4.04130462E-12
   11.8999996         4.09188091E-12
   11.9499998         4.15593861E-12
   12.0000000         4.22605353E-12
   12.0500002         4.28799834E-12
   12.1000004         4.32170445E-12
   12.1499996         4.30307959E-12
   12.1999998         4.20648152E-12
   12.2500000         4.00747751E-12
   12.3000002         3.68544474E-12
   12.3500004         3.22560056E-12
   12.3999996         2.62019963E-12
   12.4499998         1.86884709E-12
   12.5000000         9.78045119E-13
   12.5500002        -3.97809634E-14
   12.6000004        -1.16754609E-12
   12.6499996        -2.38490781E-12
   12.6999998        -3.66975894E-12
   12.7500000        -4.99983475E-12
   12.8000002        -6.35444388E-12
   12.8500004        -7.71625645E-12
   12.8999996        -9.07294032E-12
   12.9499998        -1.04183485E-11
   13.0000000        -1.17529415E-11
   13.0500002        -1.30831986E-11
   13.1000004        -1.44199618E-11
   13.1499996        -1.57759257E-11
   13.1999998        -1.71626151E-11
   13.2500000        -1.85873487E-11
   13.3000002        -2.00506157E-11
   13.3500004        -2.15441658E-11
   13.3999996        -2.30499578E-11
   13.4499998        -2.45398996E-11
   13.5000000        -2.59762854E-11
   13.5500002        -2.73128117E-11
   13.6000004        -2.84960684E-11
   13.6499996        -2.94675846E-11
   13.6999998        -3.01664492E-11
   13.7500000        -3.05325973E-11
   13.8000002        -3.05105594E-11
   13.8500004        -3.00534736E-11
   13.8999996        -2.91268711E-11
   13.9499998        -2.77118294E-11
   14.0000000        -2.58070943E-11
   14.0500002        -2.34300721E-11
   14.1000004        -2.06167982E-11
   14.1499996        -1.74212519E-11
   14.1999998        -1.39145544E-11
   14.2500000        -1.01844852E-11
   14.3000002        -6.33561563E-12
   14.3500004        -2.48999259E-12
   14.3999996         1.21183424E-12
   14.4499998         4.60985113E-12
   14.5000000         7.52398491E-12
   14.5500002         9.75405780E-12
   14.6000004         1.10801897E-11
   14.6499996         1.12633635E-11
   14.6999998         1.00457654E-11
   14.7500000         7.15066504E-12
   14.8000002         2.28181645E-12
   14.8500004        -4.87728174E-12
   14.8999996        -1.46637806E-11
   14.9499998        -2.74349501E-11
   15.0000000        -4.35664109E-11
   15.0500002        -6.34489822E-11
   15.1000004        -8.74846376E-11
   15.1499996        -1.16081887E-10
   15.1999998        -1.49651375E-10
   15.2500000        -1.88602051E-10
   15.3000002        -2.33338043E-10
   15.3500004        -2.84256091E-10
   15.3999996        -3.41742412E-10
   15.4499998        -4.06169737E-10
   15.5000000        -4.77892892E-10
   15.5500002        -5.57244084E-10
   15.6000004        -6.44527931E-10
   15.6499996        -7.40016826E-10
   15.6999998        -8.43947079E-10
   15.7500000        -9.56516200E-10
   15.8000002        -1.07788134E-09
   15.8500004        -1.20815824E-09
   15.8999996        -1.34742040E-09
   15.9499998        -1.49569823E-09
   16.0000000        -1.65297709E-09
   16.0499992        -1.81919524E-09
   16.1000004        -1.99424233E-09
   16.1499996        -2.17795981E-09
   16.2000008        -2.37014097E-09
   16.2500000        -2.57053090E-09
   16.2999992        -2.77883072E-09
   16.3500004        -2.99469782E-09
   16.3999996        -3.21774807E-09
   16.4500008        -3.44755580E-09
   16.5000000        -3.68365316E-09
   16.5499992        -3.92552879E-09
   16.6000004        -4.17262846E-09
   16.6499996        -4.42435599E-09
   16.7000008        -4.68007455E-09
   16.7500000        -4.93910957E-09
   16.7999992        -5.20075316E-09
   16.8500004        -5.46426993E-09
   16.8999996        -5.72889736E-09
   16.9500008        -5.99385475E-09
   17.0000000        -6.25834318E-09
   17.0499992        -6.52155219E-09
   17.1000004        -6.78266288E-09
   17.1499996        -7.04085723E-09
   17.2000008        -7.29532079E-09
   17.2500000        -7.54524798E-09
   17.2999992        -7.78984255E-09
   17.3500004        -8.02831668E-09
   17.3999996        -8.25989854E-09
   17.4500008        -8.48382786E-09
   17.5000000        -8.69936745E-09
   17.5499992        -8.90581564E-09
   17.6000004        -9.10253029E-09
   17.6499996        -9.28895272E-09
   17.7000008        -9.46463707E-09
   17.7500000        -9.62925384E-09
   17.7999992        -9.78260228E-09
   17.8500004        -9.92457760E-09
   17.8999996        -1.00551354E-08
   17.9500008        -1.01742330E-08
   18.0000000        -1.02817737E-08
   18.0499992        -1.03775664E-08
   18.1000004        -1.04613234E-08
   18.1499996        -1.05327089E-08
   18.2000008        -1.05914353E-08
   18.2500000        -1.06373994E-08
   18.2999992        -1.06708331E-08
   18.3500004        -1.06924238E-08
   18.3999996        -1.07033760E-08
   18.4500008        -1.07053557E-08
   18.5000000        -1.07003109E-08
   18.5499992        -1.06901670E-08
   18.6000004        -1.06764437E-08
   18.6499996        -1.06598561E-08
   18.7000008        -1.06399893E-08
   18.7500000        -1.06151408E-08
   18.7999992        -1.05823972E-08
   18.8500004        -1.05379980E-08
   18.8999996        -1.04779625E-08
   18.9500008        -1.03988933E-08
   19.0000000        -1.02988365E-08
   19.0499992        -1.01780371E-08
   19.1000004        -1.00394324E-08
   19.1499996        -9.88876980E-09
   19.2000008        -9.73428449E-09
   19.2500000        -9.58594537E-09
   19.2999992        -9.45440437E-09
   19.3500004        -9.34979028E-09
   19.3999996        -9.28056743E-09
   19.4500008        -9.25263155E-09
   19.5000000        -9.26880528E-09
   19.5499992        -9.32876532E-09
   19.6000004        -9.42941014E-09
   19.6499996        -9.56555635E-09
   19.7000008        -9.73082059E-09
   19.7500000        -9.91850957E-09
   19.7999992        -1.01223803E-08
   19.8500004        -1.03371729E-08
   19.8999996        -1.05588658E-08
   19.9500008        -1.07846825E-08
   20.0000000        -1.10129088E-08
   20.0499992        -1.12425926E-08
   20.1000004        -1.14732090E-08
   20.1499996        -1.17043530E-08
   20.2000008        -1.19354988E-08
   20.2500000        -1.21658674E-08
   20.2999992        -1.23943726E-08
   20.3500004        -1.26196635E-08
   20.3999996        -1.28402604E-08
   20.4500008        -1.30547493E-08
   20.5000000        -1.32620217E-08
   20.5499992        -1.34614861E-08
   20.6000004        -1.36532003E-08
   20.6499996        -1.38378571E-08
   20.7000008        -1.40165746E-08
   20.7500000        -1.41905039E-08
   20.7999992        -1.43603023E-08
   20.8500004        -1.45256074E-08
   20.8999996        -1.46846491E-08
   20.9500008        -1.48341561E-08
   21.0000000        -1.49696469E-08
   21.0499992        -1.50860959E-08
   21.1000004        -1.51788750E-08
   21.1499996        -1.52446997E-08
   21.2000008        -1.52823638E-08
   21.2500000        -1.52929758E-08
   21.2999992        -1.52796016E-08
   21.3500004        -1.52462984E-08
   21.3999996        -1.51967825E-08
   21.4500008        -1.51330397E-08
   21.5000000        -1.50542778E-08
   21.5499992        -1.49565267E-08
   21.6000004        -1.48330832E-08
   21.6499996        -1.46756545E-08
   21.7000008        -1.44759467E-08
   21.7500000        -1.42272158E-08
   21.7999992        -1.39253480E-08
   21.8500004        -1.35690801E-08
   21.8999996        -1.31592550E-08
   21.9500008        -1.26972743E-08
   22.0000000        -1.21831381E-08
   22.0499992        -1.16136087E-08
   22.1000004        -1.09809983E-08
   22.1499996        -1.02728714E-08
   22.2000008        -9.47272483E-09
   22.2500000        -8.56136761E-09
   22.2999992        -7.51856444E-09
   22.3500004        -6.32442099E-09
   22.3999996        -4.96011454E-09
   22.4500008        -3.40779405E-09
   22.5000000        -1.64977709E-09
   22.5499992         3.32604333E-10
   22.6000004         2.56005439E-09
   22.6499996         5.05588238E-09
   22.7000008         7.84593013E-09
   22.7500000         1.09579705E-08
   22.7999992         1.44209560E-08
   22.8500004         1.82646041E-08
   22.8999996         2.25197265E-08
   22.9500008         2.72195244E-08
   23.0000000         3.24017222E-08
   23.0499992         3.81110894E-08
   23.1000004         4.44016983E-08
   23.1499996         5.13384073E-08
   23.2000008         5.89970490E-08
   23.2500000         6.74634535E-08
   23.2999992         7.68314763E-08
   23.3500004         8.72009167E-08
   23.3999996         9.86757058E-08
   23.4500008         1.11363256E-07
   23.5000000         1.25374910E-07
   23.5499992         1.40827495E-07
   23.6000004         1.57845633E-07
   23.6499996         1.76563915E-07
   23.7000008         1.97128728E-07
   23.7500000         2.19699430E-07
   23.7999992         2.44449012E-07
   23.8500004         2.71564772E-07
   23.8999996         3.01249372E-07
   23.9500008         3.33722966E-07
   24.0000000         3.69226370E-07
   24.0499992         4.08024988E-07
   24.1000004         4.50412983E-07
   24.1499996         4.96717064E-07
   24.2000008         5.47298498E-07
   24.2500000         6.02554564E-07
   24.2999992         6.62917500E-07
   24.3500004         7.28854218E-07
   24.3999996         8.00865166E-07
   24.4500008         8.79484560E-07
   24.5000000         9.65282538E-07
   24.5499992         1.05886897E-06
   24.6000004         1.16089825E-06
   24.6499996         1.27207534E-06
   24.7000008         1.39316103E-06
   24.7500000         1.52497637E-06
   24.7999992         1.66840641E-06
   24.8500004         1.82440328E-06
   24.8999996         1.99399005E-06
   24.9500008         2.17826414E-06
   25.0000000         2.37840459E-06
   25.0499992         2.59567810E-06
   25.1000004         2.83144800E-06
   25.1499996         3.08718541E-06
   25.2000008         3.36447897E-06
   25.2500000         3.66504287E-06
   25.2999992         3.99072587E-06
   25.3500004         4.34351705E-06
   25.3999996         4.72555621E-06
   25.4500008         5.13914028E-06
   25.5000000         5.58673037E-06
   25.5499992         6.07096854E-06
   25.6000004         6.59468424E-06
   25.6499996         7.16091336E-06
   25.7000008         7.77290916E-06
   25.7500000         8.43416274E-06
   25.7999992         9.14840894E-06
   25.8500004         9.91964680E-06
   25.8999996         1.07521519E-05
   25.9500008         1.16504880E-05
   26.0000000         1.26195273E-05
   26.0499992         1.36644612E-05
   26.1000004         1.47908249E-05
   26.1499996         1.60045220E-05
   26.2000008         1.73118406E-05
   26.2500000         1.87194819E-05
   26.2999992         2.02345836E-05
   26.3500004         2.18647529E-05
   26.3999996         2.36180895E-05
   26.4500008         2.55032228E-05
   26.5000000         2.75293332E-05
   26.5499992         2.97062033E-05
   26.6000004         3.20442450E-05
   26.6499996         3.45545413E-05
   26.7000008         3.72488939E-05
   26.7500000         4.01398538E-05
   26.7999992         4.32407651E-05
   26.8500004         4.65658159E-05
   26.8999996         5.01300710E-05
   26.9500008         5.39495340E-05
   27.0000000         5.80411615E-05
   27.0499992         6.24229360E-05
   27.1000004         6.71138987E-05
   27.1499996         7.21342149E-05
   27.2000008         7.75052249E-05
   27.2500000         8.32494843E-05
   27.2999992         8.93908291E-05
   27.3500004         9.59544341E-05
   27.3999996         1.02966915E-04
   27.4500008         1.10456363E-04
   27.5000000         1.18452437E-04
   27.5499992         1.26986430E-04
   27.6000004         1.36091418E-04
   27.6499996         1.45802216E-04
   27.7000008         1.56155613E-04
   27.7500000         1.67190345E-04
   27.7999992         1.78947274E-04
   27.8500004         1.91469444E-04
   27.8999996         2.04802185E-04
   27.9500008         2.18993227E-04
   28.0000000         2.34092819E-04
   28.0499992         2.50153797E-04
   28.1000004         2.67231691E-04
   28.1499996         2.85384915E-04
   28.2000008         3.04674846E-04
   28.2500000         3.25165893E-04
   28.2999992         3.46925633E-04
   28.3500004         3.70024936E-04
   28.3999996         3.94538103E-04
   28.4500008         4.20543074E-04
   28.5000000         4.48121369E-04
   28.5499992         4.77358466E-04
   28.6000004         5.08343684E-04
   28.6499996         5.41170361E-04
   28.7000008         5.75936399E-04
   28.7500000         6.12743723E-04
   28.7999992         6.51698967E-04
   28.8500004         6.92913251E-04
   28.8999996         7.36502698E-04
   28.9500008         7.82588264E-04
   29.0000000         8.31296202E-04
   29.0499992         8.82758002E-04
   29.1000004         9.37110744E-04
   29.1499996         9.94496979E-04
   29.2000008         1.05506519E-03
   29.2500000         1.11896987E-03
   29.2999992         1.18637155E-03
   29.3500004         1.25743728E-03
   29.3999996         1.33234053E-03
   29.4500008         1.41126115E-03
   29.5000000         1.49438623E-03
   29.5499992         1.58190937E-03
   29.6000004         1.67403196E-03
   29.6499996         1.77096226E-03
   29.7000008         1.87291589E-03
   29.7500000         1.98011659E-03
   29.7999992         2.09279521E-03
   29.8500004         2.21119099E-03
   29.8999996         2.33555073E-03
   29.9500008         2.46613054E-03
   30.0000000         2.60319305E-03
   30.0499992         2.74701091E-03
   30.1000004         2.89786421E-03
   30.1499996         3.05604306E-03
   30.2000008         3.22184549E-03
   30.2500000         3.39557836E-03
   30.2999992         3.57755739E-03
   30.3500004         3.76810809E-03
   30.3999996         3.96756455E-03
   30.4500008         4.17627068E-03
   30.5000000         4.39457921E-03
   30.5499992         4.62285150E-03
   30.6000004         4.86145867E-03
   30.6499996         5.11078257E-03
   30.7000008         5.37121296E-03
   30.7500000         5.64314937E-03
   30.7999992         5.92700019E-03
   30.8500004         6.22318266E-03
   30.8999996         6.53212378E-03
   30.9500008         6.85425987E-03
   31.0000000         7.19003519E-03
   31.0499992         7.53990421E-03
   31.1000004         7.90433027E-03
   31.1499996         8.28378368E-03
   31.2000008         8.67874548E-03
   31.2500000         9.08970088E-03
   31.2999992         9.51714534E-03
   31.3500004         9.96158179E-03
   31.3999996         1.04235206E-02
   31.4500008         1.09034814E-02
   31.5000000         1.14019848E-02
   31.5499992         1.19195664E-02
   31.6000004         1.24567617E-02
   31.6499996         1.30141126E-02
   31.7000008         1.35921659E-02
   31.7500000         1.41914729E-02
   31.7999992         1.48125933E-02
   31.8500004         1.54560860E-02
   31.8999996         1.61225162E-02
   31.9500008         1.68124475E-02
   32.0000000         1.75264459E-02
   32.0499992         1.82650797E-02
   32.0999985         1.90289263E-02
   32.1500015         1.98185518E-02
   32.2000008         2.06345245E-02
   32.2500000         2.14774162E-02
   32.2999992         2.23477893E-02
   32.3499985         2.32462119E-02
   32.4000015         2.41732448E-02
   32.4500008         2.51294393E-02
   32.5000000         2.61153411E-02
   32.5499992         2.71314923E-02
   32.5999985         2.81784311E-02
   32.6500015         2.92566884E-02
   32.7000008         3.03667784E-02
   32.7500000         3.15092094E-02
   32.7999992         3.26844789E-02
   32.8499985         3.38930637E-02
   32.9000015         3.51354443E-02
   32.9500008         3.64120789E-02
   33.0000000         3.77233997E-02
   33.0499992         3.90698314E-02
   33.0999985         4.04517874E-02
   33.1500015         4.18696553E-02
   33.2000008         4.33238037E-02
   33.2500000         4.48145792E-02
   33.2999992         4.63423021E-02
   33.3499985         4.79072742E-02
   33.4000015         4.95097749E-02
   33.4500008         5.11500649E-02
   33.5000000         5.28283678E-02
   33.5499992         5.45448698E-02
   33.5999985         5.62997498E-02
   33.6500015         5.80931380E-02
   33.7000008         5.99251539E-02
   33.7500000         6.17958568E-02
   33.7999992         6.37052879E-02
   33.8499985         6.56534508E-02
   33.9000015         6.76403269E-02
   33.9500008         6.96658567E-02
   34.0000000         7.17299432E-02
   34.0499992         7.38324374E-02
   34.0999985         7.59731606E-02
   34.1500015         7.81518966E-02
   34.2000008         8.03683922E-02
   34.2500000         8.26223269E-02
   34.2999992         8.49133581E-02
   34.3499985         8.72410983E-02
   34.4000015         8.96051228E-02
   34.4500008         9.20049474E-02
   34.5000000         9.44400504E-02
   34.5499992         9.69098583E-02
   34.5999985         9.94137824E-02
   34.6500015        0.101951152    
   34.7000008        0.104521282    
   34.7500000        0.107123397    
   34.7999992        0.109756701    
   34.8499985        0.112420343    
   34.9000015        0.115113452    
   34.9500008        0.117835075    
   35.0000000        0.120584205    
   35.0499992        0.123359807    
   35.0999985        0.126160786    
   35.1500015        0.128986076    
   35.2000008        0.131834447    
   35.2500000        0.134704709    
   35.2999992        0.137595564    
   35.3499985        0.140505731    
   35.4000015        0.143433869    
   35.4500008        0.146378577    
   35.5000000        0.149338409    
   35.5499992        0.152311921    
   35.5999985        0.155297548    
   35.6500015        0.158293754    