 -1.2000000E-06   -9.5100969E-23
 -1.1769999E-06   -9.5100969E-23
 -1.1540000E-06   -2.0798635E-16
 -1.1310000E-06   -1.6144869E-21
 -1.1080000E-06    8.4506195E-16
 -1.0850000E-06   -1.6112308E-21
 -1.0620000E-06   -7.1720080E-16
 -1.0390000E-06   -8.8442665E-16
 -1.0160001E-06    1.4383631E-16
 -9.9299996E-07    1.6452089E-15
 -9.6999997E-07   -4.6811395E-17
 -9.4699999E-07   -8.1212238E-16
 -9.2400001E-07    2.3678086E-16
 -9.0100002E-07    8.3325265E-17
 -8.7799998E-07   -7.0458329E-16
 -8.5500000E-07   -2.2703094E-17
 -8.3200001E-07    7.1477722E-16
 -8.0900003E-07   -1.1686997E-16
 -7.8599999E-07   -3.8773431E-16
 -7.6300000E-07    2.3787215E-17
 -7.4000002E-07    5.4726081E-17
 -7.1699998E-07   -1.5349764E-17
 -6.9399999E-07    2.6849060E-16
 -6.7100001E-07    5.1613693E-16
 -6.4800003E-07   -2.9197895E-16
 -6.2499998E-07   -4.7569931E-16
 -6.0200000E-07    2.8772306E-16
 -5.7900002E-07   -3.7965015E-16
 -5.5599997E-07   -8.3463069E-16
 -5.3299999E-07    9.1808355E-16
 -5.1000001E-07    1.5957726E-15
 -4.8700002E-07   -7.9780313E-16
 -4.6400001E-07   -1.6791814E-15
 -4.4100000E-07    7.3852496E-16
 -4.1800001E-07    9.5911097E-16
 -3.9500000E-07   -1.9813103E-16
 -3.7199999E-07   -3.1774919E-16
 -3.4900000E-07   -2.9872457E-16
 -3.2599999E-07   -7.1875325E-16
 -3.0300001E-07   -2.7653409E-17
 -2.7999999E-07    1.4843176E-15
 -2.5700001E-07    3.5140139E-16
 -2.3400000E-07   -8.9459819E-16
 -2.1100000E-07    4.1946930E-16
 -1.8800000E-07    3.4881187E-17
 -1.6500000E-07   -8.5692206E-16
 -1.4200000E-07    6.1125640E-16
 -1.1900000E-07    3.4070270E-16
 -9.6000001E-08   -2.1112739E-15
 -7.3000002E-08   -2.9024944E-16
 -5.0000001E-08    2.5728910E-15
 -2.7000000E-08    1.1852726E-15
 -3.9999999E-09   -1.7721262E-15
  1.9000000E-08   -7.0776035E-16
  4.2000000E-08    6.6138217E-16
  6.5000002E-08   -2.9361203E-16
  8.8000000E-08    1.8989696E-16
  1.1100000E-07    1.4935122E-16
  1.3400000E-07   -8.0575513E-16
  1.5700000E-07    2.4957813E-16
  1.8000000E-07    9.2863832E-16
  2.0300000E-07   -1.2421875E-15
  2.2600000E-07   -7.4507384E-16
  2.4900001E-07    2.5024708E-15
  2.7199999E-07    1.8711525E-15
  2.9500001E-07   -3.1693792E-15
  3.1799999E-07   -2.7498946E-15
  3.4100000E-07    2.2466664E-15
  3.6399999E-07    2.1476650E-15
  3.8700000E-07   -8.9782803E-16
  4.1000001E-07   -7.7297919E-16
  4.3300000E-07    3.0362455E-16
  4.5600001E-07    2.4377897E-16
  4.7899999E-07   -1.2113565E-16
  5.0199998E-07   -8.8401838E-16
  5.2500002E-07    8.1310656E-17
  5.4800000E-07    2.8189803E-15
  5.7099999E-07    9.7853502E-16
  5.9400003E-07   -4.6719601E-15
  6.1700001E-07   -3.7082615E-15
  6.4000000E-07    3.9955984E-15
  6.6299998E-07    5.0114649E-15
  6.8600002E-07   -1.6996018E-15
  7.0900001E-07   -2.8773447E-15
  7.3199999E-07    5.3933685E-16
  7.5499997E-07    4.8067823E-16
  7.7800001E-07   -8.6060824E-16
  8.0100000E-07    6.2725140E-16
  8.2399998E-07    1.2255070E-15
  8.4700002E-07   -1.2036134E-15
  8.7000001E-07   -1.3270420E-15
  8.9299999E-07   -6.4369544E-16
  9.1599998E-07    6.2906585E-16
  9.3900002E-07    3.5157727E-15
  9.6199994E-07    1.9470937E-15
  9.8500004E-07   -3.5431071E-15
  1.0080000E-06   -4.0540661E-15
  1.0310000E-06    1.6685473E-15
  1.0540000E-06    2.9381589E-15
  1.0770000E-06   -3.3093770E-16
  1.1000000E-06   -7.0144858E-16
  1.1229999E-06    4.2934650E-16
  1.1460000E-06   -8.7939522E-16
  1.1690000E-06   -1.2875171E-15
  1.1920000E-06    1.4340394E-15
  1.2150000E-06    1.8172880E-15
  1.2380000E-06   -3.9104592E-16
  1.2610000E-06   -9.2767197E-16
  1.2839999E-06   -6.2145150E-16
  1.3070000E-06   -6.2945671E-16
  1.3300000E-06    5.1444170E-16
  1.3530000E-06    1.2948258E-15
  1.3760000E-06   -8.1449857E-16
  1.3990000E-06   -1.4273098E-15
  1.4220000E-06    6.8071776E-16
  1.4450000E-06    1.3297530E-15
  1.4680001E-06    1.9386333E-16
  1.4910000E-06   -1.4353889E-16
  1.5140000E-06   -2.2462112E-16
  1.5370000E-06   -1.3299738E-15
  1.5600000E-06    2.0308823E-16
  1.5830000E-06    1.4991880E-15
  1.6060000E-06   -8.5088647E-16
  1.6290001E-06   -1.2936603E-15
  1.6520000E-06    1.3152434E-15
  1.6750000E-06    1.8173613E-15
  1.6980000E-06   -1.4193683E-15
  1.7210000E-06   -1.4367155E-15
  1.7440000E-06    1.1197146E-15
  1.7670000E-06    1.0655393E-15
  1.7900001E-06   -1.1434350E-15
  1.8130000E-06   -1.3725343E-15
  1.8360000E-06    5.7400358E-16
  1.8590000E-06    1.4775212E-15
  1.8820000E-06    3.9707994E-16
  1.9050000E-06   -7.8331066E-16
  1.9280001E-06   -5.9253597E-16
  1.9510001E-06    8.8142810E-16
  1.9740000E-06   -5.2966320E-16
  1.9970000E-06   -1.4987914E-15
  2.0200000E-06    8.1953498E-16
  2.0430000E-06    3.1006573E-15
  2.0660000E-06   -7.4885844E-16
  2.0890000E-06   -3.7945437E-15
  2.1119999E-06   -1.0075183E-15
  2.1349999E-06    2.8681865E-15
  2.1579999E-06    2.0064752E-15
  2.1809999E-06   -8.1674432E-16
  2.2040001E-06   -8.5195590E-16
  2.2270001E-06   -2.3291912E-17
  2.2500001E-06   -6.5589335E-16
  2.2730001E-06   -6.4818406E-18
  2.2960000E-06    5.5589438E-16
  2.3190000E-06    6.4799355E-16
  2.3420000E-06   -6.4918823E-16
  2.3650000E-06   -1.2115510E-15
  2.3880000E-06    5.9347056E-16
  2.4110000E-06    1.9386797E-15
  2.4340000E-06   -2.9229291E-17
  2.4569999E-06   -2.3106875E-15
  2.4799999E-06    3.9611099E-16
  2.5029999E-06    2.3536301E-15
  2.5259999E-06   -1.5950542E-16
  2.5490001E-06   -3.4820739E-15
  2.5720001E-06   -1.0300746E-15
  2.5950001E-06    2.8238647E-15
  2.6180001E-06    2.1498810E-15
  2.6410000E-06   -1.3304129E-15
  2.6640000E-06   -1.9517812E-15
  2.6870000E-06    9.8664653E-16
  2.7100000E-06    1.1843084E-15
  2.7330000E-06   -2.0266762E-17
  2.7560000E-06   -6.7737902E-16
  2.7789999E-06   -4.4378841E-16
  2.8019999E-06   -2.6263853E-16
  2.8249999E-06   -5.4012750E-16
  2.8479999E-06   -2.6147079E-16
  2.8710001E-06    9.2693971E-16
  2.8940001E-06    1.9115704E-15
  2.9170001E-06    6.6423170E-16
  2.9400001E-06   -1.8691969E-15
  2.9630000E-06   -2.2254848E-15
  2.9860000E-06    5.2988242E-16
  3.0090000E-06    2.5034664E-15
  3.0320000E-06    4.8064196E-16
  3.0550000E-06   -2.7661790E-15
  3.0780000E-06   -1.5356964E-15
  3.1009999E-06    2.6331129E-15
  3.1239999E-06    2.4419276E-15
  3.1469999E-06   -1.3698352E-15
  3.1699999E-06   -2.0089030E-15
  3.1930001E-06    5.5719680E-16
  3.2160001E-06    1.5775348E-15
  3.2390001E-06   -4.3536064E-16
  3.2620001E-06   -1.6907452E-15
  3.2850000E-06   -3.9351867E-16
  3.3080000E-06    1.5736486E-15
  3.3310000E-06    8.6421104E-17
  3.3540000E-06   -1.5561841E-15
  3.3770000E-06    1.0941184E-15
  3.4000000E-06    3.3013509E-15
  3.4230000E-06   -7.1185496E-16
  3.4459999E-06   -4.7280816E-15
  3.4689999E-06   -2.1962918E-15
  3.4919999E-06    3.9121098E-15
  3.5149999E-06    3.7900231E-15
  3.5380001E-06   -1.5358158E-15
  3.5610001E-06   -3.6808621E-15
  3.5840001E-06   -4.2928704E-16
  3.6070001E-06    3.2779212E-15
  3.6300000E-06    1.3330739E-15
  3.6530000E-06   -1.6800667E-15
  3.6760000E-06   -7.0290823E-16
  3.6990000E-06    1.1378065E-15
  3.7220000E-06   -1.1015305E-15
  3.7450000E-06   -2.5223176E-15
  3.7679999E-06    1.0972312E-15
  3.7909999E-06    3.7561007E-15
  3.8139999E-06    6.7005219E-16
  3.8369999E-06   -3.3030158E-15
  3.8600001E-06   -1.9731427E-15
  3.8829999E-06    1.1745852E-15
  3.9060001E-06    1.9682147E-15
  3.9289998E-06    7.7091809E-16
  3.9520000E-06   -6.4675688E-16
  3.9749998E-06   -5.9873921E-16
  3.9980000E-06   -4.0434878E-17
  4.0210002E-06   -4.9058962E-16
  4.0440000E-06   -1.1026651E-15
  4.0670002E-06    3.4724521E-16
  4.0899999E-06    2.8141139E-15
  4.1130002E-06    8.7338446E-16
  4.1359999E-06   -3.5051534E-15
  4.1590001E-06   -3.0072151E-15
  4.1819999E-06    1.9708413E-15
  4.2050001E-06    4.2014655E-15
  4.2279999E-06    7.9212070E-16
  4.2510001E-06   -2.4885483E-15
  4.2739998E-06   -2.8715804E-15
  4.2970000E-06    3.0934212E-16
  4.3199998E-06    3.5833267E-15
  4.3430000E-06    1.3281819E-15
  4.3660002E-06   -3.7163914E-15
  4.3890000E-06   -2.2498330E-15
  4.4120002E-06    2.4269141E-15
  4.4349999E-06    1.9968702E-15
  4.4580001E-06   -4.4548983E-16
  4.4809999E-06   -1.0163109E-16
  4.5040001E-06    2.9045514E-16
  4.5269999E-06   -2.0954176E-15
  4.5500001E-06   -8.1575927E-16
  4.5729998E-06    1.5861396E-15
  4.5960001E-06    1.3706485E-15
  4.6189998E-06   -8.1886000E-16
  4.6420000E-06   -1.3955671E-15
  4.6649998E-06   -4.8055456E-16
  4.6880000E-06    1.2060776E-15
  4.7110002E-06    2.3528299E-15
  4.7340000E-06   -5.0758809E-16
  4.7570002E-06   -3.1618560E-15
  4.7799999E-06   -4.2531499E-16
  4.8030001E-06    2.4418725E-15
  4.8259999E-06    1.1661044E-15
  4.8490001E-06   -4.1284140E-16
  4.8719999E-06   -1.9766751E-16
  4.8950001E-06   -9.7206062E-16
  4.9179998E-06   -1.9142998E-15
  4.9410000E-06    5.0128140E-16
  4.9639998E-06    2.8992572E-15
  4.9870000E-06    6.7949714E-16
  5.0100002E-06   -2.9679611E-15
  5.0330000E-06   -2.4435128E-15
  5.0560002E-06    2.0166523E-15
  5.0789999E-06    3.8751846E-15
  5.1020002E-06    2.6226694E-16
  5.1249999E-06   -3.2126947E-15
  5.1480001E-06   -1.2514984E-15
  5.1709999E-06    1.6077880E-15
  5.1940001E-06   -2.9505487E-16
  5.2169999E-06   -1.2426714E-15
  5.2400001E-06    2.4193853E-15
  5.2629998E-06    2.3381434E-15
  5.2860000E-06   -3.9033747E-15
  5.3089998E-06   -4.1499007E-15
  5.3320000E-06    3.4806017E-15
  5.3550002E-06    6.1500343E-15
  5.3780000E-06   -1.0227200E-15
  5.4010002E-06   -6.1754055E-15
  5.4239999E-06   -1.5894239E-15
  5.4470001E-06    4.3325786E-15
  5.4699999E-06    2.0408257E-15
  5.4930001E-06   -2.9743524E-15
  5.5159999E-06   -1.4869117E-15
  5.5390001E-06    3.0825939E-15
  5.5619998E-06    1.9478101E-15
  5.5850001E-06   -3.0388863E-15
  5.6079998E-06   -2.0333013E-15
  5.6310000E-06    2.0363087E-15
  5.6539998E-06    8.5260891E-16
  5.6770000E-06   -2.1299906E-15
  5.7000002E-06    2.7225547E-16
  5.7230000E-06    2.5044661E-15
  5.7460002E-06   -1.1232488E-15
  5.7689999E-06   -2.5529143E-15
  5.7920001E-06    1.8981570E-15
  5.8149999E-06    3.0502709E-15
  5.8380001E-06   -1.5751248E-15
  5.8609999E-06   -2.6300710E-15
  5.8840001E-06    1.1955573E-15
  5.9069998E-06    1.7801113E-15
  5.9300000E-06   -2.4018161E-15
  5.9529998E-06   -2.4038056E-15
  5.9760000E-06    2.9049084E-15
  5.9990002E-06    4.8799059E-15
  6.0220000E-06   -2.6926377E-15
  6.0450002E-06   -6.1089867E-15
  6.0679999E-06    1.5333220E-15
  6.0910002E-06    7.1043067E-15
  6.1139999E-06   -4.2441878E-16
  6.1370001E-06   -7.7057442E-15
  6.1599999E-06   -6.3585308E-16
  6.1830001E-06    7.7109627E-15
  6.2059999E-06    1.1658733E-15
  6.2290001E-06   -8.0963077E-15
  6.2519998E-06   -1.6350741E-15
  6.2750000E-06    8.9273334E-15
  6.2979998E-06    2.6873368E-15
  6.3210000E-06   -8.2895430E-15
  6.3440002E-06   -4.8537766E-15
  6.3670000E-06    6.7974297E-15
  6.3900002E-06    5.9915197E-15
  6.4129999E-06   -5.9366786E-15
  6.4360001E-06   -5.4057312E-15
  6.4589999E-06    5.3763608E-15
  6.4820001E-06    5.7915852E-15
  6.5049999E-06   -4.4024402E-15
  6.5280001E-06   -5.3645726E-15
  6.5509998E-06    3.9549290E-15
  6.5740001E-06    4.1053277E-15
  6.5969998E-06   -6.4824905E-15
  6.6200000E-06   -6.8800971E-15
  6.6429998E-06    5.6355300E-15
  6.6660000E-06    1.1751582E-14
  6.6890002E-06    5.5141972E-15
  6.7120000E-06   -1.4523212E-15
  6.7350002E-06   -5.8603690E-15
  6.7579999E-06   -1.6883791E-14
  6.7810001E-06   -2.9068836E-14
  6.8039999E-06   -1.8854066E-14
  6.8270001E-06    2.4895227E-14
  6.8499999E-06    7.9173437E-14
  6.8730001E-06    1.0312020E-13
  6.8959998E-06    5.6654392E-14
  6.9190000E-06   -8.0570228E-14
  6.9419998E-06   -2.6905033E-13
  6.9650000E-06   -3.7470287E-13
  6.9880002E-06   -2.2224891E-13
  7.0110000E-06    2.6405522E-13
  7.0340002E-06    9.2067077E-13
  7.0569999E-06    1.3112060E-12
  7.0800002E-06    8.6679638E-13
  7.1029999E-06   -7.3196841E-13
  7.1260001E-06   -3.0471365E-12
  7.1489999E-06   -4.6288689E-12
  7.1720001E-06   -3.4595157E-12
  7.1949999E-06    1.7417964E-12
  7.2180001E-06    9.7982213E-12
  7.2409998E-06    1.6081990E-11
  7.2640000E-06    1.3682447E-11
  7.2869998E-06   -2.5389077E-12
  7.3100000E-06   -3.0100523E-11
  7.3330002E-06   -5.4792296E-11
  7.3560000E-06   -5.3220348E-11
  7.3790002E-06   -5.1712879E-12
  7.4019999E-06    8.6813771E-11
  7.4250001E-06    1.8130367E-10
  7.4479999E-06    2.0134130E-10
  7.4710001E-06    6.9899191E-11
  7.4939999E-06   -2.2652358E-10
  7.5170001E-06   -5.7632860E-10
  7.5399998E-06   -7.3516071E-10
  7.5630001E-06   -4.2031395E-10
  7.5859998E-06    4.9008558E-10
  7.6090000E-06    1.7325672E-09
  7.6320002E-06    2.5689681E-09
  7.6550004E-06    2.0072668E-09
  7.6779997E-06   -6.0552968E-10
  7.7010000E-06   -4.8035478E-09
  7.7240002E-06   -8.5068166E-09
  7.7470004E-06   -8.4138350E-09
  7.7699997E-06   -1.6457428E-09
  7.7929999E-06    1.1692478E-08
  7.8160001E-06    2.6323976E-08
  7.8390003E-06    3.1944499E-08
  7.8619996E-06    1.7323115E-08
  7.8849998E-06   -2.1829623E-08
  7.9080000E-06   -7.4401903E-08
  7.9310003E-06   -1.1076767E-07
  7.9539996E-06   -9.1268774E-08
  7.9769998E-06    1.1571303E-08
  8.0000000E-06    1.8360802E-07
  8.0230002E-06    3.4891607E-07
  8.0460004E-06    3.8040920E-07
  8.0689997E-06    1.5559196E-07
  8.0919999E-06   -3.5081445E-07
  8.1150001E-06   -9.7809641E-07
  8.1380003E-06   -1.3612517E-06
  8.1609996E-06   -1.0460715E-06
  8.1839999E-06    2.5051159E-07
  8.2070001E-06    2.3174020E-06
  8.2300003E-06    4.2475735E-06
  8.2529996E-06    4.5831389E-06
  8.2759998E-06    1.9460485E-06
  8.2990000E-06   -3.9483953E-06
  8.3220002E-06   -1.1331669E-05
  8.3450004E-06   -1.6170392E-05
  8.3679997E-06   -1.3355573E-05
  8.3909999E-06    5.6662549E-07
  8.4140001E-06    2.3926223E-05
  8.4370004E-06    4.7554160E-05
  8.4599997E-06    5.5812201E-05
  8.4829999E-06    3.2603617E-05
  8.5060001E-06   -2.8308192E-05
  8.5290003E-06   -1.1260276E-04
  8.5519996E-06   -1.8104487E-04
  8.5749998E-06   -1.7840478E-04
  8.5980000E-06   -5.8503691E-05
  8.6210002E-06    1.8026105E-04
  8.6440004E-06    4.6478101E-04
  8.6669997E-06    6.4495002E-04
  8.6900000E-06    5.3827569E-04
  8.7130002E-06    2.3074535E-05
  8.7360004E-06   -8.4711798E-04
  8.7589997E-06   -1.7651517E-03
  8.7819999E-06   -2.1981001E-03
  8.8050001E-06   -1.5696778E-03
  8.8280003E-06    4.1845479E-04
  8.8509996E-06    3.4348220E-03
  8.8739998E-06    6.3267904E-03
  8.8970000E-06    7.2990791E-03
  8.9200003E-06    4.5775338E-03
  8.9429996E-06   -2.5420075E-03
  8.9659998E-06   -1.2640738E-02
  8.9890000E-06   -2.1722671E-02
  9.0120002E-06   -2.3965336E-02
  9.0350004E-06   -1.3943237E-02
  9.0579997E-06    1.0085288E-02
  9.0809999E-06    4.3058805E-02
  9.1040001E-06    7.1982957E-02
  9.1270003E-06    7.8521140E-02
  9.1499996E-06    4.5953788E-02
  9.1729999E-06   -3.0857228E-02
  9.1960001E-06   -0.1362067    
  9.2190003E-06   -0.2302952    
  9.2419996E-06   -0.2569250    
  9.2649998E-06   -0.1639276    
  9.2880000E-06    6.7575701E-02
  9.3110002E-06    0.3955197    
  9.3340004E-06    0.7057724    
  9.3569997E-06    0.8316276    
  9.3799999E-06    0.6096551    
  9.4030001E-06   -3.7565406E-02
  9.4260004E-06    -1.019136    
  9.4489997E-06    -2.034236    
  9.4719999E-06    -2.611025    
  9.4950001E-06    -2.246140    
  9.5180003E-06   -0.6266075    
  9.5409996E-06     2.130979    
  9.5639998E-06     5.326692    
  9.5870000E-06     7.718398    
  9.6100002E-06     7.827068    
  9.6330004E-06     4.487042    
  9.6559997E-06    -2.494977    
  9.6790000E-06    -11.81388    
  9.7020002E-06    -20.55727    
  9.7250004E-06    -24.73545    
  9.7479997E-06    -20.48960    
  9.7709999E-06    -5.749333    
  9.7940001E-06     18.16452    
  9.8170003E-06     45.66563    
  9.8399996E-06     67.38662    
  9.8629998E-06     72.34180    
  9.8860000E-06     51.54081    
  9.9090003E-06     2.185132    
  9.9319996E-06    -68.94293    
  9.9549998E-06    -144.4442    
  9.9780000E-06    -198.7880    
  1.0001000E-05    -204.5650    
  1.0024000E-05    -141.4630    
  1.0047000E-05    -5.639783    
  1.0070000E-05     183.6384    
  1.0093000E-05     383.1373    
  1.0116000E-05     532.4628    
  1.0139000E-05     568.3138    
  1.0162000E-05     443.4447    
  1.0185000E-05     145.4094    
  1.0208000E-05    -290.8739    
  1.0231000E-05    -781.9724    
  1.0254000E-05    -1208.898    
  1.0277000E-05    -1442.969    
  1.0300000E-05    -1379.136    
  1.0323000E-05    -968.1179    
  1.0346000E-05    -237.6220    
  1.0369000E-05     705.2368    
  1.0392000E-05     1693.707    
  1.0415000E-05     2540.514    
  1.0438000E-05     3087.268    
  1.0461000E-05     3250.704    
  1.0484000E-05     3051.300    
  1.0507000E-05     2613.134    
  1.0530000E-05     2130.652    
  1.0553000E-05     1806.870    
  1.0576000E-05     1776.347    
  1.0599000E-05     2032.554    
  1.0622000E-05     2379.795    
  1.0645000E-05     2424.072    
  1.0668000E-05     1602.840    
  1.0691000E-05    -769.0033    
  1.0714000E-05    -5490.881    
  1.0737000E-05    -13601.34    
  1.0760000E-05    -26776.14    
  1.0783000E-05    -48192.24    
  1.0806000E-05    -84094.34    
  1.0829000E-05    -146331.5    
  1.0852000E-05    -256128.5    
  1.0875000E-05    -449266.9    
  1.0898000E-05    -782747.1    
  1.0921000E-05    -1342724.    
  1.0944000E-05    -2253158.    
  1.0967000E-05    -3684236.    
  1.0990000E-05    -5858921.    
  1.1013000E-05    -9056007.    
  1.1036000E-05   -1.3607079E+07
  1.1059000E-05   -1.9885360E+07
  1.1082000E-05   -2.8283642E+07
  1.1105000E-05   -3.9181256E+07
  1.1128000E-05   -5.2897996E+07
  1.1151000E-05   -6.9637832E+07
  1.1174000E-05   -8.9425296E+07
  1.1197000E-05   -1.1204044E+08
  1.1220000E-05   -1.3695661E+08
  1.1243000E-05   -1.6329517E+08
  1.1266000E-05   -1.8979877E+08
  1.1289000E-05   -2.1484568E+08
  1.1312000E-05   -2.3648864E+08
  1.1335000E-05   -2.5254410E+08
  1.1358000E-05   -2.6072688E+08
  1.1381000E-05   -2.5881728E+08
  1.1404000E-05   -2.4485070E+08
  1.1427000E-05   -2.1731350E+08
  1.1450000E-05   -1.7535070E+08
  1.1473000E-05   -1.1893824E+08
  1.1496000E-05   -4.8990772E+07
  1.1519000E-05    3.2610386E+07
  1.1542000E-05    1.2300930E+08
  1.1565000E-05    2.1848026E+08
  1.1588000E-05    3.1465299E+08
  1.1611000E-05    4.0675680E+08
  1.1634000E-05    4.8995328E+08
  1.1657000E-05    5.5965382E+08
  1.1680000E-05    6.1181363E+08
  1.1703000E-05    6.4325658E+08
  1.1726000E-05    6.5196269E+08
  1.1749000E-05    6.3718144E+08
  1.1772000E-05    5.9940096E+08
  1.1795000E-05    5.4041376E+08
  1.1818000E-05    4.6317408E+08
  1.1841000E-05    3.7150541E+08
  1.1864000E-05    2.6985677E+08
  1.1887000E-05    1.6307779E+08
  1.1910000E-05    5.6004244E+07
  1.1933000E-05   -4.6864320E+07
  1.1956000E-05   -1.4153405E+08
  1.1979000E-05   -2.2469590E+08
  1.2002000E-05   -2.9389814E+08
  1.2025000E-05   -3.4762342E+08
  1.2048000E-05   -3.8524410E+08
  1.2071000E-05   -4.0694250E+08
  1.2094000E-05   -4.1359341E+08
  1.2117000E-05   -4.0664416E+08
  1.2140000E-05   -3.8795379E+08
  1.2163000E-05   -3.5961843E+08
  1.2186000E-05   -3.2383440E+08
  1.2209000E-05   -2.8276445E+08
  1.2232000E-05   -2.3847498E+08
  1.2255000E-05   -1.9285067E+08
  1.2278000E-05   -1.4749662E+08
  1.2301000E-05   -1.0376851E+08
  1.2324000E-05   -6.2823104E+07
  1.2347000E-05   -2.5582820E+07
  1.2370000E-05     7327406.    
  1.2393000E-05    3.5469408E+07
  1.2416000E-05    5.8455440E+07
  1.2439000E-05    7.6046376E+07
  1.2462000E-05    8.8243128E+07
  1.2485000E-05    9.5155992E+07
  1.2508000E-05    9.6918080E+07
  1.2531000E-05    9.3741656E+07
  1.2554000E-05    8.6038528E+07
  1.2577000E-05    7.4379464E+07
  1.2600000E-05    5.9374488E+07
  1.2623000E-05    4.1695404E+07
  1.2646000E-05    2.2178304E+07
  1.2669000E-05     1789226.    
  1.2692000E-05   -1.8540612E+07
  1.2715000E-05   -3.7987768E+07
  1.2738000E-05   -5.5700284E+07
  1.2761000E-05   -7.0808632E+07
  1.2784000E-05   -8.2650608E+07
  1.2807000E-05   -9.0874616E+07
  1.2830000E-05   -9.5270656E+07
  1.2853000E-05   -9.5679648E+07
  1.2876000E-05   -9.2209232E+07
  1.2899000E-05   -8.5310536E+07
  1.2922000E-05   -7.5537088E+07
  1.2945000E-05   -6.3409884E+07
  1.2968000E-05   -4.9562608E+07
  1.2991000E-05   -3.4799540E+07
  1.3014000E-05   -1.9895768E+07
  1.3037000E-05    -5441183.    
  1.3060000E-05     8104524.    
  1.3083000E-05    2.0278970E+07
  1.3106000E-05    3.0683062E+07
  1.3129000E-05    3.9145660E+07
  1.3152000E-05    4.5691076E+07
  1.3175000E-05    5.0347460E+07
  1.3198000E-05    5.3139228E+07
  1.3221000E-05    5.4241744E+07
  1.3244000E-05    5.3975716E+07
  1.3267000E-05    5.2586076E+07
  1.3290000E-05    5.0220560E+07
  1.3313000E-05    4.7114688E+07
  1.3336000E-05    4.3585412E+07
  1.3359000E-05    3.9857824E+07
  1.3382000E-05    3.6060252E+07
  1.3405000E-05    3.2350588E+07
  1.3428000E-05    2.8922756E+07
  1.3451000E-05    2.5910878E+07
  1.3474000E-05    2.3358474E+07
  1.3497000E-05    2.1268958E+07
  1.3520000E-05    1.9650418E+07
  1.3543000E-05    1.8487464E+07
  1.3566000E-05    1.7676534E+07
  1.3589000E-05    1.7043552E+07
  1.3612000E-05    1.6433477E+07
  1.3635000E-05    1.5710127E+07
  1.3658000E-05    1.4689649E+07
  1.3681000E-05    1.3194107E+07
  1.3704000E-05    1.1149714E+07
  1.3727000E-05     8541342.    
  1.3750000E-05     5339676.    
  1.3773000E-05     1576359.    
  1.3796000E-05    -2591142.    
  1.3819000E-05    -6955862.    
  1.3842000E-05   -1.1320616E+07
  1.3865000E-05   -1.5466741E+07
  1.3888000E-05   -1.9152996E+07
  1.3911000E-05   -2.2165834E+07
  1.3934000E-05   -2.4334872E+07
  1.3957000E-05   -2.5530662E+07
  1.3980000E-05   -2.5678168E+07
  1.4003000E-05   -2.4759246E+07
  1.4026000E-05   -2.2811836E+07
  1.4049000E-05   -1.9953714E+07
  1.4072000E-05   -1.6356783E+07
  1.4095000E-05   -1.2193590E+07
  1.4118000E-05    -7656230.    
  1.4141000E-05    -2982506.    
  1.4164000E-05     1590262.    
  1.4187000E-05     5857294.    
  1.4210000E-05     9616699.    
  1.4233000E-05    1.2693832E+07
  1.4256000E-05    1.4984682E+07
  1.4279000E-05    1.6420719E+07
  1.4302000E-05    1.6937060E+07
  1.4325000E-05    1.6530030E+07
  1.4348000E-05    1.5264311E+07
  1.4371000E-05    1.3204156E+07
  1.4394000E-05    1.0438788E+07
  1.4417000E-05     7143612.    
  1.4440000E-05     3522460.    
  1.4463000E-05    -271639.9    
  1.4486000E-05    -4089008.    
  1.4509000E-05    -7720127.    
  1.4532000E-05   -1.0938422E+07
  1.4555000E-05   -1.3579762E+07
  1.4578000E-05   -1.5545385E+07
  1.4601000E-05   -1.6760982E+07
  1.4624000E-05   -1.7144650E+07
  1.4647000E-05   -1.6659782E+07
  1.4670000E-05   -1.5373397E+07
  1.4693000E-05   -1.3389347E+07
  1.4716000E-05   -1.0767201E+07
  1.4739000E-05    -7603088.    
  1.4762000E-05    -4114874.    
  1.4785000E-05    -504782.6    
  1.4808000E-05     3166474.    
  1.4831000E-05     6827376.    
  1.4854000E-05    1.0271763E+07
  1.4877000E-05    1.3313978E+07
  1.4900000E-05    1.5935061E+07
  1.4923000E-05    1.8154508E+07
  1.4946000E-05    1.9881294E+07
  1.4969000E-05    2.0999878E+07
  1.4992000E-05    2.1505470E+07
  1.5015000E-05    2.1463894E+07
  1.5038000E-05    2.0872962E+07
  1.5061000E-05    1.9670854E+07
  1.5084000E-05    1.7876938E+07
  1.5107000E-05    1.5616617E+07
  1.5130000E-05    1.2962267E+07
  1.5153000E-05     9885982.    
  1.5176000E-05     6437826.    
  1.5199000E-05     2814362.    
  1.5222000E-05    -840073.1    
  1.5245000E-05    -4518578.    
  1.5268000E-05    -8160230.    
  1.5291000E-05   -1.1580833E+07
  1.5314001E-05   -1.4652696E+07
  1.5337000E-05   -1.7381122E+07
  1.5359999E-05   -1.9744564E+07
  1.5383001E-05   -2.1629436E+07
  1.5406000E-05   -2.2969060E+07
  1.5428999E-05   -2.3817092E+07
  1.5452000E-05   -2.4228698E+07
  1.5475000E-05   -2.4172136E+07
  1.5498001E-05   -2.3602346E+07
  1.5521000E-05   -2.2576696E+07
  1.5543999E-05   -2.1203406E+07
  1.5567000E-05   -1.9494954E+07
  1.5590000E-05   -1.7392648E+07
  1.5613001E-05   -1.4923500E+07
  1.5636000E-05   -1.2191577E+07
  1.5658999E-05    -9217941.    
  1.5682001E-05    -5959508.    
  1.5705000E-05    -2468288.    
  1.5727999E-05     1134496.    
  1.5751000E-05     4797404.    
  1.5774000E-05     8500919.    
  1.5797001E-05    1.2114992E+07
  1.5820000E-05    1.5438203E+07
  1.5842999E-05    1.8335736E+07
  1.5866000E-05    2.0729372E+07
  1.5889000E-05    2.2491426E+07
  1.5912001E-05    2.3439638E+07
  1.5935000E-05    2.3442604E+07
  1.5957999E-05    2.2476006E+07
  1.5981001E-05    2.0564686E+07
  1.6004000E-05    1.7736294E+07
  1.6026999E-05    1.4089863E+07
  1.6050000E-05     9845846.    
  1.6073000E-05     5242582.    
  1.6096001E-05     464946.1    
  1.6119000E-05    -4237182.    
  1.6141999E-05    -8488852.    
  1.6165000E-05   -1.1983522E+07
  1.6188000E-05   -1.4616253E+07
  1.6210999E-05   -1.6329764E+07
  1.6234000E-05   -1.6988852E+07
  1.6257000E-05   -1.6525764E+07
  1.6280001E-05   -1.5073087E+07
  1.6303000E-05   -1.2849049E+07
  1.6325999E-05   -1.0024347E+07
  1.6349000E-05    -6782583.    
  1.6372000E-05    -3399607.    
  1.6395001E-05    -150954.9    
  1.6418000E-05     2809857.    
  1.6440999E-05     5391251.    
  1.6464001E-05     7431684.    
  1.6487000E-05     8767971.    
  1.6509999E-05     9418430.    
  1.6533000E-05     9528487.    
  1.6556000E-05     9133494.    
  1.6579001E-05     8171858.    
  1.6602000E-05     6730978.    
  1.6624999E-05     5050428.    
  1.6648000E-05     3262055.    
  1.6671000E-05     1354405.    
  1.6694001E-05    -589896.3    
  1.6717000E-05    -2352662.    
  1.6739999E-05    -3798171.    
  1.6763001E-05    -4929880.    
  1.6786000E-05    -5705992.    
  1.6808999E-05    -5985578.    
  1.6832000E-05    -5708422.    
  1.6855000E-05    -4976484.    
  1.6878001E-05    -3895223.    
  1.6901000E-05    -2463868.    
  1.6923999E-05    -712730.0    
  1.6947000E-05     1170782.    
  1.6970000E-05     2975504.    
  1.6993001E-05     4634076.    
  1.7016000E-05     6137290.    
  1.7038999E-05     7387715.    
  1.7062001E-05     8286286.    
  1.7085000E-05     8877393.    
  1.7107999E-05     9269433.    
  1.7131000E-05     9492826.    
  1.7154000E-05     9557071.    
  1.7177001E-05     9560989.    
  1.7200000E-05     9622267.    
  1.7222999E-05     9754659.    
  1.7246000E-05     9901536.    
  1.7269000E-05    1.0033358E+07
  1.7292001E-05    1.0135356E+07
  1.7315000E-05    1.0140785E+07
  1.7337999E-05     9945248.    
  1.7361001E-05     9469003.    
  1.7384000E-05     8663392.    
  1.7406999E-05     7480588.    
  1.7430000E-05     5888334.    
  1.7453000E-05     3908476.    
  1.7476001E-05     1603580.    
  1.7499000E-05    -965086.7    
  1.7521999E-05    -3728333.    
  1.7545000E-05    -6570288.    
  1.7568000E-05    -9346285.    
  1.7591001E-05   -1.1930441E+07
  1.7614000E-05   -1.4211979E+07
  1.7636999E-05   -1.6069478E+07
  1.7660001E-05   -1.7392306E+07
  1.7683000E-05   -1.8118070E+07
  1.7705999E-05   -1.8229468E+07
  1.7729000E-05   -1.7724740E+07
  1.7752000E-05   -1.6634381E+07
  1.7775001E-05   -1.5048022E+07
  1.7798000E-05   -1.3102658E+07
  1.7820999E-05   -1.0941786E+07
  1.7844000E-05    -8702132.    
  1.7867000E-05    -6521452.    
  1.7890001E-05    -4531798.    
  1.7913000E-05    -2833988.    
  1.7935999E-05    -1477258.    
  1.7959001E-05    -458518.2    
  1.7982000E-05     264246.2    
  1.8004999E-05     754858.4    
  1.8028000E-05     1094311.    
  1.8051000E-05     1379546.    
  1.8074001E-05     1700570.    
  1.8097000E-05     2106324.    
  1.8119999E-05     2614398.    
  1.8143000E-05     3231671.    
  1.8166000E-05     3928759.    
  1.8188999E-05     4609526.    
  1.8212000E-05     5158530.    
  1.8235000E-05     5504236.    
  1.8258001E-05     5600947.    
  1.8281000E-05     5387386.    
  1.8303999E-05     4818714.    
  1.8327000E-05     3922767.    
  1.8350000E-05     2789103.    
  1.8373001E-05     1506817.    
  1.8396000E-05     150289.8    
  1.8418999E-05    -1172255.    
  1.8442001E-05    -2306388.    
  1.8465000E-05    -3133878.    
  1.8487999E-05    -3622209.    
  1.8511000E-05    -3755408.    
  1.8534000E-05    -3480371.    
  1.8557001E-05    -2780067.    
  1.8580000E-05    -1730062.    
  1.8602999E-05    -426292.8    
  1.8626000E-05     1066575.    
  1.8649000E-05     2653076.    
  1.8672001E-05     4187912.    
  1.8695000E-05     5556546.    
  1.8717999E-05     6697600.    
  1.8741001E-05     7530769.    
  1.8764000E-05     7943008.    
  1.8786999E-05     7867202.    
  1.8810000E-05     7325468.    
  1.8833000E-05     6382968.    
  1.8856001E-05     5093892.    
  1.8879000E-05     3522956.    
  1.8901999E-05     1809199.    
  1.8925000E-05     154667.6    
  1.8948000E-05    -1266455.    
  1.8971001E-05    -2330988.    
  1.8994000E-05    -2900362.    
  1.9016999E-05    -2832655.    
  1.9040001E-05    -2081420.    
  1.9063000E-05    -707204.5    
  1.9085999E-05     1192484.    
  1.9109000E-05     3480393.    
  1.9132000E-05     5934688.    
  1.9155001E-05     8285932.    
  1.9178000E-05    1.0275454E+07
  1.9200999E-05    1.1658312E+07
  1.9224000E-05    1.2207291E+07
  1.9247000E-05    1.1757966E+07
  1.9270001E-05    1.0246918E+07
  1.9293000E-05     7726736.    
  1.9315999E-05     4343790.    
  1.9339001E-05     287928.3    
  1.9362000E-05    -4213772.    
  1.9384999E-05    -8846706.    
  1.9408000E-05   -1.3232911E+07
  1.9431000E-05   -1.7036992E+07
  1.9454001E-05   -2.0010246E+07
  1.9477000E-05   -2.1942478E+07
  1.9499999E-05   -2.2664978E+07
  1.9523000E-05   -2.2093204E+07
  1.9546000E-05   -2.0234286E+07
  1.9569001E-05   -1.7171334E+07
  1.9592000E-05   -1.3060953E+07
  1.9614999E-05    -8120884.    
  1.9638001E-05    -2617446.    
  1.9661000E-05     3144947.    
  1.9683999E-05     8858030.    