  -9.37500000        -1.06881561E-30
  -9.26500034        -7.85494477E-31
  -9.15499973        -3.26161056E-31
  -9.04500008         1.41180539E-31
  -8.93500042         4.56921848E-31
  -8.82499981         5.29276864E-31
  -8.71500015         3.62111717E-31
  -8.60499954         4.63270699E-32
  -8.49499989        -2.77852211E-31
  -8.38500023        -4.74681640E-31
  -8.27499962        -4.65822550E-31
  -8.16499996        -2.62146102E-31
  -8.05500031         4.19750519E-32
  -7.94500017         3.12566957E-31
  -7.83500004         4.37787809E-31
  -7.72499990         3.76041912E-31
  -7.61499977         1.67570810E-31
  -7.50500011        -9.13569054E-32
  -7.39499998        -2.93660729E-31
  -7.28499985        -3.63902183E-31
  -7.17500019        -2.83691268E-31
  -7.06500006        -9.50877187E-32
  -6.95499992         1.17150978E-31
  -6.84499979         2.65237464E-31
  -6.73500013         2.63169440E-31
  -6.62500000         3.06783972E-31
  -6.51499987        -7.42717674E-31
  -6.40500021         3.82072039E-30
  -6.29500008        -1.89631967E-29
  -6.18499994         8.01843659E-29
  -6.07499981        -3.12513069E-28
  -5.96500015         1.10546944E-27
  -5.85500002        -3.56144236E-27
  -5.74499989         1.04460946E-26
  -5.63500023        -2.78271948E-26
  -5.52500010         6.70146152E-26
  -5.41499996        -1.44637930E-25
  -5.30499983         2.75326483E-25
  -5.19500017        -4.47572413E-25
  -5.08500004         5.74052799E-25
  -4.97499990        -4.23025970E-25
  -4.86499977        -4.22681978E-25
  -4.75500011         2.47385044E-24
  -4.64499998        -5.97100258E-24
  -4.53499985         1.01881015E-23
  -4.42500019        -1.26217816E-23
  -4.31500006         8.72887056E-24
  -4.20499992         6.80174016E-24
  -4.09499979        -3.65591086E-23
  -3.98499990         7.52930878E-23
  -3.87500000        -1.05701139E-22
  -3.76500010         9.91690360E-23
  -3.65499997        -2.51209363E-23
  -3.54500008        -1.30782410E-22
  -3.43499994         3.45067904E-22
  -3.32500005        -5.41823092E-22
  -3.21499991         5.97049868E-22
  -3.10500002        -3.73064540E-22
  -2.99499989        -2.13431657E-22
  -2.88499999         1.10686651E-21
  -2.77500010        -2.05221511E-21
  -2.66499996         2.60230496E-21
  -2.55500007        -2.22798574E-21
  -2.44499993         5.42837681E-22
  -2.33500004         2.42051687E-21
  -2.22499990        -6.01195515E-21
  -2.11500001         8.93673009E-21
  -2.00500011        -9.47760120E-21
  -1.89499998         6.05426900E-21
  -1.78499997         2.00132391E-21
  -1.67499995        -1.36956730E-20
  -1.56500006         2.57947728E-20
  -1.45500004        -3.29878336E-20
  -1.34500003         2.93582103E-20
  -1.23500001        -1.06204490E-20
  -1.12500000        -2.30075958E-20
  -1.01499999         6.38722438E-20
 -0.904999971        -9.73068712E-20
 -0.795000017         1.05005486E-19
 -0.685000002        -6.93223365E-20
 -0.574999988        -1.59195319E-20
 -0.465000004         1.35325882E-19
 -0.354999989        -2.53956390E-19
 -0.245000005         3.16347419E-19
 -0.135000005        -2.61067740E-19
  -2.50000004E-02     6.56181248E-20
   8.50000009E-02     2.47722240E-19
  0.194999993        -6.00565850E-19
  0.305000007         8.23106593E-19
  0.414999992        -7.72006322E-19
  0.524999976         3.80317121E-19
  0.634999990         3.89668088E-19
  0.745000005        -1.27490401E-18
  0.855000019         1.88626731E-18
  0.964999974        -2.03949921E-18
   1.07500005         1.22693498E-18
   1.18499994         5.18490818E-19
   1.29499996        -2.29882488E-18
   1.40499997         4.15904468E-18
   1.51499999        -4.78797781E-18
   1.62500000         2.73662593E-18
   1.73500001        -2.72480066E-19
   1.84500003        -4.07552177E-18
   1.95500004         9.14365036E-18
   2.06500006        -8.08049000E-18
   2.17499995         7.63576048E-18
   2.28500009        -3.21392755E-18
   2.39499998        -1.09373990E-17
   2.50500011         1.09385041E-17
   2.61500001        -1.70281846E-17
   2.72499990         2.34602500E-17
   2.83500004         7.90922887E-18
   2.94499993        -2.13451331E-18
   3.05500007         1.55794373E-17
   3.16499996        -6.17883073E-17
   3.27500010        -9.39925413E-18
   3.38499999        -2.83256354E-17
   3.49499989         2.44382869E-17
   3.60500002         1.31457555E-16
   3.71499991         5.66514032E-17
   3.82500005         8.69059179E-17
   3.93499994        -1.46014332E-16
   4.04500008        -2.91427059E-16
   4.15500021        -2.66953048E-16
   4.26499987        -2.00253478E-16
   4.37500000         3.94045286E-16
   4.48500013         7.26395339E-16
   4.59499979         9.45415612E-16
   4.70499992         5.82651677E-16
   4.81500006        -6.70142716E-16
   4.92500019        -1.77388033E-15
   5.03499985        -2.82625862E-15
   5.14499998        -2.22761894E-15
   5.25500011        -4.68188793E-17
   5.36499977         3.09821507E-15
   5.47499990         6.71040931E-15
   5.58500004         7.90025682E-15
   5.69500017         6.60944044E-15
   5.80499983         1.72336752E-15
   5.91499996        -5.69566892E-15
   6.02500010        -1.30250094E-14
   6.13500023        -2.00525276E-14
   6.24499989        -2.43693700E-14
   6.35500002        -2.82138492E-14
   6.46500015        -3.26527982E-14
   6.57499981        -3.96128239E-14
   6.68499994        -5.26484509E-14
   6.79500008        -6.99342927E-14
   6.90500021        -9.42332082E-14
   7.01499987        -1.24203911E-13
   7.12500000        -1.61552941E-13
   7.23500013        -2.10639300E-13
   7.34499979        -2.72250647E-13
   7.45499992        -3.54921875E-13
   7.56500006        -4.59489976E-13
   7.67500019        -5.92072994E-13
   7.78499985        -7.57348123E-13
   7.89499998        -9.57553589E-13
   8.00500011        -1.20914986E-12
   8.11499977        -1.51764755E-12
   8.22500038        -1.90064696E-12
   8.33500004        -2.37280356E-12
   8.44499969        -2.94536032E-12
   8.55500031        -3.64125570E-12
   8.66499996        -4.46572336E-12
   8.77499962        -5.44844421E-12
   8.88500023        -6.61247619E-12
   8.99499989        -7.98306126E-12
   9.10499954        -9.60068483E-12
   9.21500015        -1.14755956E-11
   9.32499981        -1.36511609E-11
   9.43500042        -1.61488323E-11
   9.54500008        -1.89861304E-11
   9.65499973        -2.21997976E-11
   9.76500034        -2.57953277E-11
   9.87500000        -2.98165763E-11
   9.98499966        -3.42554735E-11
   10.0950003        -3.91058574E-11
   10.2049999        -4.43793821E-11
   10.3149996        -5.00251784E-11
   10.4250002        -5.60343369E-11
   10.5349998        -6.23246246E-11
   10.6450005        -6.88205395E-11
   10.7550001        -7.54592500E-11
   10.8649998        -8.20865320E-11
   10.9750004        -8.85896564E-11
   11.0850000        -9.47744452E-11
   11.1949997        -1.00477966E-10
   11.3050003        -1.05521279E-10
   11.4150000        -1.09613110E-10
   11.5249996        -1.12564610E-10
   11.6350002        -1.14105753E-10
   11.7449999        -1.13997985E-10
   11.8549995        -1.12003955E-10
   11.9650002        -1.07817678E-10
   12.0749998        -1.01291600E-10
   12.1850004        -9.22011634E-11
   12.2950001        -8.03945452E-11
   12.4049997        -6.57618821E-11
   12.5150003        -4.82026016E-11
   12.6250000        -2.78347085E-11
   12.7349997        -4.67528186E-12
   12.8450003         2.11239307E-11
   12.9549999         4.92876677E-11
   13.0649996         7.95164004E-11
   13.1750002         1.11321771E-10
   13.2849998         1.44301390E-10
   13.3950005         1.77863835E-10
   13.5050001         2.11335352E-10
   13.6149998         2.44073317E-10
   13.7250004         2.75305168E-10
   13.8350000         3.04385489E-10
   13.9449997         3.30521166E-10
   14.0550003         3.52963853E-10
   14.1650000         3.71106590E-10
   14.2749996         3.84297483E-10
   14.3850002         3.92066407E-10
   14.4949999         3.93931193E-10
   14.6049995         3.89611177E-10
   14.7150002         3.78995169E-10
   14.8249998         3.62009450E-10
   14.9350004         3.38832129E-10
   15.0450001         3.09698045E-10
   15.1549997         2.75075962E-10
   15.2650003         2.35549164E-10
   15.3750000         1.91772917E-10
   15.4849997         1.44598097E-10
   15.5950003         9.48784940E-11
   15.7049999         4.36210824E-11
   15.8149996        -8.20453427E-12
   15.9250002        -5.95978128E-11
   16.0349998        -1.09528546E-10
   16.1450005        -1.57094518E-10
   16.2549992        -2.01356043E-10
   16.3649998        -2.41581699E-10
   16.4750004        -2.77055184E-10
   16.5849991        -3.07208953E-10
   16.6949997        -3.31685734E-10
   16.8050003        -3.50128038E-10
   16.9150009        -3.62503028E-10
   17.0249996        -3.68769709E-10
   17.1350002        -3.69093117E-10
   17.2450008        -3.63813119E-10
   17.3549995        -3.53228446E-10
   17.4650002        -3.37958800E-10
   17.5750008        -3.18476717E-10
   17.6849995        -2.95453939E-10
   17.7950001        -2.69617328E-10
   17.9050007        -2.41526271E-10
   18.0149994        -2.12037138E-10
   18.1250000        -1.81685708E-10
   18.2350006        -1.51140309E-10
   18.3449993        -1.21056123E-10
   18.4549999        -9.18240137E-11
   18.5650005        -6.40656833E-11
   18.6749992        -3.80144284E-11
   18.7849998        -1.40459432E-11
   18.8950005         7.55902979E-12
   19.0049992         2.67993197E-11
   19.1149998         4.33853196E-11
   19.2250004         5.74828241E-11
   19.3349991         6.90708671E-11
   19.4449997         7.81401610E-11
   19.5550003         8.50020193E-11
   19.6650009         8.96562963E-11
   19.7749996         9.24358715E-11
   19.8850002         9.34697597E-11
   19.9950008         9.29202965E-11
   20.1049995         9.11845252E-11
   20.2150002         8.82811602E-11
   20.3250008         8.45728904E-11
   20.4349995         8.01989378E-11
   20.5450001         7.52506391E-11
   20.6550007         7.00878383E-11
   20.7649994         6.46869641E-11
   20.8750000         5.92616789E-11
   20.9850006         5.38815936E-11
   21.0949993         4.85827316E-11
   21.2049999         4.36030691E-11
   21.3150005         3.88094244E-11
   21.4249992         3.43270412E-11
   21.5349998         3.02001965E-11
   21.6450005         2.63504513E-11
   21.7549992         2.29124168E-11
   21.8649998         1.97681455E-11
   21.9750004         1.69677744E-11
   22.0849991         1.44888025E-11
   22.1949997         1.22382963E-11
   22.3050003         1.03493030E-11
   22.4150009         8.67121219E-12
   22.5249996         7.19606449E-12
   22.6350002         5.97362698E-12
   22.7450008         4.88082751E-12
   22.8549995         3.98013567E-12
   22.9650002         3.22465210E-12
   23.0750008         2.58863005E-12
   23.1849995         2.05631150E-12
   23.2950001         1.57303359E-12
   23.4050007         1.24676072E-12
   23.5149994         9.70891228E-13
   23.6250000         6.98825817E-13
   23.7350006         5.28834951E-13
   23.8449993         3.78175220E-13
   23.9549999         2.70714766E-13
   24.0650005         2.06924050E-13
   24.1749992         1.41843406E-13
   24.2849998         1.08250140E-13
   24.3950005         8.56919787E-14
   24.5049992         1.05104924E-13
   24.6149998         1.30035861E-13
   24.7250004         1.33646796E-13
   24.8349991         1.81317133E-13
   24.9449997         2.26788748E-13
   25.0550003         2.68984135E-13
   25.1650009         3.26384590E-13
   25.2749996         3.70800097E-13
   25.3850002         4.34451411E-13
   25.4950008         4.93046142E-13
   25.6049995         5.29544941E-13
   25.7150002         5.84085840E-13
   25.8250008         6.33804749E-13
   25.9349995         6.66440156E-13
   26.0450001         6.96722628E-13
   26.1550007         7.18750146E-13
   26.2649994         7.36004736E-13
   26.3750000         7.38917174E-13
   26.4850006         7.41022695E-13
   26.5949993         7.33781091E-13
   26.7049999         6.88093679E-13
   26.8150005         6.65440522E-13
   26.9249992         6.43914501E-13
   27.0349998         5.77059342E-13
   27.1450005         5.19288334E-13
   27.2549992         4.60696368E-13
   27.3649998         3.97126993E-13
   27.4750004         3.25665493E-13
   27.5849991         2.47402982E-13
   27.6949997         1.78629653E-13
   27.8050003         8.71978948E-14
   27.9150009         1.80029619E-14
   28.0249996        -4.19509262E-14
   28.1350002        -1.28602017E-13
   28.2450008        -1.91717248E-13
   28.3549995        -2.46462789E-13
   28.4650002        -2.96049128E-13
   28.5750008        -3.47622864E-13
   28.6849995        -3.86865101E-13
   28.7950001        -4.01228828E-13
   28.9050007        -4.34216194E-13
   29.0149994        -4.46546066E-13
   29.1250000        -4.44081837E-13
   29.2350006        -4.42521589E-13
   29.3449993        -4.23780639E-13
   29.4549999        -4.06949377E-13
   29.5650005        -3.77407225E-13
   29.6749992        -3.50741680E-13
   29.7849998        -3.10784682E-13
   29.8950005        -2.63266947E-13
   30.0049992        -2.33335405E-13
   30.1149998        -1.82179643E-13
   30.2250004        -1.43047371E-13
   30.3349991        -1.04815143E-13
   30.4449997        -5.82441810E-14
   30.5550003        -3.21395708E-14
   30.6650009         3.45738070E-17
   30.7749996         1.60661364E-14
   30.8850002         3.15227309E-14
   30.9950008         4.31645212E-14
   31.1049995         3.40378530E-14
   31.2150002         3.11937433E-14
   31.3250008         4.04618830E-15
   31.4349995        -1.91663227E-14
   31.5450001        -4.51249383E-14
   31.6550007        -1.00492768E-13
   31.7649994        -1.38116623E-13
   31.8750000        -1.91034810E-13
   31.9850006        -2.53736702E-13
   32.0950012        -3.01708935E-13
   32.2050018        -3.60263902E-13
   32.3149986        -4.15421143E-13
   32.4249992        -4.70625763E-13
   32.5349998        -5.16188166E-13
   32.6450005        -5.56406538E-13
   32.7550011        -5.95036227E-13
   32.8650017        -6.04788843E-13
   32.9749985        -6.26709676E-13
   33.0849991        -6.44947095E-13
   33.1949997        -6.19204666E-13
   33.3050003        -6.01408571E-13
   33.4150009        -5.82679358E-13
   33.5250015        -5.36289871E-13
   33.6349983        -4.85473749E-13
   33.7449989        -4.30427775E-13
   33.8549995        -3.64114907E-13
   33.9650002        -2.84587919E-13
   34.0750008        -2.10420955E-13
   34.1850014        -1.37790698E-13
   34.2949982        -4.58612911E-14
   34.4049988         3.47467010E-14
   34.5149994         1.07485039E-13
   34.6250000         1.89809187E-13
   34.7350006         2.57877514E-13
   34.8450012         3.18688110E-13
   34.9550018         3.77228305E-13
   35.0649986         4.27489289E-13
   35.1749992         4.70095588E-13
   35.2849998         4.90242612E-13
   35.3950005         5.07398268E-13
   35.5050011         5.31294681E-13
   35.6150017         5.25598391E-13
   35.7249985         5.06508409E-13
   35.8349991         4.99812323E-13
   35.9449997         4.78804984E-13
   36.0550003         4.38463366E-13
   36.1650009         4.03168465E-13
   36.2750015         3.74607707E-13
   36.3849983         3.21339770E-13
   36.4949989         2.66276394E-13
   36.6049995         2.42368950E-13
   36.7150002         1.90107627E-13
   36.8250008         1.30098365E-13
   36.9350014         1.08951592E-13
   37.0449982         6.95008355E-14
   37.1549988         2.21871082E-14
   37.2649994         1.10184375E-15
   37.3750000        -1.58561044E-14
   37.4850006        -4.69558610E-14
   37.5950012        -6.96079885E-14
   37.7050018        -6.07054757E-14
   37.8149986        -7.20603319E-14
   37.9249992        -9.01910315E-14
   38.0349998        -7.46179580E-14
   38.1450005        -6.82370352E-14
   38.2550011        -6.79446123E-14
   38.3650017        -6.07564536E-14
   38.4749985        -5.16729705E-14
   38.5849991        -4.02386762E-14
   38.6949997        -3.51507933E-14
   38.8050003        -2.30778091E-14
   38.9150009        -1.28478483E-14
   39.0250015        -1.40031809E-14
   39.1349983        -9.80143751E-15
   39.2449989         8.77129245E-16
   39.3549995         1.89024656E-15
   39.4650002        -9.16023950E-15
   39.5750008        -6.82968256E-15
   39.6850014         2.61556574E-15
   39.7949982        -7.51777062E-15
   39.9049988        -1.84205102E-14
   40.0149994        -7.80785738E-15
   40.1250000        -5.63776829E-15
   40.2350006        -1.99608532E-14
   40.3450012        -1.48493143E-14
   40.4550018        -6.33835856E-15
   40.5649986        -7.42823077E-15
   40.6749992         2.96126054E-16
   40.7849998         1.07184667E-14
   40.8950005         1.86330579E-14
   41.0050011         2.69243635E-14
   41.1150017         4.91306316E-14
   41.2249985         6.89953262E-14
   41.3349991         7.28342151E-14
   41.4449997         9.10419743E-14
   41.5550003         1.17108851E-13
   41.6650009         1.35514104E-13
   41.7750015         1.47819528E-13
   41.8849983         1.63385703E-13
   41.9949989         1.89303610E-13
   42.1049995         2.03631681E-13
   42.2150002         2.13101468E-13
   42.3250008         2.31427101E-13
   42.4350014         2.44029813E-13
   42.5449982         2.48193230E-13
   42.6549988         2.55889087E-13
   42.7649994         2.67491975E-13
   42.8750000         2.66740270E-13
   42.9850006         2.62638381E-13
   43.0950012         2.65904649E-13
   43.2050018         2.60664537E-13
   43.3149986         2.44908504E-13
   43.4249992         2.36255785E-13
   43.5349998         2.31572790E-13
   43.6450005         2.05977962E-13
   43.7550011         1.77845558E-13
   43.8650017         1.65058519E-13
   43.9749985         1.42154843E-13
   44.0849991         1.06541986E-13
   44.1949997         7.28309557E-14
   44.3050003         4.40005156E-14
   44.4150009         6.75221885E-15
   44.5250015        -3.55441147E-14
   44.6349983        -6.84055270E-14
   44.7449989        -1.09880990E-13
   44.8549995        -1.54112847E-13
   44.9650002        -1.86817833E-13
   45.0750008        -2.25450856E-13
   45.1850014        -2.68998609E-13
   45.2949982        -3.05297427E-13
   45.4049988        -3.34229850E-13
   45.5149994        -3.65030245E-13
   45.6250000        -3.98940104E-13
   45.7350006        -4.21065662E-13
   45.8450012        -4.37033981E-13
   45.9550018        -4.56891035E-13
   46.0649986        -4.69736609E-13
   46.1749992        -4.77189252E-13
   46.2849998        -4.81307539E-13
   46.3950005        -4.79600734E-13
   46.5050011        -4.75643613E-13
   46.6150017        -4.64195089E-13
   46.7249985        -4.53039678E-13
   46.8349991        -4.38700400E-13
   46.9449997        -4.14851205E-13
   47.0550003        -3.95803832E-13
   47.1650009        -3.71123217E-13
   47.2750015        -3.42424412E-13
   47.3849983        -3.16044500E-13
   47.4949989        -2.85920701E-13
   47.6049995        -2.55459580E-13
   47.7150002        -2.19670094E-13
   47.8250008        -1.90225643E-13
   47.9350014        -1.60601458E-13
   48.0449982        -1.25409882E-13
   48.1549988        -9.82057995E-14
   48.2649994        -6.58882196E-14
   48.3750000        -3.69153425E-14
   48.4850006        -1.09891988E-14
   48.5950012         1.55182264E-14
   48.7050018         3.83591914E-14
   48.8149986         6.65509992E-14
   48.9249992         8.62766483E-14
   49.0349998         1.06516141E-13
   49.1450005         1.23782806E-13
   49.2550011         1.35827669E-13
   49.3650017         1.55917746E-13
   49.4749985         1.64582933E-13
   49.5849991         1.76705506E-13
   49.6949997         1.85741085E-13
   49.8050003         1.87976682E-13
   49.9150009         1.99448598E-13
   50.0250015         1.98939742E-13
   50.1349983         2.01791993E-13
   50.2449989         2.01340545E-13
   50.3549995         1.98116941E-13
   50.4650002         2.01838993E-13
   50.5750008         1.90807100E-13
   50.6850014         1.91948874E-13
   50.7949982         1.88995033E-13
   50.9049988         1.75583465E-13
   51.0149994         1.74018284E-13
   51.1250000         1.65601704E-13
   51.2350006         1.66186143E-13
   51.3450012         1.59575559E-13
   51.4550018         1.48697190E-13
   51.5649986         1.53344609E-13
   51.6749992         1.46005292E-13
   51.7849998         1.46446481E-13
   51.8950005         1.50664664E-13
   52.0050011         1.50209462E-13
   52.1150017         1.55614196E-13
   52.2249985         1.56642792E-13
   52.3349991         1.70846559E-13
   52.4449997         1.79631687E-13
   52.5550003         1.81210366E-13
   52.6650009         1.97522825E-13
   52.7750015         2.05695568E-13
   52.8849983         2.14977477E-13
   52.9949989         2.28873642E-13
   53.1049995         2.37625349E-13
   53.2150002         2.44185911E-13
   53.3250008         2.44091992E-13
   53.4350014         2.50432813E-13
   53.5449982         2.55095803E-13
   53.6549988         2.48935882E-13
   53.7649994         2.40816590E-13
   53.8750000         2.29043401E-13
   53.9850006         2.17835136E-13
   54.0950012         1.99121481E-13
   54.2050018         1.75601721E-13
   54.3149986         1.54961059E-13
   54.4249992         1.23545325E-13
   54.5349998         8.86141814E-14
   54.6450005         6.10531387E-14
   54.7550011         3.23608090E-14
   54.8650017        -8.68365218E-15
   54.9749985        -4.69787817E-14
   55.0849991        -7.17361487E-14
   55.1949997        -1.08566734E-13
   55.3050003        -1.44776471E-13
   55.4150009        -1.64748423E-13
   55.5250015        -1.88922811E-13
   55.6349983        -2.16318093E-13
   55.7449989        -2.34753026E-13
   55.8549995        -2.37783561E-13
   55.9650002        -2.47422254E-13
   56.0750008        -2.61079109E-13
   56.1850014        -2.52063751E-13
   56.2949982        -2.47348257E-13
   56.4049988        -2.44170894E-13
   56.5149994        -2.28250958E-13
   56.6250000        -2.13033109E-13
   56.7350006        -1.96167518E-13
   56.8450012        -1.82885404E-13
   56.9550018        -1.56763518E-13
   57.0649986        -1.30857293E-13
   57.1749992        -1.21813529E-13
   57.2849998        -9.50723739E-14
   57.3950005        -7.01937694E-14
   57.5050011        -5.73002474E-14
   57.6150017        -4.11201462E-14
   57.7249985        -2.65554316E-14
   57.8349991        -6.49474540E-15
   57.9449997        -7.42514905E-16
   58.0550003         1.75657248E-15
   58.1650009         1.43361495E-14
   58.2750015         1.40329304E-14
   58.3849983         1.66160370E-14
   58.4949989         1.73011155E-14
   58.6049995         1.18072564E-14
   58.7150002         1.05738528E-14
   58.8250008         1.97182960E-15
   58.9350014         6.48083225E-16
   59.0449982        -2.60274611E-15
   59.1549988        -1.68835300E-14
   59.2649994        -1.95500608E-14
   59.3750000        -2.39101612E-14
   59.4850006        -3.22834444E-14
   59.5950012        -3.47623812E-14
   59.7050018        -3.71112476E-14
   59.8149986        -3.74354580E-14
   59.9249992        -4.29354564E-14
   60.0349998        -4.39821485E-14
   60.1450005        -3.58379911E-14
   60.2550011        -3.84780200E-14
   60.3650017        -3.79636237E-14
   60.4749985        -3.17497053E-14
   60.5849991        -2.97563725E-14
   60.6949997        -2.01291976E-14
   60.8050003        -1.69772033E-14
   60.9150009        -1.54261251E-14
   61.0250015        -5.73296420E-15
   61.1349983        -4.17187316E-15
   61.2449989         1.81756563E-15
   61.3549995         8.30161914E-15
   61.4650002         1.04859104E-14
   61.5750008         1.47519461E-14
   61.6850014         1.36799912E-14
   61.7949982         2.20239967E-14
   61.9049988         2.32583287E-14
   62.0149994         1.67807120E-14
   62.1250000         2.57023491E-14
   62.2350006         2.25327196E-14
   62.3450012         1.82598636E-14
   62.4550018         2.24012127E-14
   62.5649986         1.99156741E-14
   62.6749992         1.96093735E-14
   62.7849998         1.39683128E-14
   62.8950005         1.59067197E-14
   63.0050011         1.83661578E-14
   63.1150017         1.00396257E-14
   63.2249985         1.35135603E-14
   63.3349991         1.15492553E-14
   63.4449997         8.35552347E-15
   63.5550003         1.17512387E-14
   63.6650009         9.37958377E-15
   63.7750015         1.36190006E-14
   63.8849983         1.34084909E-14
   63.9949989         1.29187788E-14
   64.1050034         1.80517256E-14
   64.2149963         1.71087509E-14
   64.3249969         2.07347160E-14
   64.4349976         2.32386589E-14
   64.5449982         2.59780363E-14
   64.6549988         2.93523818E-14
   64.7649994         2.81813333E-14
   64.8750000         3.64086812E-14
   64.9850006         4.11275018E-14
   65.0950012         3.82572053E-14
   65.2050018         4.09435229E-14
   65.3150024         4.56855216E-14
   65.4250031         4.85720744E-14
   65.5350037         4.73149589E-14
   65.6449966         4.99922437E-14
   65.7549973         5.21530688E-14
   65.8649979         4.87468850E-14
   65.9749985         5.14980616E-14
   66.0849991         5.27449347E-14
   66.1949997         4.92357518E-14
   66.3050003         4.70052430E-14
   66.4150009         4.64606550E-14
   66.5250015         4.59571990E-14
   66.6350021         4.03867715E-14
   66.7450027         3.76814973E-14
   66.8550034         3.59188590E-14
   66.9649963         3.06100157E-14
   67.0749969         2.82251300E-14
   67.1849976         2.33425390E-14
   67.2949982         1.99176494E-14
   67.4049988         1.55749962E-14
   67.5149994         7.47210707E-15
   67.6250000         6.68150643E-15
   67.7350006         2.63223535E-15
   67.8450012        -3.62042803E-15
   67.9550018        -6.19459758E-15
   68.0650024        -1.10941995E-14
   68.1750031        -1.36965981E-14
   68.2850037        -1.93708134E-14
   68.3949966        -2.20952305E-14
   68.5049973        -2.26228880E-14
   68.6149979        -2.97663573E-14
   68.7249985        -2.85243630E-14
   68.8349991        -3.02957969E-14
   68.9449997        -3.61345001E-14
   69.0550003        -3.45237517E-14
   69.1650009        -3.81111971E-14
   69.2750015        -3.80804024E-14
   69.3850021        -3.79785043E-14
   69.4950027        -4.11935568E-14
   69.6050034        -3.97312425E-14
   69.7149963        -4.29255596E-14
   69.8249969        -4.05970525E-14
   69.9349976        -4.02768571E-14
   70.0449982        -4.50756816E-14
   70.1549988        -4.02283323E-14
   70.2649994        -4.20258412E-14
   70.3750000        -4.28220624E-14
   70.4850006        -4.04361366E-14
   70.5950012        -4.35736178E-14
   70.7050018        -4.02005191E-14
   70.8150024        -4.10120783E-14
   70.9250031        -4.05875318E-14
   71.0350037        -3.75075947E-14
   71.1449966        -4.02295960E-14
   71.2549973        -3.52799184E-14
   71.3649979        -3.45088812E-14
   71.4749985        -3.51662906E-14
   71.5849991        -2.98818994E-14
   71.6949997        -2.93638574E-14
   71.8050003        -2.51417471E-14
   71.9150009        -2.31743861E-14
   72.0250015        -2.09768387E-14
   72.1350021        -1.46106983E-14
   72.2450027        -1.40909479E-14
   72.3550034        -8.46411394E-15
   72.4649963        -3.15695850E-15
   72.5749969        -1.59598477E-15
   72.6849976         3.62075499E-15
   72.7949982         6.96333843E-15
   72.9049988         1.23990707E-14
   73.0149994         1.59394304E-14
   73.1250000         1.69459105E-14
   73.2350006         2.18581917E-14
   73.3450012         2.54264823E-14
   73.4550018         2.78571332E-14
   73.5650024         2.94258738E-14
   73.6750031         3.06445238E-14
   73.7850037         3.20225549E-14
   73.8949966         3.28799522E-14
   74.0049973         3.47978516E-14
   74.1149979         3.42076187E-14
   74.2249985         3.17818417E-14
   74.3349991         3.16832471E-14
   74.4449997         3.26922022E-14
   74.5550003         2.96044656E-14
   74.6650009         2.63273815E-14
   74.7750015         2.67968648E-14
   74.8850021         2.36457870E-14
   74.9950027         2.17167728E-14
   75.1050034         2.06696825E-14
   75.2149963         1.59869202E-14
   75.3249969         1.50789974E-14
   75.4349976         1.36813702E-14
   75.5449982         1.07021529E-14
   75.6549988         7.95938734E-15
   75.7649994         6.60506636E-15
   75.8750000         7.75037434E-15
   75.9850006         2.88255370E-15
   76.0950012         1.23882846E-15
   76.2050018         2.83246928E-15
   76.3150024        -9.72613205E-16
   76.4250031         4.05989509E-16
   76.5350037        -6.71298545E-16
   76.6449966        -4.11744833E-15
   76.7549973        -2.00746681E-15
   76.8649979        -2.39923565E-15
   76.9749985        -2.01903496E-15
   77.0849991        -4.36100673E-15
   77.1949997        -6.28141931E-15
   77.3050003        -3.12725835E-15
   77.4150009        -5.00595540E-15
   77.5250015        -4.41746994E-15
   77.6350021        -5.18835336E-15
   77.7450027        -7.25351836E-15
   77.8550034        -3.38599324E-15
   77.9649963        -6.67532266E-15
   78.0749969        -6.89453987E-15
   78.1849976        -4.98072314E-15
   78.2949982        -9.43445710E-15
   78.4049988        -7.29273006E-15
   78.5149994        -6.23902023E-15
   78.6250000        -6.93098050E-15
   78.7350006        -8.27384239E-15
   78.8450012        -9.72791675E-15
   78.9550018        -5.49814549E-15
   79.0650024        -8.77826576E-15
   79.1750031        -9.33844507E-15
   79.2850037        -5.43975782E-15
   79.3949966        -9.44158573E-15
   79.5049973        -8.04458446E-15
   79.6149979        -6.23872800E-15