  -15.0000000        -1.06881561E-30
  -14.8999996        -8.34665970E-31
  -14.8000002        -4.39659714E-31
  -14.6999998        -4.07200904E-33
  -14.6000004         3.46206079E-31
  -14.5000000         5.19783195E-31
  -14.3999996         4.85258409E-31
  -14.3000002         2.76245404E-31
  -14.1999998        -2.27649748E-32
  -14.1000004        -3.04230868E-31
  -14.0000000        -2.40623819E-27
  -13.8999996         6.43028874E-26
  -13.8000002        -8.02588564E-25
  -13.6999998         6.27734133E-24
  -13.6000004        -3.44984052E-23
  -13.5000000         1.38894500E-22
  -13.3999996        -3.99806975E-22
  -13.3000002         6.95484866E-22
  -13.1999998         1.27605450E-24
  -13.1000004        -3.98917786E-21
  -13.0000000         1.13718836E-20
  -12.8999996        -1.09929993E-20
  -12.8000002        -2.02782245E-20
  -12.6999998         8.41420204E-20
  -12.6000004        -1.05764412E-19
  -12.5000000        -6.12260736E-20
  -12.3999996         4.61487166E-19
  -12.3000002        -6.68312252E-19
  -12.1999998        -2.51917520E-19
  -12.1000004         2.25134947E-18
  -12.0000000        -2.50465740E-18
  -11.8999996        -1.65590474E-18
  -11.8000002         7.01008934E-18
  -11.6999998        -7.00583515E-18
  -11.6000004        -2.24923850E-18
  -11.5000000         2.02159434E-17
  -11.3999996        -2.71641464E-17
  -11.3000002        -6.75153832E-18
  -11.1999998         5.99429269E-17
  -11.1000004        -7.88104336E-17
  -11.0000000         9.99307716E-18
  -10.8999996         2.17511960E-16
  -10.8000002        -3.05490612E-16
  -10.6999998        -2.35231611E-16
  -10.6000004         6.81087970E-16
  -10.5000000        -1.72211433E-16
  -10.3999996        -4.99338416E-16
  -10.3000002         1.21703250E-15
  -10.1999998        -7.20541917E-16
  -10.1000004        -2.45510700E-15
  -10.0000000         1.67395437E-15
  -9.89999962         1.73675868E-15
  -9.80000019         3.76422712E-16
  -9.69999981         4.13298292E-15
  -9.60000038        -4.12185544E-15
  -9.50000000        -1.15096565E-14
  -9.39999962         2.84004620E-15
  -9.30000019         1.73783833E-15
  -9.19999981        -2.40045114E-15
  -9.10000038         3.29971646E-14
  -9.00000000         2.49729707E-14
  -8.89999962        -4.17108635E-14
  -8.80000019        -3.98853924E-14
  -8.69999981        -1.49192351E-14
  -8.60000038        -3.87726892E-14
  -8.50000000         9.08197281E-15
  -8.39999962         9.72245694E-14
  -8.30000019         1.16918980E-13
  -8.19999981         1.22377003E-13
  -8.10000038         1.45308146E-14
  -8.00000000        -2.22474030E-13
  -7.90000010        -3.08342002E-13
  -7.80000019        -3.11888780E-13
  -7.69999981        -2.93453304E-13
  -7.59999990         1.35555765E-13
  -7.50000000         7.61333488E-13
  -7.40000010         1.03860334E-12
  -7.30000019         1.03827786E-12
  -7.19999981         5.32115747E-13
  -7.09999990        -7.18960536E-13
  -7.00000000        -2.01578511E-12
  -6.90000010        -2.98567464E-12
  -6.80000019        -3.28231452E-12
  -6.69999981        -1.77195303E-12
  -6.59999990         1.35975931E-12
  -6.50000000         5.05159066E-12
  -6.40000010         8.79558665E-12
  -6.30000019         1.02258809E-11
  -6.19999981         6.77839295E-12
  -6.09999990        -5.24521453E-13
  -6.00000000        -1.01806558E-11
  -5.90000010        -2.07782749E-11
  -5.80000019        -2.74333611E-11
  -5.69999981        -2.53495783E-11
  -5.59999990        -1.32692008E-11
  -5.50000000         7.59950349E-12
  -5.40000010         3.15087123E-11
  -5.30000019         4.89914671E-11
  -5.19999981         5.06594905E-11
  -5.09999990         2.72116930E-11
  -5.00000000        -2.56342916E-11
  -4.90000010        -1.01814057E-10
  -4.80000019        -1.88354402E-10
  -4.69999981        -2.64430144E-10
  -4.59999990        -3.01394520E-10
  -4.50000000        -2.74327033E-10
  -4.40000010        -1.65782471E-10
  -4.30000019         3.53056091E-11
  -4.19999981         3.25626887E-10
  -4.09999990         6.89493296E-10
  -4.00000000         1.10990617E-09
  -3.90000010         1.57370894E-09
  -3.79999995         2.08366968E-09
  -3.70000005         2.67356004E-09
  -3.59999990         3.41378659E-09
  -3.50000000         4.41505810E-09
  -3.40000010         5.82635984E-09
  -3.29999995         7.83387666E-09
  -3.20000005         1.06685709E-08
  -3.09999990         1.46062638E-08
  -3.00000000         1.99831689E-08
  -2.90000010         2.72388743E-08
  -2.79999995         3.69502686E-08
  -2.70000005         4.98841679E-08
  -2.59999990         6.70865390E-08
  -2.50000000         8.99456793E-08
  -2.40000010         1.20279310E-07
  -2.29999995         1.60471700E-07
  -2.20000005         2.13605290E-07
  -2.09999990         2.83652554E-07
  -2.00000000         3.75752336E-07
  -1.89999998         4.96511234E-07
  -1.79999995         6.54380301E-07
  -1.70000005         8.60230500E-07
  -1.60000002         1.12797943E-06
  -1.50000000         1.47536412E-06
  -1.39999998         1.92497214E-06
  -1.29999995         2.50543940E-06
  -1.20000005         3.25297810E-06
  -1.10000002         4.21334016E-06
  -1.00000000         5.44408476E-06
 -0.899999976         7.01738009E-06
 -0.800000012         9.02365082E-06
 -0.699999988         1.15757121E-05
 -0.600000024         1.48139334E-05
 -0.500000000         1.89128077E-05
 -0.400000006         2.40884183E-05
 -0.300000012         3.06075744E-05
 -0.200000003         3.87989749E-05
 -0.100000001         4.90667881E-05
   0.00000000         6.19058774E-05
  0.100000001         7.79214970E-05
  0.200000003         9.78507742E-05
  0.300000012         1.22589438E-04
  0.400000006         1.53224071E-04
  0.500000000         1.91067884E-04
  0.600000024         2.37703047E-04
  0.699999988         2.95032864E-04
  0.800000012         3.65340384E-04
  0.899999976         4.51353058E-04
   1.00000000         5.56323037E-04
   1.10000002         6.84119354E-04
   1.20000005         8.39328743E-04
   1.29999995         1.02737022E-03
   1.39999998         1.25463423E-03
   1.50000000         1.52863911E-03
   1.60000002         1.85819319E-03
   1.70000005         2.25358526E-03
   1.79999995         2.72680935E-03
   1.89999998         3.29180295E-03
   2.00000000         3.96471284E-03
   2.09999990         4.76419460E-03
   2.20000005         5.71170915E-03
   2.29999995         6.83188858E-03
   2.40000010         8.15295335E-03
   2.50000000         9.70707368E-03
   2.59999990         1.15308128E-02
   2.70000005         1.36656351E-02
   2.79999995         1.61583945E-02
   2.90000010         1.90618038E-02
   3.00000000         2.24350356E-02
   3.09999990         2.63442826E-02
   3.20000005         3.08632087E-02
   3.29999995         3.60737629E-02
   3.40000010         4.20665145E-02
   3.50000000         4.89411876E-02
   3.59999990         5.68074137E-02
   3.70000005         6.57850504E-02
   3.79999995         7.60045201E-02
   3.90000010         8.76073986E-02
   4.00000000        0.100746535    
   4.09999990        0.115585938    
   4.19999981        0.132301673    
   4.30000019        0.151080668    
   4.40000010        0.172120765    
   4.50000000        0.195630953    
   4.59999990        0.221829742    
   4.69999981        0.250944108    
   4.80000019        0.283209473    
   4.90000010        0.318867266    
   5.00000000        0.358162880    
   5.09999990        0.401343822    
   5.19999981        0.448658347    
   5.30000019        0.500351906    
   5.40000010        0.556662560    
   5.50000000        0.617821097    
   5.59999990        0.684043407    
   5.69999981        0.755528748    
   5.80000019        0.832456231    
   5.90000010        0.914978147    
   6.00000000         1.00321472    
   6.09999990         1.09725118    
   6.19999981         1.19713318    
   6.30000019         1.30286372    
   6.40000010         1.41439128    
   6.50000000         1.53160751    
   6.59999990         1.65434730    
   6.69999981         1.78238332    
   6.80000019         1.91541898    
   6.90000010         2.05308008    
   7.00000000         2.19492602    
   7.09999990         2.34043598    
   7.19999981         2.48901415    
   7.30000019         2.63999057    
   7.40000010         2.79261351    
   7.50000000         2.94604897    
   7.59999990         3.09940243    
   7.69999981         3.25171161    
   7.80000019         3.40194941    
   7.90000010         3.54902029    
   8.00000000         3.69178534    
   8.10000038         3.82908225    
   8.19999981         3.95971346    
   8.30000019         4.08244419    
   8.39999962         4.19603872    
   8.50000000         4.29928112    
   8.60000038         4.39097214    
   8.69999981         4.46992922    
   8.80000019         4.53502941    
   8.89999962         4.58522081    
   9.00000000         4.61952066    
   9.10000038         4.63702774    
   9.19999981         4.63695574    
   9.30000019         4.61862898    
   9.39999962         4.58150721    
   9.50000000         4.52518606    
   9.60000038         4.44941521    
   9.69999981         4.35410833    
   9.80000019         4.23932409    
   9.89999962         4.10528946    
   10.0000000         3.95242071    
   10.1000004         3.78127623    
   10.1999998         3.59258270    
   10.3000002         3.38725305    
   10.3999996         3.16635346    
   10.5000000         2.93107390    
   10.6000004         2.68273878    
   10.6999998         2.42281842    
   10.8000002         2.15289426    
   10.8999996         1.87462533    
   11.0000000         1.58974445    
   11.1000004         1.30006397    
   11.1999998         1.00741696    
   11.3000002        0.713634133    
   11.3999996        0.420587242    
   11.5000000        0.130144164    
   11.6000004       -0.155919254    
   11.6999998       -0.435886115    
   11.8000002       -0.708056331    
   11.8999996       -0.970826328    
   12.0000000        -1.22274232    
   12.1000004        -1.46247196    
   12.1999998        -1.68880105    
   12.3000002        -1.90066051    
   12.3999996        -2.09710765    
   12.5000000        -2.27733445    
   12.6000004        -2.44073486    
   12.6999998        -2.58689833    
   12.8000002        -2.71552825    
   12.8999996        -2.82643414    
   13.0000000        -2.91962767    
   13.1000004        -2.99533534    
   13.1999998        -3.05387163    
   13.3000002        -3.09560823    
   13.3999996        -3.12110710    
   13.5000000        -3.13106251    
   13.6000004        -3.12620378    
   13.6999998        -3.10737228    
   13.8000002        -3.07553339    
   13.8999996        -3.03163600    
   14.0000000        -2.97664285    
   14.1000004        -2.91163325    
   14.1999998        -2.83771658    
   14.3000002        -2.75594902    
   14.3999996        -2.66735649    
   14.5000000        -2.57297826    
   14.6000004        -2.47386622    
   14.6999998        -2.37101817    
   14.8000002        -2.26538181    
   14.8999996        -2.15787435    
   15.0000000        -2.04931450    
   15.1000004        -1.94044220    
   15.1999998        -1.83203363    
   15.3000002        -1.72480357    
   15.3999996        -1.61927283    
   15.5000000        -1.51591146    
   15.6000004        -1.41524518    
   15.6999998        -1.31770527    
   15.8000002        -1.22359645    
   15.8999996        -1.13319409    
   16.0000000        -1.04672217    
   16.1000004       -0.964311719    
   16.2000008       -0.886062980    
   16.2999992       -0.812087238    
   16.3999996       -0.742428482    
   16.5000000       -0.677004099    
   16.6000004       -0.615727663    
   16.7000008       -0.558609307    
   16.7999992       -0.505601823    
   16.8999996       -0.456498891    
   17.0000000       -0.411107808    
   17.1000004       -0.369315207    
   17.2000008       -0.330963790    
   17.2999992       -0.295873433    
   17.3999996       -0.263901770    
   17.5000000       -0.234842941    
   17.6000004       -0.208420992    
   17.7000008       -0.184466556    
   17.7999992       -0.162920445    
   17.8999996       -0.143625244    
   18.0000000       -0.126288399    
   18.1000004       -0.110696174    
   18.2000008        -9.67912376E-02
   18.2999992        -8.44909176E-02
   18.3999996        -7.36021399E-02
   18.5000000        -6.39375076E-02
   18.6000004        -5.53690158E-02
   18.7000008        -4.77921404E-02
   18.7999992        -4.11423966E-02
   18.8999996        -3.53683010E-02
   19.0000000        -3.03348824E-02
   19.1000004        -2.58769058E-02
   19.2000008        -2.19572391E-02
   19.2999992        -1.86159238E-02
   19.3999996        -1.57806650E-02
   19.5000000        -1.32941008E-02
   19.6000004        -1.10815931E-02
   19.7000008        -9.14899167E-03
   19.7999992        -7.49304006E-03
   19.8999996        -6.09530322E-03
   20.0000000        -4.90857009E-03
   20.1000004        -3.85001092E-03
   20.2000008        -2.89008650E-03
   20.2999992        -2.08185241E-03
   20.3999996        -1.44551462E-03
   20.5000000        -9.04190121E-04
   20.6000004        -3.74937314E-04
   20.7000008         1.39868265E-04
   20.7999992         5.99335239E-04
   20.8999996         9.94672766E-04
   21.0000000         1.31763285E-03
   21.1000004         1.57409674E-03
   21.2000008         1.84959359E-03
   21.2999992         2.18516192E-03
   21.3999996         2.46363087E-03
   21.5000000         2.61648535E-03
   21.6000004         2.76347413E-03
   21.7000008         2.99941329E-03
   21.7999992         3.26338736E-03
   21.8999996         3.47567210E-03
   22.0000000         3.62906116E-03
   22.1000004         3.75601090E-03
   22.2000008         3.89867113E-03
   22.2999992         4.08497034E-03
   22.3999996         4.28146217E-03
   22.5000000         4.39790310E-03
   22.6000004         4.42705955E-03
   22.7000008         4.50506248E-03
   22.7999992         4.68190806E-03
   22.8999996         4.81104013E-03
   23.0000000         4.82639531E-03
   23.1000004         4.84366668E-03
   23.2000008         4.90220077E-03
   23.2999992         4.92542982E-03
   23.3999996         4.91210166E-03
   23.5000000         4.90783621E-03
   23.6000004         4.88358457E-03
   23.7000008         4.80447616E-03
   23.7999992         4.71540773E-03
   23.8999996         4.65287454E-03
   24.0000000         4.55918116E-03
   24.1000004         4.39179223E-03
   24.2000008         4.21346119E-03
   24.2999992         4.05704603E-03
   24.3999996         3.86763574E-03
   24.5000000         3.65028437E-03
   24.6000004         3.45056853E-03
   24.7000008         3.22314166E-03
   24.7999992         2.93860002E-03
   24.8999996         2.66783382E-03
   25.0000000         2.41509196E-03
   25.1000004         2.09565344E-03
   25.2000008         1.73027976E-03
   25.2999992         1.41550880E-03
   25.3999996         1.12278340E-03
   25.5000000         7.67237798E-04
   25.6000004         4.02864709E-04
   25.7000008         1.06509775E-04
   25.7999992        -2.05739401E-04
   25.8999996        -6.04272005E-04
   26.0000000        -9.86189232E-04
   26.1000004        -1.29459740E-03
   26.2000008        -1.62693940E-03
   26.2999992        -2.00169533E-03
   26.3999996        -2.32862076E-03
   26.5000000        -2.62985704E-03
   26.6000004        -2.98172492E-03
   26.7000008        -3.31836380E-03
   26.7999992        -3.57169705E-03
   26.8999996        -3.83233977E-03
   27.0000000        -4.14005807E-03
   27.1000004        -4.38941969E-03
   27.2000008        -4.60027577E-03
   27.2999992        -4.90105012E-03
   27.3999996        -5.20481449E-03
   27.5000000        -5.35208685E-03
   27.6000004        -5.46123879E-03
   27.7000008        -5.69441682E-03
   27.7999992        -5.92936575E-03
   27.8999996        -6.03185222E-03
   28.0000000        -6.12514559E-03
   28.1000004        -6.31478801E-03
   28.2000008        -6.48193574E-03
   28.2999992        -6.54679164E-03
   28.3999996        -6.60851598E-03
   28.5000000        -6.70142658E-03
   28.6000004        -6.75861770E-03
   28.7000008        -6.82027172E-03
   28.7999992        -6.91952650E-03
   28.8999996        -6.94446173E-03
   29.0000000        -6.90707332E-03
   29.1000004        -6.96506584E-03
   29.2000008        -7.05207605E-03
   29.2999992        -6.99077547E-03
   29.3999996        -6.88645337E-03
   29.5000000        -6.92060217E-03
   29.6000004        -6.99080154E-03
   29.7000008        -6.93354895E-03
   29.7999992        -6.82647247E-03
   29.8999996        -6.79393578E-03
   30.0000000        -6.76807249E-03
   30.1000004        -6.66974066E-03
   30.2000008        -6.56942837E-03
   30.2999992        -6.49067480E-03
   30.3999996        -6.37336634E-03
   30.5000000        -6.27687434E-03
   30.6000004        -6.24094298E-03
   30.7000008        -6.12056721E-03
   30.7999992        -5.89087838E-03
   30.8999996        -5.73064201E-03
   31.0000000        -5.64697385E-03
   31.1000004        -5.48549788E-03
   31.2000008        -5.26063470E-03
   31.2999992        -5.08291833E-03
   31.3999996        -4.93260240E-03
   31.5000000        -4.74604405E-03
   31.6000004        -4.54306602E-03
   31.7000008        -4.34039440E-03
   31.7999992        -4.09693783E-03
   31.8999996        -3.83558241E-03
   32.0000000        -3.63685284E-03
   32.0999985        -3.45535274E-03
   32.2000008        -3.19725834E-03
   32.2999992        -2.92693824E-03
   32.4000015        -2.71095824E-03
   32.5000000        -2.47884379E-03
   32.5999985        -2.22986937E-03
   32.7000008        -2.02798191E-03
   32.7999992        -1.80285366E-03
   32.9000015        -1.50999206E-03
   33.0000000        -1.27543183E-03
   33.0999985        -1.13317987E-03
   33.2000008        -9.36037337E-04
   33.2999992        -6.51074399E-04
   33.4000015        -4.21402307E-04
   33.5000000        -2.85571034E-04
   33.5999985        -1.34916118E-04
   33.7000008         4.63320866E-05
   33.7999992         1.99056449E-04
   33.9000015         3.70306487E-04
   34.0000000         5.76411199E-04
   34.0999985         6.97779935E-04
   34.2000008         7.43740879E-04
   34.2999992         8.71611701E-04
   34.4000015         1.05166109E-03
   34.5000000         1.12507632E-03
   34.5999985         1.13092107E-03
   34.7000008         1.20707159E-03
   34.7999992         1.32718030E-03
   34.9000015         1.40402163E-03
   35.0000000         1.45646662E-03
   35.0999985         1.49744691E-03
   35.2000008         1.48230931E-03
   35.2999992         1.47001480E-03
   35.4000015         1.55580731E-03
   35.5000000         1.64309726E-03
   35.5999985         1.60765741E-03
   35.7000008         1.54740701E-03
   35.7999992         1.57354912E-03
   35.9000015         1.61954574E-03
   36.0000000         1.62615883E-03
   36.0999985         1.61944632E-03
   36.2000008         1.59771915E-03
   36.2999992         1.56585197E-03
   36.4000015         1.58107106E-03
   36.5000000         1.63362350E-03
   36.5999985         1.61588215E-03
   36.7000008         1.51471258E-03
   36.7999992         1.48156425E-03
   36.9000015         1.56756782E-03
   37.0000000         1.61193823E-03
   37.0999985         1.54956279E-03
   37.2000008         1.50640914E-03
   37.2999992         1.52364257E-03
   37.4000015         1.53765210E-03
   37.5000000         1.53975224E-03
   37.5999985         1.52297295E-03
   37.7000008         1.47854257E-03
   37.7999992         1.46893319E-03
   37.9000015         1.51263177E-03
   38.0000000         1.53037068E-03
   38.0999985         1.48955779E-03
   38.2000008         1.45363424E-03
   38.2999992         1.47632894E-03
   38.4000015         1.51171105E-03
   38.5000000         1.48270105E-03
   38.5999985         1.42529455E-03
   38.7000008         1.41473650E-03
   38.7999992         1.42145786E-03
   38.9000015         1.41150039E-03
   39.0000000         1.40642165E-03
   39.0999985         1.38573244E-03
   39.2000008         1.34170312E-03
   39.2999992         1.31958013E-03
   39.4000015         1.30443939E-03
   39.5000000         1.26325013E-03
   39.5999985         1.22641621E-03
   39.7000008         1.19638245E-03
   39.7999992         1.14139623E-03
   39.9000015         1.07895804E-03
   40.0000000         1.03828090E-03
   40.0999985         1.00672676E-03
   40.2000008         9.46928398E-04
   40.2999992         8.50566023E-04
   40.4000015         7.70192826E-04
   40.5000000         7.24157959E-04
   40.5999985         6.47460925E-04
   40.7000008         5.30419580E-04
   40.7999992         4.35468799E-04
   40.9000015         3.58317367E-04
   41.0000000         2.54175829E-04
   41.0999985         1.27018255E-04
   41.2000008        -3.29078898E-06
   41.2999992        -1.26760002E-04
   41.4000015        -2.41913556E-04
   41.5000000        -3.68663459E-04
   41.5999985        -5.21178998E-04
   41.7000008        -6.85304170E-04
   41.7999992        -8.36645137E-04
   41.9000015        -9.72387090E-04
   42.0000000        -1.13351259E-03
   42.0999985        -1.34252082E-03
   42.2000008        -1.54089218E-03
   42.2999992        -1.68649410E-03
   42.4000015        -1.83555367E-03
   42.5000000        -2.04091892E-03
   42.5999985        -2.26693740E-03
   42.7000008        -2.45697261E-03
   42.7999992        -2.62028584E-03
   42.9000015        -2.80606048E-03
   43.0000000        -3.01817968E-03
   43.0999985        -3.22745717E-03
   43.2000008        -3.42914858E-03
   43.2999992        -3.61372484E-03
   43.4000015        -3.77425994E-03
   43.5000000        -3.95639380E-03
   43.5999985        -4.17720247E-03
   43.7000008        -4.37340746E-03
   43.7999992        -4.51417034E-03
   43.9000015        -4.64329123E-03
   44.0000000        -4.80143586E-03
   44.0999985        -4.98235272E-03
   44.2000008        -5.14020817E-03
   44.2999992        -5.24772750E-03
   44.4000015        -5.33389021E-03
   44.5000000        -5.42999199E-03
   44.5999985        -5.54498285E-03
   44.7000008        -5.66421822E-03
   44.7999992        -5.72625780E-03
   44.9000015        -5.71926869E-03
   45.0000000        -5.73822483E-03
   45.0999985        -5.81527967E-03
   45.2000008        -5.86547796E-03
   45.2999992        -5.84506895E-03
   45.4000015        -5.78409247E-03
   45.5000000        -5.72427223E-03
   45.5999985        -5.69582777E-03
   45.7000008        -5.67147508E-03
   45.7999992        -5.60017303E-03
   45.9000015        -5.49074309E-03
   46.0000000        -5.36933308E-03
   46.0999985        -5.24441665E-03
   46.2000008        -5.13163814E-03
   46.2999992        -5.01247821E-03
   46.4000015        -4.84975474E-03
   46.5000000        -4.66321362E-03
   46.5999985        -4.48755687E-03
   46.7000008        -4.32300568E-03
   46.7999992        -4.15616576E-03
   46.9000015        -3.95959290E-03
   47.0000000        -3.72895040E-03
   47.0999985        -3.50825279E-03
   47.2000008        -3.30861635E-03
   47.2999992        -3.09963198E-03
   47.4000015        -2.87971506E-03
   47.5000000        -2.65216222E-03
   47.5999985        -2.41488870E-03
   47.7000008        -2.19549099E-03
   47.7999992        -1.99335720E-03
   47.9000015        -1.76351448E-03
   48.0000000        -1.51127134E-03
   48.0999985        -1.28328835E-03
   48.2000008        -1.07934303E-03
   48.2999992        -8.69208481E-04
   48.4000015        -6.49118214E-04
   48.5000000        -4.33601468E-04
   48.5999985        -2.28756049E-04
   48.7000008        -2.91441884E-05
   48.7999992         1.70319021E-04
   48.9000015         3.65378830E-04
   49.0000000         5.48777345E-04
   49.0999985         7.23725243E-04
   49.2000008         9.04229644E-04
   49.2999992         1.09130482E-03
   49.4000015         1.25983148E-03
   49.5000000         1.39965583E-03
   49.5999985         1.54714962E-03
   49.7000008         1.72221591E-03
   49.7999992         1.87614490E-03
   49.9000015         1.98269892E-03
   50.0000000         2.10501347E-03
   50.0999985         2.26703682E-03
   50.2000008         2.39220960E-03
   50.2999992         2.47351825E-03
   50.4000015         2.59636948E-03
   50.5000000         2.74007232E-03
   50.5999985         2.81806989E-03
   50.7000008         2.87246890E-03
   50.7999992         2.97799846E-03
   50.9000015         3.09036090E-03
   51.0000000         3.16068530E-03
   51.0999985         3.22142569E-03
   51.2000008         3.28985555E-03
   51.2999992         3.34285991E-03
   51.4000015         3.39011475E-03
   51.5000000         3.45712714E-03
   51.5999985         3.50954733E-03
   51.7000008         3.50703555E-03
   51.7999992         3.50954616E-03
   51.9000015         3.57294478E-03
   52.0000000         3.61417653E-03
   52.0999985         3.57380090E-03
   52.2000008         3.54136550E-03
   52.2999992         3.56136262E-03
   52.4000015         3.56392446E-03
   52.5000000         3.53154284E-03
   52.5999985         3.49280331E-03
   52.7000008         3.43762571E-03
   52.7999992         3.37934308E-03
   52.9000015         3.34560429E-03
   53.0000000         3.30106658E-03
   53.0999985         3.21616000E-03
   53.2000008         3.12888343E-03
   53.2999992         3.06245685E-03
   53.4000015         2.98483553E-03
   53.5000000         2.88326270E-03
   53.5999985         2.79095513E-03
   53.7000008         2.70972983E-03
   53.7999992         2.59879115E-03
   53.9000015         2.47551640E-03
   54.0000000         2.39282427E-03
   54.0999985         2.31041457E-03
   54.2000008         2.17012200E-03
   54.2999992         2.03376310E-03
   54.4000015         1.95822795E-03
   54.5000000         1.87928102E-03
   54.5999985         1.75599090E-03
   54.7000008         1.64004636E-03
   54.7999992         1.55046966E-03
   54.9000015         1.45745964E-03
   55.0000000         1.36152608E-03
   55.0999985         1.27079291E-03
   55.2000008         1.17772724E-03
   55.2999992         1.09757169E-03
   55.4000015         1.03987707E-03
   55.5000000         9.71862348E-04
   55.5999985         8.84031120E-04
   55.7000008         8.19280802E-04
   55.7999992         7.89979182E-04
   55.9000015         7.51618354E-04
   56.0000000         6.84696832E-04
   56.0999985         6.25946035E-04
   56.2000008         5.99346298E-04
   56.2999992         5.82728244E-04
   56.4000015         5.60864457E-04
   56.5000000         5.42128517E-04
   56.5999985         5.19614783E-04
   56.7000008         4.93773085E-04
   56.7999992         4.92407533E-04
   56.9000015         5.02755807E-04
   57.0000000         4.85069002E-04
   57.0999985         4.66596975E-04
   57.2000008         4.84584685E-04
   57.2999992         5.01981529E-04
   57.4000015         4.95518674E-04
   57.5000000         5.00111491E-04
   57.5999985         5.21582318E-04
   57.7000008         5.34457620E-04
   57.7999992         5.37444954E-04
   57.9000015         5.40033448E-04
   58.0000000         5.49691205E-04
   58.0999985         5.71732351E-04
   58.2000008         5.94202371E-04
   58.2999992         6.07107359E-04
   58.4000015         6.18505117E-04
   58.5000000         6.32374198E-04
   58.5999985         6.45903987E-04
   58.7000008         6.59016252E-04
   58.7999992         6.72864611E-04
   58.9000015         6.88794418E-04
   59.0000000         6.97243377E-04
   59.0999985         6.95624040E-04
   59.2000008         7.14592985E-04
   59.2999992         7.55758781E-04
   59.4000015         7.66443205E-04
   59.5000000         7.50248262E-04
   59.5999985         7.68293743E-04
   59.7000008         8.06888856E-04
   59.7999992         8.11783306E-04
   59.9000015         8.03132949E-04
   60.0000000         8.16619315E-04
   60.0999985         8.35815270E-04
   60.2000008         8.52175581E-04
   60.2999992         8.76916514E-04
   60.4000015         8.94787372E-04
   60.5000000         8.93331598E-04
   60.5999985         8.98151251E-04
   60.7000008         9.27868008E-04
   60.7999992         9.57354787E-04
   60.9000015         9.60499281E-04
   61.0000000         9.57216427E-04
   61.0999985         9.76082694E-04
   61.2000008         1.00377214E-03
   61.2999992         1.02359266E-03
   61.4000015         1.04601320E-03
   61.5000000         1.06366468E-03
   61.5999985         1.06639648E-03
   61.7000008         1.08537625E-03
   61.7999992         1.12445734E-03
   61.9000015         1.13662076E-03
   62.0000000         1.12787576E-03
   62.0999985         1.14572654E-03
   62.2000008         1.17897429E-03
   62.2999992         1.19907374E-03
   62.4000015         1.21931254E-03
   62.5000000         1.24347536E-03
   62.5999985         1.25441968E-03
   62.7000008         1.25722820E-03
   62.7999992         1.27151329E-03
   62.9000015         1.29922235E-03
   63.0000000         1.31778314E-03
   63.0999985         1.31653436E-03
   63.2000008         1.32358680E-03
   63.2999992         1.34893821E-03
   63.4000015         1.36383786E-03
   63.5000000         1.37049356E-03
   63.5999985         1.38464186E-03
   63.7000008         1.38611405E-03
   63.7999992         1.37992937E-03
   63.9000015         1.39561458E-03
   64.0000000         1.41105708E-03
   64.0999985         1.40004710E-03
   64.1999969         1.38859998E-03
   64.3000031         1.39833533E-03
   64.4000015         1.41605653E-03
   64.5000000         1.41764071E-03
   64.5999985         1.39645231E-03
   64.6999969         1.37893157E-03
   64.8000031         1.37619278E-03
   64.9000015         1.36602204E-03
   65.0000000         1.35412731E-03
   65.0999985         1.35227793E-03
   65.1999969         1.33831566E-03
   65.3000031         1.31929666E-03
   65.4000015         1.31655007E-03
   65.5000000         1.29921746E-03
   65.5999985         1.25476159E-03
   65.6999969         1.22499117E-03
   65.8000031         1.21858879E-03
   65.9000015         1.20389718E-03