  -15.0000000        -1.18021238E-38
  -14.8999996         2.66222578E-38
  -14.8000002        -1.90066561E-38
  -14.6999998        -1.34530636E-38
  -14.6000004         0.00000000    
  -14.5000000         0.00000000    
  -14.3999996         2.86949071E-38
  -14.3000002         1.77799524E-38
  -14.1999998        -3.85961093E-38
  -14.1000004        -2.59369724E-38
  -14.0000000         0.00000000    
  -13.8999996         1.19795871E-38
  -13.8000002         1.44866207E-38
  -13.6999998        -3.57207295E-34
  -13.6000004         1.28026440E-32
  -13.5000000        -2.22453114E-31
  -13.3999996         2.47229558E-30
  -13.3000002        -1.95292607E-29
  -13.1999998         1.15065058E-28
  -13.1000004        -5.13931517E-28
  -13.0000000         1.71248914E-27
  -12.8999996        -3.91777792E-27
  -12.8000002         3.96545047E-27
  -12.6999998         1.11609597E-26
  -12.6000004        -6.35375937E-26
  -12.5000000         1.40184392E-25
  -12.3999996        -7.71001526E-26
  -12.3000002        -4.88848130E-25
  -12.1999998         1.62324086E-24
  -12.1000004        -1.74593693E-24
  -12.0000000        -2.86763502E-24
  -11.8999996         1.30956566E-23
  -11.8000002        -1.55838225E-23
  -11.6999998        -1.74582744E-23
  -11.6000004         8.55135508E-23
  -11.5000000        -9.07609841E-23
  -11.3999996        -1.19967265E-22
  -11.3000002         4.65465194E-22
  -11.1999998        -3.55817718E-22
  -11.1000004        -7.89288026E-22
  -11.0000000         2.05738943E-21
  -10.8999996        -6.91329727E-22
  -10.8000002        -4.24465510E-21
  -10.6999998         6.84171667E-21
  -10.6000004         1.69978689E-21
  -10.5000000        -1.69434442E-20
  -10.3999996         1.48568569E-20
  -10.3000002         1.85078819E-20
  -10.1999998        -4.73635605E-20
  -10.1000004         1.23677864E-20
  -10.0000000         7.09575110E-20
  -9.89999962        -8.46920632E-20
  -9.80000019        -3.49770446E-20
  -9.69999981         1.48256680E-19
  -9.60000038        -7.75122776E-20
  -9.50000000        -9.49709390E-20
  -9.39999962         1.50969548E-19
  -9.30000019        -1.12853259E-19
  -9.19999981         6.64633741E-20
  -9.10000038         2.24593004E-19
  -9.00000000        -7.09447841E-19
  -8.89999962         3.44429813E-19
  -8.80000019         1.36183769E-18
  -8.69999981        -2.07185148E-18
  -8.60000038        -9.41751228E-19
  -8.50000000         4.52075794E-18
  -8.39999962        -1.52722822E-18
  -8.30000019        -6.02825159E-18
  -8.19999981         5.51438591E-18
  -8.10000038         4.87510061E-18
  -8.00000000        -8.49778029E-18
  -7.90000010        -1.55802301E-18
  -7.80000019         8.02481413E-18
  -7.69999981        -3.16688450E-19
  -7.59999990        -5.45429620E-18
  -7.50000000        -2.88320565E-18
  -7.40000010         6.96212941E-18
  -7.30000019         9.03288922E-18
  -7.19999981        -1.72946062E-17
  -7.09999990        -7.98749091E-18
  -7.00000000         2.85754241E-17
  -6.90000010        -1.21496321E-17
  -6.80000019        -1.71249200E-17
  -6.69999981         5.38805367E-17
  -6.59999990        -3.69057317E-17
  -6.50000000        -1.01854819E-16
  -6.40000010         1.16860914E-16
  -6.30000019         1.18804166E-16
  -6.19999981        -1.77370036E-16
  -6.09999990        -6.07190010E-17
  -6.00000000         2.29454211E-16
  -5.90000010        -4.54648475E-17
  -5.80000019        -3.84889177E-16
  -5.69999981         1.31210706E-17
  -5.59999990         6.58596545E-16
  -5.50000000         3.27104192E-16
  -5.40000010        -7.38147550E-16
  -5.30000019        -6.38882171E-16
  -5.19999981         3.86913983E-16
  -5.09999990         1.80335035E-16
  -5.00000000        -1.92487748E-16
  -4.90000010         8.28970023E-16
  -4.80000019         8.72399625E-16
  -4.69999981        -5.85457315E-16
  -4.59999990        -1.27539667E-15
  -4.50000000        -1.73253665E-15
  -4.40000010        -1.09447171E-15
  -4.30000019         3.19103421E-15
  -4.19999981         5.95926981E-15
  -4.09999990         4.36367419E-16
  -4.00000000        -7.82457781E-15
  -3.90000010        -7.38597060E-15
  -3.79999995         1.10616023E-15
  -3.70000005         5.67702869E-15
  -3.59999990         5.84892555E-15
  -3.50000000         1.13486296E-14
  -3.40000010         9.67971973E-15
  -3.29999995        -1.63040442E-14
  -3.20000005        -3.99428856E-14
  -3.09999990        -2.51428229E-14
  -3.00000000         1.76611011E-14
  -2.90000010         5.54307238E-14
  -2.79999995         6.15547313E-14
  -2.70000005         2.13500889E-14
  -2.59999990        -4.58424497E-14
  -2.50000000        -9.64663259E-14
  -2.40000010        -9.21588448E-14
  -2.29999995        -1.08943675E-14
  -2.20000005         1.16149129E-13
  -2.09999990         1.92879404E-13
  -2.00000000         1.26421849E-13
  -1.89999998        -7.40604884E-14
  -1.79999995        -2.42157938E-13
  -1.70000005        -2.23845207E-13
  -1.60000002        -7.65786563E-14
  -1.50000000         1.14098347E-13
  -1.39999998         3.93133171E-13
  -1.29999995         5.66701254E-13
  -1.20000005         2.58774881E-13
  -1.10000002        -4.11071784E-13
  -1.00000000        -7.70361043E-13
 -0.899999976        -3.85290080E-13
 -0.800000012         4.00009317E-13
 -0.699999988         8.43274940E-13
 -0.600000024         8.01480572E-13
 -0.500000000         7.68617537E-13
 -0.400000006         8.46640520E-13
 -0.300000012         3.81263841E-13
 -0.200000003        -7.49649529E-13
 -0.100000001        -1.13540633E-12
   0.00000000         7.63206718E-13
  0.100000001         3.79315633E-12
  0.200000003         4.74788308E-12
  0.300000012         2.57518876E-12
  0.400000006         1.34515934E-12
  0.500000000         3.50545005E-12
  0.600000024         5.65241343E-12
  0.699999988         4.62358754E-12
  0.800000012         4.89843409E-12
  0.899999976         9.57225792E-12
   1.00000000         1.61567600E-11
   1.10000002         2.22432558E-11
   1.20000005         2.17167274E-11
   1.29999995         1.85813431E-11
   1.39999998         2.33247692E-11
   1.50000000         3.85228412E-11
   1.60000002         4.60264396E-11
   1.70000005         5.43616055E-11
   1.79999995         6.12102730E-11
   1.89999998         9.87629978E-11
   2.00000000         1.11360615E-10
   2.09999990         1.27849897E-10
   2.20000005         1.31485683E-10
   2.29999995         1.59849758E-10
   2.40000010         2.32693823E-10
   2.50000000         2.93549546E-10
   2.59999990         3.21665611E-10
   2.70000005         3.97685718E-10
   2.79999995         4.69367267E-10
   2.90000010         5.39287670E-10
   3.00000000         5.35124223E-10
   3.09999990         8.04896816E-10
   3.20000005         9.11602349E-10
   3.29999995         1.16549947E-09
   3.40000010         1.28041389E-09
   3.50000000         1.39525447E-09
   3.59999990         1.63158076E-09
   3.70000005         2.16575358E-09
   3.79999995         2.40733700E-09
   3.90000010         2.51912424E-09
   4.00000000         3.14923243E-09
   4.09999990         3.47817952E-09
   4.19999981         4.08482359E-09
   4.30000019         4.76148498E-09
   4.40000010         5.96313532E-09
   4.50000000         5.64699310E-09
   4.59999990         6.30027586E-09
   4.69999981         1.03214726E-08
   4.80000019         7.78266696E-09
   4.90000010         7.37215888E-09
   5.00000000         1.15935084E-08
   5.09999990         1.61166245E-08
   5.19999981         1.61008575E-08
   5.30000019         1.77125212E-08
   5.40000010         1.56906665E-08
   5.50000000         1.86909688E-08
   5.59999990         1.64831082E-08
   5.69999981         2.36914186E-08
   5.80000019         3.80048810E-08
   5.90000010         3.00040952E-08
   6.00000000         2.05605737E-08
   6.09999990         1.07306297E-08
   6.19999981         3.21778408E-08
   6.30000019         4.05741858E-08
   6.40000010         6.81262975E-08
   6.50000000         5.05824787E-08
   6.59999990         4.70169184E-08
   6.69999981         2.65364672E-08
   6.80000019         1.63863447E-08
   6.90000010         3.10079642E-08
   7.00000000         6.03614723E-08
   7.09999990         9.29941777E-08
   7.19999981         1.06513085E-07
   7.30000019         3.89085102E-08
   7.40000010         1.73087855E-09
   7.50000000        -1.49944253E-08
   7.59999990         1.49138998E-07
   7.69999981         1.74684786E-07
   7.80000019        -1.81148803E-08
   7.90000010        -7.43016955E-08
   8.00000000         1.85576514E-08
   8.10000038         2.64129625E-07
   8.19999981         1.92530976E-07
   8.30000019        -1.70919687E-08
   8.39999962        -2.87908648E-07
   8.50000000         8.79589379E-08
   8.60000038         3.22719984E-07
   8.69999981         1.27697959E-07
   8.80000019        -3.04190451E-07
   8.89999962        -1.10035216E-07
   9.00000000         2.08913775E-07
   9.10000038         1.01226981E-07
   9.19999981         1.06495030E-07
   9.30000019         2.51469121E-08
   9.39999962        -2.49120291E-07
   9.50000000        -4.16350986E-07
   9.60000038        -4.30712888E-08
   9.69999981         3.78519047E-07
   9.80000019         1.18967037E-07
   9.89999962        -1.28139952E-08
   10.0000000        -7.47614095E-08
   10.1000004        -6.93300478E-07
   10.1999998        -1.04087121E-06
   10.3000002        -2.57938609E-07
   10.3999996         1.04505295E-06
   10.5000000         7.16573027E-07
   10.6000004        -2.33548761E-07
   10.6999998        -7.30710099E-07
   10.8000002        -1.05507013E-06
   10.8999996        -8.06706339E-07
   11.0000000        -3.52069293E-07
   11.1000004         6.31911348E-07
   11.1999998         1.75975254E-06
   11.3000002         3.65841174E-07
   11.3999996        -1.97044119E-06
   11.5000000        -1.92784728E-06
   11.6000004         5.28758164E-07
   11.6999998         1.42998556E-06
   11.8000002         3.62849107E-07
   11.8999996        -8.95557264E-07
   12.0000000         2.21766570E-07
   12.1000004         3.29900899E-07
   12.1999998        -7.02488137E-07
   12.3000002        -1.02145771E-06
   12.3999996         3.78429462E-07
   12.5000000         1.11600207E-06
   12.6000004         1.94472648E-07
   12.6999998        -4.65308460E-07
   12.8000002        -4.32380745E-07
   12.8999996        -1.67063348E-07
   13.0000000         4.92204606E-07
   13.1000004         1.02932825E-06
   13.1999998         5.65372716E-07
   13.3000002        -5.99174768E-07
   13.3999996        -1.51908125E-06
   13.5000000        -1.21467383E-06
   13.6000004         4.41793532E-07
   13.6999998         2.54618885E-06
   13.8000002         3.10394717E-06
   13.8999996         1.11094448E-06
   14.0000000        -2.20623224E-06
   14.1000004        -3.86710781E-06
   14.1999998        -2.27368992E-06
   14.3000002         1.50501535E-06
   14.3999996         3.71513943E-06
   14.5000000         2.53065946E-06
   14.6000004         3.51525728E-07
   14.6999998        -1.31248987E-06
   14.8000002        -1.63633365E-06
   14.8999996        -1.83139878E-06
   15.0000000        -6.16220575E-07
   15.1000004         9.44504222E-07
   15.1999998         1.27052397E-06
   15.3000002         1.59094418E-06
   15.3999996         2.20224638E-06
   15.5000000         1.60265330E-07
   15.6000004        -4.28524572E-06
   15.6999998        -4.17006686E-06
   15.8000002         1.63630364E-06
   15.8999996         4.99732096E-06
   16.0000000         1.95475536E-06
   16.1000004        -2.94213669E-06
   16.2000008        -3.18636148E-06
   16.2999992         7.50767470E-07
   16.3999996         2.87576177E-06
   16.5000000        -2.67319734E-07
   16.6000004        -4.31488570E-06
   16.7000008        -1.99846795E-06
   16.7999992         4.96469011E-06
   16.8999996         6.16121406E-06
   17.0000000        -2.18000287E-06
   17.1000004        -8.06164917E-06
   17.2000008        -3.12356110E-06
   17.2999992         5.55664792E-06
   17.3999996         6.35898914E-06
   17.5000000         5.04775812E-08
   17.6000004        -4.91624724E-06
   17.7000008        -4.69653332E-06
   17.7999992        -1.11227484E-06
   17.8999996         2.69658676E-06
   18.0000000         4.34194544E-06
   18.1000004         2.56341991E-06
   18.2000008        -9.89062755E-07
   18.2999992        -2.55270152E-06
   18.3999996        -1.35667869E-06
   18.5000000        -9.32164653E-07
   18.6000004        -2.25815120E-06
   18.7000008        -1.28815441E-06
   18.7999992         3.83840552E-06
   18.8999996         7.42798557E-06
   19.0000000         2.13012686E-06
   19.1000004        -8.31389207E-06
   19.2000008        -9.57457814E-06
   19.2999992         2.35353014E-06
   19.3999996         1.14841405E-05
   19.5000000         4.67801692E-06
   19.6000004        -8.21203685E-06
   19.7000008        -8.87619899E-06
   19.7999992         3.29654426E-06
   19.8999996         1.04104174E-05
   20.0000000         1.64893572E-06
   20.1000004        -1.00906964E-05
   20.2000008        -6.32523370E-06
   20.2999992         8.31134639E-06
   20.3999996         1.13252399E-05
   20.5000000        -3.91251888E-06
   20.6000004        -1.58195817E-05
   20.7000008        -5.12009456E-06
   20.7999992         1.43445068E-05
   20.8999996         1.45925233E-05
   21.0000000        -4.17191313E-06
   21.1000004        -1.53601704E-05
   21.2000008        -6.14110149E-06
   21.2999992         8.16230113E-06
   21.3999996         9.07384856E-06
   21.5000000        -1.67329642E-06
   21.6000004        -7.69326289E-06
   21.7000008        -1.48483707E-06
   21.7999992         6.20290984E-06
   21.8999996         3.77485617E-06
   22.0000000        -4.31182934E-06
   22.1000004        -5.51182711E-06
   22.2000008         1.86317413E-06
   22.2999992         6.17955493E-06
   22.3999996         4.80829613E-07
   22.5000000        -6.30658269E-06
   22.6000004        -3.93529308E-06
   22.7000008         3.78595769E-06
   22.7999992         6.98430085E-06
   22.8999996         2.74515287E-06
   23.0000000        -4.37955896E-06
   23.1000004        -7.19854143E-06
   23.2000008        -2.41596331E-06
   23.2999992         4.53271969E-06
   23.3999996         5.52063011E-06
   23.5000000         3.18262295E-07
   23.6000004        -3.44670184E-06
   23.7000008        -1.33639674E-06
   23.7999992         1.49892196E-06
   23.8999996         2.81889108E-08
   24.0000000        -1.38782093E-06
   24.1000004         8.05716695E-07
   24.2000008         1.10819576E-06
   24.2999992        -2.21541222E-06
   24.3999996        -1.64769972E-06
   24.5000000         3.75817990E-06
   24.6000004         4.35970787E-06
   24.7000008        -2.39233555E-06
   24.7999992        -6.21476374E-06
   24.8999996        -1.34795221E-06
   25.0000000         4.24092786E-06
   25.1000004         3.40341421E-06
   25.2000008        -1.04491129E-07
   25.2999992        -2.02316392E-06
   25.3999996        -2.90937896E-06
   25.5000000        -1.16443618E-06
   25.6000004         3.37252277E-06
   25.7000008         3.86792044E-06
   25.7999992        -1.58383466E-06
   25.8999996        -4.20012611E-06
   26.0000000        -3.29325047E-07
   26.1000004         2.39347241E-06
   26.2000008         2.51649880E-07
   26.2999992        -1.10697113E-06
   26.3999996         5.98496513E-07
   26.5000000         1.02874151E-06
   26.6000004        -2.03767826E-07
   26.7000008         1.27956298E-07
   26.7999992        -1.22912498E-08
   26.8999996        -2.61988498E-06
   27.0000000        -2.20810784E-06
   27.1000004         3.32215654E-06
   27.2000008         5.39287521E-06
   27.2999992        -6.79113271E-07
   27.3999996        -6.28491262E-06
   27.5000000        -3.16522255E-06
   27.6000004         4.00955651E-06
   27.7000008         5.32926242E-06
   27.7999992        -3.63407366E-07
   27.8999996        -4.78523316E-06
   28.0000000        -2.03139371E-06
   28.1000004         3.16373666E-06
   28.2000008         2.38111488E-06
   28.2999992        -2.89789978E-06
   28.3999996        -3.01671162E-06
   28.5000000         3.13754367E-06
   28.6000004         5.55791166E-06
   28.7000008        -2.88402848E-08
   28.7999992        -6.32832871E-06
   28.8999996        -6.11825317E-06
   29.0000000         8.63000025E-07
   29.1000004         8.66851497E-06
   29.2000008         7.93518211E-06
   29.2999992        -3.24528719E-06
   29.3999996        -1.17818709E-05
   29.5000000        -5.40196015E-06
   29.6000004         7.17848479E-06
   29.7000008         8.08038840E-06
   29.7999992        -1.21656899E-06
   29.8999996        -4.22213316E-06
   30.0000000         1.15837781E-06
   30.1000004         2.69434531E-06
   30.2000008        -1.80555412E-06
   30.2999992        -4.47368575E-06
   30.3999996        -2.83891063E-06
   30.5000000         1.24641781E-06
   30.6000004         5.65191021E-06
   30.7000008         5.37003507E-06
   30.7999992        -1.03866853E-06
   30.8999996        -5.67031520E-06
   31.0000000        -2.75936395E-06
   31.1000004         1.35047537E-06
   31.2000008        -3.00824411E-07
   31.2999992        -1.81861617E-06
   31.3999996         3.59166120E-06
   31.5000000         6.88211276E-06
   31.6000004        -1.15416788E-06
   31.7000008        -9.12229279E-06
   31.7999992        -3.63606296E-06
   31.8999996         6.60804653E-06
   32.0000000         6.19349339E-06
   32.0999985        -2.77374193E-06
   32.2000008        -6.38608572E-06
   32.2999992        -3.29162475E-07
   32.4000015         4.98914096E-06
   32.5000000         2.14989086E-06
   32.5999985        -2.16134936E-06
   32.7000008        -1.69672921E-06
   32.7999992        -3.71339979E-07
   32.9000015        -5.47613070E-07
   33.0000000         5.63113360E-07
   33.0999985         1.83687007E-06
   33.2000008         6.99828462E-08
   33.2999992        -2.33852325E-06
   33.4000015        -3.19327143E-07
   33.5000000         4.41703332E-06
   33.5999985         3.22564188E-06
   33.7000008        -4.96508937E-06
   33.7999992        -8.24646395E-06
   33.9000015        -2.76905695E-07
   34.0000000         8.98853341E-06
   34.0999985         7.99649115E-06
   34.2000008        -2.72669058E-06
   34.2999992        -1.10917927E-05
   34.4000015        -5.42778207E-06
   34.5000000         7.71201303E-06
   34.5999985         9.08743186E-06
   34.7000008        -2.91159222E-06
   34.7999992        -8.73044428E-06
   34.9000015         3.50286030E-07
   35.0000000         8.78494484E-06
   35.0999985         2.14157149E-06
   35.2000008        -9.38912945E-06
   35.2999992        -6.42671193E-06
   35.4000015         7.61355886E-06
   35.5000000         1.09275088E-05
   35.5999985        -2.16639933E-06
   35.7000008        -1.30828657E-05
   35.7999992        -6.01556621E-06
   35.9000015         1.03758648E-05
   36.0000000         1.31525285E-05
   36.0999985        -2.61610671E-06
   36.2000008        -1.41507853E-05
   36.2999992        -5.50400637E-06
   36.4000015         8.41445399E-06
   36.5000000         8.36884919E-06
   36.5999985        -1.52219127E-06
   36.7000008        -6.29271653E-06
   36.7999992        -2.16223839E-06
   36.9000015         3.43577972E-06
   37.0000000         4.02998830E-06
   37.0999985        -3.77805890E-07
   37.2000008        -5.27378279E-06
   37.2999992        -4.29550892E-06
   37.4000015         3.74082833E-06
   37.5000000         8.66777646E-06
   37.5999985         1.67525684E-06
   37.7000008        -8.50901233E-06
   37.7999992        -7.46933756E-06
   37.9000015         3.09573306E-06
   38.0000000         8.88919931E-06
   38.0999985         2.89652166E-06
   38.2000008        -6.19748789E-06
   38.2999992        -5.82134226E-06
   38.4000015         2.78212019E-06
   38.5000000         6.47348588E-06
   38.5999985         4.74680263E-07
   38.7000008        -5.54908729E-06
   38.7999992        -3.69266604E-06
   38.9000015         1.93712071E-06
   39.0000000         4.12056397E-06
   39.0999985         2.17272577E-06
   39.2000008        -7.96048198E-07
   39.2999992        -2.50751009E-06
   39.4000015        -1.36971710E-06
   39.5000000         9.64379751E-07
   39.5999985        -6.82524401E-08
   39.7000008        -2.50304038E-06
   39.7999992         4.91947446E-07
   39.9000015         5.34386936E-06
   40.0000000         2.13571934E-06
   40.0999985        -5.28576402E-06
   40.2000008        -4.29767124E-06
   40.2999992         3.32708942E-06
   40.4000015         4.50118614E-06
   40.5000000        -1.71697695E-06
   40.5999985        -4.16950479E-06
   40.7000008        -2.65200697E-07
   40.7999992         2.62688286E-06
   40.9000015         2.06120944E-06
   41.0000000         4.25319826E-07
   41.0999985        -1.80817960E-06
   41.2000008        -2.36188521E-06
   41.2999992         1.00464570E-06
   41.4000015         2.99452518E-06
   41.5000000        -9.64722972E-07
   41.5999985        -4.51535152E-06
   41.7000008        -8.47711647E-07
   41.7999992         5.12004999E-06
   41.9000015         4.58886507E-06
   42.0000000        -1.71260501E-06
   42.0999985        -5.47314494E-06
   42.2000008        -2.89986360E-06
   42.2999992         1.90537958E-06
   42.4000015         3.87421778E-06
   42.5000000         1.75786874E-06
   42.5999985        -1.57602142E-06
   42.7000008        -2.02337924E-06
   42.7999992        -1.02767331E-07
   42.9000015         3.81867409E-07
   43.0000000        -1.20051340E-07
   43.0999985         6.56971906E-07
   43.2000008         9.88908937E-07
   43.2999992        -1.16338533E-07
   43.4000015        -5.72818749E-07
   43.5000000        -6.43375358E-07
   43.5999985        -1.51290521E-06
   43.7000008        -1.04934736E-06
   43.7999992         1.89596835E-06
   43.9000015         3.93647952E-06
   44.0000000         1.79855613E-06
   44.0999985        -2.96717917E-06
   44.2000008        -5.40653718E-06
   44.2999992        -2.45509523E-06
   44.4000015         3.35885920E-06
   44.5000000         5.74055503E-06
   44.5999985         1.52662096E-06
   44.7000008        -3.89765819E-06
   44.7999992        -2.88863316E-06
   44.9000015         1.96455767E-06
   45.0000000         1.74024888E-06
   45.0999985        -2.52409814E-06
   45.2000008        -2.30122509E-06
   45.2999992         1.98612884E-06
   45.4000015         3.28411443E-06
   45.5000000         1.17113018E-06
   45.5999985        -9.68711333E-07
   45.7000008        -3.10075416E-06
   45.7999992        -3.72791624E-06
   45.9000015         4.64569553E-07
   46.0000000         5.63273807E-06
   46.0999985         3.98178554E-06
   46.2000008        -2.86080581E-06
   46.2999992        -5.41601230E-06
   46.4000015        -9.35098114E-07
   46.5000000         3.48185836E-06
   46.5999985         2.44540934E-06
   46.7000008        -1.02684044E-06
   46.7999992        -1.97248573E-06
   46.9000015        -2.24461488E-07
   47.0000000         1.36142421E-06
   47.0999985         7.67602558E-07
   47.2000008        -1.29926616E-06
   47.2999992        -1.58034095E-06
   47.4000015         8.42682709E-07
   47.5000000         2.27127111E-06
   47.5999985         9.01902808E-07
   47.7000008        -9.97683287E-07
   47.7999992        -2.28248564E-06
   47.9000015        -2.19677440E-06
   48.0000000         7.71003783E-07
   48.0999985         3.85990779E-06
   48.2000008         2.52931227E-06
   48.2999992        -1.74746310E-06
   48.4000015        -3.78867981E-06
   48.5000000        -1.52420512E-06
   48.5999985         2.24321047E-06
   48.7000008         2.76647847E-06
   48.7999992        -4.38880534E-07
   48.9000015        -2.60316483E-06
   49.0000000        -8.17856119E-07
   49.0999985         2.52554287E-06
   49.2000008         2.69264046E-06
   49.2999992        -1.96262886E-06
   49.4000015        -5.19293781E-06
   49.5000000        -5.29132819E-07
   49.5999985         6.06959929E-06
   49.7000008         4.30273758E-06
   49.7999992        -3.68828410E-06
   49.9000015        -6.83857206E-06
   50.0000000        -6.55969131E-07
   50.0999985         6.56842440E-06
   50.2000008         4.12951158E-06
   50.2999992        -4.21192181E-06
   50.4000015        -4.99707403E-06
   50.5000000         1.89266518E-06
   50.5999985         4.04512866E-06
   50.7000008        -9.74617819E-07
   50.7999992        -3.56412920E-06
   50.9000015         2.58109935E-07
   51.0000000         3.54115582E-06
   51.0999985         1.13542751E-06
   51.2000008        -2.00017848E-06
   51.2999992        -1.18038918E-06
   51.4000015        -2.56599179E-07
   51.5000000        -1.03722118E-06
   51.5999985         6.05779007E-07
   51.7000008         3.10955261E-06
   51.7999992         1.15014973E-06
   51.9000015        -2.70765895E-06
   52.0000000        -2.57677902E-06
   52.0999985         8.57673683E-07
   52.2000008         2.58256910E-06
   52.2999992         5.18939430E-07
   52.4000015        -2.15829346E-06
   52.5000000        -1.79012920E-06
   52.5999985         9.49132698E-07
   52.7000008         3.06474317E-06
   52.7999992         1.96732594E-06
   52.9000015        -2.58935006E-06
   53.0000000        -5.17326225E-06
   53.0999985        -5.20635297E-07
   53.2000008         6.07992342E-06
   53.2999992         4.87761326E-06
   53.4000015        -3.37274105E-06
   53.5000000        -7.64168726E-06
   53.5999985        -1.66986172E-06
   53.7000008         6.51683831E-06
   53.7999992         5.53616428E-06
   53.9000015        -2.21803975E-06
   54.0000000        -5.40169958E-06
   54.0999985        -1.58514683E-06
   54.2000008         2.13994736E-06
   54.2999992         1.73149226E-06
   54.4000015         7.79621203E-08
   54.5000000         3.55813256E-07
   54.5999985         8.49306502E-07
   54.7000008        -7.67595225E-07
   54.7999992        -2.13503040E-06
   54.9000015        -9.10383335E-07
   55.0000000         9.62421836E-07
   55.0999985         1.61338244E-06
   55.2000008         1.12666601E-06
   55.2999992        -3.21159376E-07
   55.4000015        -1.61249864E-06
   55.5000000        -1.28311592E-06
   55.5999985         4.65113942E-07
   55.7000008         1.97364102E-06
   55.7999992         1.07623987E-06
   55.9000015        -1.66801669E-06
   56.0000000        -1.96700194E-06
   56.0999985         1.00564046E-06
   56.2000008         2.22358767E-06
   56.2999992        -4.46311276E-07
   56.4000015        -2.74204945E-06
   56.5000000        -7.97004077E-07
   56.5999985         3.08162498E-06
   56.7000008         2.91570154E-06
   56.7999992        -1.75837124E-06
   56.9000015        -4.03201739E-06
   57.0000000        -8.25743143E-07
   57.0999985         2.74978720E-06
   57.2000008         2.55783880E-06
   57.2999992        -1.97723779E-07
   57.4000015        -2.42907595E-06
   57.5000000        -1.79762515E-06
   57.5999985         9.52105154E-07
   57.7000008         2.37844142E-06
   57.7999992         8.64512685E-07
   57.9000015        -1.58347234E-06
   58.0000000        -1.74645652E-06
   58.0999985         6.97516100E-07
   58.2000008         1.61682806E-06
   58.2999992        -8.88270961E-07
   58.4000015        -2.02394222E-06
   58.5000000         9.45082775E-07
   58.5999985         3.15324405E-06
   58.7000008         8.56301085E-07
   58.7999992        -2.71524073E-06
   58.9000015        -3.00386409E-06
   59.0000000        -1.26859504E-07
   59.0999985         2.21230084E-06
   59.2000008         2.15057071E-06
   59.2999992         1.05146785E-06
   59.4000015        -5.66228096E-07
   59.5000000        -2.65182985E-06
   59.5999985        -2.39798078E-06
   59.7000008         1.18360492E-06
   59.7999992         3.25181213E-06
   59.9000015         5.15384329E-07
   60.0000000        -2.62674121E-06
   60.0999985        -1.00932027E-06
   60.2000008         2.55596819E-06
   60.2999992         1.64403502E-06
   60.4000015        -2.47425078E-06
   60.5000000        -2.56038015E-06
   60.5999985         1.41010844E-06
   60.7000008         2.42531178E-06
   60.7999992        -2.21681148E-07
   60.9000015        -1.01431374E-06
   61.0000000         2.18455924E-07
   61.0999985        -4.27602856E-07
   61.2000008        -1.61743139E-06
   61.2999992         3.53768115E-07
   61.4000015         3.06340121E-06
   61.5000000         1.48373476E-06
   61.5999985        -2.60165530E-06
   61.7000008        -3.08938593E-06
   61.7999992         2.22653370E-07
   61.9000015         2.31651347E-06
   62.0000000         1.65266965E-06
   62.0999985         1.63804359E-07
   62.2000008        -1.44953469E-06
   62.2999992        -2.14680335E-06
   62.4000015        -1.12979954E-07
   62.5000000         2.64678170E-06
   62.5999985         1.81519545E-06
   62.7000008        -1.90667743E-06
   62.7999992        -2.91966376E-06
   62.9000015         6.39506538E-07
   63.0000000         3.31193701E-06
   63.0999985         6.50054915E-07
   63.2000008        -3.21681114E-06
   63.2999992        -2.07659104E-06
   63.4000015         2.37382596E-06
   63.5000000         3.46951970E-06
   63.5999985        -4.49231521E-07
   63.7000008        -3.94436847E-06
   63.7999992        -2.04132834E-06
   63.9000015         2.71075828E-06
   64.0000000         3.74978686E-06
   64.0999985        -7.16886603E-08
   64.1999969        -3.48738331E-06
   64.3000031        -2.34471577E-06
   64.4000015         1.69134819E-06
   64.5000000         3.31945216E-06
   64.5999985         2.06641374E-07
   64.6999969        -3.23678091E-06
   64.8000031        -1.93166693E-06
   64.9000015         2.25064991E-06
   65.0000000         3.42982162E-06
   65.0999985         3.52519045E-08
   65.1999969        -3.29112595E-06
   65.3000031        -2.27283931E-06
   65.4000015         9.81094445E-07
   65.5000000         2.09490190E-06
   65.5999985         1.20839468E-06
   65.6999969         2.36397113E-07
   65.8000031        -1.05617232E-06
   65.9000015        -1.94227073E-06