  -15.0000000        -1.18021238E-38
  -14.8999996         2.94092611E-38
  -14.8000002        -0.00000000    
  -14.6999998        -0.00000000    
  -14.6000004        -2.31649910E-38
  -14.5000000         1.58500127E-38
  -14.3999996         3.31866601E-38
  -14.3000002         0.00000000    
  -14.1999998        -2.48620195E-38
  -14.1000004        -2.47881935E-38
  -14.0000000         0.00000000    
  -13.8999996         2.43524317E-38
  -13.8000002         1.74939740E-38
  -13.6999998        -0.00000000    
  -13.6000004        -1.90369886E-38
  -13.5000000        -1.89768112E-38
  -13.3999996        -0.00000000    
  -13.3000002         9.53995250E-38
  -13.1999998        -1.15704743E-36
  -13.1000004         1.76313735E-35
  -13.0000000        -1.89132380E-34
  -12.8999996         1.55395633E-33
  -12.8000002        -1.01104673E-32
  -12.6999998         5.28810827E-32
  -12.6000004        -2.22551902E-31
  -12.5000000         7.39715085E-31
  -12.3999996        -1.82505880E-30
  -12.3000002         2.63112443E-30
  -12.1999998         1.90984692E-30
  -12.1000004        -2.46740951E-29
  -12.0000000         7.69485388E-29
  -11.8999996        -1.15846732E-28
  -11.8000002        -5.49649633E-29
  -11.6999998         7.63528330E-28
  -11.6000004        -1.87692793E-27
  -11.5000000         1.42644502E-27
  -11.3999996         4.78237102E-27
  -11.3000002        -1.76593216E-26
  -11.1999998         2.11072724E-26
  -11.1000004         2.30508823E-26
  -11.0000000        -1.28899958E-25
  -10.8999996         1.77576448E-25
  -10.8000002         1.08119747E-25
  -10.6999998        -8.08341431E-25
  -10.6000004         1.10678999E-24
  -10.5000000         6.43447118E-25
  -10.3999996        -4.49476259E-24
  -10.3000002         5.39487576E-24
  -10.1999998         4.50061949E-24
  -10.1000004        -2.19862571E-23
  -10.0000000         2.02695427E-23
  -9.89999962         2.89752933E-23
  -9.80000019        -9.23641956E-23
  -9.69999981         5.27758138E-23
  -9.60000038         1.54286817E-22
  -9.50000000        -3.21318799E-22
  -9.39999962         4.68730737E-23
  -9.30000019         6.55724358E-22
  -9.19999981        -8.73593806E-22
  -9.10000038        -3.64304120E-22
  -9.00000000         2.17934647E-21
  -8.89999962        -1.68071095E-21
  -8.80000019        -2.35092747E-21
  -8.69999981         5.60081933E-21
  -8.60000038        -1.57197093E-21
  -8.50000000        -8.17259454E-21
  -8.39999962         1.08042995E-20
  -8.30000019         2.71724469E-21
  -8.19999981        -1.95782827E-20
  -8.10000038         1.46896889E-20
  -8.00000000         1.42928360E-20
  -7.90000010        -3.43272555E-20
  -7.80000019         1.45774282E-20
  -7.69999981         3.03126410E-20
  -7.59999990        -5.09828990E-20
  -7.50000000         1.72490761E-20
  -7.40000010         4.73030471E-20
  -7.30000019        -8.16355468E-20
  -7.19999981         3.56650715E-20
  -7.09999990         7.72018652E-20
  -7.00000000        -1.54388944E-19
  -6.90000010         6.94863897E-20
  -6.80000019         1.57989171E-19
  -6.69999981        -2.86958338E-19
  -6.59999990         9.11641957E-20
  -6.50000000         3.12595844E-19
  -6.40000010        -4.91825307E-19
  -6.30000019         1.03903734E-19
  -6.19999981         6.21813328E-19
  -6.09999990        -8.19614598E-19
  -6.00000000        -5.75806370E-20
  -5.90000010         1.16247186E-18
  -5.80000019        -1.03723424E-18
  -5.69999981        -4.71779050E-19
  -5.59999990         1.70580235E-18
  -5.50000000        -9.21793945E-19
  -5.40000010        -9.62812694E-19
  -5.30000019         1.41925685E-18
  -5.19999981        -8.73721930E-19
  -5.09999990         3.77063536E-19
  -5.00000000         1.76080820E-18
  -4.90000010        -3.30532687E-18
  -4.80000019         4.37667880E-19
  -4.69999981         3.51325940E-18
  -4.59999990        -5.10911455E-18
  -4.50000000         1.31293664E-18
  -4.40000010         7.57446061E-18
  -4.30000019        -6.97122922E-18
  -4.19999981        -1.93081057E-18
  -4.09999990         5.14925349E-18
  -4.00000000        -1.20148662E-17
  -3.90000010         5.28065610E-18
  -3.79999995         2.32111132E-17
  -3.70000005        -1.17194974E-17
  -3.59999990        -1.53866347E-17
  -3.50000000         1.36422401E-18
  -3.40000010        -1.23593497E-17
  -3.29999995         1.45176021E-17
  -3.20000005         2.89297684E-17
  -3.09999990        -6.02360625E-19
  -3.00000000         1.27222843E-17
  -2.90000010        -5.25955646E-17
  -2.79999995        -1.16787407E-16
  -2.70000005         6.63250885E-17
  -2.59999990         1.66859601E-16
  -2.50000000         6.17807898E-17
  -2.40000010         4.88517087E-17
  -2.29999995        -1.92143415E-16
  -2.20000005        -4.84567379E-16
  -2.09999990        -8.37222320E-17
  -2.00000000         4.14935527E-16
  -1.89999998         6.10866556E-16
  -1.79999995         8.00237818E-16
  -1.70000005        -9.88570035E-17
  -1.60000002        -1.72819751E-15
  -1.50000000        -1.71832640E-15
  -1.39999998        -2.88253332E-16
  -1.29999995         1.57847999E-15
  -1.20000005         3.41920180E-15
  -1.10000002         2.64865869E-15
  -1.00000000        -7.82999056E-16
 -0.899999976        -4.38229351E-15
 -0.800000012        -7.22367231E-15
 -0.699999988        -3.89644685E-15
 -0.600000024         7.44232201E-15
 -0.500000000         1.33358951E-14
 -0.400000006         6.43154997E-15
 -0.300000012        -5.67408017E-15
 -0.200000003        -1.75353947E-14
 -0.100000001        -1.83904084E-14
   0.00000000         2.60686380E-16
  0.100000001         2.16783785E-14
  0.200000003         3.28641025E-14
  0.300000012         3.23074358E-14
  0.400000006        -1.21957381E-15
  0.500000000        -6.31606245E-14
  0.600000024        -8.99257543E-14
  0.699999988        -3.32720437E-14
  0.800000012         7.95469850E-14
  0.899999976         1.49113794E-13
   1.00000000         9.13855512E-14
   1.10000002        -3.38660137E-14
   1.20000005        -1.14169945E-13
   1.29999995        -1.54146891E-13
   1.39999998        -1.38175658E-13
   1.50000000         2.77178623E-14
   1.60000002         2.86486113E-13
   1.70000005         4.32107285E-13
   1.79999995         2.47554012E-13
   1.89999998        -2.50746174E-13
   2.00000000        -6.15602675E-13
   2.09999990        -3.94281477E-13
   2.20000005         2.66603444E-13
   2.29999995         7.46172601E-13
   2.40000010         6.79757466E-13
   2.50000000         5.15040376E-13
   2.59999990         3.65637181E-13
   2.70000005        -1.17345627E-13
   2.79999995        -7.44730341E-13
   2.90000010        -6.80173691E-13
   3.00000000         1.10576240E-12
   3.09999990         2.96946365E-12
   3.20000005         2.96985288E-12
   3.29999995         1.22815527E-12
   3.40000010         1.41250523E-13
   3.50000000         9.00677265E-13
   3.59999990         2.74100469E-12
   3.70000005         3.98674236E-12
   3.79999995         4.41293616E-12
   3.90000010         5.17578818E-12
   4.00000000         1.06875290E-11
   4.09999990         1.10490436E-11
   4.19999981         8.13991669E-12
   4.30000019         9.28272043E-12
   4.40000010         1.67682344E-11
   4.50000000         1.91252118E-11
   4.59999990         3.07242148E-11
   4.69999981         3.39931416E-11
   4.80000019         2.71827214E-11
   4.90000010         3.45132013E-11
   5.00000000         6.65896227E-11
   5.09999990         7.92924684E-11
   5.19999981         7.15282625E-11
   5.30000019         7.79697834E-11
   5.40000010         1.15292234E-10
   5.50000000         1.66678532E-10
   5.59999990         1.72417150E-10
   5.69999981         2.09137999E-10
   5.80000019         1.90551380E-10
   5.90000010         1.99944297E-10
   6.00000000         4.53729637E-10
   6.09999990         3.93106742E-10
   6.19999981         3.79073578E-10
   6.30000019         4.22678170E-10
   6.40000010         6.08904260E-10
   6.50000000         9.54274881E-10
   6.59999990         8.17987122E-10
   6.69999981         6.57899790E-10
   6.80000019         1.24153376E-09
   6.90000010         1.68274272E-09
   7.00000000         1.40470147E-09
   7.09999990         1.01855746E-09
   7.19999981         1.85329674E-09
   7.30000019         2.35965825E-09
   7.40000010         3.14438453E-09
   7.50000000         1.47026624E-09
   7.59999990         2.94977154E-09
   7.69999981         4.02759737E-09
   7.80000019         4.27722258E-09
   7.90000010         2.87310020E-09
   8.00000000         4.78144724E-09
   8.10000038         6.95182001E-09
   8.19999981         6.01800565E-09
   8.30000019         8.12481993E-09
   8.39999962         1.00143849E-08
   8.50000000        -1.84031135E-09
   8.60000038         8.77146533E-09
   8.69999981         1.69407528E-08
   8.80000019         1.48833461E-08
   8.89999962        -5.40793244E-10
   9.00000000         6.22467011E-09
   9.10000038         2.96240543E-08
   9.19999981         8.84866846E-09
   9.30000019        -1.85603533E-08
   9.39999962         1.53012927E-08
   9.50000000         3.85770349E-08
   9.60000038         2.21811742E-08
   9.69999981         2.91600912E-08
   9.80000019         3.03437560E-08
   9.89999962        -1.52446962E-08
   10.0000000        -1.36114080E-08
   10.1000004         1.98400869E-08
   10.1999998         3.48259448E-08
   10.3000002        -6.74571954E-10
   10.3999996         1.25597609E-07
   10.5000000         5.69637848E-08
   10.6000004        -3.47568694E-08
   10.6999998        -3.23608553E-08
   10.8000002        -4.83866174E-08
   10.8999996         6.36698019E-08
   11.0000000         9.28854220E-08
   11.1000004         9.31433863E-09
   11.1999998        -6.36898463E-08
   11.3000002         2.69448890E-08
   11.3999996        -4.04456779E-09
   11.5000000        -1.17003353E-07
   11.6000004         1.12677263E-07
   11.6999998        -4.21914459E-09
   11.8000002         1.65212182E-08
   11.8999996         9.86393687E-08
   12.0000000         1.01641604E-07
   12.1000004        -2.14284100E-07
   12.1999998        -4.09606088E-07
   12.3000002        -6.14866522E-08
   12.3999996         4.53482869E-07
   12.5000000         2.78812564E-07
   12.6000004        -1.94389017E-07
   12.6999998        -3.11882843E-07
   12.8000002        -2.32125970E-07
   12.8999996        -2.27244598E-07
   13.0000000         4.11086887E-07
   13.1000004        -1.74937938E-07
   13.1999998        -4.66140989E-07
   13.3000002         1.32691458E-09
   13.3999996         6.41593203E-07
   13.5000000         3.00087466E-09
   13.6000004        -5.39030282E-07
   13.6999998        -6.82151935E-08
   13.8000002         2.81610852E-07
   13.8999996         3.72804578E-08
   14.0000000        -3.54485735E-07
   14.1000004        -3.39244309E-07
   14.1999998        -5.14991143E-08
   14.3000002         7.14410362E-07
   14.3999996         7.22529364E-07
   14.5000000        -4.98176462E-07
   14.6000004        -1.89256320E-06
   14.6999998        -5.32818774E-07
   14.8000002         2.06576237E-06
   14.8999996         1.58012722E-06
   15.0000000        -1.22156348E-06
   15.1000004        -1.58531213E-06
   15.1999998        -1.26446082E-07
   15.3000002         7.25867380E-07
   15.3999996         7.24560323E-07
   15.5000000         4.45271894E-07
   15.6000004        -1.23609894E-07
   15.6999998        -1.89945951E-07
   15.8000002         5.12769191E-07
   15.8999996        -1.78057391E-07
   16.0000000        -2.24704354E-06
   16.1000004        -1.61886624E-06
   16.2000008         2.77599429E-06
   16.2999992         4.57445776E-06
   16.3999996         1.41527792E-07
   16.5000000        -4.40242547E-06
   16.6000004        -3.32042646E-06
   16.7000008         8.58867509E-07
   16.7999992         3.44673640E-06
   16.8999996         3.08416384E-06
   17.0000000         2.22554064E-07
   17.1000004        -2.70972623E-06
   17.2000008        -2.95946484E-06
   17.2999992        -7.42153304E-07
   17.3999996         1.09755149E-06
   17.5000000         1.81053827E-06
   17.6000004         2.27388659E-06
   17.7000008         1.57466843E-06
   17.7999992        -9.51776201E-07
   17.8999996        -3.13279884E-06
   18.0000000        -2.97553402E-06
   18.1000004        -1.08798849E-06
   18.2000008         1.70158944E-06
   18.2999992         4.28145268E-06
   18.3999996         4.26628412E-06
   18.5000000         3.60504124E-08
   18.6000004        -5.61191518E-06
   18.7000008        -6.09492236E-06
   18.7999992        -6.25658629E-07
   18.8999996         4.64811228E-06
   19.0000000         5.14389149E-06
   19.1000004         1.10972428E-06
   19.2000008        -2.80517406E-06
   19.2999992        -2.78586731E-06
   19.3999996        -4.19954205E-07
   19.5000000         3.13249586E-07
   19.6000004        -5.45268733E-07
   19.7000008         6.73178022E-07
   19.7999992         3.15073362E-06
   19.8999996         1.50073549E-06
   20.0000000        -3.56228225E-06
   20.1000004        -4.68356802E-06
   20.2000008         1.03133618E-06
   20.2999992         5.53503924E-06
   20.3999996         2.52488576E-06
   20.5000000        -3.55527504E-06
   20.6000004        -4.35862057E-06
   20.7000008         4.48853143E-07
   20.7999992         3.58528746E-06
   20.8999996         1.03369132E-06
   21.0000000        -2.60668162E-06
   21.1000004        -1.12264047E-06
   21.2000008         3.27030580E-06
   21.2999992         2.47057892E-06
   21.3999996        -3.38099130E-06
   21.5000000        -5.23645849E-06
   21.6000004         7.13364727E-07
   21.7000008         6.32526644E-06
   21.7999992         3.25941960E-06
   21.8999996        -4.00988847E-06
   22.0000000        -4.91829314E-06
   22.1000004         6.22587208E-07
   22.2000008         3.32347304E-06
   22.2999992         2.17913097E-07
   22.3999996        -2.37130735E-06
   22.5000000        -1.23243353E-07
   22.6000004         3.37843926E-06
   22.7000008         2.36398296E-06
   22.7999992        -2.61947662E-06
   22.8999996        -4.82123460E-06
   23.0000000        -1.27386147E-06
   23.1000004         3.59005821E-06
   23.2000008         4.77238746E-06
   23.2999992         1.38393614E-06
   23.3999996        -3.14943645E-06
   23.5000000        -4.06111258E-06
   23.6000004        -1.79554991E-06
   23.7000008        -6.68179538E-08
   23.7999992         2.13630506E-06
   23.8999996         5.35776780E-06
   24.0000000         3.71273541E-06
   24.1000004        -3.99008832E-06
   24.2000008        -8.24200742E-06
   24.2999992        -2.35137372E-06
   24.3999996         6.49925869E-06
   24.5000000         6.08055734E-06
   24.6000004        -2.32601974E-06
   24.7000008        -4.85199507E-06
   24.7999992         1.03764069E-06
   24.8999996         3.07224923E-06
   25.0000000        -1.54796737E-06
   25.1000004        -3.37200436E-06
   25.2000008         3.04857053E-07
   25.2999992         3.91452113E-06
   25.3999996         2.77454274E-06
   25.5000000        -3.02855483E-06
   25.6000004        -6.30048407E-06
   25.7000008        -6.70067834E-07
   25.7999992         7.71250507E-06
   25.8999996         7.05153252E-06
   26.0000000        -3.76726643E-06
   26.1000004        -1.11365453E-05
   26.2000008        -3.12359384E-06
   26.2999992         9.21983519E-06
   26.3999996         6.31473858E-06
   26.5000000        -5.07710547E-06
   26.6000004        -4.86976751E-06
   26.7000008         3.43699867E-06
   26.7999992         4.16641569E-06
   26.8999996        -2.30336877E-06
   27.0000000        -5.72700310E-06
   27.1000004        -1.75211380E-06
   27.2000008         4.80205199E-06
   27.2999992         5.61074876E-06
   27.3999996         2.12087858E-08
   27.5000000        -4.73872478E-06
   27.6000004        -3.71211263E-06
   27.7000008         1.76021774E-06
   27.7999992         3.96753921E-06
   27.8999996        -1.65504105E-06
   28.0000000        -4.62975049E-06
   28.1000004         2.57831766E-06
   28.2000008         7.03997239E-06
   28.2999992         3.22473255E-07
   28.3999996        -6.18195963E-06
   28.5000000        -4.54439760E-06
   28.6000004         5.91582364E-07
   28.7000008         3.74055139E-06
   28.7999992         2.62759204E-06
   28.8999996        -3.73950186E-08
   29.0000000         8.00128852E-10
   29.1000004         4.86274928E-07
   29.2000008        -1.46821344E-06
   29.2999992        -3.33101070E-06
   29.3999996        -2.57695910E-06
   29.5000000         1.54716633E-06
   29.6000004         5.78418440E-06
   29.7000008         3.17834952E-06
   29.7999992        -3.72869249E-06
   29.8999996        -4.53468101E-06
   30.0000000         7.13022416E-07
   30.1000004         3.61435195E-06
   30.2000008         5.87889360E-07
   30.2999992        -4.73366435E-06
   30.3999996        -3.52640404E-06
   30.5000000         5.51364383E-06
   30.6000004         8.19955039E-06
   30.7000008        -1.50926633E-06
   30.7999992        -8.45188424E-06
   30.8999996        -3.27373778E-06
   31.0000000         3.93683831E-06
   31.1000004         3.47935384E-06
   31.2000008        -1.56274211E-06
   31.2999992        -2.75522075E-06
   31.3999996         1.93224218E-06
   31.5000000         5.16178625E-06
   31.6000004         9.20627656E-07
   31.7000008        -6.63156516E-06
   31.7999992        -7.57429871E-06
   31.8999996         2.16111494E-06
   32.0000000         1.12710886E-05
   32.0999985         5.28433930E-06
   32.2000008        -7.72603107E-06
   32.2999992        -8.09244284E-06
   32.4000015         1.09018913E-06
   32.5000000         3.43491934E-06
   32.5999985         5.58706063E-07
   32.7000008         2.27843930E-06
   32.7999992         4.26085626E-06
   32.9000015        -8.14180737E-07
   33.0000000        -7.11212397E-06
   33.0999985        -5.58554621E-06
   33.2000008         1.80293750E-06
   33.2999992         6.81309530E-06
   33.4000015         5.76961156E-06
   33.5000000         9.07322217E-09
   33.5999985        -6.17195246E-06
   33.7000008        -6.17401292E-06
   33.7999992         4.96593941E-07
   33.9000015         4.66364691E-06
   34.0000000         1.95886150E-06
   34.0999985        -2.80712499E-07
   34.2000008         1.63434936E-06
   34.2999992         1.05894924E-06
   34.4000015        -4.19911339E-06
   34.5000000        -5.86976330E-06
   34.5999985         4.01721394E-07
   34.7000008         6.77411754E-06
   34.7999992         5.11185135E-06
   34.9000015        -1.30713124E-06
   35.0000000        -4.40304484E-06
   35.0999985        -3.26469399E-06
   35.2000008        -1.61980017E-06
   35.2999992         8.43322141E-07
   35.4000015         4.45409069E-06
   35.5000000         3.73254238E-06
   35.5999985        -2.19285243E-06
   35.7000008        -3.78019354E-06
   35.7999992         1.42172394E-06
   35.9000015         2.04878279E-06
   36.0000000        -4.13618864E-06
   36.0999985        -3.71081205E-06
   36.2000008         5.28218379E-06
   36.2999992         6.99632983E-06
   36.4000015        -2.46294439E-06
   36.5000000        -7.38090785E-06
   36.5999985        -1.21656331E-06
   36.7000008         4.50143398E-06
   36.7999992         3.04053083E-06
   36.9000015        -7.99381723E-07
   37.0000000        -3.55937232E-06
   37.0999985        -2.92994241E-06
   37.2000008         3.32028458E-06
   37.2999992         6.98854910E-06
   37.4000015        -9.46003979E-07
   37.5000000        -9.44269050E-06
   37.5999985        -3.41063446E-06
   37.7000008         7.61139472E-06
   37.7999992         6.00618250E-06
   37.9000015        -2.84926136E-06
   38.0000000        -3.98438942E-06
   38.0999985         5.70341356E-08
   38.2000008         1.94501851E-07
   38.2999992        -7.13606426E-07
   38.4000015         8.39354698E-07
   38.5000000         8.85567374E-07
   38.5999985        -1.08843942E-07
   38.7000008         1.04154435E-06
   38.7999992         8.09294136E-07
   38.9000015        -1.69596149E-06
   39.0000000        -1.25009853E-06
   39.0999985         5.61587683E-07
   39.2000008        -9.54178290E-07
   39.2999992        -1.40284180E-06
   39.4000015         2.76409742E-06
   39.5000000         4.10687971E-06
   39.5999985        -1.48951278E-06
   39.7000008        -4.69278848E-06
   39.7999992         1.11037046E-07
   39.9000015         3.24152984E-06
   40.0000000        -7.09685708E-07
   40.0999985        -2.28556746E-06
   40.2000008         1.28581337E-06
   40.2999992         1.42696501E-06
   40.4000015        -1.11515476E-06
   40.5000000        -3.89632817E-07
   40.5999985         5.40359736E-07
   40.7000008         3.36325314E-08
   40.7999992         8.71304962E-07
   40.9000015         1.70559915E-07
   41.0000000        -2.52594054E-06
   41.0999985        -1.25961333E-06
   41.2000008         2.43108184E-06
   41.2999992         1.91030131E-06
   41.4000015        -1.15246951E-06
   41.5000000        -1.15129853E-06
   41.5999985         1.01734565E-06
   41.7000008         6.13441159E-07
   41.7999992        -1.12201769E-06
   41.9000015         3.01266567E-07
   42.0000000         7.16179727E-07
   42.0999985        -3.20169784E-06
   42.2000008        -1.79111748E-06
   42.2999992         5.61721572E-06
   42.4000015         4.08826554E-06
   42.5000000        -4.55572263E-06
   42.5999985        -4.84156408E-06
   42.7000008         7.63075661E-07
   42.7999992         2.99532371E-06
   42.9000015         3.28065175E-06
   43.0000000         6.85994337E-07
   43.0999985        -5.43224451E-06
   43.2000008        -5.05719481E-06
   43.2999992         4.50020707E-06
   43.4000015         8.72897272E-06
   43.5000000        -1.09162227E-06
   43.5999985        -1.05556974E-05
   43.7000008        -2.77919344E-06
   43.7999992         1.03230595E-05
   43.9000015         5.75140257E-06
   44.0000000        -7.86592955E-06
   44.0999985        -7.38500967E-06
   44.2000008         3.06491847E-06
   44.2999992         7.34546120E-06
   44.4000015         3.25124893E-06
   44.5000000        -4.64831282E-06
   44.5999985        -7.67149868E-06
   44.7000008         3.49287802E-07
   44.7999992         7.38567633E-06
   44.9000015         2.07254629E-06
   45.0000000        -4.94514370E-06
   45.0999985        -2.63400375E-06
   45.2000008         3.44916316E-06
   45.2999992         4.20975130E-06
   45.4000015        -1.54029419E-06
   45.5000000        -6.02425689E-06
   45.5999985        -2.38065081E-06
   45.7000008         4.31590797E-06
   45.7999992         5.84495820E-06
   45.9000015         1.01528951E-06
   46.0000000        -5.92251126E-06
   46.0999985        -5.64376705E-06
   46.2000008         3.52051666E-06
   46.2999992         6.44764305E-06
   46.4000015        -1.49093785E-06
   46.5000000        -4.49974414E-06
   46.5999985         6.70314989E-07
   46.7000008         2.51653296E-06
   46.7999992         4.60133947E-07
   46.9000015        -1.17877175E-06
   47.0000000        -2.63820220E-06
   47.0999985        -9.78295247E-07
   47.2000008         3.58816442E-06
   47.2999992         3.68393034E-06
   47.4000015        -1.66947916E-06
   47.5000000        -5.01654222E-06
   47.5999985        -1.41394776E-06
   47.7000008         4.71329804E-06
   47.7999992         3.83403540E-06
   47.9000015        -2.90640219E-06
   48.0000000        -4.41044222E-06
   48.0999985        -1.74172357E-07
   48.2000008         2.29381271E-06
   48.2999992         2.44501803E-06
   48.4000015         7.46184810E-07
   48.5000000        -2.49734012E-06
   48.5999985        -1.85122815E-06
   48.7000008         1.51596078E-06
   48.7999992         9.67114829E-07
   48.9000015        -3.26794890E-07
   49.0000000         8.86719874E-07
   49.0999985        -5.26215103E-07
   49.2000008        -2.92272443E-06
   49.2999992         5.04499695E-08
   49.4000015         3.84610303E-06
   49.5000000         1.19180777E-06
   49.5999985        -3.79223252E-06
   49.7000008        -2.39355359E-06
   49.7999992         3.63721347E-06
   49.9000015         3.54357644E-06
   50.0000000        -3.12075872E-06
   50.0999985        -4.33333616E-06
   50.2000008         1.51045288E-06
   50.2999992         3.98884640E-06
   50.4000015         9.52376695E-07
   50.5000000        -2.38266352E-06
   50.5999985        -3.30307671E-06
   50.7000008         1.51034087E-07
   50.7999992         4.83527310E-06
   50.9000015         2.47476237E-06
   51.0000000        -4.70388795E-06
   51.0999985        -5.31116757E-06
   51.2000008         1.84049884E-06
   51.2999992         6.48707055E-06
   51.4000015         2.48798847E-06
   51.5000000        -4.50395964E-06
   51.5999985        -4.93996322E-06
   51.7000008         1.07459050E-06
   51.7999992         4.32440265E-06
   51.9000015         8.96552308E-07
   52.0000000        -3.10479618E-06
   52.0999985        -1.49895368E-06
   52.2000008         3.12221073E-06
   52.2999992         2.93911603E-06
   52.4000015        -2.31165723E-06
   52.5000000        -4.23610754E-06
   52.5999985        -5.10441112E-07
   52.7000008         2.84153566E-06
   52.7999992         3.06224456E-06
   52.9000015         7.48139882E-07
   53.0000000        -3.46072443E-06
   53.0999985        -4.37414928E-06
   53.2000008         1.73551553E-06
   53.2999992         6.67108361E-06
   53.4000015         1.45888134E-06
   53.5000000        -6.72295164E-06
   53.5999985        -4.56357293E-06
   53.7000008         4.66769689E-06
   53.7999992         5.92444258E-06
   53.9000015        -1.94727886E-06
   54.0000000        -5.63356025E-06
   54.0999985        -7.34530602E-07
   54.2000008         4.30488808E-06
   54.2999992         3.30595776E-06
   54.4000015        -1.93763253E-06
   54.5000000        -4.83858048E-06
   54.5999985        -9.10680171E-07
   54.7000008         4.48629180E-06
   54.7999992         3.07640221E-06
   54.9000015        -2.80037170E-06
   55.0000000        -4.24388281E-06
   55.0999985         6.74892419E-07
   55.2000008         4.54178189E-06
   55.2999992         1.24311612E-06
   55.4000015        -3.89691058E-06
   55.5000000        -2.36910000E-06
   55.5999985         2.38760140E-06
   55.7000008         2.21366645E-06
   55.7999992        -1.03971320E-06
   55.9000015        -1.37696759E-06
   56.0000000         7.79619825E-07
   56.0999985         1.11864824E-06
   56.2000008        -1.08077779E-06
   56.2999992        -1.16558704E-06
   56.4000015         1.69129623E-06
   56.5000000         8.41228712E-07
   56.5999985        -3.01832711E-06
   56.7000008        -1.14117813E-06
   56.7999992         3.74316096E-06
   56.9000015         2.44234957E-06
   57.0000000        -2.14280408E-06
   57.0999985        -3.11854342E-06
   57.2000008        -7.89610112E-07
   57.2999992         2.33593323E-06
   57.4000015         2.94914594E-06
   57.5000000        -8.90860974E-07
   57.5999985        -3.96656515E-06
   57.7000008        -1.03287107E-06
   57.7999992         4.12379950E-06
   57.9000015         3.66768381E-06
   58.0000000        -2.88640217E-06
   58.0999985        -5.44980139E-06
   58.2000008         8.25736436E-07
   58.2999992         4.74403896E-06
   58.4000015         2.25944135E-07
   58.5000000        -2.54068186E-06
   58.5999985         8.81393731E-08
   58.7000008         1.08675533E-06
   58.7999992        -1.05738941E-07
   58.9000015        -1.02109141E-06
   59.0000000        -1.46779882E-06
   59.0999985         8.67147151E-07
   59.2000008         3.43135798E-06
   59.2999992         3.86219057E-07
   59.4000015        -3.59768205E-06
   59.5000000        -1.48631398E-06
   59.5999985         2.30541104E-06
   59.7000008         1.18591697E-06
   59.7999992        -2.09068799E-06
   59.9000015        -7.55161579E-07
   60.0000000         3.31217962E-06
   60.0999985         1.61516982E-06
   60.2000008        -3.28598708E-06
   60.2999992        -2.07650351E-06
   60.4000015         1.05587219E-06
   60.5000000         9.55581427E-08
   60.5999985         1.05032586E-06
   60.7000008         2.97018664E-06
   60.7999992        -1.37632060E-06
   60.9000015        -4.58673685E-06
   61.0000000         4.70068414E-07
   61.0999985         4.08052392E-06
   61.2000008         4.51938178E-07
   61.2999992        -2.28239560E-06
   61.4000015        -8.40182324E-08
   61.5000000         9.29119153E-07
   61.5999985        -1.73325589E-06
   61.7000008        -1.35955122E-06
   61.7999992         3.09303095E-06
   61.9000015         2.20299012E-06
   62.0000000        -3.01609225E-06
   62.0999985        -1.42792453E-06
   62.2000008         3.01030718E-06
   62.2999992         3.28389689E-07
   62.4000015        -3.25601286E-06
   62.5000000        -9.49741320E-07
   62.5999985         1.91551703E-06
   62.7000008         2.05999550E-06
   62.7999992         7.50271568E-07
   62.9000015        -1.69848670E-06
   63.0000000        -2.48973538E-06
   63.0999985         3.53691433E-07
   63.2000008         2.92540358E-06
   63.2999992         1.03444859E-06
   63.4000015        -3.23943709E-06
   63.5000000        -2.84140037E-06
   63.5999985         2.99221665E-06
   63.7000008         4.54096653E-06
   63.7999992        -1.14409443E-06
   63.9000015        -4.45008664E-06
   64.0000000        -1.57334887E-06
   64.0999985         2.35980542E-06
   64.1999969         3.81895552E-06
   64.3000031         5.96267512E-07
   64.4000015        -4.73369255E-06
   64.5000000        -3.48141998E-06
   64.5999985         3.51718131E-06
   64.6999969         5.08476023E-06
   64.8000031        -6.65217613E-07
   64.9000015        -4.38292909E-06
   65.0000000        -1.25207862E-06
   65.0999985         2.75339448E-06
   65.1999969         9.59977001E-07
   65.3000031        -2.45516640E-06
   65.4000015        -5.56777650E-07
   65.5000000         2.54060706E-06
   65.5999985         1.25807969E-06
   65.6999969        -8.18306432E-07
   65.8000031        -1.13916701E-06
   65.9000015        -1.47805906E-06