  -15.0000000        -1.06881561E-30
  -14.8999996        -8.34665970E-31
  -14.8000002        -4.39659714E-31
  -14.6999998        -4.07200537E-33
  -14.6000004         3.46206055E-31
  -14.5000000         5.19783195E-31
  -14.3999996         4.85258409E-31
  -14.3000002         2.76245381E-31
  -14.1999998        -2.27648631E-32
  -14.1000004        -3.04230939E-31
  -14.0000000        -4.71583272E-31
  -13.8999996        -4.70313174E-31
  -13.8000002        -3.06102232E-31
  -13.6999998        -4.22347832E-32
  -13.6000004         2.24470403E-31
  -13.5000000         4.00506019E-31
  -13.3999996         4.30080422E-31
  -13.3000002         3.12886927E-31
  -13.1999998         9.93984975E-32
  -13.1000004        -1.31813001E-31
  -13.0000000        -3.01843886E-31
  -12.8999996        -3.69647458E-31
  -12.8000002        -2.49036613E-31
  -12.6999998        -3.92392192E-31
  -12.6000004         1.12453667E-30
  -12.5000000        -3.33667100E-30
  -12.3999996         8.99746848E-30
  -12.3000002        -1.19487222E-29
  -12.1999998        -1.05143550E-29
  -12.1000004         1.20421153E-28
  -12.0000000        -3.66256529E-28
  -11.8999996         5.35414880E-28
  -11.8000002         3.07329019E-28
  -11.6999998        -3.71043269E-27
  -11.6000004         8.94797298E-27
  -11.5000000        -6.31153744E-27
  -11.3999996        -2.43570188E-26
  -11.3000002         8.52839127E-26
  -11.1999998        -9.49476807E-26
  -11.1000004        -1.25427343E-25
  -11.0000000         6.19927526E-25
  -10.8999996        -8.06244441E-25
  -10.8000002        -5.99487449E-25
  -10.6999998         3.91470725E-24
  -10.6000004        -5.14689813E-24
  -10.5000000        -3.71271587E-24
  -10.3999996         2.22508899E-23
  -10.3000002        -2.42388810E-23
  -10.1999998        -2.65471101E-23
  -10.1000004         1.05626784E-22
  -10.0000000        -8.39048741E-23
  -9.89999962        -1.51062118E-22
  -9.80000019         4.31229186E-22
  -9.69999981        -2.24442035E-22
  -9.60000038        -7.82704710E-22
  -9.50000000         1.56014937E-21
  -9.39999962        -2.63264310E-23
  -9.30000019        -3.45024142E-21
  -9.19999981         3.78472733E-21
  -9.10000038         2.70665230E-21
  -9.00000000        -1.00492921E-20
  -8.89999962         6.57747204E-21
  -8.80000019         1.14141166E-20
  -8.69999981        -2.69423211E-20
  -8.60000038         6.39541032E-21
  -8.50000000         4.60672167E-20
  -8.39999962        -4.97659160E-20
  -8.30000019        -3.23951651E-20
  -8.19999981         9.06510400E-20
  -8.10000038        -4.30405434E-20
  -8.00000000        -6.15158453E-20
  -7.90000010         1.58079992E-19
  -7.80000019        -8.10995531E-20
  -7.69999981        -2.05199858E-19
  -7.59999990         2.41273127E-19
  -7.50000000         3.65317500E-20
  -7.40000010        -1.75722411E-19
  -7.30000019         3.75457513E-19
  -7.19999981        -2.15367963E-19
  -7.09999990        -6.96031540E-19
  -7.00000000         4.94448504E-19
  -6.90000010         1.16614217E-19
  -6.80000019        -3.21511081E-20
  -6.69999981         1.96711842E-18
  -6.59999990        -5.41455885E-19
  -6.50000000        -3.79205897E-18
  -6.40000010        -7.04638406E-19
  -6.30000019        -1.86714698E-19
  -6.19999981         1.87258284E-18
  -6.09999990         1.22342155E-17
  -6.00000000         6.40970924E-18
  -5.90000010        -1.49175290E-17
  -5.80000019        -2.17427170E-17
  -5.69999981        -2.03078763E-17
  -5.59999990        -1.12119834E-18
  -5.50000000         5.74461186E-17
  -5.40000010         9.10125851E-17
  -5.30000019         3.93966869E-17
  -5.19999981        -8.16967314E-17
  -5.09999990        -2.34056035E-16
  -5.00000000        -2.67473999E-16
  -4.90000010        -8.42285510E-18
  -4.80000019         4.61333901E-16
  -4.69999981         8.50806108E-16
  -4.59999990         7.14228504E-16
  -4.50000000        -3.62698820E-16
  -4.40000010        -2.00088367E-15
  -4.30000019        -2.89045208E-15
  -4.19999981        -1.63106814E-15
  -4.09999990         2.34596490E-15
  -4.00000000         7.38659063E-15
  -3.90000010         9.16673286E-15
  -3.79999995         3.43070303E-15
  -3.70000005        -1.00975890E-14
  -3.59999990        -2.49489963E-14
  -3.50000000        -2.82117605E-14
  -3.40000010        -7.84286356E-15
  -3.29999995         3.54038969E-14
  -3.20000005         8.00311830E-14
  -3.09999990         8.73568931E-14
  -3.00000000         2.33702607E-14
  -2.90000010        -1.07751461E-13
  -2.79999995        -2.42917503E-13
  -2.70000005        -2.72562843E-13
  -2.59999990        -9.76800089E-14
  -2.50000000         2.80205600E-13
  -2.40000010         6.96082731E-13
  -2.29999995         8.49531383E-13
  -2.20000005         4.45990521E-13
  -2.09999990        -5.74385049E-13
  -2.00000000        -1.84194652E-12
  -1.89999998        -2.57556541E-12
  -1.79999995        -1.89895192E-12
  -1.70000005         5.97219810E-13
  -1.60000002         4.27886806E-12
  -1.50000000         7.30324048E-12
  -1.39999998         7.19430245E-12
  -1.29999995         2.12614323E-12
  -1.20000005        -7.51405101E-12
  -1.10000002        -1.81532463E-11
  -1.00000000        -2.36069601E-11
 -0.899999976        -1.75256563E-11
 -0.800000012         2.88345606E-12
 -0.699999988         3.34396330E-11
 -0.600000024         6.20862250E-11
 -0.500000000         7.19596119E-11
 -0.400000006         4.81428127E-11
 -0.300000012        -1.39778362E-11
 -0.200000003        -1.02575858E-10
 -0.100000001        -1.89391475E-10
   0.00000000        -2.37199510E-10
  0.100000001        -2.12774243E-10
  0.200000003        -1.00459474E-10
  0.300000012         9.02959166E-11
  0.400000006         3.27844724E-10
  0.500000000         5.71266867E-10
  0.600000024         7.89089794E-10
  0.699999988         9.76493220E-10
  0.800000012         1.16318499E-09
  0.899999976         1.40877920E-09
   1.00000000         1.78849013E-09
   1.10000002         2.37695863E-09
   1.20000005         3.23987570E-09
   1.29999995         4.43828752E-09
   1.39999998         6.04429440E-09
   1.50000000         8.16517343E-09
   1.60000002         1.09689493E-08
   1.70000005         1.47023211E-08
   1.79999995         1.96996641E-08
   1.89999998         2.63881788E-08
   2.00000000         3.52996494E-08
   2.09999990         4.71021835E-08
   2.20000005         6.26561700E-08
   2.29999995         8.30907538E-08
   2.40000010         1.09897364E-07
   2.50000000         1.45036537E-07
   2.59999990         1.91056600E-07
   2.70000005         2.51226368E-07
   2.79999995         3.29694160E-07
   2.90000010         4.31708685E-07
   3.00000000         5.63933838E-07
   3.09999990         7.34867626E-07
   3.20000005         9.55344603E-07
   3.29999995         1.23913480E-06
   3.40000010         1.60367131E-06
   3.50000000         2.07093990E-06
   3.59999990         2.66853385E-06
   3.70000005         3.43097122E-06
   3.79999995         4.40133545E-06
   3.90000010         5.63334697E-06
   4.00000000         7.19387708E-06
   4.09999990         9.16602130E-06
   4.19999981         1.16526044E-05
   4.30000019         1.47805849E-05
   4.40000010         1.87062451E-05
   4.50000000         2.36215201E-05
   4.59999990         2.97613897E-05
   4.69999981         3.74129268E-05
   4.80000019         4.69259976E-05
   4.90000010         5.87256109E-05
   5.00000000         7.33269117E-05
   5.09999990         9.13528274E-05
   5.19999981         1.13554132E-04
   5.30000019         1.40833276E-04
   5.40000010         1.74272369E-04
   5.50000000         2.15165535E-04
   5.59999990         2.65055831E-04
   5.69999981         3.25777510E-04
   5.80000019         3.99506884E-04
   5.90000010         4.88816469E-04
   6.00000000         5.96740399E-04
   6.09999990         7.26848317E-04
   6.19999981         8.83320987E-04
   6.30000019         1.07104890E-03
   6.40000010         1.29573361E-03
   6.50000000         1.56400050E-03
   6.59999990         1.88353006E-03
   6.69999981         2.26319139E-03
   6.80000019         2.71320087E-03
   6.90000010         3.24530341E-03
   7.00000000         3.87293193E-03
   7.09999990         4.61141346E-03
   7.19999981         5.47818234E-03
   7.30000019         6.49302546E-03
   7.40000010         7.67829828E-03
   7.50000000         9.05917864E-03
   7.59999990         1.06639201E-02
   7.69999981         1.25241540E-02
   7.80000019         1.46751292E-02
   7.90000010         1.71560254E-02
   8.00000000         2.00101882E-02
   8.10000038         2.32854132E-02
   8.19999981         2.70342007E-02
   8.30000019         3.13139260E-02
   8.39999962         3.61872241E-02
   8.50000000         4.17219810E-02
   8.60000038         4.79914322E-02
   8.69999981         5.50745167E-02
   8.80000019         6.30557686E-02
   8.89999962         7.20250681E-02
   9.00000000         8.20774138E-02
   9.10000038         9.33131948E-02
   9.19999981        0.105837725    
   9.30000019        0.119760245    
   9.39999962        0.135193795    
   9.50000000        0.152254924    
   9.60000038        0.171061769    
   9.69999981        0.191733360    
   9.80000019        0.214389503    
   9.89999962        0.239148378    
   10.0000000        0.266124606    
   10.1000004        0.295428514    
   10.1999998        0.327165097    
   10.3000002        0.361430079    
   10.3999996        0.398308039    
   10.5000000        0.437872529    
   10.6000004        0.480181366    
   10.6999998        0.525274992    
   10.8000002        0.573174059    
   10.8999996        0.623876691    
   11.0000000        0.677357733    
   11.1000004        0.733564019    
   11.1999998        0.792412281    
   11.3000002        0.853789806    
   11.3999996        0.917549491    
   11.5000000        0.983509302    
   11.6000004         1.05144989    
   11.6999998         1.12111628    
   11.8000002         1.19221449    
   11.8999996         1.26441467    
   12.0000000         1.33734775    
   12.1000004         1.41060972    
   12.1999998         1.48375738    
   12.3000002         1.55631435    
   12.3999996         1.62777686    
   12.5000000         1.69761407    
   12.6000004         1.76526761    
   12.6999998         1.83016026    
   12.8000002         1.89170039    
   12.8999996         1.94929063    
   13.0000000         2.00232792    
   13.1000004         2.05021691    
   13.1999998         2.09236169    
   13.3000002         2.12818384    
   13.3999996         2.15713763    
   13.5000000         2.17871213    
   13.6000004         2.19242358    
   13.6999998         2.19783449    
   13.8000002         2.19456100    
   13.8999996         2.18228292    
   14.0000000         2.16073990    
   14.1000004         2.12973833    
   14.1999998         2.08915663    
   14.3000002         2.03895926    
   14.3999996         1.97919166    
   14.5000000         1.90998280    
   14.6000004         1.83153093    
   14.6999998         1.74411774    
   14.8000002         1.64812362    
   14.8999996         1.54402196    
   15.0000000         1.43233848    
   15.1000004         1.31365931    
   15.1999998         1.18866110    
   15.3000002         1.05809188    
   15.3999996        0.922734737    
   15.5000000        0.783410907    
   15.6000004        0.640983105    
   15.6999998        0.496348053    
   15.8000002        0.350434124    
   15.8999996        0.204189107    
   16.0000000         5.85402325E-02
   16.1000004        -8.56238902E-02
   16.2000008       -0.227422163    
   16.2999992       -0.365963757    
   16.3999996       -0.500401497    
   16.5000000       -0.629974782    
   16.6000004       -0.753974557    
   16.7000008       -0.871713042    
   16.7999992       -0.982565641    
   16.8999996        -1.08600664    
   17.0000000        -1.18159628    
   17.1000004        -1.26896501    
   17.2000008        -1.34780836    
   17.2999992        -1.41789460    
   17.3999996        -1.47907639    
   17.5000000        -1.53130829    
   17.6000004        -1.57463014    
   17.7000008        -1.60913169    
   17.7999992        -1.63495719    
   17.8999996        -1.65232646    
   18.0000000        -1.66153038    
   18.1000004        -1.66291869    
   18.2000008        -1.65689111    
   18.2999992        -1.64388001    
   18.3999996        -1.62434471    
   18.5000000        -1.59877253    
   18.6000004        -1.56768847    
   18.7000008        -1.53163862    
   18.7999992        -1.49115980    
   18.8999996        -1.44677663    
   19.0000000        -1.39903212    
   19.1000004        -1.34847891    
   19.2000008        -1.29564548    
   19.2999992        -1.24102449    
   19.3999996        -1.18507755    
   19.5000000        -1.12825477    
   19.6000004        -1.07100141    
   19.7000008        -1.01373255    
   19.7999992       -0.956795454    
   19.8999996       -0.900487721    
   20.0000000       -0.845117271    
   20.1000004       -0.790996969    
   20.2000008       -0.738376737    
   20.2999992       -0.687409937    
   20.3999996       -0.638222694    
   20.5000000       -0.590977728    
   20.6000004       -0.545828879    
   20.7000008       -0.502845407    
   20.7999992       -0.462028831    
   20.8999996       -0.423398525    
   21.0000000       -0.387016892    
   21.1000004       -0.352915227    
   21.2000008       -0.321031511    
   21.2999992       -0.291257381    
   21.3999996       -0.263535470    
   21.5000000       -0.237858638    
   21.6000004       -0.214184895    
   21.7000008       -0.192395031    
   21.7999992       -0.172353908    
   21.8999996       -0.153982088    
   22.0000000       -0.137233630    
   22.1000004       -0.122016065    
   22.2000008       -0.108186521    
   22.2999992        -9.56277102E-02
   22.3999996        -8.42796862E-02
   22.5000000        -7.40892738E-02
   22.6000004        -6.49600029E-02
   22.7000008        -5.67652546E-02
   22.7999992        -4.94069643E-02
   22.8999996        -4.28339466E-02
   23.0000000        -3.69943716E-02
   23.1000004        -3.18124741E-02
   23.2000008        -2.72154640E-02
   23.2999992        -2.31454205E-02
   23.3999996        -1.95538756E-02
   23.5000000        -1.63951479E-02
   23.6000004        -1.36099057E-02
   23.7000008        -1.11428024E-02
   23.7999992        -8.97540338E-03
   23.8999996        -7.09109893E-03
   24.0000000        -5.43629797E-03
   24.1000004        -3.96450795E-03
   24.2000008        -2.67474819E-03
   24.2999992        -1.57451048E-03
   24.3999996        -6.31212723E-04
   24.5000000         2.14443135E-04
   24.6000004         9.78005235E-04
   24.7000008         1.62357115E-03
   24.7999992         2.15915265E-03
   24.8999996         2.64786463E-03
   25.0000000         3.10157752E-03
   25.1000004         3.47793079E-03
   25.2000008         3.76788154E-03
   25.2999992         3.99756292E-03
   25.3999996         4.19367477E-03
   25.5000000         4.37712250E-03
   25.6000004         4.54069534E-03
   25.7000008         4.65390459E-03
   25.7999992         4.71031899E-03
   25.8999996         4.73996252E-03
   26.0000000         4.77107754E-03
   26.1000004         4.77861799E-03
   26.2000008         4.70788125E-03
   26.2999992         4.58548032E-03
   26.3999996         4.49951366E-03
   26.5000000         4.43980563E-03
   26.6000004         4.32068389E-03
   26.7000008         4.13844595E-03
   26.7999992         3.94647941E-03
   26.8999996         3.75286443E-03
   27.0000000         3.53897642E-03
   27.1000004         3.29691940E-03
   27.2000008         3.03226733E-03
   27.2999992         2.76513421E-03
   27.3999996         2.50470079E-03
   27.5000000         2.23537371E-03
   27.6000004         1.93497271E-03
   27.7000008         1.59691193E-03
   27.7999992         1.25911739E-03
   27.8999996         9.60744161E-04
   28.0000000         6.57496392E-04
   28.1000004         2.99280829E-04
   28.2000008        -6.33310774E-05
   28.2999992        -3.86087253E-04
   28.3999996        -7.13163579E-04
   28.5000000        -1.06971164E-03
   28.6000004        -1.42157229E-03
   28.7000008        -1.74539129E-03
   28.7999992        -2.04845355E-03
   28.8999996        -2.35809712E-03
   29.0000000        -2.69409642E-03
   29.1000004        -3.03243939E-03
   29.2000008        -3.34187085E-03
   29.2999992        -3.62767070E-03
   29.3999996        -3.91132711E-03
   29.5000000        -4.20699175E-03
   29.6000004        -4.49651666E-03
   29.7000008        -4.74021630E-03
   29.7999992        -4.95837117E-03
   29.8999996        -5.21326251E-03
   30.0000000        -5.49248513E-03
   30.1000004        -5.73276030E-03
   30.2000008        -5.92463324E-03
   30.2999992        -6.10883161E-03
   30.3999996        -6.32149912E-03
   30.5000000        -6.54836232E-03
   30.6000004        -6.72646100E-03
   30.7000008        -6.84747146E-03
   30.7999992        -6.98835170E-03
   30.8999996        -7.17806816E-03
   31.0000000        -7.35339615E-03
   31.1000004        -7.47017190E-03
   31.2000008        -7.55344471E-03
   31.2999992        -7.64800375E-03
   31.3999996        -7.76585145E-03
   31.5000000        -7.87339546E-03
   31.6000004        -7.93748349E-03
   31.7000008        -7.96965323E-03
   31.7999992        -8.00513290E-03
   31.8999996        -8.05825926E-03
   32.0000000        -8.09769984E-03
   32.0999985        -8.08141101E-03
   32.2000008        -8.03598762E-03
   32.2999992        -8.02261196E-03
   32.4000015        -8.01744964E-03
   32.5000000        -7.95476697E-03
   32.5999985        -7.85448216E-03
   32.7000008        -7.76930060E-03
   32.7999992        -7.67965196E-03
   32.9000015        -7.54710520E-03
   33.0000000        -7.38649955E-03
   33.0999985        -7.22684897E-03
   33.2000008        -7.06796860E-03
   33.2999992        -6.89622294E-03
   33.4000015        -6.70361519E-03
   33.5000000        -6.48835488E-03
   33.5999985        -6.25909166E-03
   33.7000008        -6.03359705E-03
   33.7999992        -5.80870174E-03
   33.9000015        -5.54945413E-03
   34.0000000        -5.24885906E-03
   34.0999985        -4.96109528E-03
   34.2000008        -4.71975794E-03
   34.2999992        -4.47901106E-03
   34.4000015        -4.19199094E-03
   34.5000000        -3.88287241E-03
   34.5999985        -3.59733007E-03
   34.7000008        -3.33689037E-03
   34.7999992        -3.07092303E-03
   34.9000015        -2.78612063E-03
   35.0000000        -2.50435877E-03
   35.0999985        -2.24780012E-03
   35.2000008        -2.00937688E-03
   35.2999992        -1.77464623E-03
   35.4000015        -1.53652776E-03
   35.5000000        -1.28893007E-03
   35.5999985        -1.05383515E-03
   35.7000008        -8.71452037E-04
   35.7999992        -7.17178395E-04
   35.9000015        -5.20621368E-04
   36.0000000        -2.98581028E-04
   36.0999985        -1.41283046E-04
   36.2000008        -4.96348075E-05
   36.2999992         7.15604619E-05
   36.4000015         2.44078285E-04
   36.5000000         3.82675265E-04
   36.5999985         4.51232772E-04
   36.7000008         5.12934290E-04
   36.7999992         6.06862595E-04
   36.9000015         7.06735242E-04
   37.0000000         7.91337923E-04
   37.0999985         8.46120412E-04
   37.2000008         8.58244137E-04
   37.2999992         8.74631514E-04
   37.4000015         9.49115609E-04
   37.5000000         1.02858932E-03
   37.5999985         1.03642535E-03
   37.7000008         1.01569435E-03
   37.7999992         1.04401179E-03
   37.9000015         1.09370204E-03
   38.0000000         1.10584660E-03
   38.0999985         1.10205542E-03
   38.2000008         1.11580070E-03
   38.2999992         1.12361077E-03
   38.4000015         1.12084718E-03
   38.5000000         1.13939075E-03
   38.5999985         1.16118765E-03
   38.7000008         1.15062413E-03
   38.7999992         1.13876734E-03
   38.9000015         1.15609681E-03
   39.0000000         1.17364083E-03
   39.0999985         1.17935694E-03
   39.2000008         1.19208742E-03
   39.2999992         1.19594345E-03
   39.4000015         1.17551687E-03
   39.5000000         1.17086852E-03
   39.5999985         1.20477914E-03
   39.7000008         1.22509687E-03
   39.7999992         1.20050926E-03
   39.9000015         1.18690159E-03
   40.0000000         1.21537689E-03
   40.0999985         1.23111135E-03
   40.2000008         1.21593103E-03
   40.2999992         1.21553801E-03
   40.4000015         1.22179068E-03
   40.5000000         1.20036013E-03
   40.5999985         1.18089980E-03
   40.7000008         1.18610845E-03
   40.7999992         1.18714350E-03
   40.9000015         1.17555610E-03
   41.0000000         1.15815387E-03
   41.0999985         1.12119224E-03
   41.2000008         1.07229396E-03
   41.2999992         1.04116392E-03
   41.4000015         1.02512294E-03
   41.5000000         9.94109316E-04
   41.5999985         9.41164733E-04
   41.7000008         8.90242518E-04
   41.7999992         8.43515038E-04
   41.9000015         7.74023880E-04
   42.0000000         6.92961446E-04
   42.0999985         6.22673775E-04
   42.2000008         5.27821307E-04
   42.2999992         4.06450738E-04
   42.4000015         3.25305155E-04
   42.5000000         2.68331292E-04
   42.5999985         1.56367401E-04
   42.7000008         8.10078109E-06
   42.7999992        -1.23534322E-04
   42.9000015        -2.54977756E-04
   43.0000000        -3.96185234E-04
   43.0999985        -5.33480197E-04
   43.2000008        -6.89055829E-04
   43.2999992        -8.73442099E-04
   43.4000015        -1.04207662E-03
   43.5000000        -1.16831798E-03
   43.5999985        -1.30840368E-03
   43.7000008        -1.52647763E-03
   43.7999992        -1.76762615E-03
   43.9000015        -1.93474162E-03
   44.0000000        -2.06978433E-03
   44.0999985        -2.26297067E-03
   44.2000008        -2.47933809E-03
   44.2999992        -2.66351481E-03
   44.4000015        -2.83666817E-03
   44.5000000        -3.00799985E-03
   44.5999985        -3.18076788E-03
   44.7000008        -3.38279596E-03
   44.7999992        -3.58398841E-03
   44.9000015        -3.73263890E-03
   45.0000000        -3.85851646E-03
   45.0999985        -4.01088316E-03
   45.2000008        -4.18027258E-03
   45.2999992        -4.32800129E-03
   45.4000015        -4.43176599E-03
   45.5000000        -4.51572752E-03
   45.5999985        -4.61862283E-03
   45.7000008        -4.73067863E-03
   45.7999992        -4.82309656E-03
   45.9000015        -4.88681998E-03
   46.0000000        -4.92030988E-03
   46.0999985        -4.94908076E-03
   46.2000008        -4.98938654E-03
   46.2999992        -4.99142613E-03
   46.4000015        -4.94370423E-03
   46.5000000        -4.91678109E-03
   46.5999985        -4.91423439E-03
   46.7000008        -4.87503363E-03
   46.7999992        -4.80221491E-03
   46.9000015        -4.71685920E-03
   47.0000000        -4.60602809E-03
   47.0999985        -4.48496733E-03
   47.2000008        -4.37298324E-03
   47.2999992        -4.24501579E-03
   47.4000015        -4.08431236E-03
   47.5000000        -3.91110824E-03
   47.5999985        -3.74793052E-03
   47.7000008        -3.58622335E-03
   47.7999992        -3.39231198E-03
   47.9000015        -3.17013962E-03
   48.0000000        -2.95904814E-03
   48.0999985        -2.75099790E-03
   48.2000008        -2.52227788E-03
   48.2999992        -2.29497720E-03
   48.4000015        -2.06760876E-03
   48.5000000        -1.81258772E-03
   48.5999985        -1.55651080E-03
   48.7000008        -1.32463430E-03
   48.7999992        -1.08898210E-03
   48.9000015        -8.39044806E-04
   49.0000000        -5.84298221E-04
   49.0999985        -3.20068124E-04
   49.2000008        -6.46973058E-05
   49.2999992         1.63483681E-04
   49.4000015         3.96785588E-04
   49.5000000         6.59045647E-04
   49.5999985         9.17363679E-04
   49.7000008         1.13844534E-03
   49.7999992         1.34238449E-03
   49.9000015         1.57295214E-03
   50.0000000         1.82168593E-03
   50.0999985         2.03750562E-03
   50.2000008         2.22423673E-03
   50.2999992         2.42641242E-03
   50.4000015         2.63664289E-03
   50.5000000         2.82990350E-03
   50.5999985         3.01353191E-03
   50.7000008         3.18017136E-03
   50.7999992         3.32287420E-03
   50.9000015         3.47719458E-03
   51.0000000         3.65192955E-03
   51.0999985         3.80099239E-03
   51.2000008         3.91093688E-03
   51.2999992         4.02309000E-03
   51.4000015         4.16037394E-03
   51.5000000         4.29114467E-03
   51.5999985         4.37292270E-03
   51.7000008         4.41641454E-03
   51.7999992         4.47641127E-03
   51.9000015         4.57296195E-03
   52.0000000         4.66453051E-03
   52.0999985         4.70729684E-03
   52.2000008         4.71265940E-03
   52.2999992         4.73174453E-03
   52.4000015         4.77796607E-03
   52.5000000         4.80291806E-03
   52.5999985         4.77801915E-03
   52.7000008         4.73573757E-03
   52.7999992         4.70857136E-03
   52.9000015         4.69730189E-03
   53.0000000         4.68561566E-03
   53.0999985         4.63891169E-03
   53.2000008         4.54156566E-03
   53.2999992         4.44448134E-03
   53.4000015         4.39686794E-03
   53.5000000         4.35209088E-03
   53.5999985         4.23589116E-03
   53.7000008         4.07771580E-03
   53.7999992         3.96491308E-03
   53.9000015         3.89377843E-03
   54.0000000         3.78800370E-03
   54.0999985         3.63432569E-03
   54.2000008         3.48056760E-03
   54.2999992         3.34386714E-03
   54.4000015         3.21055856E-03
   54.5000000         3.07100173E-03
   54.5999985         2.91473255E-03
   54.7000008         2.74259597E-03
   54.7999992         2.57942523E-03
   54.9000015         2.44091474E-03
   55.0000000         2.30698381E-03
   55.0999985         2.14881264E-03
   55.2000008         1.97474682E-03
   55.2999992         1.82065170E-03
   55.4000015         1.68918108E-03
   55.5000000         1.54949550E-03
   55.5999985         1.39604672E-03
   55.7000008         1.24757830E-03
   55.7999992         1.11268461E-03
   55.9000015         9.93801514E-04
   56.0000000         8.85161571E-04
   56.0999985         7.70717743E-04
   56.2000008         6.49177295E-04
   56.2999992         5.33080951E-04
   56.4000015         4.34570276E-04
   56.5000000         3.60659993E-04
   56.5999985         2.88565789E-04
   56.7000008         1.89386454E-04
   56.7999992         9.22602339E-05
   56.9000015         3.97121985E-05
   57.0000000         1.01424584E-05
   57.0999985        -3.74524025E-05
   57.2000008        -1.05759158E-04
   57.2999992        -1.71392647E-04
   57.4000015        -2.05248944E-04
   57.5000000        -2.08553960E-04
   57.5999985        -2.23742187E-04
   57.7000008        -2.67502910E-04
   57.7999992        -3.03883658E-04
   57.9000015        -3.03578097E-04
   58.0000000        -2.84849171E-04
   58.0999985        -2.93320685E-04
   58.2000008        -3.33812961E-04
   58.2999992        -3.48371046E-04
   58.4000015        -3.15518060E-04
   58.5000000        -2.88080104E-04
   58.5999985        -2.88493553E-04
   58.7000008        -2.90153897E-04
   58.7999992        -2.85296323E-04
   58.9000015        -2.71371478E-04
   59.0000000        -2.46231124E-04
   59.0999985        -2.33255589E-04
   59.2000008        -2.30748847E-04
   59.2999992        -2.05628879E-04
   59.4000015        -1.66455284E-04
   59.5000000        -1.45110957E-04
   59.5999985        -1.35323193E-04
   59.7000008        -1.14359485E-04
   59.7999992        -8.25457391E-05
   59.9000015        -5.79156222E-05
   60.0000000        -4.10399298E-05
   60.0999985        -1.00318975E-05
   60.2000008         2.74651065E-05
   60.2999992         4.67896716E-05
   60.4000015         7.01173049E-05
   60.5000000         1.12829664E-04
   60.5999985         1.40307122E-04
   60.7000008         1.57563351E-04
   60.7999992         2.00148410E-04
   60.9000015         2.41138478E-04
   61.0000000         2.54074112E-04
   61.0999985         2.76290491E-04
   61.2000008         3.22910026E-04
   61.2999992         3.61728860E-04
   61.4000015         3.87095090E-04
   61.5000000         4.20907687E-04
   61.5999985         4.57886752E-04
   61.7000008         4.74150467E-04
   61.7999992         4.88281425E-04
   61.9000015         5.41390677E-04
   62.0000000         6.01658539E-04
   62.0999985         6.09053415E-04
   62.2000008         6.03281602E-04
   62.2999992         6.50020200E-04
   62.4000015         7.13797694E-04
   62.5000000         7.39461044E-04
   62.5999985         7.40818738E-04
   62.7000008         7.50217936E-04
   62.7999992         7.84335367E-04
   62.9000015         8.38312553E-04
   63.0000000         8.74521269E-04
   63.0999985         8.72258737E-04
   63.2000008         8.67534138E-04
   63.2999992         9.01466701E-04
   63.4000015         9.59970930E-04
   63.5000000         9.89255845E-04
   63.5999985         9.75490431E-04
   63.7000008         9.71121248E-04
   63.7999992         1.00609486E-03
   63.9000015         1.04533962E-03
   64.0000000         1.05963240E-03
   64.0999985         1.05538324E-03
   64.1999969         1.05400325E-03
   64.3000031         1.08185888E-03
   64.4000015         1.12390798E-03
   64.5000000         1.12533150E-03
   64.5999985         1.09182124E-03
   64.6999969         1.08956161E-03
   64.8000031         1.12866820E-03
   64.9000015         1.15303171E-03
   65.0000000         1.13594113E-03
   65.0999985         1.11256458E-03
   65.1999969         1.11762225E-03
   65.3000031         1.13257510E-03
   65.4000015         1.12771837E-03
   65.5000000         1.11480034E-03
   65.5999985         1.10731705E-03
   65.6999969         1.09354162E-03
   65.8000031         1.07811822E-03
   65.9000015         1.07283832E-03