  -15.0000000         0.00000000    
  -14.8999996         0.00000000    
  -14.8000002        -0.00000000    
  -14.6999998        -0.00000000    
  -14.6000004        -0.00000000    
  -14.5000000         0.00000000    
  -14.3999996        -0.00000000    
  -14.3000002        -0.00000000    
  -14.1999998         0.00000000    
  -14.1000004         0.00000000    
  -14.0000000        -0.00000000    
  -13.8999996         0.00000000    
  -13.8000002         0.00000000    
  -13.6999998        -1.04288794E-33
  -13.6000004         3.56831008E-32
  -13.5000000        -5.97348143E-31
  -13.3999996         6.50884275E-30
  -13.3000002        -5.16825708E-29
  -13.1999998         3.15445851E-28
  -13.1000004        -1.50894156E-27
  -13.0000000         5.60350627E-27
  -12.8999996        -1.53457174E-26
  -12.8000002         2.58461524E-26
  -12.6999998         1.93917187E-27
  -12.6000004        -1.68075370E-25
  -12.5000000         5.46108535E-25
  -12.3999996        -7.89548693E-25
  -12.3000002        -4.31087586E-25
  -12.1999998         4.87871776E-24
  -12.1000004        -1.06465922E-23
  -12.0000000         4.96812726E-24
  -11.8999996         3.25367952E-23
  -11.8000002        -8.96735488E-23
  -11.6999998         5.96238553E-23
  -11.6000004         2.01722727E-22
  -11.5000000        -5.57825382E-22
  -11.3999996         3.28390552E-22
  -11.3000002         1.11113984E-21
  -11.1999998        -2.76867085E-21
  -11.1000004         1.32659888E-21
  -11.0000000         5.69080592E-21
  -10.8999996        -1.22657322E-20
  -10.8000002         2.00733369E-21
  -10.6999998         2.87910067E-20
  -10.6000004        -3.98039408E-20
  -10.5000000        -1.80340996E-20
  -10.3999996         1.02281077E-19
  -10.3000002        -8.22659812E-20
  -10.1999998        -9.68774676E-20
  -10.1000004         2.84930996E-19
  -10.0000000        -1.58164778E-19
  -9.89999962        -4.10478685E-19
  -9.80000019         7.29557997E-19
  -9.69999981         7.52997698E-20
  -9.60000038        -1.18344523E-18
  -9.50000000         9.26326998E-19
  -9.39999962         4.96744240E-19
  -9.30000019        -1.97121359E-18
  -9.19999981         1.98018105E-18
  -9.10000038         1.49511769E-18
  -9.00000000        -4.55368014E-18
  -8.89999962         1.83585478E-18
  -8.80000019         2.45051615E-18
  -8.69999981        -7.35799158E-18
  -8.60000038         7.84643429E-18
  -8.50000000         1.15188912E-17
  -8.39999962        -1.94365921E-17
  -8.30000019        -7.20369013E-18
  -8.19999981         1.39342313E-17
  -8.10000038        -1.60038306E-17
  -8.00000000         1.27056960E-17
  -7.90000010         5.57898912E-17
  -7.80000019        -1.78364955E-17
  -7.69999981        -5.63415082E-17
  -7.59999990        -3.58780823E-17
  -7.50000000        -7.00726865E-17
  -7.40000010         3.53964944E-17
  -7.30000019         2.13724756E-16
  -7.19999981         1.80011058E-16
  -7.09999990         8.06044891E-17
  -7.00000000        -2.26406295E-16
  -6.90000010        -7.85733385E-16
  -6.80000019        -6.59753539E-16
  -6.69999981         2.45645643E-16
  -6.59999990         1.21339873E-15
  -6.50000000         2.25785949E-15
  -6.40000010         1.95291048E-15
  -6.30000019        -1.30763993E-15
  -6.19999981        -5.08658277E-15
  -6.09999990        -6.52564008E-15
  -6.00000000        -4.59343299E-15
  -5.90000010         3.15383930E-15
  -5.80000019         1.52711723E-14
  -5.69999981         2.24679538E-14
  -5.59999990         1.55305473E-14
  -5.50000000        -9.09943439E-15
  -5.40000010        -4.42970042E-14
  -5.30000019        -6.79627321E-14
  -5.19999981        -5.47203985E-14
  -5.09999990         8.80251885E-15
  -5.00000000         1.10197726E-13
  -4.90000010         1.95745845E-13
  -4.80000019         1.90365708E-13
  -4.69999981         4.84654194E-14
  -4.59999990        -2.11807189E-13
  -4.50000000        -4.84407816E-13
  -4.40000010        -5.88670551E-13
  -4.30000019        -3.68668637E-13
  -4.19999981         1.95389576E-13
  -4.09999990         9.31560168E-13
  -4.00000000         1.47987915E-12
  -3.90000010         1.42037066E-12
  -3.79999995         5.14780493E-13
  -3.70000005        -1.08148126E-12
  -3.59999990        -2.75597318E-12
  -3.50000000        -3.61476387E-12
  -3.40000010        -2.85770236E-12
  -3.29999995        -1.71969562E-13
  -3.20000005         3.95643978E-12
  -3.09999990         8.18526757E-12
  -3.00000000         1.07010867E-11
  -2.90000010         9.84826803E-12
  -2.79999995         4.76777038E-12
  -2.70000005        -4.09111200E-12
  -2.59999990        -1.49826401E-11
  -2.50000000        -2.54501732E-11
  -2.40000010        -3.31392379E-11
  -2.29999995        -3.67778447E-11
  -2.20000005        -3.69217608E-11
  -2.09999990        -3.59388422E-11
  -2.00000000        -3.75372476E-11
  -1.89999998        -4.59252948E-11
  -1.79999995        -6.46091028E-11
  -1.70000005        -9.57990839E-11
  -1.60000002        -1.40636489E-10
  -1.50000000        -1.99831873E-10
  -1.39999998        -2.75132805E-10
  -1.29999995        -3.70689285E-10
  -1.20000005        -4.93504293E-10
  -1.10000002        -6.54237498E-10
  -1.00000000        -8.67865280E-10
 -0.899999976        -1.15323884E-09
 -0.800000012        -1.53353807E-09
 -0.699999988        -2.03750128E-09
 -0.600000024        -2.70059686E-09
 -0.500000000        -3.56840024E-09
 -0.400000006        -4.70024419E-09
 -0.300000012        -6.17164542E-09
 -0.200000003        -8.07987899E-09
 -0.100000001        -1.05520135E-08
   0.00000000        -1.37511611E-08
  0.100000001        -1.78839663E-08
  0.200000003        -2.32095712E-08
  0.300000012        -3.00518153E-08
  0.400000006        -3.88174612E-08
  0.500000000        -5.00182296E-08
  0.600000024        -6.42926565E-08
  0.699999988        -8.24364719E-08
  0.800000012        -1.05443206E-07
  0.899999976        -1.34554554E-07
   1.00000000        -1.71305572E-07
   1.10000002        -2.17585907E-07
   1.20000005        -2.75720623E-07
   1.29999995        -3.48561031E-07
   1.39999998        -4.39603184E-07
   1.50000000        -5.53105849E-07
   1.60000002        -6.94263861E-07
   1.70000005        -8.69374730E-07
   1.79999995        -1.08607310E-06
   1.89999998        -1.35357470E-06
   2.00000000        -1.68298902E-06
   2.09999990        -2.08761389E-06
   2.20000005        -2.58338264E-06
   2.29999995        -3.18930688E-06
   2.40000010        -3.92799166E-06
   2.50000000        -4.82632140E-06
   2.59999990        -5.91599519E-06
   2.70000005        -7.23432504E-06
   2.79999995        -8.82550376E-06
   2.90000010        -1.07410260E-05
   3.00000000        -1.30410790E-05
   3.09999990        -1.57959403E-05
   3.20000005        -1.90870142E-05
   3.29999995        -2.30083861E-05
   3.40000010        -2.76689352E-05
   3.50000000        -3.31940209E-05
   3.59999990        -3.97262629E-05
   3.70000005        -4.74293774E-05
   3.79999995        -5.64899092E-05
   3.90000010        -6.71187954E-05
   4.00000000        -7.95544038E-05
   4.09999990        -9.40654791E-05
   4.19999981        -1.10951754E-04
   4.30000019        -1.30551634E-04
   4.40000010        -1.53239875E-04
   4.50000000        -1.79428142E-04
   4.59999990        -2.09576654E-04
   4.69999981        -2.44188879E-04
   4.80000019        -2.83813482E-04
   4.90000010        -3.29053553E-04
   5.00000000        -3.80556565E-04
   5.09999990        -4.39021795E-04
   5.19999981        -5.05202450E-04
   5.30000019        -5.79903834E-04
   5.40000010        -6.63972402E-04
   5.50000000        -7.58297043E-04
   5.59999990        -8.63819500E-04
   5.69999981        -9.81522142E-04
   5.80000019        -1.11240230E-03
   5.90000010        -1.25747954E-03
   6.00000000        -1.41779997E-03
   6.09999990        -1.59439654E-03
   6.19999981        -1.78829336E-03
   6.30000019        -2.00046529E-03
   6.40000010        -2.23189523E-03
   6.50000000        -2.48343241E-03
   6.59999990        -2.75587640E-03
   6.69999981        -3.04994546E-03
   6.80000019        -3.36615485E-03
   6.90000010        -3.70492670E-03
   7.00000000        -4.06647893E-03
   7.09999990        -4.45077382E-03
   7.19999981        -4.85755689E-03
   7.30000019        -5.28639974E-03
   7.40000010        -5.73645672E-03
   7.50000000        -6.20653667E-03
   7.59999990        -6.69527380E-03
   7.69999981        -7.20081246E-03
   7.80000019        -7.72084948E-03
   7.90000010        -8.25274270E-03
   8.00000000        -8.79355241E-03
   8.10000038        -9.33991373E-03
   8.19999981        -9.88788996E-03
   8.30000019        -1.04331179E-02
   8.39999962        -1.09708877E-02
   8.50000000        -1.14964405E-02
   8.60000038        -1.20041789E-02
   8.69999981        -1.24883112E-02
   8.80000019        -1.29428431E-02
   8.89999962        -1.33616477E-02
   9.00000000        -1.37385838E-02
   9.10000038        -1.40671665E-02
   9.19999981        -1.43408328E-02
   9.30000019        -1.45531781E-02
   9.39999962        -1.46982083E-02
   9.50000000        -1.47698186E-02
   9.60000038        -1.47624817E-02
   9.69999981        -1.46707222E-02
   9.80000019        -1.44899311E-02
   9.89999962        -1.42168058E-02
   10.0000000        -1.38480160E-02
   10.1000004        -1.33802686E-02
   10.1999998        -1.28121842E-02
   10.3000002        -1.21437041E-02
   10.3999996        -1.13752028E-02
   10.5000000        -1.05080241E-02
   10.6000004        -9.54467058E-03
   10.6999998        -8.48876592E-03
   10.8000002        -7.34561589E-03
   10.8999996        -6.12081541E-03
   11.0000000        -4.82171867E-03
   11.1000004        -3.45683936E-03
   11.1999998        -2.03458685E-03
   11.3000002        -5.65023627E-04
   11.3999996         9.40013793E-04
   11.5000000         2.46882159E-03
   11.6000004         4.01056977E-03
   11.6999998         5.55288885E-03
   11.8000002         7.08194496E-03
   11.8999996         8.58479645E-03
   12.0000000         1.00492202E-02
   12.1000004         1.14621986E-02
   12.1999998         1.28107863E-02
   12.3000002         1.40831713E-02
   12.3999996         1.52684776E-02
   12.5000000         1.63565371E-02
   12.6000004         1.73382033E-02
   12.6999998         1.82059873E-02
   12.8000002         1.89526007E-02
   12.8999996         1.95707325E-02
   13.0000000         2.00558528E-02
   13.1000004         2.04062779E-02
   13.1999998         2.06204727E-02
   13.3000002         2.06979159E-02
   13.3999996         2.06401628E-02
   13.5000000         2.04497501E-02
   13.6000004         2.01306976E-02
   13.6999998         1.96889341E-02
   13.8000002         1.91310700E-02
   13.8999996         1.84643921E-02
   14.0000000         1.76973473E-02
   14.1000004         1.68388803E-02
   14.1999998         1.59000158E-02
   14.3000002         1.48919793E-02
   14.3999996         1.38247618E-02
   14.5000000         1.27088949E-02
   14.6000004         1.15568098E-02
   14.6999998         1.03806602E-02
   14.8000002         9.19120293E-03
   14.8999996         7.99896102E-03
   15.0000000         6.81314338E-03
   15.1000004         5.64425765E-03
   15.1999998         4.50333208E-03
   15.3000002         3.39768152E-03
   15.3999996         2.33292510E-03
   15.5000000         1.31571724E-03
   15.6000004         3.53777432E-04
   15.6999998        -5.46556315E-04
   15.8000002        -1.38176477E-03
   15.8999996        -2.15096609E-03
   16.0000000        -2.85181100E-03
   16.1000004        -3.48181161E-03
   16.2000008        -4.04172624E-03
   16.2999992        -4.53227712E-03
   16.3999996        -4.95336857E-03
   16.5000000        -5.30605903E-03
   16.6000004        -5.59219066E-03
   16.7000008        -5.81466220E-03
   16.7999992        -5.97841712E-03
   16.8999996        -6.08808128E-03
   17.0000000        -6.14595832E-03
   17.1000004        -6.15434069E-03
   17.2000008        -6.11883262E-03
   17.2999992        -6.04566233E-03
   17.3999996        -5.93824172E-03
   17.5000000        -5.79835242E-03
   17.6000004        -5.63083170E-03
   17.7000008        -5.44265518E-03
   17.7999992        -5.23760915E-03
   17.8999996        -5.01683680E-03
   18.0000000        -4.78350883E-03
   18.1000004        -4.54174308E-03
   18.2000008        -4.29493142E-03
   18.2999992        -4.04749205E-03
   18.3999996        -3.80237121E-03
   18.5000000        -3.55829159E-03
   18.6000004        -3.31495493E-03
   18.7000008        -3.07735451E-03
   18.7999992        -2.84994580E-03
   18.8999996        -2.63169827E-03
   19.0000000        -2.42048036E-03
   19.1000004        -2.21782248E-03
   19.2000008        -2.02675420E-03
   19.2999992        -1.84827065E-03
   19.3999996        -1.68124912E-03
   19.5000000        -1.52395898E-03
   19.6000004        -1.37497776E-03
   19.7000008        -1.23554212E-03
   19.7999992        -1.10992684E-03
   19.8999996        -9.98405972E-04
   20.0000000        -8.94007972E-04
   20.1000004        -7.93103187E-04
   20.2000008        -7.01641082E-04
   20.2999992        -6.23983447E-04
   20.3999996        -5.55310806E-04
   20.5000000        -4.90064966E-04
   20.6000004        -4.28778760E-04
   20.7000008        -3.74358991E-04
   20.7999992        -3.28138034E-04
   20.8999996        -2.89247109E-04
   21.0000000        -2.54346291E-04
   21.1000004        -2.20087633E-04
   21.2000008        -1.88086779E-04
   21.2999992        -1.63641103E-04
   21.3999996        -1.46172446E-04
   21.5000000        -1.27691121E-04
   21.6000004        -1.06084299E-04
   21.7000008        -8.93125834E-05
   21.7999992        -8.05879536E-05
   21.8999996        -7.30852698E-05
   22.0000000        -6.27125119E-05
   22.1000004        -5.21085858E-05
   22.2000008        -4.31177687E-05
   22.2999992        -3.64362204E-05
   22.3999996        -3.36306985E-05
   22.5000000        -3.28773349E-05
   22.6000004        -2.94327256E-05
   22.7000008        -2.32281018E-05
   22.7999992        -1.91468098E-05
   22.8999996        -1.82893818E-05
   23.0000000        -1.64156427E-05
   23.1000004        -1.27663416E-05
   23.2000008        -1.12077978E-05
   23.2999992        -1.15222765E-05
   23.3999996        -1.03726088E-05
   23.5000000        -8.72172586E-06
   23.6000004        -8.00036560E-06
   23.7000008        -5.89650335E-06
   23.7999992        -2.86806721E-06
   23.8999996        -2.71192403E-06
   24.0000000        -4.64470577E-06
   24.1000004        -4.37414155E-06
   24.2000008        -1.23087489E-06
   24.2999992         1.88305853E-06
   24.3999996         2.89805280E-06
   24.5000000         2.49416530E-06
   24.6000004         2.83421264E-06
   24.7000008         4.58688373E-06
   24.7999992         5.92257129E-06
   24.8999996         5.57316571E-06
   25.0000000         5.61822117E-06
   25.1000004         8.24036033E-06
   25.2000008         1.08284621E-05
   25.2999992         1.02525373E-05
   25.3999996         9.64681567E-06
   25.5000000         1.21278053E-05
   25.6000004         1.37570596E-05
   25.7000008         1.22748870E-05
   25.7999992         1.22365591E-05
   25.8999996         1.46487218E-05
   26.0000000         1.53018955E-05
   26.1000004         1.48827412E-05
   26.2000008         1.63527220E-05
   26.2999992         1.67222934E-05
   26.3999996         1.42799872E-05
   26.5000000         1.44763226E-05
   26.6000004         1.82748336E-05
   26.7000008         1.84168875E-05
   26.7999992         1.45404319E-05
   26.8999996         1.44070909E-05
   27.0000000         1.70981093E-05
   27.1000004         1.56029328E-05
   27.2000008         1.31875886E-05
   27.2999992         1.56859442E-05
   27.3999996         1.71721949E-05
   27.5000000         1.27726880E-05
   27.6000004         1.02740842E-05
   27.7000008         1.37576790E-05
   27.7999992         1.48122954E-05
   27.8999996         1.03955681E-05
   28.0000000         8.68042389E-06
   28.1000004         1.14957093E-05
   28.2000008         1.18551934E-05
   28.2999992         9.21693390E-06
   28.3999996         7.91455022E-06
   28.5000000         6.95361405E-06
   28.6000004         5.98536008E-06
   28.7000008         7.84874192E-06
   28.7999992         8.94640380E-06
   28.8999996         5.04128184E-06
   29.0000000         2.35533048E-06
   29.1000004         5.39910025E-06
   29.2000008         6.91060586E-06
   29.2999992         3.10563246E-06
   29.3999996         1.39658869E-06
   29.5000000         4.56221005E-06
   29.6000004         5.19684409E-06
   29.7000008         1.50850087E-06
   29.7999992         8.76028025E-07
   29.8999996         3.72417003E-06
   30.0000000         3.10438918E-06
   30.1000004         5.05012906E-07
   30.2000008         1.35082962E-06
   30.2999992         2.28533190E-06
   30.3999996         7.75860826E-07
   30.5000000         1.02917716E-06
   30.6000004         2.10516237E-06
   30.7000008         6.32218871E-07
   30.7999992         3.81567190E-07
   30.8999996         2.54866427E-06
   31.0000000         1.52251721E-06
   31.1000004        -2.19003641E-06
   31.2000008        -1.95939447E-06
   31.2999992         1.97161057E-06
   31.3999996         2.54584052E-06
   31.5000000        -1.77330958E-06
   31.6000004        -3.97282156E-06
   31.7000008        -9.96750941E-07
   31.7999992         9.42901124E-07
   31.8999996        -1.24826761E-06
   32.0000000        -3.50373512E-06
   32.0999985        -3.72702539E-06
   32.2000008        -2.37571953E-06
   32.2999992        -1.08684651E-06
   32.4000015        -3.57440967E-06
   32.5000000        -7.28605755E-06
   32.5999985        -5.80969436E-06
   32.7000008        -3.47761556E-06
   32.7999992        -6.05076002E-06
   32.9000015        -7.21757351E-06
   33.0000000        -4.58131763E-06
   33.0999985        -6.24234053E-06
   33.2000008        -1.15435105E-05
   33.2999992        -1.12237922E-05
   33.4000015        -6.27010149E-06
   33.5000000        -6.02609543E-06
   33.5999985        -1.12245316E-05
   33.7000008        -1.34995844E-05
   33.7999992        -1.10285855E-05
   33.9000015        -1.01951009E-05
   34.0000000        -1.13363840E-05
   34.0999985        -1.14166342E-05
   34.2000008        -1.37465840E-05
   34.2999992        -1.62399174E-05
   34.4000015        -1.16058845E-05
   34.5000000        -7.90788272E-06
   34.5999985        -1.50211572E-05
   34.7000008        -2.03776544E-05
   34.7999992        -1.36517274E-05
   34.9000015        -8.57307350E-06
   35.0000000        -1.43050784E-05
   35.0999985        -1.92072403E-05
   35.2000008        -1.57067843E-05
   35.2999992        -1.15142475E-05
   35.4000015        -1.22274869E-05
   35.5000000        -1.39341992E-05
   35.5999985        -1.44624637E-05
   35.7000008        -1.57783743E-05
   35.7999992        -1.52153070E-05
   35.9000015        -1.11212821E-05
   36.0000000        -1.08094482E-05
   36.0999985        -1.51441600E-05
   36.2000008        -1.37725810E-05
   36.2999992        -8.33612285E-06
   36.4000015        -1.01401374E-05
   36.5000000        -1.46451130E-05
   36.5999985        -1.20814930E-05
   36.7000008        -8.40412122E-06
   36.7999992        -9.35623848E-06
   36.9000015        -9.11880579E-06
   37.0000000        -6.97104861E-06
   37.0999985        -8.26874657E-06
   37.2000008        -1.00828720E-05
   37.2999992        -7.34330843E-06
   37.4000015        -4.45101705E-06
   37.5000000        -6.18896502E-06
   37.5999985        -7.81969084E-06
   37.7000008        -5.04716627E-06
   37.7999992        -2.92100003E-06
   37.9000015        -4.67677819E-06
   38.0000000        -4.86758563E-06
   38.0999985        -2.39838118E-06
   38.2000008        -2.64082496E-06
   38.2999992        -3.66191989E-06
   38.4000015        -1.40816030E-06
   38.5000000        -7.70074450E-07
   38.5999985        -3.02813396E-06
   38.7000008        -1.53802216E-06
   38.7999992         1.65702238E-06
   38.9000015         1.25459977E-07
   39.0000000        -1.68628731E-06
   39.0999985         5.05590890E-07
   39.2000008         1.61293883E-06
   39.2999992         5.71509759E-07
   39.4000015         1.93134679E-06
   39.5000000         3.84219584E-06
   39.5999985         2.20330389E-06
   39.7000008         5.64294510E-07
   39.7999992         3.28930741E-06
   39.9000015         6.04584693E-06
   40.0000000         4.04620550E-06
   40.0999985         2.45337264E-06
   40.2000008         5.45390549E-06
   40.2999992         6.66446886E-06
   40.4000015         4.29616284E-06
   40.5000000         5.56875830E-06
   40.5999985         8.66290520E-06
   40.7000008         7.30251259E-06
   40.7999992         6.68020539E-06
   40.9000015         9.75956755E-06
   41.0000000         9.04146691E-06
   41.0999985         5.54844564E-06
   41.2000008         7.69527196E-06
   41.2999992         1.22383371E-05
   41.4000015         1.14134964E-05
   41.5000000         8.67176277E-06
   41.5999985         1.02622098E-05
   41.7000008         1.28022657E-05
   41.7999992         1.11364661E-05
   41.9000015         9.12131600E-06
   42.0000000         1.08188433E-05
   42.0999985         1.17744967E-05
   42.2000008         1.07123005E-05
   42.2999992         1.23807240E-05
   42.4000015         1.34754109E-05
   42.5000000         9.52091705E-06
   42.5999985         7.95321375E-06
   42.7000008         1.20786735E-05
   42.7999992         1.29674227E-05
   42.9000015         9.21328228E-06
   43.0000000         8.46840885E-06
   43.0999985         1.02009608E-05
   43.2000008         9.16913450E-06
   43.2999992         7.47651347E-06
   43.4000015         8.49923435E-06
   43.5000000         8.61559602E-06
   43.5999985         5.46266710E-06
   43.7000008         4.58269324E-06
   43.7999992         7.33504794E-06
   43.9000015         6.25380972E-06
   44.0000000         1.77020013E-06
   44.0999985         2.19557842E-06
   44.2000008         5.04093123E-06
   44.2999992         3.28186161E-06
   44.4000015         5.76303989E-07
   44.5000000         6.66273081E-07
   44.5999985        -6.16164328E-08
   44.7000008        -1.70707756E-06
   44.7999992        -1.12559667E-06
   44.9000015        -3.85953143E-07
   45.0000000        -2.38850976E-06
   45.0999985        -4.23487973E-06
   45.2000008        -2.86818999E-06
   45.2999992        -2.17791467E-06
   45.4000015        -5.46281990E-06
   45.5000000        -7.27188262E-06
   45.5999985        -4.92640265E-06
   45.7000008        -4.60572392E-06
   45.7999992        -6.43937938E-06
   45.9000015        -5.43891883E-06
   46.0000000        -5.39896655E-06
   46.0999985        -8.75159549E-06
   46.2000008        -8.63299374E-06
   46.2999992        -5.04050240E-06
   46.4000015        -5.42945509E-06
   46.5000000        -8.61366243E-06
   46.5999985        -8.35491392E-06
   46.7000008        -5.72537374E-06
   46.7999992        -5.74288833E-06
   46.9000015        -7.63878870E-06
   47.0000000        -6.76348918E-06
   47.0999985        -4.80296376E-06
   47.2000008        -6.14639748E-06
   47.2999992        -6.83075086E-06
   47.4000015        -4.08515552E-06
   47.5000000        -4.20666765E-06
   47.5999985        -6.61139484E-06
   47.7000008        -4.10755274E-06
   47.7999992        -7.66237861E-07
   47.9000015        -2.66457619E-06
   48.0000000        -4.31006674E-06
   48.0999985        -2.25490066E-06
   48.2000008        -1.11820418E-06
   48.2999992        -1.65208360E-06
   48.4000015        -5.55569443E-07
   48.5000000         1.51316306E-06
   48.5999985         1.25595204E-06
   48.7000008        -5.95959079E-07
   48.7999992         3.33341063E-07
   48.9000015         3.08305926E-06
   49.0000000         2.52963787E-06
   49.0999985         1.11344843E-06
   49.2000008         3.34986521E-06
   49.2999992         5.00939177E-06
   49.4000015         3.71852593E-06
   49.5000000         3.86228521E-06
   49.5999985         4.43099225E-06
   49.7000008         2.73516957E-06
   49.7999992         3.28738633E-06
   49.9000015         6.95523477E-06
   50.0000000         7.22392087E-06
   50.0999985         3.78645109E-06
   50.2000008         3.10653036E-06
   50.2999992         5.96174186E-06
   50.4000015         6.85314762E-06
   50.5000000         4.40833855E-06
   50.5999985         3.45323178E-06
   50.7000008         5.40538576E-06
   50.7999992         5.96178188E-06
   50.9000015         4.69428142E-06
   51.0000000         4.97491828E-06
   51.0999985         5.40145538E-06
   51.2000008         3.95616598E-06
   51.2999992         3.67607049E-06
   51.4000015         5.12023689E-06
   51.5000000         4.71132898E-06
   51.5999985         3.13705209E-06
   51.7000008         3.48161961E-06
   51.7999992         4.47977800E-06
   51.9000015         4.16159173E-06
   52.0000000         3.63047593E-06
   52.0999985         3.52021857E-06
   52.2000008         3.18222487E-06
   52.2999992         3.11332292E-06
   52.4000015         3.67726125E-06
   52.5000000         3.78086520E-06
   52.5999985         3.04608830E-06
   52.7000008         2.62931121E-06
   52.7999992         3.14944668E-06
   52.9000015         3.69731993E-06
   53.0000000         3.32187710E-06
   53.0999985         2.50274798E-06
   53.2000008         2.29805096E-06
   53.2999992         2.85517649E-06
   53.4000015         3.68512610E-06
   53.5000000         3.87187583E-06
   53.5999985         2.50823018E-06
   53.7000008         1.07984658E-06
   53.7999992         1.94282438E-06
   53.9000015         3.36223206E-06
   54.0000000         2.62369031E-06
   54.0999985         1.70799865E-06
   54.2000008         2.33436458E-06
   54.2999992         2.14606325E-06
   54.4000015         8.88077466E-07
   54.5000000         8.89126454E-07
   54.5999985         1.33235255E-06
   54.7000008         6.71237046E-07
   54.7999992         2.38050731E-07
   54.9000015         6.86083524E-07
   55.0000000         7.12124063E-07
   55.0999985        -1.30119915E-07
   55.2000008        -1.13115323E-06
   55.2999992        -1.63442928E-06
   55.4000015        -1.66292261E-06
   55.5000000        -1.48812228E-06
   55.5999985        -9.34048387E-07
   55.7000008        -9.70072051E-07
   55.7999992        -2.81538632E-06
   55.9000015        -3.96788346E-06
   56.0000000        -2.33329229E-06
   56.0999985        -1.66045174E-06
   56.2000008        -3.95705183E-06
   56.2999992        -4.91503761E-06
   56.4000015        -3.13150326E-06
   56.5000000        -2.23953566E-06
   56.5999985        -3.26217014E-06
   56.7000008        -4.45887008E-06
   56.7999992        -4.78442780E-06
   56.9000015        -3.89724346E-06
   57.0000000        -2.89208992E-06
   57.0999985        -3.15771285E-06
   57.2000008        -4.14733449E-06
   57.2999992        -4.88119031E-06
   57.4000015        -4.41884913E-06
   57.5000000        -2.47853109E-06
   57.5999985        -1.90533729E-06
   57.7000008        -3.87811588E-06
   57.7999992        -4.24661494E-06
   57.9000015        -2.06743607E-06
   58.0000000        -1.65092115E-06
   58.0999985        -3.30239709E-06
   58.2000008        -3.79590006E-06
   58.2999992        -2.69566840E-06
   58.4000015        -1.28421777E-06
   58.5000000        -8.04821070E-07
   58.5999985        -1.58453338E-06
   58.7000008        -2.04509638E-06
   58.7999992        -1.86821330E-06
   58.9000015        -1.94488734E-06
   59.0000000        -1.28059332E-06
   59.0999985        -2.95862492E-07
   59.2000008        -8.81760968E-07
   59.2999992        -1.40649729E-06
   59.4000015        -6.32028559E-07
   59.5000000        -6.74707110E-07
   59.5999985        -1.20625998E-06
   59.7000008        -6.80060737E-07
   59.7999992        -4.87134400E-07
   59.9000015        -9.42674149E-07
   60.0000000        -7.21633285E-07
   60.0999985        -2.84419713E-07
   60.2000008        -2.61507267E-07
   60.2999992        -7.31646878E-07
   60.4000015        -1.58713669E-06
   60.5000000        -1.33129674E-06
   60.5999985        -3.93337984E-08
   60.7000008        -6.66846134E-08
   60.7999992        -1.09111556E-06
   60.9000015        -1.31111335E-06
   61.0000000        -1.05118863E-06
   61.0999985        -7.33542834E-07
   61.2000008        -6.49534627E-07
   61.2999992        -1.27376609E-06
   61.4000015        -1.26850136E-06
   61.5000000        -4.18121573E-07
   61.5999985        -8.42416284E-07
   61.7000008        -1.77976699E-06
   61.7999992        -1.08381926E-06
   61.9000015        -2.17608275E-07
   62.0000000        -8.17593161E-07
   62.0999985        -1.65334200E-06
   62.2000008        -1.53649239E-06
   62.2999992        -6.63397941E-07
   62.4000015         2.25698358E-08
   62.5000000        -3.11339619E-07
   62.5999985        -1.24281087E-06
   62.7000008        -1.78396840E-06
   62.7999992        -1.23423013E-06
   62.9000015         2.40565186E-07
   63.0000000         5.32122442E-07
   63.0999985        -1.25214558E-06
   63.2000008        -1.88413696E-06
   63.2999992         1.89092930E-07
   63.4000015         1.32455011E-06
   63.5000000        -4.12363363E-07
   63.5999985        -1.95615826E-06
   63.7000008        -1.09803079E-06
   63.7999992         4.85198086E-07
   63.9000015         7.50982338E-07
   64.0000000         7.78128850E-08
   64.0999985        -3.03803830E-07
   64.1999969        -4.01638658E-07
   64.3000031        -4.51835803E-07
   64.4000015        -7.27158991E-08
   64.5000000         3.22534447E-07
   64.5999985        -5.11900566E-09
   64.6999969        -3.55859214E-07
   64.8000031         8.91525573E-08
   64.9000015         5.67739619E-07
   65.0000000         2.13331035E-07
   65.0999985        -4.38599557E-07
   65.1999969        -5.48801438E-07
   65.3000031        -2.41982036E-07
   65.4000015         6.15873645E-08
   65.5000000         3.40999264E-07
   65.5999985         3.10663864E-07
   65.6999969        -3.35790219E-07
   65.8000031        -8.00424289E-07
   65.9000015        -2.94804948E-07