  -15.0000000        -0.00000000    
  -14.8999996         0.00000000    
  -14.8000002         0.00000000    
  -14.6999998         0.00000000    
  -14.6000004        -0.00000000    
  -14.5000000         0.00000000    
  -14.3999996        -0.00000000    
  -14.3000002        -0.00000000    
  -14.1999998         0.00000000    
  -14.1000004         0.00000000    
  -14.0000000        -2.17284620E-28
  -13.8999996         4.40051997E-27
  -13.8000002        -4.21737119E-26
  -13.6999998         2.51160888E-25
  -13.6000004        -1.01183116E-24
  -13.5000000         2.65807037E-24
  -13.3999996        -2.95718276E-24
  -13.3000002        -8.90281754E-24
  -13.1999998         4.84371072E-23
  -13.1000004        -8.26696252E-23
  -13.0000000        -4.78906538E-23
  -12.8999996         4.71364661E-22
  -12.8000002        -7.25300779E-22
  -12.6999998        -3.26686915E-22
  -12.6000004         2.91470296E-21
  -12.5000000        -4.20952456E-21
  -12.3999996        -1.66260254E-21
  -12.3000002         1.62839357E-20
  -12.1999998        -1.86197613E-20
  -12.1000004        -2.30614546E-20
  -12.0000000         6.47804300E-20
  -11.8999996        -4.03944443E-21
  -11.8000002        -8.01844135E-20
  -11.6999998         3.63616254E-20
  -11.6000004        -5.20048968E-20
  -11.5000000         9.08530530E-20
  -11.3999996         2.42000865E-19
  -11.3000002        -3.90045489E-19
  -11.1999998         4.05967889E-19
  -11.1000004        -1.44673243E-19
  -11.0000000        -4.00084225E-18
  -10.8999996         3.50659977E-18
  -10.8000002         1.23017258E-17
  -10.6999998        -8.79843893E-18
  -10.6000004        -1.99074845E-17
  -10.5000000         8.50245965E-18
  -10.3999996         4.40504530E-18
  -10.3000002        -5.66036550E-18
  -10.1999998         5.64549577E-17
  -10.1000004         5.31063916E-17
  -10.0000000        -9.53337501E-17
  -9.89999962        -2.04251275E-16
  -9.80000019        -9.49014258E-17
  -9.69999981         2.77186397E-16
  -9.60000038         4.94125934E-16
  -9.50000000         8.41584606E-17
  -9.39999962        -2.76413135E-16
  -9.30000019        -3.20123767E-16
  -9.19999981        -1.13692701E-15
  -9.10000038        -1.31649090E-15
  -9.00000000         1.41137617E-15
  -8.89999962         3.66440302E-15
  -8.80000019         1.84197987E-15
  -8.69999981        -8.77372662E-16
  -8.60000038        -2.14326907E-15
  -8.50000000        -4.10709208E-15
  -8.39999962        -6.29517300E-15
  -8.30000019        -4.54725657E-15
  -8.19999981         4.15456235E-15
  -8.10000038         1.48833650E-14
  -8.00000000         1.64171384E-14
  -7.90000010         8.96799267E-15
  -7.80000019        -2.06904407E-16
  -7.69999981        -1.78852243E-14
  -7.59999990        -4.20399189E-14
  -7.50000000        -4.57314884E-14
  -7.40000010        -1.94214033E-14
  -7.30000019         2.12411350E-14
  -7.19999981         6.66524602E-14
  -7.09999990         1.01373161E-13
  -7.00000000         1.00279106E-13
  -6.90000010         5.22278584E-14
  -6.80000019        -4.13059547E-14
  -6.69999981        -1.57056890E-13
  -6.59999990        -2.49943648E-13
  -6.50000000        -2.79477613E-13
  -6.40000010        -1.90536307E-13
  -6.30000019         4.73796315E-14
  -6.19999981         3.39911476E-13
  -6.09999990         5.57716742E-13
  -6.00000000         6.53231213E-13
  -5.90000010         5.60172568E-13
  -5.80000019         1.98925945E-13
  -5.69999981        -3.57272914E-13
  -5.59999990        -9.06037018E-13
  -5.50000000        -1.23179049E-12
  -5.40000010        -1.15697295E-12
  -5.30000019        -5.93656743E-13
  -5.19999981         4.65672368E-13
  -5.09999990         1.90162859E-12
  -5.00000000         3.36466814E-12
  -4.90000010         4.41168890E-12
  -4.80000019         4.63916405E-12
  -4.69999981         3.65047489E-12
  -4.59999990         1.25686007E-12
  -4.50000000        -2.35495868E-12
  -4.40000010        -6.77634164E-12
  -4.30000019        -1.13890347E-11
  -4.19999981        -1.54168085E-11
  -4.09999990        -1.83187944E-11
  -4.00000000        -2.00578321E-11
  -3.90000010        -2.12587933E-11
  -3.79999995        -2.33025283E-11
  -3.70000005        -2.80041233E-11
  -3.59999990        -3.72561079E-11
  -3.50000000        -5.28596472E-11
  -3.40000010        -7.63839894E-11
  -3.29999995        -1.09391808E-10
  -3.20000005        -1.53787219E-10
  -3.09999990        -2.12144233E-10
  -3.00000000        -2.88591068E-10
  -2.90000010        -3.89311194E-10
  -2.79999995        -5.22650201E-10
  -2.70000005        -6.99996838E-10
  -2.59999990        -9.36310363E-10
  -2.50000000        -1.25005939E-09
  -2.40000010        -1.66497216E-09
  -2.29999995        -2.21181473E-09
  -2.20000005        -2.92980129E-09
  -2.09999990        -3.86996302E-09
  -2.00000000        -5.09803666E-09
  -1.89999998        -6.69737377E-09
  -1.79999995        -8.77441497E-09
  -1.70000005        -1.14651852E-08
  -1.60000002        -1.49410724E-08
  -1.50000000        -1.94182626E-08
  -1.39999998        -2.51694612E-08
  -1.29999995        -3.25381180E-08
  -1.20000005        -4.19589590E-08
  -1.10000002        -5.39718101E-08
  -1.00000000        -6.92460702E-08
 -0.899999976        -8.86174547E-08
 -0.800000012        -1.13124507E-07
 -0.699999988        -1.44044705E-07
 -0.600000024        -1.82943751E-07
 -0.500000000        -2.31757951E-07
 -0.400000006        -2.92864144E-07
 -0.300000012        -3.69166628E-07
 -0.200000003        -4.64197086E-07
 -0.100000001        -5.82243331E-07
   0.00000000        -7.28509804E-07
  0.100000001        -9.09287451E-07
  0.200000003        -1.13211547E-06
  0.300000012        -1.40605835E-06
  0.400000006        -1.74200750E-06
  0.500000000        -2.15292698E-06
  0.600000024        -2.65426274E-06
  0.699999988        -3.26434542E-06
  0.800000012        -4.00484487E-06
  0.899999976        -4.90133652E-06
   1.00000000        -5.98384349E-06
   1.10000002        -7.28763553E-06
   1.20000005        -8.85387180E-06
   1.29999995        -1.07303731E-05
   1.39999998        -1.29728178E-05
   1.50000000        -1.56459864E-05
   1.60000002        -1.88238373E-05
   1.70000005        -2.25914573E-05
   1.79999995        -2.70469882E-05
   1.89999998        -3.23028871E-05
   2.00000000        -3.84850173E-05
   2.09999990        -4.57380120E-05
   2.20000005        -5.42253511E-05
   2.29999995        -6.41294828E-05
   2.40000010        -7.56557783E-05
   2.50000000        -8.90354859E-05
   2.59999990        -1.04522260E-04
   2.70000005        -1.22399229E-04
   2.79999995        -1.42978868E-04
   2.90000010        -1.66606464E-04
   3.00000000        -1.93656699E-04
   3.09999990        -2.24538177E-04
   3.20000005        -2.59687891E-04
   3.29999995        -2.99589185E-04
   3.40000010        -3.44763394E-04
   3.50000000        -3.95746465E-04
   3.59999990        -4.53115295E-04
   3.70000005        -5.17481414E-04
   3.79999995        -5.89488889E-04
   3.90000010        -6.69802947E-04
   4.00000000        -7.59105664E-04
   4.09999990        -8.58092681E-04
   4.19999981        -9.67479544E-04
   4.30000019        -1.08797720E-03
   4.40000010        -1.22026657E-03
   4.50000000        -1.36504241E-03
   4.59999990        -1.52293907E-03
   4.69999981        -1.69457844E-03
   4.80000019        -1.88051676E-03
   4.90000010        -2.08123191E-03
   5.00000000        -2.29709130E-03
   5.09999990        -2.52837595E-03
   5.19999981        -2.77524395E-03
   5.30000019        -3.03778541E-03
   5.40000010        -3.31574026E-03
   5.50000000        -3.60885100E-03
   5.59999990        -3.91658256E-03
   5.69999981        -4.23817849E-03
   5.80000019        -4.57274355E-03
   5.90000010        -4.91905352E-03
   6.00000000        -5.27564296E-03
   6.09999990        -5.64068835E-03
   6.19999981        -6.01213844E-03
   6.30000019        -6.38788939E-03
   6.40000010        -6.76537398E-03
   6.50000000        -7.14169629E-03
   6.59999990        -7.51361996E-03
   6.69999981        -7.87786953E-03
   6.80000019        -8.23097955E-03
   6.90000010        -8.56915675E-03
   7.00000000        -8.88804439E-03
   7.09999990        -9.18372534E-03
   7.19999981        -9.45214555E-03
   7.30000019        -9.68905259E-03
   7.40000010        -9.88989137E-03
   7.50000000        -1.00502390E-02
   7.59999990        -1.01663284E-02
   7.69999981        -1.02344211E-02
   7.80000019        -1.02500562E-02
   7.90000010        -1.02095623E-02
   8.00000000        -1.01104742E-02
   8.10000038        -9.95026343E-03
   8.19999981        -9.72656161E-03
   8.30000019        -9.43687651E-03
   8.39999962        -9.08042956E-03
   8.50000000        -8.65727384E-03
   8.60000038        -8.16773716E-03
   8.69999981        -7.61168776E-03
   8.80000019        -6.99090678E-03
   8.89999962        -6.30835583E-03
   9.00000000        -5.56754740E-03
   9.10000038        -4.77139512E-03
   9.19999981        -3.92483873E-03
   9.30000019        -3.03325220E-03
   9.39999962        -2.10220390E-03
   9.50000000        -1.13848981E-03
   9.60000038        -1.49105210E-04
   9.69999981         8.57843843E-04
   9.80000019         1.87421788E-03
   9.89999962         2.89269071E-03
   10.0000000         3.90624953E-03
   10.1000004         4.90566855E-03
   10.1999998         5.87989436E-03
   10.3000002         6.82057487E-03
   10.3999996         7.72270188E-03
   10.5000000         8.57896451E-03
   10.6000004         9.37929377E-03
   10.6999998         1.01156393E-02
   10.8000002         1.07850004E-02
   10.8999996         1.13831926E-02
   11.0000000         1.19023062E-02
   11.1000004         1.23373792E-02
   11.1999998         1.26873925E-02
   11.3000002         1.29512735E-02
   11.3999996         1.31268343E-02
   11.5000000         1.32134687E-02
   11.6000004         1.32117439E-02
   11.6999998         1.31236184E-02
   11.8000002         1.29525661E-02
   11.8999996         1.27018308E-02
   12.0000000         1.23740714E-02
   12.1000004         1.19742043E-02
   12.1999998         1.15093309E-02
   12.3000002         1.09854368E-02
   12.3999996         1.04066813E-02
   12.5000000         9.77955293E-03
   12.6000004         9.11436230E-03
   12.6999998         8.41852184E-03
   12.8000002         7.69551657E-03
   12.8999996         6.95363665E-03
   13.0000000         6.20411662E-03
   13.1000004         5.45246759E-03
   13.1999998         4.70095174E-03
   13.3000002         3.95674584E-03
   13.3999996         3.22954706E-03
   13.5000000         2.52503576E-03
   13.6000004         1.84490101E-03
   13.6999998         1.19359838E-03
   13.8000002         5.77202649E-04
   13.8999996        -7.08044240E-07
   14.0000000        -5.38467430E-04
   14.1000004        -1.03611907E-03
   14.1999998        -1.49274676E-03
   14.3000002        -1.90429576E-03
   14.3999996        -2.26792903E-03
   14.5000000        -2.58724019E-03
   14.6000004        -2.86678853E-03
   14.6999998        -3.10453284E-03
   14.8000002        -3.29603814E-03
   14.8999996        -3.44530120E-03
   15.0000000        -3.56176100E-03
   15.1000004        -3.64649552E-03
   15.1999998        -3.69401835E-03
   15.3000002        -3.70650878E-03
   15.3999996        -3.69306654E-03
   15.5000000        -3.65937361E-03
   15.6000004        -3.60443839E-03
   15.6999998        -3.52622871E-03
   15.8000002        -3.42722749E-03
   15.8999996        -3.31483572E-03
   16.0000000        -3.19423596E-03
   16.1000004        -3.06422543E-03
   16.2000008        -2.92313634E-03
   16.2999992        -2.77592521E-03
   16.3999996        -2.62962794E-03
   16.5000000        -2.48431438E-03
   16.6000004        -2.33427412E-03
   16.7000008        -2.17992323E-03
   16.7999992        -2.02957750E-03
   16.8999996        -1.88749097E-03
   17.0000000        -1.75046700E-03
   17.1000004        -1.61673117E-03
   17.2000008        -1.48745859E-03
   17.2999992        -1.36317394E-03
   17.3999996        -1.24533172E-03
   17.5000000        -1.13553484E-03
   17.6000004        -1.03225326E-03
   17.7000008        -9.33873875E-04
   17.7999992        -8.42524343E-04
   17.8999996        -7.60742172E-04
   18.0000000        -6.86382409E-04
   18.1000004        -6.14587218E-04
   18.2000008        -5.45456307E-04
   18.2999992        -4.84127668E-04
   18.3999996        -4.31469001E-04
   18.5000000        -3.83189094E-04
   18.6000004        -3.37948150E-04
   18.7000008        -2.97266408E-04
   18.7999992        -2.61319481E-04
   18.8999996        -2.30277830E-04
   19.0000000        -2.03414762E-04
   19.1000004        -1.77499998E-04
   19.2000008        -1.51906759E-04
   19.2999992        -1.30176151E-04
   19.3999996        -1.13573355E-04
   19.5000000        -9.90929548E-05
   19.6000004        -8.49170465E-05
   19.7000008        -7.33455381E-05
   19.7999992        -6.58357603E-05
   19.8999996        -5.85219896E-05
   20.0000000        -4.81930329E-05
   20.1000004        -3.83183942E-05
   20.2000008        -3.24466091E-05
   20.2999992        -2.86238974E-05
   20.3999996        -2.47943899E-05
   20.5000000        -2.15217879E-05
   20.6000004        -1.92591360E-05
   20.7000008        -1.84121654E-05
   20.7999992        -1.80553507E-05
   20.8999996        -1.45006406E-05
   21.0000000        -7.51351763E-06
   21.1000004        -3.64352104E-06
   21.2000008        -6.89353783E-06
   21.2999992        -1.16527708E-05
   21.3999996        -1.07109072E-05
   21.5000000        -5.81706445E-06
   21.6000004        -4.07899006E-06
   21.7000008        -6.44859620E-06
   21.7999992        -7.15715169E-06
   21.8999996        -3.66095946E-06
   22.0000000        -1.45352729E-07
   22.1000004        -1.32459581E-06
   22.2000008        -6.36324012E-06
   22.2999992        -8.71505472E-06
   22.3999996        -3.99594228E-06
   22.5000000         1.89139803E-06
   22.6000004         3.68159021E-07
   22.7000008        -5.21257925E-06
   22.7999992        -5.03277261E-06
   22.8999996         8.73640573E-08
   23.0000000         1.46873538E-06
   23.1000004        -1.84852138E-06
   23.2000008        -3.35899063E-06
   23.2999992        -7.08123082E-07
   23.3999996         2.06066511E-06
   23.5000000         1.45203296E-06
   23.6000004        -8.56634188E-07
   23.7000008        -6.49254503E-07
   23.7999992         2.67840278E-06
   23.8999996         4.84036264E-06
   24.0000000         2.73024648E-06
   24.1000004        -1.54313639E-07
   24.2000008         1.77341065E-06
   24.2999992         6.06026015E-06
   24.3999996         5.16327009E-06
   24.5000000         1.17819548E-06
   24.6000004         3.01050068E-06
   24.7000008         8.54116934E-06
   24.7999992         8.24215294E-06
   24.8999996         3.06184984E-06
   25.0000000         1.42249667E-06
   25.1000004         5.13321174E-06
   25.2000008         9.15769670E-06
   25.2999992         9.28405552E-06
   25.3999996         6.38667598E-06
   25.5000000         4.64718596E-06
   25.6000004         5.55078122E-06
   25.7000008         6.73063141E-06
   25.7999992         6.45640466E-06
   25.8999996         5.74715841E-06
   26.0000000         6.77825165E-06
   26.1000004         8.74372654E-06
   26.2000008         7.78844787E-06
   26.2999992         4.93939751E-06
   26.3999996         5.05064145E-06
   26.5000000         6.28526641E-06
   26.6000004         4.94947062E-06
   26.7000008         4.64269533E-06
   26.7999992         7.06718629E-06
   26.8999996         7.01158797E-06
   27.0000000         3.49799666E-06
   27.1000004         1.92143079E-06
   27.2000008         4.52431914E-06
   27.2999992         7.08541438E-06
   27.3999996         5.07969798E-06
   27.5000000         1.06385176E-06
   27.6000004         9.23233699E-07
   27.7000008         3.61798266E-06
   27.7999992         4.08090955E-06
   27.8999996         2.02927299E-06
   28.0000000         5.11168082E-07
   28.1000004         1.91993854E-06
   28.2000008         4.79629080E-06
   28.2999992         3.09298798E-06
   28.3999996        -3.01566001E-06
   28.5000000        -3.83698125E-06
   28.6000004         2.61316040E-06
   28.7000008         5.81982476E-06
   28.7999992         7.67304243E-07
   28.8999996        -4.58210297E-06
   29.0000000        -2.28131535E-06
   29.1000004         3.38666246E-06
   29.2000008         2.39858855E-06
   29.2999992        -3.78999016E-06
   29.3999996        -4.69462839E-06
   29.5000000         9.35249744E-08
   29.6000004         1.94975678E-06
   29.7000008        -9.39551114E-07
   29.7999992        -3.29356089E-06
   29.8999996        -1.96054111E-06
   30.0000000         5.61426589E-07
   30.1000004        -5.86510794E-07
   30.2000008        -4.67899190E-06
   30.2999992        -5.48362959E-06
   30.3999996        -1.68515282E-06
   30.5000000         1.15275907E-06
   30.6000004        -8.71356463E-07
   30.7000008        -4.78625043E-06
   30.7999992        -4.42935789E-06
   30.8999996        -5.86623798E-07
   31.0000000        -1.14805255E-06
   31.1000004        -6.03250328E-06
   31.2000008        -6.16683792E-06
   31.2999992        -1.02747970E-06
   31.3999996         4.94228345E-07
   31.5000000        -3.75677746E-06
   31.6000004        -6.77875869E-06
   31.7000008        -4.40244958E-06
   31.7999992        -9.14230441E-07
   31.8999996        -1.41988460E-06
   32.0000000        -4.14580154E-06
   32.0999985        -4.96748089E-06
   32.2000008        -3.68042038E-06
   32.2999992        -2.13508065E-06
   32.4000015        -2.28772683E-06
   32.5000000        -4.35792572E-06
   32.5999985        -4.49041681E-06
   32.7000008        -1.14120405E-06
   32.7999992         4.95461563E-07
   32.9000015        -2.15727300E-06
   33.0000000        -4.48431774E-06
   33.0999985        -3.19617720E-06
   33.2000008        -5.23073311E-07
   33.2999992         4.13658825E-07
   33.4000015        -4.59614370E-07
   33.5000000        -1.09725045E-06
   33.5999985        -5.15038266E-07
   33.7000008         7.57113810E-07
   33.7999992         1.57959175E-06
   33.9000015         7.33637648E-07
   34.0000000        -2.06686366E-07
   34.0999985         1.52763153E-06
   34.2000008         3.57262456E-06
   34.2999992         2.71098224E-06
   34.4000015         1.93343044E-06
   34.5000000         3.42776571E-06
   34.5999985         4.11634710E-06
   34.7000008         3.65731944E-06
   34.7999992         4.81986763E-06
   34.9000015         6.10649477E-06
   35.0000000         4.49114850E-06
   35.0999985         2.57445527E-06
   35.2000008         4.75734259E-06
   35.2999992         8.52824360E-06
   35.4000015         8.03350031E-06
   35.5000000         4.70664099E-06
   35.5999985         4.06786285E-06
   35.7000008         5.87215936E-06
   35.7999992         7.24065148E-06
   35.9000015         7.65113418E-06
   36.0000000         6.25633493E-06
   36.0999985         4.02590240E-06
   36.2000008         5.02662988E-06
   36.2999992         8.04734464E-06
   36.4000015         6.95455719E-06
   36.5000000         2.73921137E-06
   36.5999985         2.80646964E-06
   36.7000008         7.17049988E-06
   36.7999992         7.55148403E-06
   36.9000015         2.13724047E-06
   37.0000000        -9.68626296E-07
   37.0999985         1.83245209E-06
   37.2000008         4.60502633E-06
   37.2999992         3.11810618E-06
   37.4000015        -3.58251611E-07
   37.5000000        -2.01253442E-06
   37.5999985        -3.42240412E-07
   37.7000008         1.24356950E-06
   37.7999992        -1.91737718E-06
   37.9000015        -6.62640514E-06
   38.0000000        -5.66485915E-06
   38.0999985        -1.24891551E-06
   38.2000008        -2.33388528E-06
   38.2999992        -8.56538190E-06
   38.4000015        -1.01387432E-05
   38.5000000        -5.66447079E-06
   38.5999985        -4.91829041E-06
   38.7000008        -9.99597432E-06
   38.7999992        -1.23287564E-05
   38.9000015        -1.02133517E-05
   39.0000000        -9.65146955E-06
   39.0999985        -1.14543545E-05
   39.2000008        -1.26384693E-05
   39.2999992        -1.26940349E-05
   39.4000015        -1.21687299E-05
   39.5000000        -1.21400544E-05
   39.5999985        -1.37063289E-05
   39.7000008        -1.53621422E-05
   39.7999992        -1.46912607E-05
   39.9000015        -1.25673596E-05
   40.0000000        -1.29326427E-05
   40.0999985        -1.60513428E-05
   40.2000008        -1.59369029E-05
   40.2999992        -1.18854668E-05
   40.4000015        -1.20426239E-05
   40.5000000        -1.65968995E-05
   40.5999985        -1.61874086E-05
   40.7000008        -1.10075389E-05
   40.7999992        -9.89092678E-06
   40.9000015        -1.37249290E-05
   41.0000000        -1.57931590E-05
   41.0999985        -1.26924187E-05
   41.2000008        -8.40528719E-06
   41.2999992        -8.71120028E-06
   41.4000015        -1.21352095E-05
   41.5000000        -1.24148191E-05
   41.5999985        -8.88429713E-06
   41.7000008        -6.28766702E-06
   41.7999992        -7.60966577E-06
   41.9000015        -1.01308106E-05
   42.0000000        -7.95639153E-06
   42.0999985        -2.54353336E-06
   42.2000008        -2.64120058E-06
   42.2999992        -7.66240464E-06
   42.4000015        -7.85803331E-06
   42.5000000        -2.45170554E-06
   42.5999985         7.35488982E-07
   42.7000008        -8.47499848E-07
   42.7999992        -3.05020399E-06
   42.9000015        -1.99217448E-06
   43.0000000         1.34912580E-06
   43.0999985         2.88431511E-06
   43.2000008         1.76783396E-06
   43.2999992         8.57175849E-07
   43.4000015         2.10581334E-06
   43.5000000         5.01847217E-06
   43.5999985         6.71365478E-06
   43.7000008         5.37358619E-06
   43.7999992         4.35866150E-06
   43.9000015         6.46593935E-06
   44.0000000         8.70857639E-06
   44.0999985         8.76039940E-06
   44.2000008         8.35773062E-06
   44.2999992         8.71891189E-06
   44.4000015         9.62139256E-06
   44.5000000         1.09031580E-05
   44.5999985         1.19065771E-05
   44.7000008         1.18373073E-05
   44.7999992         1.10696201E-05
   44.9000015         1.12589278E-05
   45.0000000         1.30986609E-05
   45.0999985         1.45871109E-05
   45.2000008         1.40669035E-05
   45.2999992         1.27911972E-05
   45.4000015         1.26095101E-05
   45.5000000         1.39051117E-05
   45.5999985         1.51272816E-05
   45.7000008         1.42560357E-05
   45.7999992         1.27079220E-05
   45.9000015         1.33594431E-05
   46.0000000         1.46674674E-05
   46.0999985         1.36940625E-05
   46.2000008         1.19360921E-05
   46.2999992         1.24001699E-05
   46.4000015         1.42442541E-05
   46.5000000         1.37327906E-05
   46.5999985         1.04930996E-05
   46.7000008         9.10319159E-06
   46.7999992         1.10837445E-05
   46.9000015         1.21794383E-05
   47.0000000         1.03261154E-05
   47.0999985         7.78148296E-06
   47.2000008         6.93285392E-06
   47.2999992         8.56762199E-06
   47.4000015         9.70606743E-06
   47.5000000         6.97099813E-06
   47.5999985         4.09849508E-06
   47.7000008         5.50424784E-06
   47.7999992         7.25797099E-06
   47.9000015         5.21570882E-06
   48.0000000         2.28873273E-06
   48.0999985         2.10884309E-06
   48.2000008         3.83110273E-06
   48.2999992         4.19068010E-06
   48.4000015         2.26127008E-06
   48.5000000         6.54608925E-07
   48.5999985         5.75921149E-07
   48.7000008         9.05129809E-07
   48.7999992         1.43197769E-06
   48.9000015         1.07985750E-06
   49.0000000        -7.67385302E-07
   49.0999985        -9.81433459E-07
   49.2000008         5.92085826E-07
   49.2999992        -2.03690718E-07
   49.4000015        -2.28714157E-06
   49.5000000        -2.05252536E-06
   49.5999985        -1.34413881E-06
   49.7000008        -1.68856604E-06
   49.7999992        -9.78192247E-07
   49.9000015        -4.94971992E-08
   50.0000000        -1.77678464E-06
   50.0999985        -4.46983177E-06
   50.2000008        -3.91640606E-06
   50.2999992        -9.46736407E-07
   50.4000015        -7.90854585E-07
   50.5000000        -3.76780872E-06
   50.5999985        -4.59654575E-06
   50.7000008        -2.44295597E-06
   50.7999992        -1.46730997E-06
   50.9000015        -2.77372760E-06
   51.0000000        -4.47934963E-06
   51.0999985        -4.94937831E-06
   51.2000008        -3.20020285E-06
   51.2999992        -1.51067809E-06
   51.4000015        -3.30009971E-06
   51.5000000        -5.89316505E-06
   51.5999985        -4.53013126E-06
   51.7000008        -2.02852971E-06
   51.7999992        -3.53446080E-06
   51.9000015        -6.09003973E-06
   52.0000000        -4.57129227E-06
   52.0999985        -1.97724876E-06
   52.2000008        -3.07839855E-06
   52.2999992        -5.38538552E-06
   52.4000015        -5.24708958E-06
   52.5000000        -3.88861918E-06
   52.5999985        -2.95510290E-06
   52.7000008        -2.85965825E-06
   52.7999992        -4.18597074E-06
   52.9000015        -5.10094151E-06
   53.0000000        -3.46508341E-06
   53.0999985        -2.22061794E-06
   53.2000008        -4.30202090E-06
   53.2999992        -5.50988034E-06
   53.4000015        -1.99755118E-06
   53.5000000         5.02640660E-07
   53.5999985        -3.39306303E-06
   53.7000008        -6.81233041E-06
   53.7999992        -3.23899280E-06
   53.9000015         3.05565720E-07
   54.0000000        -2.03612626E-06
   54.0999985        -4.11432984E-06
   54.2000008        -2.50910261E-06
   54.2999992        -1.78428934E-06
   54.4000015        -2.58517980E-06
   54.5000000        -2.16588160E-06
   54.5999985        -1.47335481E-06
   54.7000008        -1.70381975E-06
   54.7999992        -1.87884177E-06
   54.9000015        -2.02781735E-06
   55.0000000        -2.65745280E-06
   55.0999985        -2.59083868E-06
   55.2000008        -1.08121799E-06
   55.2999992        -4.66617252E-07
   55.4000015        -2.21819278E-06
   55.5000000        -2.74805598E-06
   55.5999985        -5.85219084E-07
   55.7000008        -6.82084135E-07
   55.7999992        -3.45378430E-06
   55.9000015        -3.07594951E-06
   56.0000000        -2.56949704E-07
   56.0999985        -1.42156892E-07
   56.2000008        -1.75029231E-06
   56.2999992        -2.28732620E-06
   56.4000015        -2.16394028E-06
   56.5000000        -1.39583926E-06
   56.5999985        -4.02920506E-07
   56.7000008        -9.82342726E-07
   56.7999992        -2.03304444E-06
   56.9000015        -1.03776279E-06
   57.0000000         4.03117781E-07
   57.0999985        -8.59292754E-07
   57.2000008        -2.86536465E-06
   57.2999992        -1.30680462E-06
   57.4000015         1.61218736E-06
   57.5000000         5.75593901E-07
   57.5999985        -1.87413423E-06
   57.7000008        -5.86701333E-07
   57.7999992         1.34889046E-06
   57.9000015         1.94425084E-07
   58.0000000        -5.92854576E-07
   58.0999985         8.87858732E-07
   58.2000008         1.52566395E-06
   58.2999992         8.70586575E-07
   58.4000015         9.23844652E-07
   58.5000000         1.21553887E-06
   58.5999985         1.00076022E-06
   58.7000008         1.37536972E-06
   58.7999992         2.30729347E-06
   58.9000015         2.32256434E-06
   59.0000000         1.83899203E-06
   59.0999985         2.27640157E-06
   59.2000008         2.53545977E-06
   59.2999992         1.63024640E-06
   59.4000015         1.95868370E-06
   59.5000000         4.02990281E-06
   59.5999985         4.01892794E-06
   59.7000008         1.60088928E-06
   59.7999992         1.32473065E-06
   59.9000015         3.68750580E-06
   60.0000000         4.48683295E-06
   60.0999985         2.82816541E-06
   60.2000008         1.75984883E-06
   60.2999992         2.57899273E-06
   60.4000015         3.68319274E-06
   60.5000000         3.62520791E-06
   60.5999985         2.66445591E-06
   60.7000008         1.94874997E-06
   60.7999992         2.29130364E-06
   60.9000015         3.34605465E-06
   61.0000000         3.62895889E-06
   61.0999985         2.38611642E-06
   61.2000008         1.13651504E-06
   61.2999992         1.47738569E-06
   61.4000015         2.47826733E-06
   61.5000000         2.42191231E-06
   61.5999985         1.48703998E-06
   61.7000008         1.07158064E-06
   61.7999992         1.62439960E-06
   61.9000015         1.93218330E-06
   62.0000000         9.70578640E-07
   62.0999985        -8.42460679E-08
   62.2000008         1.12467482E-07
   62.2999992         6.20307787E-07
   62.4000015         5.58963450E-07
   62.5000000         4.61770071E-07
   62.5999985        -3.25226992E-08
   62.7000008        -1.13381805E-06
   62.7999992        -1.12483792E-06
   62.9000015         1.51331605E-07
   63.0000000         1.72109168E-07
   63.0999985        -1.56898466E-06
   63.2000008        -2.51830625E-06
   63.2999992        -1.47483672E-06
   63.4000015        -4.75085983E-07
   63.5000000        -1.29763839E-06
   63.5999985        -2.44596094E-06
   63.7000008        -2.14057241E-06
   63.7999992        -1.57302873E-06
   63.9000015        -1.98481052E-06
   64.0000000        -2.69449811E-06
   64.0999985        -3.17351237E-06
   64.1999969        -2.78157177E-06
   64.3000031        -1.31335617E-06
   64.4000015        -1.17827972E-06
   64.5000000        -3.36555013E-06
   64.5999985        -4.65887069E-06
   64.6999969        -3.48406229E-06
   64.8000031        -1.95090388E-06
   64.9000015        -1.56638976E-06
   65.0000000        -2.42499777E-06
   65.0999985        -3.72400063E-06
   65.1999969        -3.86680767E-06
   65.3000031        -2.87708372E-06
   65.4000015        -2.33643004E-06
   65.5000000        -2.77805702E-06
   65.5999985        -3.34818969E-06
   65.6999969        -2.84385374E-06
   65.8000031        -1.84968155E-06
   65.9000015        -2.55798182E-06