  -6.66666701E-02   0.00000000    
  -6.61666691E-02   0.00000000    
  -6.56666681E-02   0.00000000    
  -6.51666671E-02   0.00000000    
  -6.46666661E-02   0.00000000    
  -6.41666651E-02   0.00000000    
  -6.36666641E-02   0.00000000    
  -6.31666631E-02   0.00000000    
  -6.26666695E-02   0.00000000    
  -6.21666685E-02   0.00000000    
  -6.16666675E-02   0.00000000    
  -6.11666664E-02   0.00000000    
  -6.06666654E-02   0.00000000    
  -6.01666681E-02   0.00000000    
  -5.96666671E-02   0.00000000    
  -5.91666661E-02   0.00000000    
  -5.86666651E-02   0.00000000    
  -5.81666678E-02   0.00000000    
  -5.76666668E-02   0.00000000    
  -5.71666658E-02   0.00000000    
  -5.66666685E-02   0.00000000    
  -5.61666675E-02   0.00000000    
  -5.56666665E-02   0.00000000    
  -5.51666655E-02   0.00000000    
  -5.46666682E-02   0.00000000    
  -5.41666672E-02   0.00000000    
  -5.36666662E-02   0.00000000    
  -5.31666651E-02   0.00000000    
  -5.26666678E-02   0.00000000    
  -5.21666668E-02   0.00000000    
  -5.16666658E-02   0.00000000    
  -5.11666648E-02   0.00000000    
  -5.06666675E-02   0.00000000    
  -5.01666665E-02   0.00000000    
  -4.96666655E-02   0.00000000    
  -4.91666682E-02   0.00000000    
  -4.86666672E-02   0.00000000    
  -4.81666662E-02   0.00000000    
  -4.76666652E-02   0.00000000    
  -4.71666679E-02   0.00000000    
  -4.66666669E-02   0.00000000    
  -4.61666659E-02   0.00000000    
  -4.56666648E-02   0.00000000    
  -4.51666676E-02   0.00000000    
  -4.46666665E-02   0.00000000    
  -4.41666655E-02   0.00000000    
  -4.36666682E-02   0.00000000    
  -4.31666672E-02   0.00000000    
  -4.26666662E-02   0.00000000    
  -4.21666652E-02   0.00000000    
  -4.16666679E-02   0.00000000    
  -4.11666669E-02   0.00000000    
  -4.06666659E-02   0.00000000    
  -4.01666649E-02   0.00000000    
  -3.96666676E-02   0.00000000    
  -3.91666666E-02   0.00000000    
  -3.86666656E-02   0.00000000    
  -3.81666683E-02   0.00000000    
  -3.76666673E-02   0.00000000    
  -3.71666662E-02   0.00000000    
  -3.66666652E-02   0.00000000    
  -3.61666679E-02   0.00000000    
  -3.56666669E-02   0.00000000    
  -3.51666659E-02   0.00000000    
  -3.46666649E-02   0.00000000    
  -3.41666676E-02   0.00000000    
  -3.36666666E-02   0.00000000    
  -3.31666656E-02   0.00000000    
  -3.26666683E-02   0.00000000    
  -3.21666673E-02   0.00000000    
  -3.16666663E-02   0.00000000    
  -3.11666671E-02   0.00000000    
  -3.06666661E-02   0.00000000    
  -3.01666670E-02   0.00000000    
  -2.96666659E-02   0.00000000    
  -2.91666668E-02   0.00000000    
  -2.86666658E-02   0.00000000    
  -2.81666666E-02   0.00000000    
  -2.76666675E-02   0.00000000    
  -2.71666665E-02   0.00000000    
  -2.66666673E-02   0.00000000    
  -2.61666663E-02   0.00000000    
  -2.56666671E-02   0.00000000    
  -2.51666661E-02   0.00000000    
  -2.46666670E-02   0.00000000    
  -2.41666660E-02   0.00000000    
  -2.36666668E-02   0.00000000    
  -2.31666658E-02   0.00000000    
  -2.26666667E-02   0.00000000    
  -2.21666675E-02   0.00000000    
  -2.16666665E-02   0.00000000    
  -2.11666673E-02   0.00000000    
  -2.06666663E-02   0.00000000    
  -2.01666672E-02   0.00000000    
  -1.96666662E-02   0.00000000    
  -1.91666670E-02   0.00000000    
  -1.86666660E-02   0.00000000    
  -1.81666669E-02   0.00000000    
  -1.76666658E-02   0.00000000    
  -1.71666667E-02   0.00000000    
  -1.66666675E-02   0.00000000    
  -1.61666665E-02   0.00000000    
  -1.56666674E-02   0.00000000    
  -1.51666664E-02   0.00000000    
  -1.46666663E-02   0.00000000    
  -1.41666671E-02   0.00000000    
  -1.36666670E-02   0.00000000    
  -1.31666670E-02   0.00000000    
  -1.26666669E-02   0.00000000    
  -1.21666668E-02   0.00000000    
  -1.16666667E-02   0.00000000    
  -1.11666666E-02   0.00000000    
  -1.06666666E-02   0.00000000    
  -1.01666665E-02   0.00000000    
  -9.66666639E-03   0.00000000    
  -9.16666631E-03   0.00000000    
  -8.66666622E-03   0.00000000    
  -8.16666707E-03   0.00000000    
  -7.66666653E-03   0.00000000    
  -7.16666644E-03   0.00000000    
  -6.66666683E-03   0.00000000    
  -6.16666675E-03   0.00000000    
  -5.66666666E-03   0.00000000    
  -5.16666658E-03   0.00000000    
  -4.66666650E-03   0.00000000    
  -4.16666688E-03   0.00000000    
  -3.66666657E-03   0.00000000    
  -3.16666672E-03   0.00000000    
  -2.66666664E-03   0.00000000    
  -2.16666656E-03   0.00000000    
  -1.66666671E-03   0.00000000    
  -1.16666663E-03   0.00000000    
  -6.66666660E-04   0.00000000    
  -1.66666665E-04   0.00000000    
   3.33333330E-04   0.00000000    
   8.33333354E-04   0.00000000    
   1.33333332E-03   0.00000000    
   1.83333328E-03   0.00000000    
   2.33333325E-03   0.00000000    
   2.83333333E-03   0.00000000    
   3.33333341E-03   0.00000000    
   3.83333326E-03   0.00000000    
   4.33333311E-03   0.00000000    
   4.83333319E-03   0.00000000    
   5.33333328E-03   0.00000000    
   5.83333336E-03   0.00000000    
   6.33333344E-03   0.00000000    
   6.83333352E-03   0.00000000    
   7.33333314E-03   0.00000000    
   7.83333369E-03   0.00000000    
   8.33333377E-03   0.00000000    
   8.83333292E-03   0.00000000    
   9.33333300E-03   0.00000000    
   9.83333308E-03   0.00000000    
   1.03333332E-02   0.00000000    
   1.08333332E-02   0.00000000    
   1.13333333E-02   0.00000000    
   1.18333334E-02   0.00000000    
   1.23333335E-02   0.00000000    
   1.28333336E-02   0.00000000    
   1.33333337E-02   0.00000000    
   1.38333337E-02   0.00000000    
   1.43333329E-02   0.00000000    
   1.48333330E-02   0.00000000    
   1.53333331E-02   0.00000000    
   1.58333331E-02   0.00000000    
   1.63333341E-02   0.00000000    
   1.68333333E-02   0.00000000    
   1.73333324E-02   0.00000000    
   1.78333335E-02   0.00000000    
   1.83333326E-02   0.00000000    
   1.88333336E-02   0.00000000    
   1.93333328E-02   0.00000000    
   1.98333338E-02   0.00000000    
   2.03333329E-02   0.00000000    
   2.08333340E-02   0.00000000    
   2.13333331E-02   0.00000000    
   2.18333341E-02   0.00000000    
   2.23333333E-02   0.00000000    
   2.28333324E-02   0.00000000    
   2.33333334E-02   0.00000000    
   2.38333326E-02   0.00000000    
   2.43333336E-02   0.00000000    
   2.48333327E-02   0.00000000    
   2.53333338E-02   0.00000000    
   2.58333329E-02   0.00000000    
   2.63333339E-02   0.00000000    
   2.68333331E-02   0.00000000    
   2.73333341E-02   0.00000000    
   2.78333332E-02   0.00000000    
   2.83333343E-02   0.00000000    
   2.88333334E-02   0.00000000    
   2.93333326E-02   0.00000000    
   2.98333336E-02   0.00000000    
   3.03333327E-02   0.00000000    
   3.08333337E-02   0.00000000    
   3.13333347E-02   0.00000000    
   3.18333320E-02   0.00000000    
   3.23333330E-02   0.00000000    
   3.28333341E-02   0.00000000    
   3.33333351E-02   0.00000000    
   3.38333324E-02   0.00000000    
   3.43333334E-02   0.00000000    
   3.48333344E-02   0.00000000    
   3.53333317E-02   0.00000000    
   3.58333327E-02   0.00000000    
   3.63333337E-02   0.00000000    
   3.68333347E-02   0.00000000    
   3.73333320E-02   0.00000000    
   3.78333330E-02   0.00000000    
   3.83333340E-02   0.00000000    
   3.88333350E-02   0.00000000    
   3.93333323E-02   0.00000000    
   3.98333333E-02   0.00000000    
   4.03333344E-02   0.00000000    
   4.08333316E-02   0.00000000    
   4.13333327E-02   0.00000000    
   4.18333337E-02   0.00000000    
   4.23333347E-02   0.00000000    
   4.28333320E-02   0.00000000    
   4.33333330E-02   0.00000000    
   4.38333340E-02   0.00000000    
   4.43333350E-02   0.00000000    
   4.48333323E-02   0.00000000    
   4.53333333E-02   0.00000000    
   4.58333343E-02   0.00000000    
   4.63333316E-02   0.00000000    
   4.68333326E-02   0.00000000    
   4.73333336E-02   0.00000000    
   4.78333347E-02   0.00000000    
   4.83333319E-02   0.00000000    
   4.88333330E-02   0.00000000    
   4.93333340E-02   0.00000000    
   4.98333350E-02   0.00000000    
   5.03333323E-02   0.00000000    
   5.08333333E-02   0.00000000    
   5.13333343E-02   0.00000000    
   5.18333316E-02   0.00000000    
   5.23333326E-02   0.00000000    
   5.28333336E-02   0.00000000    
   5.33333346E-02  -0.00000000    
   5.38333319E-02  -0.00000000    
   5.43333329E-02   0.00000000    
   5.48333339E-02   0.00000000    
   5.53333350E-02   0.00000000    
   5.58333322E-02   0.00000000    
   5.63333333E-02  -0.00000000    
   5.68333343E-02  -0.00000000    
   5.73333316E-02  -0.00000000    
   5.78333326E-02  -0.00000000    
   5.83333336E-02   0.00000000    
   5.88333346E-02   1.56630879E-38
   5.93333319E-02   1.78684065E-38
   5.98333329E-02   0.00000000    
   6.03333339E-02  -1.59001287E-38
   6.08333349E-02  -3.33580417E-38
   6.13333322E-02  -3.34826367E-38
   6.18333332E-02  -0.00000000    
   6.23333342E-02   2.05963423E-38
   6.28333315E-02   5.44994008E-38
   6.33333325E-02   4.56536426E-38
   6.38333336E-02  -0.00000000    
   6.43333346E-02  -1.14953468E-37
   6.48333356E-02  -1.94707821E-37
   6.53333366E-02  -2.07943993E-37
   6.58333302E-02  -9.80871146E-38
   6.63333312E-02   1.25817399E-37
   6.68333322E-02   3.90991239E-37
   6.73333332E-02   5.61824140E-37
   6.78333342E-02   4.80698421E-37
   6.83333352E-02   9.75307767E-38
   6.88333362E-02  -5.17466654E-37
   6.93333298E-02  -1.10828727E-36
   6.98333308E-02  -1.34267854E-36
   7.03333318E-02  -9.39228524E-37
   7.08333328E-02   1.46407753E-37
   7.13333338E-02   1.59207379E-36
   7.18333349E-02   2.74758334E-36
   7.23333359E-02   2.85794683E-36
   7.28333369E-02   1.44204580E-36
   7.33333305E-02  -1.35436541E-36
   7.38333315E-02  -4.53692391E-36
   7.43333325E-02  -6.51683765E-36
   7.48333335E-02  -5.71648521E-36
   7.53333345E-02  -1.48704152E-36
   7.58333355E-02   5.19363882E-36
   7.63333365E-02   1.16284516E-35
   7.68333301E-02   1.42394323E-35
   7.73333311E-02   1.02007361E-35
   7.78333321E-02  -7.73346534E-37
   7.83333331E-02  -1.53428114E-35
   7.88333341E-02  -2.69849278E-35
   7.93333352E-02  -2.84346631E-35
   7.98333362E-02  -1.53224168E-35
   8.03333297E-02   1.04314677E-35
   8.08333308E-02   3.94571927E-35
   8.13333318E-02   5.72854213E-35
   8.18333328E-02   5.04435104E-35
   8.23333338E-02   1.42692817E-35
   8.28333348E-02  -4.15961418E-35
   8.33333358E-02  -9.34362463E-35
   8.38333368E-02  -1.11488155E-34
   8.43333304E-02  -7.41004031E-35
   8.48333314E-02   1.71221572E-35
   8.53333324E-02   1.29935839E-34
   8.58333334E-02   2.08996559E-34
   8.63333344E-02   1.98632418E-34
   8.68333355E-02   7.37105155E-35
   8.73333365E-02  -1.35509152E-34
   8.78333300E-02  -3.41343310E-34
   8.83333310E-02  -4.28580878E-34
   8.88333321E-02  -3.09384901E-34
   8.93333331E-02   1.80597717E-35
   8.98333341E-02   4.40054621E-34
   9.03333351E-02   7.53423737E-34
   9.08333361E-02   7.50073257E-34
   9.13333297E-02   3.32182627E-34
   9.18333307E-02  -3.97895746E-34
   9.23333317E-02  -1.13247199E-33
   9.28333327E-02  -1.46745344E-33
   9.33333337E-02  -1.09878820E-33
   9.38333347E-02  -2.26439629E-35
   9.43333358E-02   1.37349664E-33
   9.48333368E-02   2.41348478E-33
   9.53333303E-02   2.42739547E-33
   9.58333313E-02   1.12785267E-33
   9.63333324E-02  -1.12238028E-33
   9.68333334E-02  -3.33498510E-33
   9.73333344E-02  -4.28047231E-33
   9.78333354E-02  -3.11343785E-33
   9.83333364E-02   5.09490533E-35
   9.88333300E-02   3.95140883E-33
   9.93333310E-02   6.59712335E-33
   9.98333320E-02   6.20777024E-33
  0.100333333       2.27681005E-33
  0.100833334      -3.82047235E-33
  0.101333335      -9.14273866E-33
  0.101833336      -1.04788254E-32
  0.102333330      -6.12754348E-33
  0.102833331       2.74633372E-33
  0.103333332       1.20756588E-32
  0.103833333       1.65335293E-32
  0.104333334       1.23262529E-32
  0.104833335      -2.00922313E-34
  0.105333336      -1.57188339E-32
  0.105833337      -2.57779270E-32
  0.106333330      -2.29839738E-32
  0.106833331      -5.63132434E-33
  0.107333332       1.98090208E-32
  0.107833333       4.03618769E-32
  0.108333334       4.24775610E-32
  0.108833335       1.98467542E-32
  0.109333336      -2.09839128E-32
  0.109833330      -6.10416349E-32
  0.110333331      -7.67067898E-32
  0.110833332      -5.22029342E-32
  0.111333333       9.24008355E-33
  0.111833334       8.23316420E-32
  0.112333335       1.28560596E-31
  0.112833336       1.14803057E-31
  0.113333337       3.34475868E-32
  0.113833331      -8.70645995E-32
  0.114333332      -1.89554729E-31
  0.114833333      -2.13322884E-31
  0.115333334      -1.27159713E-31
  0.115833335       4.66690006E-32
  0.116333336       2.32956767E-31
  0.116833337       3.33686288E-31
  0.117333330       2.77258539E-31
  0.117833331       6.33273484E-32
  0.118333332      -2.22737959E-31
  0.118833333      -4.40065400E-31
  0.119333334      -4.59291363E-31
  0.119833335      -2.36203600E-31
  0.120333336       1.47929029E-31
  0.120833330       5.08461962E-31
  0.121333331       6.41588061E-31
  0.121833332       4.35228429E-31
  0.122333333      -5.08069817E-32
  0.122833334      -5.86592511E-31
  0.123333335      -8.70600268E-31
  0.123833336      -6.87911237E-31
  0.124333337      -5.01527310E-32
  0.124833331       7.65553156E-31
  0.125333339       1.32030331E-30
  0.125833333       1.22913423E-30
  0.126333326       3.89365859E-31
  0.126833335      -9.03594702E-31
  0.127333328      -2.03864706E-30
  0.127833337      -2.36078856E-30
  0.128333330      -1.51716476E-30
  0.128833339       2.98684251E-31
  0.129333332       2.35423871E-30
  0.129833341       3.67359702E-30
  0.130333334       3.50608362E-30
  0.130833328       1.74093422E-30
  0.131333336      -9.62273029E-31
  0.131833330      -3.43418324E-30
  0.132333338      -4.55332232E-30
  0.132833332      -3.83023155E-30
  0.133333340      -1.69776875E-30
  0.133833334       6.88439598E-31
  0.134333327       2.08172583E-30
  0.134833336       1.89286884E-30
  0.135333329       6.25302292E-31
  0.135833338      -3.15815365E-31
  0.136333331       5.65429710E-31
  0.136833340       3.80106537E-30
  0.137333333       8.25431983E-30
  0.137833327       1.12709784E-29
  0.138333336       9.80011408E-30
  0.138833329       2.06780440E-30
  0.139333338      -1.10038805E-29
  0.139833331      -2.54534603E-29
  0.140333340      -3.54022637E-29
  0.140833333      -3.53281274E-29
  0.141333327      -2.25433771E-29
  0.141833335       1.28117430E-30
  0.142333329       3.03323975E-29
  0.142833337       5.65832079E-29
  0.143333331       7.25522907E-29
  0.143833339       7.35900540E-29
  0.144333333       5.86645182E-29
  0.144833326       2.95004169E-29
  0.145333335      -1.10605051E-29
  0.145833328      -6.00685934E-29
  0.146333337      -1.13776165E-28
  0.146833330      -1.65339220E-28
  0.147333339      -2.02404211E-28
  0.147833332      -2.06878580E-28
  0.148333326      -1.58739227E-28
  0.148833334      -4.39795371E-29
  0.149333328       1.35583867E-28
  0.149833336       3.54761159E-28
  0.150333330       5.64015325E-28
  0.150833338       6.97536004E-28
  0.151333332       6.89512531E-28
  0.151833341       4.94352465E-28
  0.152333334       1.04659138E-28
  0.152833328      -4.38747690E-28
  0.153333336      -1.04783098E-27
  0.153833330      -1.59889953E-27
  0.154333338      -1.95161838E-27
  0.154833332      -1.97173376E-27
  0.155333340      -1.55510484E-27
  0.155833334      -6.52487828E-28
  0.156333327       7.05059408E-28
  0.156833336       2.38254694E-27
  0.157333329       4.12611231E-27
  0.157833338       5.56806916E-27
  0.158333331       6.26419885E-27
  0.158833340       5.77043702E-27
  0.159333333       3.75475912E-27
  0.159833327       1.25384732E-28
  0.160333335      -4.85636447E-27
  0.160833329      -1.05156661E-26
  0.161333337      -1.57880418E-26
  0.161833331      -1.93436891E-26
  0.162333339      -1.98067627E-26
  0.162833333      -1.60421629E-26
  0.163333327      -7.46556005E-27
  0.163833335       5.67680485E-27
  0.164333329       2.21140792E-26
  0.164833337       3.94951871E-26
  0.165333331       5.45174623E-26
  0.165833339       6.32728384E-26
  0.166333333       6.18219999E-26
  0.166833326       4.69692159E-26
  0.167333335       1.71577601E-26
  0.167833328      -2.66545191E-26
  0.168333337      -8.03326211E-26
  0.168833330      -1.36332322E-25
  0.169333339      -1.84094201E-25
  0.169833332      -2.11183093E-25
  0.170333341      -2.05165823E-25
  0.170833334      -1.56064877E-25
  0.171333328      -5.90696642E-26
  0.171833336       8.29392579E-26
  0.172333330       2.57567252E-25
  0.172833338       4.42297250E-25
  0.173333332       6.05528004E-25
  0.173833340       7.09528862E-25
  0.174333334       7.15342816E-25
  0.174833328       5.89360250E-25
  0.175333336       3.10932681E-25
  0.175833330      -1.19965899E-25
  0.176333338      -6.76329552E-25
  0.176833332      -1.30043276E-24
  0.177333340      -1.90429898E-24
  0.177833334      -2.37545089E-24
  0.178333327      -2.58847312E-24
  0.178833336      -2.42208401E-24
  0.179333329      -1.78042396E-24
  0.179833338      -6.16274163E-25
  0.180333331       1.04693931E-24
  0.180833340       3.09804512E-24
  0.181333333       5.32976871E-24
  0.181833327       7.44258157E-24
  0.182333335       9.06329946E-24
  0.182833329       9.77954651E-24
  0.183333337       9.18927108E-24
  0.183833331       6.96230176E-24
  0.184333339       2.90861910E-24
  0.184833333      -2.95406755E-24
  0.185333326      -1.03424019E-23
  0.185833335      -1.86687625E-23
  0.186333328      -2.70311551E-23
  0.186833337      -3.42392044E-23
  0.187333331      -3.88809756E-23
  0.187833339      -3.94318340E-23
  0.188333333      -3.44021831E-23
  0.188833326      -2.25169491E-23
  0.189333335      -2.91592750E-24
  0.189833328       2.46385195E-23
  0.190333337       5.95610557E-23
  0.190833330       1.00264581E-22
  0.191333339       1.44014926E-22
  0.191833332       1.86827001E-22
  0.192333341       2.23404803E-22
  0.192833334       2.47120814E-22
  0.193333328       2.50023847E-22
  0.193833336       2.22857522E-22
  0.194333330       1.55066413E-22
  0.194833338       3.47640430E-23
  0.195333332      -1.51365192E-22
  0.195833340      -4.18255819E-22
  0.196333334      -7.82764639E-22
  0.196833327      -1.26410555E-21
  0.197333336      -1.88442891E-21
  0.197833329      -2.66954953E-21
  0.198333338      -3.64982702E-21
  0.198833331      -4.86119667E-21
  0.199333340      -6.34635140E-21
  0.199833333      -8.15607193E-21
  0.200333327      -1.03507178E-20
  0.200833336      -1.30018793E-20
  0.201333329      -1.61942254E-20
  0.201833338      -2.00275774E-20
  0.202333331      -2.46192328E-20
  0.202833340      -3.01065987E-20
  0.203333333      -3.66502177E-20
  0.203833327      -4.44371797E-20
  0.204333335      -5.36850234E-20
  0.204833329      -6.46461940E-20
  0.205333337      -7.76130773E-20
  0.205833331      -9.29236606E-20
  0.206333339      -1.10967908E-19
  0.206833333      -1.32194784E-19
  0.207333326      -1.57120230E-19
  0.207833335      -1.86335655E-19
  0.208333328      -2.20517614E-19
  0.208833337      -2.60438178E-19
  0.209333330      -3.06976212E-19
  0.209833339      -3.61129943E-19
  0.210333332      -4.24030360E-19
  0.210833326      -4.96955688E-19
  0.211333334      -5.81347291E-19
  0.211833328      -6.78826493E-19
  0.212333336      -7.91212887E-19
  0.212833330      -9.20543868E-19
  0.213333338      -1.06909496E-18
  0.213833332      -1.23940193E-18
  0.214333341      -1.43428341E-18
  0.214833334      -1.65686531E-18
  0.215333328      -1.91060461E-18
  0.215833336      -2.19931526E-18
  0.216333330      -2.52719311E-18
  0.216833338      -2.89884246E-18
  0.217333332      -3.31930168E-18
  0.217833340      -3.79406819E-18
  0.218333334      -4.32912335E-18
  0.218833327      -4.93095515E-18
  0.219333336      -5.60658015E-18
  0.219833329      -6.36356290E-18
  0.220333338      -7.21003296E-18
  0.220833331      -8.15469886E-18
  0.221333340      -9.20685771E-18
  0.221833333      -1.03763984E-17
  0.222333327      -1.16738039E-17
  0.222833335      -1.31101427E-17
  0.223333329      -1.46970573E-17
  0.223833337      -1.64467444E-17
  0.224333331      -1.83719180E-17
  0.224833339      -2.04857797E-17
  0.225333333      -2.28019665E-17
  0.225833327      -2.53344841E-17
  0.226333335      -2.80976413E-17
  0.226833329      -3.11059648E-17
  0.227333337      -3.43740992E-17
  0.227833331      -3.79167086E-17
  0.228333339      -4.17483283E-17
  0.228833333      -4.58832520E-17
  0.229333326      -5.03353696E-17
  0.229833335      -5.51179989E-17
  0.230333328      -6.02437030E-17
  0.230833337      -6.57241253E-17
  0.231333330      -7.15697379E-17
  0.231833339      -7.77896795E-17
  0.232333332      -8.43915006E-17
  0.232833341      -9.13809187E-17
  0.233333334      -9.87616130E-17
  0.233833328      -1.06534973E-16
  0.234333336      -1.14699815E-16
  0.234833330      -1.23252188E-16
  0.235333338      -1.32185103E-16
  0.235833332      -1.41488331E-16
  0.236333340      -1.51148119E-16
  0.236833334      -1.61147026E-16
  0.237333328      -1.71463741E-16
  0.237833336      -1.82072855E-16
  0.238333330      -1.92944775E-16
  0.238833338      -2.04045525E-16
  0.239333332      -2.15336805E-16
  0.239833340      -2.26775760E-16
  0.240333334      -2.38315049E-16
  0.240833327      -2.49902936E-16
  0.241333336      -2.61483227E-16
  0.241833329      -2.72995569E-16
  0.242333338      -2.84375430E-16
  0.242833331      -2.95554545E-16
  0.243333340      -3.06460967E-16
  0.243833333      -3.17019604E-16
  0.244333327      -3.27152420E-16
  0.244833335      -3.36779056E-16
  0.245333329      -3.45817215E-16
  0.245833337      -3.54183201E-16
  0.246333331      -3.61792574E-16
  0.246833339      -3.68560711E-16
  0.247333333      -3.74403545E-16
  0.247833326      -3.79238144E-16
  0.248333335      -3.82983618E-16
  0.248833328      -3.85561748E-16
  0.249333337      -3.86897783E-16
  0.249833331      -3.86921183E-16
  0.250333339      -3.85566433E-16
  0.250833333      -3.82773765E-16
  0.251333326      -3.78489870E-16
  0.251833320      -3.72668689E-16
  0.252333343      -3.65272000E-16
  0.252833337      -3.56270025E-16
  0.253333330      -3.45642144E-16
  0.253833324      -3.33377213E-16
  0.254333347      -3.19474120E-16
  0.254833341      -3.03942156E-16
  0.255333334      -2.86801227E-16
  0.255833328      -2.68082010E-16
  0.256333321      -2.47826144E-16
  0.256833345      -2.26086170E-16
  0.257333338      -2.02925417E-16
  0.257833332      -1.78417802E-16
  0.258333325      -1.52647540E-16
  0.258833319      -1.25708702E-16
  0.259333342      -9.77047674E-17
  0.259833336      -6.87479204E-17
  0.260333329      -3.89584731E-17
  0.260833323      -8.46400568E-18
  0.261333346       2.26014347E-17
  0.261833340       5.40982903E-17
  0.262333333       8.58824705E-17
  0.262833327       1.17806361E-16
  0.263333321       1.49719942E-16
  0.263833344       1.81471833E-16
  0.264333338       2.12910466E-16
  0.264833331       2.43885217E-16
  0.265333325       2.74247404E-16
  0.265833348       3.03851629E-16
  0.266333342       3.32556623E-16
  0.266833335       3.60226410E-16
  0.267333329       3.86731315E-16
  0.267833322       4.11948836E-16
  0.268333346       4.35764491E-16
  0.268833339       4.58072718E-16
  0.269333333       4.78777433E-16
  0.269833326       4.97792793E-16
  0.270333320       5.15043572E-16
  0.270833343       5.30465765E-16
  0.271333337       5.44006804E-16
  0.271833330       5.55625608E-16
  0.272333324       5.65293060E-16
  0.272833347       5.72991743E-16
  0.273333341       5.78715938E-16
  0.273833334       5.82471524E-16
  0.274333328       5.84275545E-16
  0.274833322       5.84155901E-16
  0.275333345       5.82150975E-16
  0.275833338       5.78309045E-16
  0.276333332       5.72687658E-16
  0.276833326       5.65353094E-16
  0.277333319       5.56379468E-16
  0.277833343       5.45848254E-16
  0.278333336       5.33847227E-16
  0.278833330       5.20469824E-16
  0.279333323       5.05814407E-16
  0.279833347       4.89982990E-16
  0.280333340       4.73080924E-16
  0.280833334       4.55215782E-16
  0.281333327       4.36496618E-16
  0.281833321       4.17033125E-16
  0.282333344       3.96934965E-16
  0.282833338       3.76310904E-16
  0.283333331       3.55268223E-16
  0.283833325       3.33912035E-16
  0.284333318       3.12344617E-16
  0.284833342       2.90665073E-16
  0.285333335       2.68968536E-16
  0.285833329       2.47346008E-16
  0.286333323       2.25883808E-16
  0.286833346       2.04663237E-16
  0.287333339       1.83760423E-16
  0.287833333       1.63245986E-16
  0.288333327       1.43184911E-16
  0.288833320       1.23636502E-16
  0.289333344       1.04654223E-16
  0.289833337       8.62857574E-17
  0.290333331       6.85730147E-17
  0.290833324       5.15521953E-17
  0.291333348       3.52539182E-17
  0.291833341       1.97033545E-17
  0.292333335       4.92041646E-18
  0.292833328      -9.08006002E-18
  0.293333322      -2.22880491E-17
  0.293833345      -3.46981124E-17
  0.294333339      -4.63091176E-17
  0.294833332      -5.71239748E-17
  0.295333326      -6.71493376E-17
  0.295833319      -7.63952978E-17
  0.296333343      -8.48751299E-17
  0.296833336      -9.26049276E-17
  0.297333330      -9.96033587E-17
  0.297833323      -1.05891341E-16
  0.298333347      -1.11491784E-16
  0.298833340      -1.16429284E-16
  0.299333334      -1.20729882E-16
  0.299833328      -1.24420749E-16
  0.300333321      -1.27530008E-16
  0.300833344      -1.30086460E-16
  0.301333338      -1.32119365E-16
  0.301833332      -1.33658252E-16
  0.302333325      -1.34732700E-16
  0.302833319      -1.35372263E-16
  0.303333342      -1.35606163E-16
  0.303833336      -1.35463306E-16
  0.304333329      -1.34972013E-16
  0.304833323      -1.34160000E-16
  0.305333346      -1.33054225E-16
  0.305833340      -1.31680827E-16
  0.306333333      -1.30065006E-16
  0.306833327      -1.28231034E-16
  0.307333320      -1.26202178E-16
  0.307833344      -1.24000607E-16
  0.308333337      -1.21647471E-16
  0.308833331      -1.19162805E-16
  0.309333324      -1.16565577E-16
  0.309833348      -1.13873614E-16
  0.310333341      -1.11103657E-16
  0.310833335      -1.08271338E-16
  0.311333328      -1.05391208E-16
  0.311833322      -1.02476772E-16
  0.312333345      -9.95405260E-17
  0.312833339      -9.65939499E-17
  0.313333333      -9.36475987E-17
  0.313833326      -9.07110877E-17
  0.314333320      -8.77931452E-17
  0.314833343      -8.49016526E-17
  0.315333337      -8.20436841E-17
  0.315833330      -7.92255525E-17
  0.316333324      -7.64528431E-17
  0.316833347      -7.37304527E-17
  0.317333341      -7.10626364E-17
  0.317833334      -6.84530537E-17
  0.318333328      -6.59048146E-17
  0.318833321      -6.34205000E-17
  0.319333345      -6.10022144E-17
  0.319833338      -5.86516119E-17
  0.320333332      -5.63699301E-17
  0.320833325      -5.41580360E-17
  0.321333319      -5.20164488E-17
  0.321833342      -4.99453738E-17
  0.322333336      -4.79447316E-17
  0.322833329      -4.60141980E-17
  0.323333323      -4.41532037E-17
  0.323833346      -4.23609879E-17
  0.324333340      -4.06366141E-17
  0.324833333      -3.89789640E-17
  0.325333327      -3.73867935E-17
  0.325833321      -3.58587295E-17
  0.326333344      -3.43933030E-17
  0.326833338      -3.29889455E-17
  0.327333331      -3.16440226E-17
  0.327833325      -3.03568370E-17
  0.328333348      -2.91256514E-17
  0.328833342      -2.79486958E-17
  0.329333335      -2.68241736E-17
  0.329833329      -2.57502714E-17
  0.330333322      -2.47251746E-17
  0.330833346      -2.37470633E-17
  0.331333339      -2.28141194E-17
  0.331833333      -2.19245446E-17
  0.332333326      -2.10765521E-17
  0.332833320      -2.02683735E-17
  0.333333343      -1.94982733E-17
  0.333833337      -1.87645393E-17
  0.334333330      -1.80655005E-17
  0.334833324      -1.73995175E-17
  0.335333347      -1.67649956E-17
  0.335833341      -1.61603745E-17
  0.336333334      -1.55841274E-17
  0.336833328      -1.50347653E-17
  0.337333322      -1.45108308E-17
  0.337833345      -1.40108994E-17
  0.338333338      -1.35335839E-17
  0.338833332      -1.30775270E-17
  0.339333326      -1.26414043E-17
  0.339833319      -1.22239212E-17
  0.340333343      -1.18237999E-17
  0.340833336      -1.14397805E-17
  0.341333330      -1.10706147E-17
  0.341833323      -1.07150594E-17
  0.342333347      -1.03718672E-17
  0.342833340      -1.00397897E-17
  0.343333334      -9.71756729E-18
  0.343833327      -9.40392191E-18
  0.344333321      -9.09755241E-18
  0.344833344      -8.79712041E-18
  0.345333338      -8.50124369E-18
  0.345833331      -8.20848628E-18
  0.346333325      -7.91734434E-18
  0.346833318      -7.62624046E-18
  0.347333342      -7.33351117E-18
  0.347833335      -7.03739623E-18
  0.348333329      -6.73602827E-18
  0.348833323      -6.42742001E-18
  0.349333346      -6.10945219E-18
  0.349833339      -5.77986249E-18
  0.350333333      -5.43623223E-18
  0.350833327      -5.07597274E-18
  0.351333320      -4.69631627E-18
  0.351833344      -4.29429946E-18
  0.352333337      -3.86675504E-18
  0.352833331      -3.41029878E-18
  0.353333324      -2.92131779E-18
  0.353833348      -2.39596194E-18
  0.354333341      -1.83013380E-18
  0.354833335      -1.21948167E-18
  0.355333328      -5.59393400E-19
  0.355833322       1.55009059E-19
  0.356333345       9.28872956E-19
  0.356833339       1.76761755E-18
  0.357333332       2.67693348E-18
  0.357833326       3.66278181E-18
  0.358333319       4.73138666E-18
  0.358833343       5.88922859E-18
  0.359333336       7.14302802E-18
  0.359833330       8.49973243E-18
  0.360333323       9.96649654E-18
  0.360833347       1.15506599E-17
  0.361333340       1.32597234E-17