  -10.00000        1.0000000E-24
  -9.950000        1.0000000E-24
  -9.900000        1.0000000E-24
  -9.850000        1.0000000E-24
  -9.800000        1.0000000E-24
  -9.750000        1.0000000E-24
  -9.700000        1.0000001E-24
  -9.650000        1.0000002E-24
  -9.600000        1.0000002E-24
  -9.550000        1.0000002E-24
  -9.500000        1.0000003E-24
  -9.450000        1.0000004E-24
  -9.400000        1.0000004E-24
  -9.350000        1.0000004E-24
  -9.300000        1.0000003E-24
  -9.250000        1.0000001E-24
  -9.200000        1.0000000E-24
  -9.150000        9.9999992E-25
  -9.100000        1.0000000E-24
  -9.050000        1.0000001E-24
  -9.000000        1.0000003E-24
  -8.950000        1.0000005E-24
  -8.900000        1.0000006E-24
  -8.850000        1.0000005E-24
  -8.800000        1.0000003E-24
  -8.750000        1.0000001E-24
  -8.700000        9.9999992E-25
  -8.650000        1.0000000E-24
  -8.600000        1.0000003E-24
  -8.550000        1.0000009E-24
  -8.500000        1.0000013E-24
  -8.450000        1.0000013E-24
  -8.400000        1.0000009E-24
  -8.350000        1.0000000E-24
  -8.300000        9.9999893E-25
  -8.250000        9.9999775E-25
  -8.200000        9.9999706E-25
  -8.150000        9.9999716E-25
  -8.100000        9.9999795E-25
  -8.050000        9.9999933E-25
  -8.000000        1.0000009E-24
  -7.950000        1.0000023E-24
  -7.900000        1.0000030E-24
  -7.850000        1.0000029E-24
  -7.800000        1.0000022E-24
  -7.750000        1.0000011E-24
  -7.700000        1.0000000E-24
  -7.650000        9.9999923E-25
  -7.600000        9.9999903E-25
  -7.550000        9.9999913E-25
  -7.500000        9.9999943E-25
  -7.450000        9.9999972E-25
  -7.400000        9.9999982E-25
  -7.350000        9.9999982E-25
  -7.300000        9.9999972E-25
  -7.250000        9.9999963E-25
  -7.200000        9.9999982E-25
  -7.150000        1.0000004E-24
  -7.100000        1.0000011E-24
  -7.050000        1.0000017E-24
  -7.000000        1.0000019E-24
  -6.950000        1.0000015E-24
  -6.900000        1.0000006E-24
  -6.850000        9.9999933E-25
  -6.800000        9.9999815E-25
  -6.750000        9.9999746E-25
  -6.700000        9.9999746E-25
  -6.650000        9.9999824E-25
  -6.600000        9.9999953E-25
  -6.550000        1.0000010E-24
  -6.500000        1.0000022E-24
  -6.450000        1.0000030E-24
  -6.400000        1.0000034E-24
  -6.350000        1.0000038E-24
  -6.300000        1.0000045E-24
  -6.250000        1.0000057E-24
  -6.200000        1.0000071E-24
  -6.150000        1.0000069E-24
  -6.100000        1.0000024E-24
  -6.050000        9.9999026E-25
  -6.000000        9.9996866E-25
  -5.950000        9.9994036E-25
  -5.900000        9.9991620E-25
  -5.850000        9.9991591E-25
  -5.800000        9.9996492E-25
  -5.750000        1.0000841E-24
  -5.700000        1.0002720E-24
  -5.650000        1.0004843E-24
  -5.600000        1.0006214E-24
  -5.550000        1.0005375E-24
  -5.500000        1.0000844E-24
  -5.450000        9.9919686E-25
  -5.400000        9.9799917E-25
  -5.350000        9.9689082E-25
  -5.300000        9.9654067E-25
  -5.250000        9.9772199E-25
  -5.200000        1.0009547E-24
  -5.150000        1.0060203E-24
  -5.100000        1.0115326E-24
  -5.050000        1.0148650E-24
  -5.000000        1.0127488E-24
  -4.950000        1.0026929E-24
  -4.900000        9.8499608E-25
  -4.850000        9.6458174E-25
  -4.800000        9.5140303E-25
  -4.750000        9.5807896E-25
  -4.700000        9.9409194E-25
  -4.650000        1.0574754E-24
  -4.600000        1.1271972E-24
  -4.550000        1.1615211E-24
  -4.500000        1.1080963E-24
  -4.450000        9.2886094E-25
  -4.400000        6.3623032E-25
  -4.350000        3.2743358E-25
  -4.300000        1.9464721E-25
  -4.250000        4.8551583E-25
  -4.200000        1.3981441E-24
  -4.150000        2.9206100E-24
  -4.100000        4.6648166E-24
  -4.050000        5.7856376E-24
  -4.000000        5.0966824E-24
  -3.950000        1.4672545E-24
  -3.900000       -5.5077132E-24
  -3.850000       -1.4727789E-23
  -3.800000       -2.3036791E-23
  -3.750000       -2.5360329E-23
  -3.700000       -1.5947549E-23
  -3.650000        9.1547276E-24
  -3.600000        4.8816322E-23
  -3.550000        9.3845153E-23
  -3.500000        1.2602112E-22
  -3.450000        1.2095400E-22
  -3.400000        5.5844991E-23
  -3.350000       -7.8496892E-23
  -3.300000       -2.6451905E-22
  -3.250000       -4.4928903E-22
  -3.200000       -5.4724626E-22
  -3.150000       -4.5994665E-22
  -3.100000       -1.1368817E-22
  -3.050000        4.9198561E-22
  -3.000000        1.2410498E-21
  -2.950000        1.8859615E-21
  -2.900000        2.0836946E-21
  -2.850000        1.4950514E-21
  -2.800000       -6.2685235E-23
  -2.750000       -2.4492717E-21
  -2.700000       -5.0882056E-21
  -2.650000       -6.9853464E-21
  -2.600000       -6.9406520E-21
  -2.550000       -3.9602152E-21
  -2.500000        2.2090892E-21
  -2.450000        1.0593422E-20
  -2.400000        1.8789981E-20
  -2.350000        2.3278013E-20
  -2.300000        2.0361249E-20
  -2.250000        7.6446853E-21
  -2.200000       -1.4328342E-20
  -2.150000       -4.0899748E-20
  -2.100000       -6.3297961E-20
  -2.050000       -7.0367266E-20
  -2.000000       -5.2097334E-20
  -1.950000       -4.2975086E-21
  -1.900000        6.7019156E-20
  -1.850000        1.4350017E-19
  -1.800000        1.9645723E-19
  -1.750000        1.9401154E-19
  -1.700000        1.1268882E-19
  -1.650000       -4.9367137E-20
  -1.600000       -2.6227615E-19
  -1.550000       -4.6285031E-19
  -1.500000       -5.6583042E-19
  -1.450000       -4.8875704E-19
  -1.400000       -1.8611694E-19
  -1.350000        3.1713756E-19
  -1.300000        9.0638326E-19
  -1.250000        1.3859147E-18
  -1.200000        1.5231065E-18
  -1.150000        1.1248635E-18
  -1.100000        1.2898755E-19
  -1.050000       -1.3195839E-18
  -1.000000       -2.8433870E-18
 -0.9500000       -3.8874081E-18
 -0.9000000       -3.8638401E-18
 -0.8500000       -2.3647408E-18
 -0.8000000        6.1370411E-19
 -0.7500000        4.5168760E-18
 -0.7000000        8.2320411E-18
 -0.6500000        1.0299719E-17
 -0.6000000        9.3327074E-18
 -0.5500000        4.5597099E-18
 -0.5000000       -3.6656501E-18
 -0.4500000       -1.3592238E-17
 -0.4000000       -2.2218728E-17
 -0.3500000       -2.5951386E-17
 -0.3000000       -2.1705123E-17
 -0.2500000       -8.1953581E-18
 -0.2000000        1.2985271E-17
 -0.1500000        3.6966156E-17
 -0.1000000        5.6239679E-17
 -5.0000001E-02    6.2451852E-17
   0.000000        4.9072662E-17
  5.0000001E-02    1.4277875E-17
  0.1000000       -3.6908772E-17
  0.1500000       -9.2194692E-17
  0.2000000       -1.3399388E-16
  0.2500000       -1.4383811E-16
  0.3000000       -1.0842770E-16
  0.3500000       -2.5723785E-17
  0.4000000        9.0993229E-17
  0.4500000        2.1307285E-16
  0.5000000        3.0161700E-16
  0.5500000        3.1751199E-16
  0.6000000        2.3437349E-16
  0.6500000        5.0881736E-17
  0.7000000       -2.0176775E-16
  0.7500000       -4.6109276E-16
  0.8000000       -6.4515673E-16
  0.8500000       -6.7393795E-16
  0.9000000       -4.9575917E-16
  0.9500000       -1.1149775E-16
   1.000000        4.1183920E-16
   1.050000        9.4526939E-16
   1.100000        1.3228778E-15
   1.150000        1.3849883E-15
   1.200000        1.0302409E-15
   1.250000        2.6227173E-16
   1.300000       -7.8505867E-16
   1.350000       -1.8570437E-15
   1.400000       -2.6275504E-15
   1.450000       -2.7827012E-15
   1.500000       -2.1210175E-15
   1.550000       -6.4295275E-16
   1.600000        1.4002964E-15
   1.650000        3.5232916E-15
   1.700000        5.0984319E-15
   1.750000        5.5131812E-15
   1.800000        4.3597794E-15
   1.850000        1.6074400E-15
   1.900000       -2.2991159E-15
   1.950000       -6.4615565E-15
   2.000000       -9.6914511E-15
   2.050000       -1.0798904E-14
   2.100000       -8.9485575E-15
   2.150000       -3.9919312E-15
   2.200000        3.3285894E-15
   2.250000        1.1394326E-14
   2.300000        1.7989020E-14
   2.350000        2.0819058E-14
   2.400000        1.8175577E-14
   2.450000        9.5741710E-15
   2.500000       -3.8226728E-15
   2.550000       -1.9174763E-14
   2.600000       -3.2422470E-14
   2.650000       -3.9208339E-14
   2.700000       -3.6093084E-14
   2.750000       -2.1771927E-14
   2.800000        2.0682753E-15
   2.850000        3.0583893E-14
   2.900000        5.6502339E-14
   2.950000        7.1723199E-14
   3.000000        6.9509882E-14
   3.050000        4.6752824E-14
   3.100000        5.6524685E-15
   3.150000       -4.5797218E-14
   3.200000       -9.4920003E-14
   3.250000       -1.2707026E-13
   3.300000       -1.2948246E-13
   3.350000       -9.5360955E-14
   3.400000       -2.7060483E-14
   3.450000        6.2756861E-14
   3.500000        1.5272877E-13
   3.550000        2.1723877E-13
   3.600000        2.3295810E-13
   3.650000        1.8598325E-13
   3.700000        7.7610444E-14
   3.750000       -7.3180909E-14
   3.800000       -2.3186178E-13
   3.850000       -3.5533000E-13
   3.900000       -4.0259208E-13
   3.950000       -3.4674032E-13
   4.000000       -1.8502138E-13
   4.050000        5.6207009E-14
   4.100000        3.2390789E-13
   4.150000        5.4872600E-13
   4.200000        6.6164294E-13
   4.250000        6.1323933E-13
   4.300000        3.9055369E-13
   4.350000        2.6431168E-14
   4.400000       -4.0240860E-13
   4.450000       -7.8974923E-13
   4.500000       -1.0245544E-12
   4.550000       -1.0206102E-12
   4.600000       -7.4366170E-13
   4.650000       -2.2821361E-13
   4.700000        4.2204985E-13
   4.750000        1.0525946E-12
   4.800000        1.4926544E-12
   4.850000        1.5989083E-12
   4.900000        1.2975888E-12
   4.950000        6.1346327E-13
   5.000000       -3.2378343E-13
   5.050000       -1.3003355E-12
   5.100000       -2.0640588E-12
   5.150000       -2.3862609E-12
   5.200000       -2.1249901E-12
   5.250000       -1.2733418E-12
   5.300000        2.1762133E-14
   5.350000        1.4788046E-12
   5.400000        2.7384403E-12
   5.450000        3.4474736E-12
   5.500000        3.3514465E-12
   5.550000        2.3728402E-12
   5.600000        6.5294883E-13
   5.650000       -1.4577088E-12
   5.700000       -3.4640873E-12
   5.750000       -4.8363522E-12
   5.800000       -5.1418518E-12
   5.850000       -4.1681329E-12
   5.900000       -2.0044049E-12
   5.950000        9.4442347E-13
   6.000000        4.0228732E-12
   6.050000        6.4621130E-12
   6.100000        7.5628878E-12
   6.150000        6.8828563E-12
   6.200000        4.3808338E-12
   6.250000        4.7563629E-13
   6.300000       -4.0060490E-12
   6.350000       -7.9929379E-12
   6.400000       -1.0415053E-11
   6.450000       -1.0478816E-11
   6.500000       -7.9036673E-12
   6.550000       -3.0541025E-12
   6.600000        3.0798786E-12
   6.650000        9.0671576E-12
   6.700000        1.3356348E-11
   6.750000        1.4665420E-11
   6.800000        1.2345949E-11
   6.850000        6.6231504E-12
   6.900000       -1.3662659E-12
   6.950000       -9.7720347E-12
   7.000000       -1.6438970E-11
   7.050000       -1.9442047E-11
   7.100000       -1.7620046E-11
   7.150000       -1.0965362E-11
   7.200000       -7.4975171E-13
   7.250000        1.0677062E-11
   7.300000        2.0398223E-11
   7.350000        2.5647078E-11
   7.400000        2.4561126E-11
   7.450000        1.6774178E-11
   7.500000        3.6704988E-12
   7.550000       -1.1803039E-11
   7.600000       -2.5762645E-11
   7.650000       -3.4328460E-11
   7.700000       -3.4660348E-11
   7.750000       -2.5820344E-11
   7.800000       -9.2131719E-12
   7.850000        1.1555043E-11
   7.900000        3.1418920E-11
   7.950000        4.5056556E-11
   8.000000        4.8275609E-11
   8.050000        3.9230307E-11
   8.100000        1.9129443E-11
   8.150000       -7.7997912E-12
   8.200000       -3.5150091E-11
   8.250000       -5.5824123E-11
   8.300000       -6.3839614E-11
   8.350000       -5.5999896E-11
   8.400000       -3.2977298E-11
   8.450000        5.2630600E-13
   8.500000        3.6662496E-11
   8.550000        6.6218975E-11
   8.600000        8.0910112E-11
   8.650000        7.5618782E-11
   8.700000        5.0000809E-11
   8.750000        8.9823860E-12
   8.800000       -3.8068885E-11
   8.850000       -7.9392305E-11
   8.900000       -1.0367154E-10
   8.950000       -1.0299431E-10
   9.000000       -7.5184560E-11
   9.050000       -2.4860124E-11
   9.100000        3.7155782E-11
   9.150000        9.6051229E-11
   9.200000        1.3643878E-10
   9.250000        1.4619926E-10
   9.300000        1.1982376E-10
   9.350000        6.0376870E-11
   9.400000       -2.0518452E-11
   9.450000       -1.0482703E-10
   9.500000       -1.7201539E-10
   9.550000       -2.0390625E-10
   9.600000       -1.8935281E-10
   9.650000       -1.2757166E-10
   9.700000       -2.9213337E-11
   9.750000        8.5268112E-11
   9.800000        1.8976176E-10
   9.850000        2.5835309E-10
   9.900000        2.7159927E-10
   9.950000        2.2174226E-10
   10.00000        1.1551762E-10
   10.05000       -2.6305853E-11
   10.10000       -1.7279994E-10
   10.15000       -2.8949765E-10
   10.20000       -3.4638170E-10
   10.25000       -3.2542544E-10
   10.30000       -2.2583668E-10
   10.35000       -6.5564644E-11
   10.40000        1.2158277E-10
   10.45000        2.9285627E-10
   10.50000        4.0616044E-10
   10.55000        4.3021775E-10
   10.60000        3.5288969E-10
   10.65000        1.8550236E-10
   10.70000       -3.8171844E-11
   10.75000       -2.6843230E-10
   10.80000       -4.5049553E-10
   10.85000       -5.3735305E-10
   10.90000       -5.0166044E-10
   10.95000       -3.4369349E-10
   11.00000       -9.3150036E-11
   11.05000        1.9607301E-10
   11.10000        4.5733581E-10
   11.15000        6.2656369E-10
   11.20000        6.5791222E-10
   11.25000        5.3596982E-10
   11.30000        2.8128069E-10
   11.35000       -5.2585075E-11
   11.40000       -3.9020420E-10
   11.45000       -6.5144717E-10
   11.50000       -7.7070827E-10
   11.55000       -7.1358147E-10
   11.60000       -4.8671656E-10
   11.65000       -1.3805626E-10
   11.70000        2.5309060E-10
   11.75000        5.9416766E-10
   11.80000        8.0155660E-10
   11.85000        8.2148000E-10
   11.90000        6.4434280E-10
   11.95000        3.0864156E-10
   12.00000       -1.0696824E-10
   12.05000       -5.0192772E-10
   12.10000       -7.7815843E-10
   12.15000       -8.6465890E-10
   12.20000       -7.3611145E-10
   12.25000       -4.2058057E-10
   12.30000        6.0274424E-12
   12.35000        4.3778906E-10
   12.40000        7.6475909E-10
   12.45000        9.0079771E-10
   12.50000        8.0620977E-10
   12.55000        4.9926324E-10
   12.60000        5.3296076E-11
   12.65000       -4.2031451E-10
   12.70000       -7.9943502E-10
   12.75000       -9.8209352E-10
   12.80000       -9.1328461E-10
   12.85000       -6.0071614E-10
   12.90000       -1.1514319E-10
   12.95000        4.2530024E-10
   13.00000        8.8333851E-10
   13.05000        1.1366601E-09
   13.10000        1.1095140E-09
   13.15000        7.9379392E-10
   13.20000        2.5398858E-10
   13.25000       -3.8578582E-10
   13.30000       -9.7007813E-10
   13.35000       -1.3492730E-09
   13.40000       -1.4168231E-09
   13.45000       -1.1374472E-09
   13.50000       -5.5911453E-10
   13.55000        1.9466734E-10
   13.60000        9.5111863E-10
   13.65000        1.5273992E-09
   13.70000        1.7739065E-09
   13.75000        1.6115544E-09
   13.80000        1.0540174E-09
   13.85000        2.0914021E-10
   13.90000       -7.4163437E-10
   13.95000       -1.5819236E-09
   14.00000       -2.1089532E-09
   14.05000       -2.1812332E-09
   14.10000       -1.7543964E-09
   14.15000       -8.9649910E-10
   14.20000        2.2161377E-10
   14.25000        1.3598274E-09
   14.30000        2.2596858E-09
   14.35000        2.7020577E-09
   14.40000        2.5588676E-09
   14.45000        1.8269599E-09
   14.50000        6.3558636E-10
   14.55000       -7.7550394E-10
   14.60000       -2.1039563E-09
   14.65000       -3.0492726E-09
   14.70000       -3.3802161E-09
   14.75000       -2.9901519E-09
   14.80000       -1.9272293E-09
   14.85000       -3.9128767E-10
   14.90000        1.3035428E-09
   14.95000        2.7938538E-09
   15.00000        3.7462593E-09
   15.05000        3.9337023E-09
   15.10000        3.2912635E-09
   15.15000        1.9377824E-09
   15.20000        1.5675460E-10
   15.25000       -1.6609593E-09
   15.30000       -3.1011478E-09
   15.35000       -3.8188070E-09
   15.40000       -3.6182897E-09
   15.45000       -2.5020990E-09
   15.50000       -6.7594552E-10
   15.55000        1.4925617E-09
   15.60000        3.5534402E-09
   15.65000        5.0746864E-09
   15.70000        5.7406355E-09
   15.75000        5.4253437E-09
   15.80000        4.2233408E-09
   15.85000        2.4298021E-09
   15.90000        4.7405579E-10
   15.95000       -1.1784844E-09
   16.00000       -2.1331199E-09
   16.05000       -2.1562045E-09
   16.10000       -1.2275585E-09
   16.15000        4.5753371E-10
   16.20000        2.5371192E-09
   16.25000        4.5702970E-09
   16.30000        6.1426122E-09
   16.35000        6.9636910E-09
   16.40000        6.9337838E-09
   16.45000        6.1636798E-09
   16.50000        4.9440283E-09
   16.55000        3.6725185E-09
   16.60000        2.7574880E-09
   16.65000        2.5219109E-09
   16.70000        3.1310177E-09
   16.75000        4.5603645E-09
   16.80000        6.6107178E-09
   16.85000        8.9643928E-09
   16.90000        1.1267664E-08
   16.95000        1.3218035E-08
   17.00000        1.4634812E-08
   17.05000        1.5496529E-08
   17.10000        1.5937657E-08
   17.15000        1.6207544E-08
   17.20000        1.6603654E-08
   17.25000        1.7396912E-08
   17.30000        1.8767984E-08
   17.35000        2.0769525E-08
   17.40000        2.3322240E-08
   17.45000        2.6243868E-08
   17.50000        2.9302248E-08
   17.55000        3.2278404E-08
   17.60000        3.5024012E-08
   17.65000        3.7500005E-08
   17.70000        3.9788315E-08
   17.75000        4.2075481E-08
   17.80000        4.4613248E-08
   17.85000        4.7666102E-08
   17.90000        5.1457732E-08
   17.95000        5.6127831E-08
   18.00000        6.1707723E-08
   18.05000        6.8118894E-08
   18.10000        7.5193867E-08
   18.15000        8.2714593E-08
   18.20000        9.0460787E-08
   18.25000        9.8258859E-08
   18.30000        1.0602250E-07
   18.35000        1.1377740E-07
   18.40000        1.2166508E-07
   18.45000        1.2992446E-07
   18.50000        1.3885359E-07
   18.55000        1.4875768E-07
   18.60000        1.5989275E-07
   18.65000        1.7241605E-07
   18.70000        1.8635409E-07
   18.75000        2.0159692E-07
   18.80000        2.1792241E-07
   18.85000        2.3504833E-07
   18.90000        2.5270342E-07
   18.95000        2.7070300E-07
   19.00000        2.8901221E-07
   19.05000        3.0778088E-07
   19.10000        3.2733911E-07
   19.15000        3.4815073E-07
   19.20000        3.7073187E-07
   19.25000        3.9555189E-07
   19.30000        4.2293792E-07
   19.35000        4.5300723E-07
   19.40000        4.8564505E-07
   19.45000        5.2053662E-07
   19.50000        5.5724831E-07
   19.55000        5.9534170E-07
   19.60000        6.3449329E-07
   19.65000        6.7459246E-07
   19.70000        7.1579166E-07
   19.75000        7.5849539E-07
   19.80000        8.0328942E-07
   19.85000        8.5082593E-07
   19.90000        9.0169164E-07
   19.95000        9.5629218E-07
   20.00000        1.0147799E-06
   20.05000        1.0770447E-06
   20.10000        1.1427680E-06
   20.15000        1.2115278E-06
   20.20000        1.2829255E-06
   20.25000        1.3567059E-06
   20.30000        1.4328372E-06
   20.35000        1.5115334E-06
   20.40000        1.5932168E-06
   20.45000        1.6784295E-06
   20.50000        1.7677207E-06
   20.55000        1.8615387E-06
   20.60000        1.9601553E-06
   20.65000        2.0636385E-06
   20.70000        2.1718793E-06
   20.75000        2.2846602E-06
   20.80000        2.4017445E-06
   20.85000        2.5229606E-06
   20.90000        2.6482624E-06
   20.95000        2.7777455E-06
   21.00000        2.9116254E-06
   21.05000        3.0501844E-06
   21.10000        3.1937038E-06
   21.15000        3.3424030E-06
   21.20000        3.4964041E-06
   21.25000        3.6557246E-06
   21.30000        3.8203029E-06
   21.35000        3.9900378E-06
   21.40000        4.1648382E-06
   21.45000        4.3446544E-06
   21.50000        4.5294978E-06
   21.55000        4.7194299E-06
   21.60000        4.9145397E-06
   21.65000        5.1149095E-06
   21.70000        5.3205845E-06
   21.75000        5.5315591E-06
   21.80000        5.7477755E-06
   21.85000        5.9691374E-06
   21.90000        6.1955325E-06
   21.95000        6.4268506E-06
   22.00000        6.6629955E-06
   22.05000        6.9038774E-06
   22.10000        7.1494023E-06
   22.15000        7.3994502E-06
   22.20000        7.6538618E-06
   22.25000        7.9124338E-06
   22.30000        8.1749340E-06
   22.35000        8.4411204E-06
   22.40000        8.7107737E-06
   22.45000        8.9837249E-06
   22.50000        9.2598557E-06
   22.55000        9.5390906E-06
   22.60000        9.8213532E-06
   22.65000        1.0106522E-05
   22.70000        1.0394384E-05
   22.75000        1.0684595E-05
   22.80000        1.0976682E-05
   22.85000        1.1270067E-05
   22.90000        1.1564127E-05
   22.95000        1.1858263E-05
   23.00000        1.2151966E-05
   23.05000        1.2444859E-05
   23.10000        1.2736710E-05
   23.15000        1.3027402E-05
   23.20000        1.3316866E-05
   23.25000        1.3604996E-05
   23.30000        1.3891579E-05
   23.35000        1.4176244E-05
   23.40000        1.4458446E-05
   23.45000        1.4737504E-05
   23.50000        1.5012657E-05
   23.55000        1.5283149E-05
   23.60000        1.5548290E-05
   23.65000        1.5807513E-05
   23.70000        1.6060369E-05
   23.75000        1.6306512E-05
   23.80000        1.6545646E-05
   23.85000        1.6777465E-05
   23.90000        1.7001619E-05
   23.95000        1.7217686E-05
   24.00000        1.7425178E-05
   24.05000        1.7623579E-05
   24.10000        1.7812376E-05
   24.15000        1.7991084E-05
   24.20000        1.8159259E-05
   24.25000        1.8316487E-05
   24.30000        1.8462346E-05
   24.35000        1.8596393E-05
   24.40000        1.8718129E-05
   24.45000        1.8826999E-05
   24.50000        1.8922421E-05
   24.55000        1.9003834E-05
   24.60000        1.9070754E-05
   24.65000        1.9122843E-05
   24.70000        1.9159917E-05
   24.75000        1.9181949E-05
   24.80000        1.9189012E-05
   24.85000        1.9181196E-05
   24.90000        1.9158511E-05
   24.95000        1.9120809E-05
   25.00000        1.9067744E-05
   25.05000        1.8998786E-05
   25.10000        1.8913286E-05
   25.15000        1.8810586E-05
   25.20000        1.8690160E-05
   25.25000        1.8551711E-05
   25.30000        1.8395238E-05
   25.35000        1.8221017E-05
   25.40000        1.8029539E-05
   25.45000        1.7821389E-05
   25.50000        1.7597111E-05
   25.55000        1.7357086E-05
   25.60000        1.7101454E-05
   25.65000        1.6830118E-05
   25.70000        1.6542799E-05
   25.75000        1.6239157E-05
   25.80000        1.5918913E-05
   25.85000        1.5581965E-05
   25.90000        1.5228438E-05
   25.95000        1.4858713E-05
   26.00000        1.4473363E-05
   26.05000        1.4073072E-05
   26.10000        1.3658536E-05
   26.15000        1.3230359E-05
   26.20000        1.2789007E-05
   26.25000        1.2334793E-05
   26.30000        1.1867924E-05
   26.35000        1.1388571E-05
   26.40000        1.0896953E-05
   26.45000        1.0393411E-05
   26.50000        9.8784385E-06
   26.55000        9.3526687E-06
   26.60000        8.8168126E-06
   26.65000        8.2715878E-06
   26.70000        7.7176301E-06
   26.75000        7.1554491E-06
   26.80000        6.5854197E-06
   26.85000        6.0078160E-06
   26.90000        5.4228999E-06
   26.95000        4.8309980E-06
   27.00000        4.2325719E-06
   27.05000        3.6282509E-06
   27.10000        3.0188176E-06
   27.15000        2.4051478E-06
   27.20000        1.7881347E-06
   27.25000        1.1686056E-06
   27.30000        5.4726439E-07
   27.35000       -7.5340260E-08
   27.40000       -6.9880076E-07
   27.45000       -1.3228163E-06
   27.50000       -1.9471397E-06
   27.55000       -2.5715221E-06
   27.60000       -3.1956706E-06
   27.65000       -3.8192234E-06
   27.70000       -4.4417561E-06
   27.75000       -5.0627855E-06
   27.80000       -5.6817757E-06
   27.85000       -6.2981467E-06
   27.90000       -6.9112843E-06
   27.95000       -7.5205485E-06
   28.00000       -8.1253011E-06
   28.05000       -8.7249482E-06
   28.10000       -9.3189838E-06
   28.15000       -9.9070412E-06
   28.20000       -1.0488900E-05
   28.25000       -1.1064489E-05
   28.30000       -1.1633840E-05
   28.35000       -1.2197011E-05
   28.40000       -1.2754022E-05
   28.45000       -1.3304781E-05
   28.50000       -1.3849031E-05
   28.55000       -1.4386368E-05
   28.60000       -1.4916274E-05
   28.65000       -1.5438192E-05
   28.70000       -1.5951618E-05
   28.75000       -1.6456175E-05
   28.80000       -1.6951668E-05
   28.85000       -1.7438091E-05
   28.90000       -1.7915605E-05
   28.95000       -1.8384462E-05
   29.00000       -1.8844930E-05
   29.05000       -1.9297200E-05
   29.10000       -1.9741336E-05
   29.15000       -2.0177247E-05
   29.20000       -2.0604712E-05
   29.25000       -2.1023438E-05
   29.30000       -2.1433145E-05
   29.35000       -2.1833654E-05
   29.40000       -2.2224944E-05
   29.45000       -2.2607179E-05
   29.50000       -2.2980676E-05
   29.55000       -2.3345832E-05
   29.60000       -2.3703025E-05
   29.65000       -2.4052521E-05
   29.70000       -2.4394407E-05
   29.75000       -2.4728595E-05
   29.80000       -2.5054858E-05
   29.85000       -2.5372918E-05
   29.90000       -2.5682561E-05
   29.95000       -2.5983727E-05
   30.00000       -2.6276581E-05
   30.05000       -2.6561502E-05
   30.10000       -2.6839034E-05
   30.15000       -2.7109787E-05
   30.20000       -2.7374315E-05
   30.25000       -2.7633027E-05
   30.30000       -2.7886113E-05
   30.35000       -2.8133549E-05
   30.40000       -2.8375149E-05
   30.45000       -2.8610644E-05
   30.50000       -2.8839790E-05
   30.55000       -2.9062454E-05
   30.60000       -2.9278666E-05
   30.65000       -2.9488636E-05
   30.70000       -2.9692723E-05
   30.75000       -2.9891376E-05
   30.80000       -3.0085072E-05
   30.85000       -3.0274245E-05
   30.90000       -3.0459247E-05
   30.95000       -3.0640334E-05
   31.00000       -3.0817668E-05
   31.05000       -3.0991348E-05
   31.10000       -3.1161428E-05
   31.15000       -3.1327927E-05
   31.20000       -3.1490828E-05
   31.25000       -3.1650110E-05
   31.30000       -3.1805717E-05
   31.35000       -3.1957588E-05
   31.40000       -3.2105687E-05
   31.45000       -3.2250045E-05
   31.50000       -3.2390810E-05
   31.55000       -3.2528260E-05
   31.60000       -3.2662807E-05
   31.65000       -3.2794942E-05
   31.70000       -3.2925171E-05
   31.75000       -3.3053926E-05
   31.80000       -3.3181474E-05
   31.85000       -3.3307857E-05
   31.90000       -3.3432916E-05
   31.95000       -3.3556331E-05
   32.00000       -3.3677712E-05
   32.05000       -3.3796721E-05
   32.10000       -3.3913155E-05
   32.15000       -3.4027016E-05
   32.20000       -3.4138513E-05
   32.25000       -3.4248005E-05
   32.30000       -3.4355948E-05
   32.35000       -3.4462777E-05
   32.40000       -3.4568864E-05
   32.45000       -3.4674445E-05
   32.50000       -3.4779623E-05
   32.55000       -3.4884386E-05
   32.60000       -3.4988658E-05
   32.65000       -3.5092315E-05
   32.70000       -3.5195259E-05
   32.75000       -3.5297435E-05
   32.80000       -3.5398833E-05
   32.85000       -3.5499492E-05
   32.90000       -3.5599474E-05
   32.95000       -3.5698831E-05
   33.00000       -3.5797606E-05
   33.05000       -3.5895806E-05
   33.10000       -3.5993424E-05
   33.15000       -3.6090441E-05
   33.20000       -3.6186870E-05
   33.25000       -3.6282760E-05
   33.30000       -3.6378238E-05
   33.35000       -3.6473491E-05
   33.40000       -3.6568748E-05
   33.45000       -3.6664245E-05
   33.50000       -3.6760171E-05
   33.55000       -3.6856636E-05
   33.60000       -3.6953632E-05
   33.65000       -3.7051050E-05
   33.70000       -3.7148708E-05
   33.75000       -3.7246398E-05
   33.80000       -3.7343965E-05
   33.85000       -3.7441343E-05
   33.90000       -3.7538575E-05
   33.95000       -3.7635804E-05
   34.00000       -3.7733222E-05
   34.05000       -3.7831032E-05
   34.10000       -3.7929389E-05
   34.15000       -3.8028393E-05
   34.20000       -3.8128095E-05
   34.25000       -3.8228511E-05
   34.30000       -3.8329687E-05
   34.35000       -3.8431703E-05
   34.40000       -3.8534694E-05
   34.45000       -3.8638831E-05
   34.50000       -3.8744260E-05
   34.55000       -3.8851063E-05
   34.60000       -3.8959224E-05
   34.65000       -3.9068636E-05
   34.70000       -3.9179125E-05
   34.75000       -3.9290513E-05
   34.80000       -3.9402690E-05
   34.85000       -3.9515664E-05
   34.90000       -3.9629595E-05
   34.95000       -3.9744777E-05
   35.00000       -3.9861596E-05
   35.05000       -3.9980467E-05
   35.10000       -4.0101764E-05
   35.15000       -4.0225754E-05
   35.20000       -4.0352581E-05
   35.25000       -4.0482253E-05
   35.30000       -4.0614654E-05
   35.35000       -4.0749608E-05
   35.40000       -4.0886909E-05