  -10.00000        1.0000000E-24
  -9.950000        1.0000000E-24
  -9.900000        1.0000000E-24
  -9.850000        1.0000000E-24
  -9.800000        1.0000000E-24
  -9.750000        1.0000001E-24
  -9.700000        1.0000001E-24
  -9.650000        1.0000001E-24
  -9.600000        1.0000001E-24
  -9.550000        1.0000001E-24
  -9.500000        1.0000001E-24
  -9.450000        1.0000001E-24
  -9.400000        1.0000000E-24
  -9.350000        1.0000000E-24
  -9.300000        1.0000000E-24
  -9.250000        1.0000000E-24
  -9.200000        1.0000000E-24
  -9.150000        1.0000001E-24
  -9.100000        1.0000001E-24
  -9.050000        1.0000001E-24
  -9.000000        1.0000001E-24
  -8.950000        1.0000001E-24
  -8.900000        1.0000000E-24
  -8.850000        1.0000000E-24
  -8.800000        1.0000000E-24
  -8.750000        1.0000004E-24
  -8.700000        1.0000019E-24
  -8.650000        1.0000054E-24
  -8.600000        1.0000109E-24
  -8.550000        1.0000146E-24
  -8.500000        1.0000059E-24
  -8.450000        9.9996462E-25
  -8.400000        9.9986858E-25
  -8.350000        9.9971869E-25
  -8.300000        9.9958932E-25
  -8.250000        9.9968842E-25
  -8.200000        1.0003738E-24
  -8.150000        1.0020271E-24
  -8.100000        1.0046717E-24
  -8.050000        1.0073163E-24
  -8.000000        1.0072532E-24
  -7.950000        9.9994283E-25
  -7.900000        9.8048962E-25
  -7.850000        9.4763622E-25
  -7.800000        9.1019619E-25
  -7.750000        8.9355497E-25
  -7.700000        9.4076731E-25
  -7.650000        1.1004931E-24
  -7.600000        1.3954535E-24
  -7.550000        1.7732850E-24
  -7.500000        2.0575188E-24
  -7.450000        1.9356738E-24
  -7.400000        1.0328725E-24
  -7.350000       -8.9353220E-25
  -7.300000       -3.6543275E-24
  -7.250000       -6.3290366E-24
  -7.200000       -7.1696870E-24
  -7.150000       -3.9553963E-24
  -7.100000        5.0408381E-24
  -7.050000        1.9581056E-23
  -7.000000        3.6015129E-23
  -6.950000        4.6792970E-23
  -6.900000        4.1978760E-23
  -6.850000        1.3306487E-23
  -6.800000       -3.9931003E-23
  -6.750000       -1.0558422E-22
  -6.700000       -1.5774097E-22
  -6.650000       -1.6384449E-22
  -6.600000       -1.0068990E-22
  -6.550000        2.5319414E-23
  -6.500000        1.6472718E-22
  -6.450000        2.3316537E-22
  -6.400000        1.5205382E-22
  -6.350000       -8.1802490E-23
  -6.300000       -3.2539081E-22
  -6.250000       -2.6953577E-22
  -6.200000        4.6959241E-22
  -6.150000        2.1129301E-21
  -6.100000        4.3714403E-21
  -6.050000        6.1317707E-21
  -6.000000        5.4168597E-21
  -5.950000       -1.0989437E-22
  -5.900000       -1.1948839E-20
  -5.850000       -2.9034899E-20
  -5.800000       -4.6081754E-20
  -5.750000       -5.3038107E-20
  -5.700000       -3.6849290E-20
  -5.650000        1.3691699E-20
  -5.600000        1.0035760E-19
  -5.550000        2.0726130E-19
  -5.500000        2.9589967E-19
  -5.450000        3.0833806E-19
  -5.400000        1.8246596E-19
  -5.350000       -1.2030750E-19
  -5.300000       -5.8054586E-19
  -5.250000       -1.0919835E-18
  -5.200000       -1.4558440E-18
  -5.150000       -1.4150250E-18
  -5.100000       -7.3579985E-19
  -5.050000        6.7319236E-19
  -5.000000        2.6379265E-18
  -4.950000        4.6453144E-18
  -4.900000        5.8785840E-18
  -4.850000        5.4039188E-18
  -4.800000        2.5050983E-18
  -4.750000       -2.9038986E-18
  -4.700000       -9.9269449E-18
  -4.650000       -1.6573847E-17
  -4.600000       -2.0049720E-17
  -4.550000       -1.7510854E-17
  -4.500000       -7.1848147E-18
  -4.450000        1.0445674E-17
  -4.400000        3.1852667E-17
  -4.350000        5.0556237E-17
  -4.300000        5.8431112E-17
  -4.250000        4.8195281E-17
  -4.200000        1.6555165E-17
  -4.150000       -3.2989554E-17
  -4.100000       -8.8924497E-17
  -4.050000       -1.3315744E-16
  -4.000000       -1.4552152E-16
  -3.950000       -1.1067765E-16
  -3.900000       -2.5558093E-17
  -3.850000        9.5368942E-17
  -3.800000        2.1980171E-16
  -3.750000        3.0403721E-16
  -3.700000        3.0582252E-16
  -3.650000        2.0068470E-16
  -3.600000       -3.5112750E-18
  -3.550000       -2.5998152E-16
  -3.500000       -4.8940828E-16
  -3.450000       -6.0070190E-16
  -3.400000       -5.2231408E-16
  -3.350000       -2.3497583E-16
  -3.300000        2.0652441E-16
  -3.250000        6.7420180E-16
  -3.200000        9.9649530E-16
  -3.150000        1.0131463E-15
  -3.100000        6.4083114E-16
  -3.050000       -7.3345556E-17
  -3.000000       -9.3505121E-16
  -2.950000       -1.6395141E-15
  -2.900000       -1.8622489E-15
  -2.850000       -1.3827250E-15
  -2.800000       -2.0102920E-16
  -2.750000        1.4007680E-15
  -2.700000        2.8923024E-15
  -2.650000        3.6367372E-15
  -2.600000        3.1145759E-15
  -2.550000        1.1636819E-15
  -2.500000       -1.8547912E-15
  -2.450000       -5.0504793E-15
  -2.400000       -7.2044938E-15
  -2.350000       -7.1551253E-15
  -2.300000       -4.2689004E-15
  -2.250000        1.1627875E-15
  -2.200000        7.7754118E-15
  -2.150000        1.3356033E-14
  -2.100000        1.5455463E-14
  -2.050000        1.2258002E-14
  -2.000000        3.4467992E-15
  -1.950000       -9.2635115E-15
  -1.900000       -2.2214552E-14
  -1.850000       -3.0640882E-14
  -1.800000       -3.0137564E-14
  -1.750000       -1.8377290E-14
  -1.700000        3.4906236E-15
  -1.650000        3.0349072E-14
  -1.600000        5.3931323E-14
  -1.550000        6.4971669E-14
  -1.500000        5.6238004E-14
  -1.450000        2.5576568E-14
  -1.400000       -2.2102871E-14
  -1.350000       -7.4838532E-14
  -1.300000       -1.1606758E-13
  -1.250000       -1.2920444E-13
  -1.200000       -1.0323196E-13
  -1.150000       -3.7611482E-14
  -1.100000        5.5292149E-14
  -1.050000        1.5158792E-13
  -1.000000        2.2132571E-13
 -0.9500000        2.3702110E-13
 -0.9000000        1.8299424E-13
 -0.8500000        6.2603921E-14
 -0.8000000       -9.9358788E-14
 -0.7500000       -2.6073143E-13
 -0.7000000       -3.7226922E-13
 -0.6500000       -3.9187501E-13
 -0.6000000       -2.9884960E-13
 -0.5500000       -1.0363576E-13
 -0.5000000        1.5069795E-13
 -0.4500000        3.9689709E-13
 -0.4000000        5.6063514E-13
 -0.3500000        5.8214956E-13
 -0.3000000        4.3628989E-13
 -0.2500000        1.4459560E-13
 -0.2000000       -2.2527812E-13
 -0.1500000       -5.7411270E-13
 -0.1000000       -7.9684474E-13
 -5.0000001E-02   -8.1293663E-13
  0.0000000E+00   -5.9281036E-13
  5.0000001E-02   -1.7210189E-13
  0.1000000        3.5163666E-13
  0.1500000        8.4043796E-13
  0.2000000        1.1509953E-12
  0.2500000        1.1743985E-12
  0.3000000        8.6965580E-13
  0.3500000        2.8120849E-13
  0.4000000       -4.6543070E-13
  0.4500000       -1.1900315E-12
  0.5000000       -1.7001495E-12
  0.5500000       -1.8394329E-12
  0.6000000       -1.5296243E-12
  0.6500000       -7.9556115E-13
  0.7000000        2.3335834E-13
  0.7500000        1.3460986E-12
  0.8000000        2.2924874E-12
  0.8500000        2.8362388E-12
  0.9000000        2.8074940E-12
  0.9500000        2.1443355E-12
   1.000000        9.1511596E-13
   1.050000       -6.8310787E-13
   1.100000       -2.3510200E-12
   1.150000       -3.7358007E-12
   1.200000       -4.4963508E-12
   1.250000       -4.3759861E-12
   1.300000       -3.2706273E-12
   1.350000       -1.2781917E-12
   1.400000        1.2856260E-12
   1.450000        3.9173712E-12
   1.500000        6.0068782E-12
   1.550000        6.9633331E-12
   1.600000        6.3663966E-12
   1.650000        4.1092667E-12
   1.700000        4.9280697E-13
   1.750000       -3.7680349E-12
   1.800000       -7.6496760E-12
   1.850000       -1.0035090E-11
   1.900000       -1.0003663E-11
   1.950000       -7.1296341E-12
   2.000000       -1.7044623E-12
   2.050000        5.1988366E-12
   2.100000        1.1872847E-11
   2.150000        1.6336701E-11
   2.200000        1.6849929E-11
   2.250000        1.2460172E-11
   2.300000        3.4315944E-12
   2.350000       -8.5941523E-12
   2.400000       -2.0802086E-11
   2.450000       -2.9781830E-11
   2.500000       -3.2380227E-11
   2.550000       -2.6632061E-11
   2.600000       -1.2516113E-11
   2.650000        7.7076418E-12
   2.700000        2.9742625E-11
   2.750000        4.8103792E-11
   2.800000        5.7422220E-11
   2.850000        5.3908277E-11
   2.900000        3.6588829E-11
   2.950000        7.9455860E-12
   3.000000       -2.6298920E-11
   3.050000       -5.8294883E-11
   3.100000       -7.9880672E-11
   3.150000       -8.4684849E-11
   3.200000       -6.9974047E-11
   3.250000       -3.7718495E-11
   3.300000        5.4912637E-12
   3.350000        4.9763273E-11
   3.400000        8.4214614E-11
   3.450000        9.9736081E-11
   3.500000        9.1503478E-11
   3.550000        6.0539081E-11
   3.600000        1.3830595E-11
   3.650000       -3.7129865E-11
   3.700000       -7.9105091E-11
   3.750000       -1.0051780E-10
   3.800000       -9.4630720E-11
   3.850000       -6.1636772E-11
   3.900000       -9.0351433E-12
   3.950000        4.9907911E-11
   4.000000        9.9314328E-11
   4.050000        1.2472144E-10
   4.100000        1.1697016E-10
   4.150000        7.4932713E-11
   4.200000        6.3190538E-12
   4.250000       -7.3731292E-11
   4.300000       -1.4600467E-10
   4.350000       -1.9174355E-10
   4.400000       -1.9726085E-10
   4.450000       -1.5750148E-10
   4.500000       -7.7656236E-11
   4.550000        2.7601631E-11
   4.600000        1.3711174E-10
   4.650000        2.2777411E-10
   4.700000        2.7960420E-10
   4.750000        2.8014263E-10
   4.800000        2.2723301E-10
   4.850000        1.2957324E-10
   4.900000        4.9576636E-12
   4.950000       -1.2336415E-10
   5.000000       -2.3139708E-10
   5.050000       -2.9917449E-10
   5.100000       -3.1462594E-10
   5.150000       -2.7579802E-10
   5.200000       -1.9104843E-10
   5.250000       -7.7240263E-11
   5.300000        4.3665203E-11
   5.350000        1.4894269E-10
   5.400000        2.1954415E-10
   5.450000        2.4382155E-10
   5.500000        2.1983047E-10
   5.550000        1.5574839E-10
   5.600000        6.8258288E-11
   5.650000       -2.0888827E-11
   5.700000       -8.9557521E-11
   5.750000       -1.2028006E-10
   5.800000       -1.0462561E-10
   5.850000       -4.5850240E-11
   5.900000        4.0963212E-11
   5.950000        1.3159972E-10
   6.000000        1.9794030E-10
   6.050000        2.1476582E-10
   6.100000        1.6665108E-10
   6.150000        5.3229442E-11
   6.200000       -1.0871747E-10
   6.250000       -2.8728342E-10
   6.300000       -4.4156956E-10
   6.350000       -5.3084348E-10
   6.400000       -5.2471233E-10
   6.450000       -4.1178941E-10
   6.500000       -2.0444352E-10
   6.550000        6.1999773E-11
   6.600000        3.3592401E-10
   6.650000        5.6073585E-10
   6.700000        6.8824813E-10
   6.750000        6.9077150E-10
   6.800000        5.6863014E-10
   6.850000        3.5080838E-10
   6.900000        8.8151153E-11
   6.950000       -1.5945092E-10
   7.000000       -3.3869596E-10
   7.050000       -4.1713979E-10
   7.100000       -3.9204107E-10
   7.150000       -2.9101552E-10
   7.200000       -1.6390624E-10
   7.250000       -6.7766792E-11
   7.300000       -4.8962584E-11
   7.350000       -1.2748334E-10
   7.400000       -2.8823927E-10
   7.450000       -4.8237964E-10
   7.500000       -6.3893901E-10
   7.550000       -6.8411060E-10
   7.600000       -5.6303201E-10
   7.650000       -2.5788666E-10
   7.700000        2.0322014E-10
   7.750000        7.4984502E-10
   7.800000        1.2850941E-09
   7.850000        1.7101025E-09
   7.900000        1.9507056E-09
   7.950000        1.9788962E-09
   8.000000        1.8227346E-09
   8.050000        1.5613191E-09
   8.100000        1.3054844E-09
   8.150000        1.1689619E-09
   8.200000        1.2376333E-09
   8.250000        1.5453703E-09
   8.300000        2.0634345E-09
   8.350000        2.7068752E-09
   8.400000        3.3567220E-09
   8.450000        3.8923393E-09
   8.500000        4.2253143E-09
   8.550000        4.3256119E-09
   8.600000        4.2326600E-09
   8.650000        4.0480295E-09
   8.700000        3.9113739E-09
   8.750000        3.9658823E-09
   8.800000        4.3223949E-09
   8.850000        5.0317217E-09
   8.900000        6.0724816E-09
   8.950000        7.3575541E-09
   9.000000        8.7572367E-09
   9.050000        1.0132784E-08
   9.100000        1.1371442E-08
   9.150000        1.2413944E-08
   9.200000        1.3267837E-08
   9.250000        1.4003993E-08
   9.300000        1.4738266E-08
   9.350000        1.5603987E-08
   9.400000        1.6722973E-08
   9.450000        1.8182458E-08
   9.500000        2.0023073E-08
   9.550000        2.2239472E-08
   9.600000        2.4791659E-08
   9.650000        2.7622397E-08
   9.700000        3.0675135E-08
   9.750000        3.3907650E-08
   9.800000        3.7298868E-08
   9.850000        4.0848860E-08
   9.900000        4.4574413E-08
   9.950000        4.8503562E-08
   10.00000        5.2672117E-08
   10.05000        5.7123675E-08
   10.10000        6.1912452E-08
   10.15000        6.7106569E-08
   10.20000        7.2788495E-08
   10.25000        7.9050352E-08
   10.30000        8.5983331E-08
   10.35000        9.3663218E-08
   10.40000        1.0213616E-07
   10.45000        1.1140969E-07
   10.50000        1.2145331E-07
   10.55000        1.3221067E-07
   10.60000        1.4362178E-07
   10.65000        1.5565027E-07
   10.70000        1.6830853E-07
   10.75000        1.8167334E-07
   10.80000        1.9588640E-07
   10.85000        2.1113850E-07
   10.90000        2.2764051E-07
   10.95000        2.4558844E-07
   11.00000        2.6513214E-07
   11.05000        2.8635696E-07
   11.10000        3.0928376E-07
   11.15000        3.3388773E-07
   11.20000        3.6013159E-07
   11.25000        3.8800323E-07
   11.30000        4.1754714E-07
   11.35000        4.4888012E-07
   11.40000        4.8218658E-07
   11.45000        5.1769490E-07
   11.50000        5.5564192E-07
   11.55000        5.9623687E-07
   11.60000        6.3963608E-07
   11.65000        6.8593772E-07
   11.70000        7.3519715E-07
   11.75000        7.8745984E-07
   11.80000        8.4280032E-07
   11.85000        9.0135461E-07
   11.90000        9.6333520E-07
   11.95000        1.0290212E-06
   12.00000        1.0987272E-06
   12.05000        1.1727591E-06
   12.10000        1.2513702E-06
   12.15000        1.3347354E-06
   12.20000        1.4229495E-06
   12.25000        1.5160552E-06
   12.30000        1.6140947E-06
   12.35000        1.7171654E-06
   12.40000        1.8254678E-06
   12.45000        1.9393260E-06
   12.50000        2.0591726E-06
   12.55000        2.1855021E-06
   12.60000        2.3188011E-06
   12.65000        2.4594797E-06
   12.70000        2.6078208E-06
   12.75000        2.7639674E-06
   12.80000        2.9279499E-06
   12.85000        3.0997496E-06
   12.90000        3.2793796E-06
   12.95000        3.4669597E-06
   13.00000        3.6627630E-06
   13.05000        3.8672219E-06
   13.10000        4.0808827E-06
   13.15000        4.3043347E-06
   13.20000        4.5381180E-06
   13.25000        4.7826506E-06
   13.30000        5.0381877E-06
   13.35000        5.3048257E-06
   13.40000        5.5825540E-06
   13.45000        5.8713354E-06
   13.50000        6.1711939E-06
   13.55000        6.4822834E-06
   13.60000        6.8049162E-06
   13.65000        7.1395452E-06
   13.70000        7.4867066E-06
   13.75000        7.8469357E-06
   13.80000        8.2206852E-06
   13.85000        8.6082628E-06
   13.90000        9.0098092E-06
   13.95000        9.4253246E-06
   14.00000        9.8547252E-06
   14.05000        1.0297917E-05
   14.10000        1.0754874E-05
   14.15000        1.1225673E-05
   14.20000        1.1710515E-05
   14.25000        1.2209683E-05
   14.30000        1.2723488E-05
   14.35000        1.3252199E-05
   14.40000        1.3795979E-05
   14.45000        1.4354856E-05
   14.50000        1.4928718E-05
   14.55000        1.5517347E-05
   14.60000        1.6120477E-05
   14.65000        1.6737849E-05
   14.70000        1.7369252E-05
   14.75000        1.8014558E-05
   14.80000        1.8673696E-05
   14.85000        1.9346628E-05
   14.90000        2.0033282E-05
   14.95000        2.0733525E-05
   15.00000        2.1447111E-05
   15.05000        2.2173692E-05
   15.10000        2.2912829E-05
   15.15000        2.3664028E-05
   15.20000        2.4426792E-05
   15.25000        2.5200645E-05
   15.30000        2.5985146E-05
   15.35000        2.6779875E-05
   15.40000        2.7584400E-05
   15.45000        2.8398223E-05
   15.50000        2.9220761E-05
   15.55000        3.0051313E-05
   15.60000        3.0889085E-05
   15.65000        3.1733220E-05
   15.70000        3.2582859E-05
   15.75000        3.3437187E-05
   15.80000        3.4295470E-05
   15.85000        3.5157056E-05
   15.90000        3.6021338E-05
   15.95000        3.6887686E-05
   16.00000        3.7755399E-05
   16.05000        3.8623617E-05
   16.10000        3.9491319E-05
   16.15000        4.0357339E-05
   16.20000        4.1220410E-05
   16.25000        4.2079257E-05
   16.30000        4.2932676E-05
   16.35000        4.3779608E-05
   16.40000        4.4619137E-05
   16.45000        4.5450481E-05
   16.50000        4.6272922E-05
   16.55000        4.7085716E-05
   16.60000        4.7888007E-05
   16.65000        4.8678798E-05
   16.70000        4.9456932E-05
   16.75000        5.0221126E-05
   16.80000        5.0970059E-05
   16.85000        5.1702456E-05
   16.90000        5.2417156E-05
   16.95000        5.3113130E-05
   17.00000        5.3789521E-05
   17.05000        5.4445569E-05
   17.10000        5.5080556E-05
   17.15000        5.5693748E-05
   17.20000        5.6284345E-05
   17.25000        5.6851470E-05
   17.30000        5.7394187E-05
   17.35000        5.7911544E-05
   17.40000        5.8402627E-05
   17.45000        5.8866612E-05
   17.50000        5.9302776E-05
   17.55000        5.9710510E-05
   17.60000        6.0089293E-05
   17.65000        6.0438641E-05
   17.70000        6.0758099E-05
   17.75000        6.1047183E-05
   17.80000        6.1305385E-05
   17.85000        6.1532199E-05
   17.90000        6.1727122E-05
   17.95000        6.1889732E-05
   18.00000        6.2019702E-05
   18.05000        6.2116793E-05
   18.10000        6.2180909E-05
   18.15000        6.2212057E-05
   18.20000        6.2210340E-05
   18.25000        6.2175903E-05
   18.30000        6.2108920E-05
   18.35000        6.2009560E-05
   18.40000        6.1877960E-05
   18.45000        6.1714243E-05
   18.50000        6.1518542E-05
   18.55000        6.1290986E-05
   18.60000        6.1031777E-05
   18.65000        6.0741175E-05
   18.70000        6.0419577E-05
   18.75000        6.0067490E-05
   18.80000        5.9685543E-05
   18.85000        5.9274469E-05
   18.90000        5.8835063E-05
   18.95000        5.8368154E-05
   19.00000        5.7874582E-05
   19.05000        5.7355137E-05
   19.10000        5.6810582E-05
   19.15000        5.6241664E-05
   19.20000        5.5649100E-05
   19.25000        5.5033626E-05
   19.30000        5.4396020E-05
   19.35000        5.3737109E-05
   19.40000        5.3057785E-05
   19.45000        5.2359002E-05
   19.50000        5.1641749E-05
   19.55000        5.0907041E-05
   19.60000        5.0155926E-05
   19.65000        4.9389451E-05
   19.70000        4.8608679E-05
   19.75000        4.7814701E-05
   19.80000        4.7008631E-05
   19.85000        4.6191606E-05
   19.90000        4.5364766E-05
   19.95000        4.4529232E-05
   20.00000        4.3686072E-05
   20.05000        4.2836273E-05
   20.10000        4.1980737E-05
   20.15000        4.1120285E-05
   20.20000        4.0255676E-05
   20.25000        3.9387662E-05
   20.30000        3.8517035E-05
   20.35000        3.7644673E-05
   20.40000        3.6771562E-05
   20.45000        3.5898785E-05
   20.50000        3.5027497E-05
   20.55000        3.4158857E-05
   20.60000        3.3293956E-05
   20.65000        3.2433782E-05
   20.70000        3.1579155E-05
   20.75000        3.0730731E-05
   20.80000        2.9889032E-05
   20.85000        2.9054485E-05
   20.90000        2.8227500E-05
   20.95000        2.7408509E-05
   21.00000        2.6598020E-05
   21.05000        2.5796602E-05
   21.10000        2.5004891E-05
   21.15000        2.4223542E-05
   21.20000        2.3453189E-05
   21.25000        2.2694419E-05
   21.30000        2.1947752E-05
   21.35000        2.1213627E-05
   21.40000        2.0492431E-05
   21.45000        1.9784489E-05
   21.50000        1.9090090E-05
   21.55000        1.8409477E-05
   21.60000        1.7742843E-05
   21.65000        1.7090320E-05
   21.70000        1.6451984E-05
   21.75000        1.5827854E-05
   21.80000        1.5217928E-05
   21.85000        1.4622207E-05
   21.90000        1.4040739E-05
   21.95000        1.3473625E-05
   22.00000        1.2921021E-05
   22.05000        1.2383110E-05
   22.10000        1.1860053E-05
   22.15000        1.1351946E-05
   22.20000        1.0858779E-05
   22.25000        1.0380417E-05
   22.30000        9.9166227E-06
   22.35000        9.4670950E-06
   22.40000        9.0315189E-06
   22.45000        8.6096152E-06
   22.50000        8.2011711E-06
   22.55000        7.8060430E-06
   22.60000        7.4241361E-06
   22.65000        7.0553747E-06
   22.70000        6.6996622E-06
   22.75000        6.3568618E-06
   22.80000        6.0267880E-06
   22.85000        5.7092175E-06
   22.90000        5.4039060E-06
   22.95000        5.1106008E-06
   23.00000        4.8290426E-06
   23.05000        4.5589568E-06
   23.10000        4.3000341E-06
   23.15000        4.0519217E-06
   23.20000        3.8142273E-06
   23.25000        3.5865414E-06
   23.30000        3.3684805E-06
   23.35000        3.1597312E-06
   23.40000        2.9600828E-06
   23.45000        2.7694286E-06
   23.50000        2.5877378E-06
   23.55000        2.4149945E-06
   23.60000        2.2511269E-06
   23.65000        2.0959505E-06
   23.70000        1.9491390E-06
   23.75000        1.8102425E-06
   23.80000        1.6787430E-06
   23.85000        1.5541334E-06
   23.90000        1.4359921E-06
   23.95000        1.3240317E-06
   24.00000        1.2181032E-06
   24.05000        1.1181573E-06
   24.10000        1.0241799E-06
   24.15000        9.3612130E-07
   24.20000        8.5384556E-07
   24.25000        7.7711690E-07
   24.30000        7.0562288E-07
   24.35000        6.3902604E-07
   24.40000        5.7701897E-07
   24.45000        5.1936541E-07
   24.50000        4.6591245E-07
   24.55000        4.1657211E-07
   24.60000        3.7128308E-07
   24.65000        3.2996982E-07
   24.70000        2.9251538E-07
   24.75000        2.5875769E-07
   24.80000        2.2850637E-07
   24.85000        2.0156972E-07
   24.90000        1.7777695E-07
   24.95000        1.5698400E-07
   25.00000        1.3906023E-07
   25.05000        1.2386440E-07
   25.10000        1.1122355E-07
   25.15000        1.0092982E-07
   25.20000        9.2761653E-08
   25.25000        8.6524722E-08
   25.30000        8.2098083E-08
   25.35000        7.9463085E-08
   25.40000        7.8699181E-08
   25.45000        7.9942922E-08
   25.50000        8.3317488E-08
   25.55000        8.8857647E-08
   25.60000        9.6458194E-08
   25.65000        1.0586785E-07
   25.70000        1.1673511E-07
   25.75000        1.2869346E-07
   25.80000        1.4145640E-07
   25.85000        1.5488860E-07
   25.90000        1.6902480E-07
   25.95000        1.8402709E-07
   26.00000        2.0009439E-07
   26.05000        2.1735691E-07
   26.10000        2.3579373E-07
   26.15000        2.5520708E-07
   26.20000        2.7526488E-07
   26.25000        2.9559712E-07
   26.30000        3.1591210E-07
   26.35000        3.3608791E-07
   26.40000        3.5620434E-07
   26.45000        3.7649980E-07
   26.50000        3.9726655E-07
   26.55000        4.1872053E-07
   26.60000        4.4089271E-07
   26.65000        4.6358281E-07
   26.70000        4.8639328E-07
   26.75000        5.0883204E-07
   26.80000        5.3044971E-07
   26.85000        5.5096064E-07
   26.90000        5.7030718E-07
   26.95000        5.8864396E-07
   27.00000        6.0624836E-07
   27.05000        6.2339160E-07
   27.10000        6.4021839E-07
   27.15000        6.5667479E-07
   27.20000        6.7251170E-07
   27.25000        6.8735710E-07
   27.30000        7.0082831E-07
   27.35000        7.1264060E-07
   27.40000        7.2267022E-07
   27.45000        7.3095083E-07
   27.50000        7.3760674E-07
   27.55000        7.4275175E-07
   27.60000        7.4639320E-07
   27.65000        7.4838147E-07
   27.70000        7.4842399E-07
   27.75000        7.4615730E-07
   27.80000        7.4125040E-07
   27.85000        7.3349764E-07
   27.90000        7.2286480E-07
   27.95000        7.0947016E-07
   28.00000        6.9350489E-07
   28.05000        6.7512366E-07
   28.10000        6.5434563E-07
   28.15000        6.3100157E-07
   28.20000        6.0474775E-07
   28.25000        5.7513984E-07
   28.30000        5.4174137E-07
   28.35000        5.0422773E-07
   28.40000        4.6244855E-07
   28.45000        4.1642934E-07
   28.50000        3.6631579E-07
   28.55000        3.1228271E-07
   28.60000        2.5444331E-07
   28.65000        1.9278902E-07
   28.70000        1.2717966E-07
   28.75000        5.7380955E-08
   28.80000       -1.6870317E-08
   28.85000       -9.5801532E-08
   28.90000       -1.7956636E-07
   28.95000       -2.6824429E-07
   29.00000       -3.6187441E-07
   29.05000       -4.6050243E-07
   29.10000       -5.6421703E-07
   29.15000       -6.7315614E-07
   29.20000       -7.8747911E-07
   29.25000       -9.0731623E-07
   29.30000       -1.0327190E-06
   29.35000       -1.1636339E-06
   29.40000       -1.2999186E-06
   29.45000       -1.4413957E-06
   29.50000       -1.5879282E-06
   29.55000       -1.7394859E-06
   29.60000       -1.8961773E-06
   29.65000       -2.0582290E-06
   29.70000       -2.2259187E-06
   29.75000       -2.3994821E-06
   29.80000       -2.5790305E-06
   29.85000       -2.7645092E-06
   29.90000       -2.9557141E-06
   29.95000       -3.1523600E-06
   30.00000       -3.3541805E-06
   30.05000       -3.5610165E-06
   30.10000       -3.7728626E-06
   30.15000       -3.9898514E-06
   30.20000       -4.2121815E-06
   30.25000       -4.4400126E-06
   30.30000       -4.6733712E-06
   30.35000       -4.9121004E-06
   30.40000       -5.1558786E-06
   30.45000       -5.4042930E-06
   30.50000       -5.6569565E-06
   30.55000       -5.9136064E-06
   30.60000       -6.1741644E-06
   30.65000       -6.4387236E-06
   30.70000       -6.7074757E-06
   30.75000       -6.9805969E-06
   30.80000       -7.2581429E-06
   30.85000       -7.5399835E-06
   30.90000       -7.8258063E-06
   30.95000       -8.1151820E-06
   31.00000       -8.4076701E-06
   31.05000       -8.7029221E-06
   31.10000       -9.0007379E-06
   31.15000       -9.3010694E-06
   31.20000       -9.6039621E-06
   31.25000       -9.9094614E-06
   31.30000       -1.0217535E-05
   31.35000       -1.0528019E-05
   31.40000       -1.0840630E-05
   31.45000       -1.1155031E-05
   31.50000       -1.1470906E-05
   31.55000       -1.1788034E-05
   31.60000       -1.2106317E-05
   31.65000       -1.2425755E-05
   31.70000       -1.2746375E-05
   31.75000       -1.3068155E-05
   31.80000       -1.3390957E-05
   31.85000       -1.3714529E-05
   31.90000       -1.4038540E-05
   31.95000       -1.4362666E-05
   32.00000       -1.4686672E-05
   32.05000       -1.5010468E-05
   32.10000       -1.5334092E-05
   32.15000       -1.5657657E-05
   32.20000       -1.5981250E-05
   32.25000       -1.6304859E-05
   32.30000       -1.6628324E-05
   32.35000       -1.6951371E-05
   32.40000       -1.7273685E-05
   32.45000       -1.7595024E-05
   32.50000       -1.7915316E-05
   32.55000       -1.8234674E-05
   32.60000       -1.8553354E-05
   32.65000       -1.8871649E-05
   32.70000       -1.9189769E-05
   32.75000       -1.9507728E-05
   32.80000       -1.9825336E-05
   32.85000       -2.0142259E-05
   32.90000       -2.0458141E-05
   32.95000       -2.0772766E-05
   33.00000       -2.1086151E-05
   33.05000       -2.1398575E-05
   33.10000       -2.1710493E-05
   33.15000       -2.2022396E-05
   33.20000       -2.2334641E-05
   33.25000       -2.2647338E-05
   33.30000       -2.2960332E-05
   33.35000       -2.3273284E-05
   33.40000       -2.3585842E-05
   33.45000       -2.3897810E-05
   33.50000       -2.4209265E-05
   33.55000       -2.4520565E-05
   33.60000       -2.4832263E-05
   33.65000       -2.5144918E-05
   33.70000       -2.5458925E-05
   33.75000       -2.5774381E-05
   33.80000       -2.6091100E-05
   33.85000       -2.6408698E-05
   33.90000       -2.6726801E-05
   33.95000       -2.7045213E-05
   34.00000       -2.7364031E-05
   34.05000       -2.7683640E-05
   34.10000       -2.8004581E-05
   34.15000       -2.8327360E-05
   34.20000       -2.8652252E-05
   34.25000       -2.8979202E-05
   34.30000       -2.9307859E-05
   34.35000       -2.9637709E-05
   34.40000       -2.9968292E-05
   34.45000       -3.0299396E-05
   34.50000       -3.0631138E-05
   34.55000       -3.0963933E-05
   34.60000       -3.1298299E-05
   34.65000       -3.1634641E-05
   34.70000       -3.1973042E-05
   34.75000       -3.2313161E-05
   34.80000       -3.2654301E-05
   34.85000       -3.2995616E-05
   34.90000       -3.3336346E-05
   34.95000       -3.3676035E-05
   35.00000       -3.4014636E-05
   35.05000       -3.4352452E-05
   35.10000       -3.4689900E-05
   35.15000       -3.5027278E-05
   35.20000       -3.5364545E-05
   35.25000       -3.5701192E-05
   35.30000       -3.6036348E-05
   35.35000       -3.6368965E-05
   35.40000       -3.6698086E-05