  -3.000000      1.0000000E-24
  -2.992500      1.0000000E-24
  -2.985000      1.0000000E-24
  -2.977500      1.0000000E-24
  -2.970000      1.0000000E-24
  -2.962500      1.0000000E-24
  -2.955000      1.0000000E-24
  -2.947500      1.0000000E-24
  -2.940000      1.0000000E-24
  -2.932500      1.0000000E-24
  -2.925000      1.0000000E-24
  -2.917500      1.0000000E-24
  -2.910000      1.0000000E-24
  -2.902500      1.0000000E-24
  -2.895000      1.0000000E-24
  -2.887500      1.0000000E-24
  -2.880000      1.0000000E-24
  -2.872500      1.0000000E-24
  -2.865000      1.0000000E-24
  -2.857500      1.0000000E-24
  -2.850000      1.0000000E-24
  -2.842500      1.0000000E-24
  -2.835000      1.0000000E-24
  -2.827500      1.0000000E-24
  -2.820000      1.0000000E-24
  -2.812500      1.0000000E-24
  -2.805000      1.0000000E-24
  -2.797500      1.0000000E-24
  -2.790000      1.0000000E-24
  -2.782500      1.0000000E-24
  -2.775000      1.0000000E-24
  -2.767500      1.0000000E-24
  -2.760000      1.0000000E-24
  -2.752500      1.0000000E-24
  -2.745000      1.0000000E-24
  -2.737500      1.0000000E-24
  -2.730000      1.0000000E-24
  -2.722500      1.0000000E-24
  -2.715000      1.0000000E-24
  -2.707500      1.0000000E-24
  -2.700000      1.0000000E-24
  -2.692500      1.0000000E-24
  -2.685000      1.0000000E-24
  -2.677500      1.0000000E-24
  -2.670000      1.0000000E-24
  -2.662500      1.0000000E-24
  -2.655000      1.0000000E-24
  -2.647500      1.0000001E-24
  -2.640000      1.0000001E-24
  -2.632500      1.0000001E-24
  -2.625000      1.0000001E-24
  -2.617500      1.0000001E-24
  -2.610000      1.0000001E-24
  -2.602500      1.0000001E-24
  -2.595000      1.0000000E-24
  -2.587500      9.9999992E-25
  -2.580000      9.9999982E-25
  -2.572500      9.9999982E-25
  -2.565000      9.9999982E-25
  -2.557500      9.9999982E-25
  -2.550000      9.9999982E-25
  -2.542500      9.9999972E-25
  -2.535000      9.9999982E-25
  -2.527500      1.0000000E-24
  -2.520000      1.0000003E-24
  -2.512500      1.0000007E-24
  -2.505000      1.0000013E-24
  -2.497500      1.0000018E-24
  -2.490000      1.0000022E-24
  -2.482500      1.0000023E-24
  -2.475000      1.0000017E-24
  -2.467500      1.0000003E-24
  -2.460000      9.9999775E-25
  -2.452500      9.9999410E-25
  -2.445000      9.9998947E-25
  -2.437500      9.9998454E-25
  -2.430000      9.9998000E-25
  -2.422500      9.9997734E-25
  -2.415000      9.9997793E-25
  -2.407500      9.9998326E-25
  -2.400000      9.9999460E-25
  -2.392500      1.0000121E-24
  -2.385000      1.0000350E-24
  -2.377500      1.0000611E-24
  -2.370000      1.0000868E-24
  -2.362500      1.0001076E-24
  -2.355000      1.0001191E-24
  -2.347500      1.0001177E-24
  -2.340000      1.0001018E-24
  -2.332500      1.0000729E-24
  -2.325000      1.0000359E-24
  -2.317500      9.9999746E-25
  -2.310000      9.9996413E-25
  -2.302500      9.9993878E-25
  -2.295000      9.9991630E-25
  -2.287500      9.9987992E-25
  -2.280000      9.9979916E-25
  -2.272500      9.9963290E-25
  -2.265000      9.9933639E-25
  -2.257500      9.9887609E-25
  -2.250000      9.9825003E-25
  -2.242500      9.9751146E-25
  -2.235000      9.9679143E-25
  -2.227500      9.9631377E-25
  -2.220000      9.9639128E-25
  -2.212500      9.9739964E-25
  -2.205000      9.9971741E-25
  -2.197500      1.0036352E-24
  -2.190000      1.0092363E-24
  -2.182500      1.0162666E-24
  -2.175000      1.0240147E-24
  -2.167500      1.0312385E-24
  -2.160000      1.0361708E-24
  -2.152500      1.0366428E-24
  -2.145000      1.0303465E-24
  -2.137500      1.0152413E-24
  -2.130000      9.9008147E-25
  -2.122500      9.5500458E-25
  -2.115000      9.1208926E-25
  -2.107500      8.6575660E-25
  -2.100000      8.2287999E-25
  -2.092500      7.9247029E-25
  -2.085000      7.8484136E-25
  -2.077500      8.1022641E-25
  -2.070000      8.7690843E-25
  -2.062500      9.8904491E-25
  -2.055000      1.1444792E-24
  -2.047500      1.3329359E-24
  -2.040000      1.5350496E-24
  -2.032500      1.7226705E-24
  -2.025000      1.8607990E-24
  -2.017500      1.9113122E-24
  -2.010000      1.8383770E-24
  -2.002500      1.6151151E-24
  -1.995000      1.2307304E-24
  -1.987500      6.9700569E-25
  -1.980000      5.2874339E-26
  -1.972500     -6.3425802E-25
  -1.965000     -1.2715619E-24
  -1.957500     -1.7488772E-24
  -1.950000     -1.9518312E-24
  -1.942500     -1.7790963E-24
  -1.935000     -1.1619653E-24
  -1.927500     -8.3545504E-26
  -1.920000      1.4057316E-24
  -1.912500      3.1798046E-24
  -1.905000      5.0390336E-24
  -1.897500      6.7247876E-24
  -1.890000      7.9471410E-24
  -1.882500      8.4241573E-24
  -1.875000      7.9289404E-24
  -1.867500      6.3383585E-24
  -1.860000      3.6757005E-24
  -1.852500      1.3867783E-25
  -1.845000     -3.8952646E-24
  -1.837500     -7.8923885E-24
  -1.830000     -1.1217422E-23
  -1.822500     -1.3217456E-23
  -1.815000     -1.3327325E-23
  -1.807500     -1.1183421E-23
  -1.800000     -6.7284361E-24
  -1.792500     -2.8708645E-25
  -1.785000      7.4067752E-24
  -1.777500      1.5247413E-23
  -1.770000      2.1867257E-23
  -1.762500      2.5817625E-23
  -1.755000      2.5805450E-23
  -1.747500      2.0958352E-23
  -1.740000      1.1079037E-23
  -1.732500     -3.1573245E-24
  -1.725000     -2.0110306E-23
  -1.717500     -3.7227170E-23
  -1.710000     -5.1267682E-23
  -1.702500     -5.8704195E-23
  -1.695000     -5.6271638E-23
  -1.687500     -4.1610731E-23
  -1.680000     -1.3918567E-23
  -1.672500      2.5501193E-23
  -1.665000      7.2905704E-23
  -1.657500      1.2210733E-22
  -1.650000      1.6487698E-22
  -1.642500      1.9179144E-22
  -1.635000      1.9349565E-22
  -1.627500      1.6227682E-22
  -1.620000      9.3772401E-23
  -1.612500     -1.1429952E-23
  -1.605000     -1.4658260E-22
  -1.597500     -2.9824594E-22
  -1.590000     -4.4668263E-22
  -1.582500     -5.6733983E-22
  -1.575000     -6.3345187E-22
  -1.567500     -6.1962729E-22
  -1.560000     -5.0610650E-22
  -1.552500     -2.8319821E-22
  -1.545000      4.4731285E-23
  -1.537500      4.5641927E-22
  -1.530000      9.1270424E-22
  -1.522500      1.3579273E-21
  -1.515000      1.7240774E-21
  -1.507500      1.9376936E-21
  -1.500000      1.9291425E-21
  -1.492500      1.6434685E-21
  -1.485000      1.0516254E-21
  -1.477500      1.6058749E-22
  -1.470000     -9.7930410E-22
  -1.462500     -2.2713643E-21
  -1.455000     -3.5752818E-21
  -1.447500     -4.7163544E-21
  -1.440000     -5.5013391E-21
  -1.432500     -5.7401682E-21
  -1.425000     -5.2718502E-21
  -1.417500     -3.9920140E-21
  -1.410000     -1.8788582E-21
  -1.402500      9.8614197E-22
  -1.395000      4.4064319E-21
  -1.387500      8.0707156E-21
  -1.380000      1.1567760E-20
  -1.372500      1.4416653E-20
  -1.365000      1.6111826E-20
  -1.357500      1.6180223E-20
  -1.350000      1.4246155E-20
  -1.342500      1.0097554E-20
  -1.335000      3.7461495E-21
  -1.327500     -4.5267156E-21
  -1.320000     -1.4146738E-20
  -1.312500     -2.4252908E-20
  -1.305000     -3.3738516E-20
  -1.297500     -4.1329223E-20
  -1.290000     -4.5696733E-20
  -1.282500     -4.5602538E-20
  -1.275000     -4.0061604E-20
  -1.267500     -2.8511656E-20
  -1.260000     -1.0970169E-20
  -1.252500      1.1841404E-20
  -1.245000      3.8427244E-20
  -1.237500      6.6520359E-20
  -1.230000      9.3175272E-20
  -1.222500      1.1495927E-19
  -1.215000      1.2824259E-19
  -1.207500      1.2957614E-19
  -1.200000      1.1613297E-19
  -1.192500      8.6176555E-20
  -1.185000      3.9507393E-20
  -1.177500     -2.2169760E-20
  -1.170000     -9.5019355E-20
  -1.162500     -1.7304838E-19
  -1.155000     -2.4832882E-19
  -1.147500     -3.1149918E-19
  -1.140000     -3.5254934E-19
  -1.132500     -3.6185817E-19
  -1.125000     -3.3141653E-19
  -1.117500     -2.5612932E-19
  -1.110000     -1.3505658E-19
  -1.102500      2.7570175E-20
  -1.095000      2.2173034E-19
  -1.087500      4.3155747E-19
  -1.080000      6.3597301E-19
  -1.072500      8.1008274E-19
  -1.065000      9.2732892E-19
  -1.057500      9.6229757E-19
  -1.050000      8.9397586E-19
  -1.042500      7.0915843E-19
  -1.035000      4.0561613E-19
  -1.027500     -5.4038857E-21
  -1.020000     -4.9778954E-19
  -1.012500     -1.0306785E-18
  -1.005000     -1.5503626E-18
 -0.9975000     -1.9941073E-18
 -0.9900000     -2.2957984E-18
 -0.9825000     -2.3930929E-18
 -0.9750000     -2.2354988E-18
 -0.9675000     -1.7925951E-18
 -0.9600000     -1.0614275E-18
 -0.9525000     -7.2041803E-20
 -0.9450000      1.1098507E-18
 -0.9375000      2.3839244E-18
 -0.9300000      3.6205613E-18
 -0.9225000      4.6705881E-18
 -0.9150000      5.3790703E-18
 -0.9075000      5.6022639E-18
 -0.9000000      5.2262946E-18
 -0.8925000      4.1856770E-18
 -0.8850000      2.4794935E-18
 -0.8775000      1.8294584E-19
 -0.8700000     -2.5478472E-18
 -0.8625000     -5.4795029E-18
 -0.8550000     -8.3144829E-18
 -0.8475000     -1.0713731E-17
 -0.8400000     -1.2327848E-17
 -0.8325000     -1.2834665E-17
 -0.8250000     -1.1980021E-17
 -0.8175000     -9.6176968E-18
 -0.8100000     -5.7439008E-18
 -0.8025000     -5.2163850E-19
 -0.7950000      5.7093321E-18
 -0.7875000      1.2440265E-17
 -0.7800000      1.9020803E-17
 -0.7725000      2.4705979E-17
 -0.7650000      2.8720733E-17
 -0.7575000      3.0337653E-17
 -0.7500000      2.8961674E-17
 -0.7425000      2.4213732E-17
 -0.7350000      1.6004597E-17
 -0.7275000      4.5897241E-18
 -0.7200000     -9.4031063E-18
 -0.7125000     -2.4979961E-17
 -0.7050000     -4.0824712E-17
 -0.6975000     -5.5381390E-17
 -0.6900000     -6.6971937E-17
 -0.6825000     -7.3942211E-17
 -0.6750000     -7.4825772E-17
 -0.6675000     -6.8511876E-17
 -0.6600000     -5.4402200E-17
 -0.6525000     -3.2540227E-17
 -0.6450000     -3.6980739E-18
 -0.6375000      3.0592153E-17
 -0.6300000      6.8071545E-17
 -0.6225000      1.0585629E-16
 -0.6150000      1.4060677E-16
 -0.6075000      1.6875640E-16
 -0.6000000      1.8678681E-16
 -0.5925000      1.9153112E-16
 -0.5850000      1.8048335E-16
 -0.5775000      1.5208958E-16
 -0.5700000      1.0599640E-16
 -0.5625000      4.3233372E-17
 -0.5550000     -3.3689869E-17
 -0.5475000     -1.2078702E-16
 -0.5400000     -2.1270759E-16
 -0.5325000     -3.0296068E-16
 -0.5250000     -3.8424480E-16
 -0.5175000     -4.4887214E-16
 -0.5100000     -4.8926905E-16
 -0.5025000     -4.9852902E-16
 -0.4950000     -4.7099024E-16
 -0.4875000     -4.0280551E-16
 -0.4800000     -2.9247047E-16
 -0.4725000     -1.4127398E-16
 -0.4650000      4.6366570E-17
 -0.4575000      2.6272058E-16
 -0.4500000      4.9674597E-16
 -0.4425000      7.3430684E-16
 -0.4350000      9.5863388E-16
 -0.4275000      1.1510413E-15
 -0.4200000      1.2919057E-15
 -0.4125000      1.3618914E-15
 -0.4050000      1.3433904E-15
 -0.3975000      1.2221176E-15
 -0.3900000      9.8877766E-16
 -0.3825000      6.4069524E-16
 -0.3750000      1.8327032E-16
 -0.3675000     -3.6888970E-16
 -0.3600000     -9.9132586E-16
 -0.3525000     -1.6497289E-15
 -0.3450000     -2.3007257E-15
 -0.3375000     -2.8935522E-15
 -0.3300000     -3.3726622E-15
 -0.3225000     -3.6812416E-15
 -0.3150000     -3.7655172E-15
 -0.3075000     -3.5796502E-15
 -0.3000000     -3.0909052E-15
 -0.2925000     -2.2847035E-15
 -0.2850000     -1.1690957E-15
 -0.2775000      2.2184876E-16
 -0.2700000      1.8262329E-15
 -0.2625000      3.5545568E-15
 -0.2550000      5.2923233E-15
 -0.2475000      6.9052214E-15
 -0.2400000      8.2468864E-15
 -0.2325000      9.1689910E-15
 -0.2250000      9.5331890E-15
 -0.2175000      9.2241634E-15
 -0.2100000      8.1628167E-15
 -0.2025000      6.3184715E-15
 -0.1950000      3.7188643E-15
 -0.1875000      4.5670418E-16
 -0.1800000     -3.3082894E-15
 -0.1725000     -7.3527330E-15
 -0.1650000     -1.1398804E-14
 -0.1575000     -1.5129411E-14
 -0.1500000     -1.8208818E-14
 -0.1425000     -2.0307722E-14
 -0.1350000     -2.1131226E-14
 -0.1275000     -2.0447675E-14
 -0.1200000     -1.8116000E-14
 -0.1125000     -1.4109027E-14
 -0.1050000     -8.5302215E-15
 -9.7499996E-02 -1.6216276E-15
 -9.0000004E-02  6.2387983E-15
 -8.2500003E-02  1.4551499E-14
 -7.5000003E-02  2.2721471E-14
 -6.7500003E-02  3.0095423E-14
 -5.9999999E-02  3.6008113E-14
 -5.2499998E-02  3.9834909E-14
 -4.5000002E-02  4.1046963E-14
 -3.7500001E-02  3.9264517E-14
 -2.9999999E-02  3.4303774E-14
 -2.2500001E-02  2.6212686E-14
 -1.5000000E-02  1.5291501E-14
 -7.4999998E-03  2.0948336E-15
  0.0000000E+00 -1.2586807E-14
  7.4999998E-03 -2.7766518E-14
  1.5000000E-02 -4.2320317E-14
  2.2500001E-02 -5.5063288E-14
  2.9999999E-02 -6.4837858E-14
  3.7500001E-02 -7.0608145E-14
  4.5000002E-02 -7.1553162E-14
  5.2499998E-02 -6.7151275E-14
  5.9999999E-02 -5.7248213E-14
  6.7500003E-02 -4.2101868E-14
  7.5000003E-02 -2.2398148E-14
  8.2500003E-02  7.6553430E-16
  9.0000004E-02  2.5930611E-14
  9.7499996E-02  5.1360080E-14
  0.1050000      7.5149563E-14
  0.1125000      9.5360094E-14
  0.1200000      1.1016375E-13
  0.1275000      1.1799172E-13
  0.1350000      1.1767337E-13
  0.1425000      1.0855501E-13
  0.1500000      9.0587721E-14
  0.1575000      6.4375642E-14
  0.1650000      3.1178331E-14
  0.1725000     -7.1356029E-15
  0.1800000     -4.8183249E-14
  0.1875000     -8.9206115E-14
  0.1950000     -1.2724500E-13
  0.2025000     -1.5934015E-13
  0.2100000     -1.8274325E-13
  0.2175000     -1.9512647E-13
  0.2250000     -1.9477322E-13
  0.2325000     -1.8073616E-13
  0.2400000     -1.5294961E-13
  0.2475000     -1.1228643E-13
  0.2550000     -6.0553125E-14
  0.2625000     -4.2088416E-16
  0.2700000      6.4705070E-14
  0.2775000      1.3087129E-13
  0.2850000      1.9380642E-13
  0.2925000      2.4918235E-13
  0.3000000      2.9288990E-13
  0.3075000      3.2131145E-13
  0.3150000      3.3157342E-13
  0.3225000      3.2176155E-13
  0.3300000      2.9108522E-13
  0.3375000      2.3997885E-13
  0.3450000      1.7013374E-13
  0.3525000      8.4456198E-14
  0.3600000     -1.3046542E-14
  0.3675000     -1.1744756E-13
  0.3750000     -2.2313973E-13
  0.3825000     -3.2412099E-13
  0.3900000     -4.1431095E-13
  0.3975000     -4.8788220E-13
  0.4050000     -5.3958948E-13
  0.4125000     -5.6507994E-13
  0.4200000     -5.6116776E-13
  0.4275000     -5.2605918E-13
  0.4350000     -4.5951643E-13
  0.4425000     -3.6294909E-13
  0.4500000     -2.3942854E-13
  0.4575000     -9.3620417E-14
  0.4650000      6.8364138E-14
  0.4725000      2.3919503E-13
  0.4800000      4.1062108E-13
  0.4875000      5.7382923E-13
  0.4950000      7.1985142E-13
  0.5025000      8.4000379E-13
  0.5100000      9.2633887E-13
  0.5175000      9.7209111E-13
  0.5250000      9.7209339E-13
  0.5325000      9.2314177E-13
  0.5400000      8.2428763E-13
  0.5475000      6.7703644E-13
  0.5550000      4.8543526E-13
  0.5625000      2.5603678E-13
  0.5700000     -2.2690018E-15
  0.5775000     -2.7855585E-13
  0.5850000     -5.6029058E-13
  0.5925000     -8.3387594E-13
  0.6000000     -1.0852869E-12
  0.6075000     -1.3007709E-12
  0.6150000     -1.4675793E-12
  0.6225000     -1.5746884E-12
  0.6300000     -1.6134709E-12
  0.6375000     -1.5782751E-12
  0.6450000     -1.4668728E-12
  0.6525000     -1.2807430E-12
  0.6600000     -1.0251647E-12
  0.6675000     -7.0910541E-13
  0.6750000     -3.4490065E-13
  0.6825000      5.2266283E-14
  0.6900000      4.6506017E-13
  0.6975000      8.7483205E-13
  0.7050000      1.2625536E-12
  0.7125000      1.6097954E-12
  0.7200000      1.8996907E-12
  0.7275000      2.1178274E-12
  0.7350000      2.2530111E-12
  0.7425000      2.2978557E-12
  0.7500000      2.2491568E-12
  0.7575000      2.1080334E-12
  0.7650000      1.8798220E-12
  0.7725000      1.5737348E-12
  0.7800000      1.2023085E-12
  0.7875000      7.8067620E-13
  0.7950000      3.2572008E-13
  0.8025000     -1.4484186E-13
  0.8100000     -6.1336976E-13
  0.8175000     -1.0631564E-12
  0.8250000     -1.4791657E-12
  0.8325000     -1.8486107E-12
  0.8400000     -2.1613366E-12
  0.8475000     -2.4099967E-12
  0.8550000     -2.5900172E-12
  0.8625000     -2.6993735E-12
  0.8700000     -2.7382109E-12
  0.8775000     -2.7083557E-12
  0.8850000     -2.6127705E-12
  0.8925000     -2.4550190E-12
  0.9000000     -2.2387903E-12
  0.9075000     -1.9675398E-12
  0.9150000     -1.6442868E-12
  0.9225000     -1.2715900E-12
  0.9300000     -8.5171464E-13
  0.9375000     -3.8697355E-13
  0.9450000      1.1978249E-13
  0.9525000      6.6457560E-13
  0.9600000      1.2416702E-12
  0.9675000      1.8429707E-12
  0.9750000      2.4575173E-12
  0.9825000      3.0711501E-12
  0.9900000      3.6663970E-12
  0.9975000      4.2226322E-12
   1.005000      4.7165327E-12
   1.012500      5.1228292E-12
   1.020000      5.4153405E-12
   1.027500      5.5682381E-12
   1.035000      5.5574889E-12
   1.042500      5.3623781E-12
   1.050000      4.9670398E-12
   1.057500      4.3618806E-12
   1.065000      3.5448094E-12
   1.072500      2.5221786E-12
   1.080000      1.3093739E-12
   1.087500     -6.9011149E-14
   1.095000     -1.5794366E-12
   1.102500     -3.1801187E-12
   1.110000     -4.8221501E-12
   1.117500     -6.4509895E-12
   1.125000     -8.0082486E-12
   1.132500     -9.4336986E-12
   1.140000     -1.0667400E-11
   1.147500     -1.1651855E-11
   1.155000     -1.2334102E-11
   1.162500     -1.2667667E-11
   1.170000     -1.2614305E-11
   1.177500     -1.2145495E-11
   1.185000     -1.1243643E-11
   1.192500     -9.9030289E-12
   1.200000     -8.1304546E-12
   1.207500     -5.9456585E-12
   1.215000     -3.3815051E-12
   1.222500     -4.8398270E-13
   1.230000      2.6879740E-12
   1.237500      6.0628295E-12
   1.245000      9.5569802E-12
   1.252500      1.3075509E-11
   1.260000      1.6513214E-11
   1.267500      1.9756009E-11
   1.275000      2.2682752E-11
   1.282500      2.5167634E-11
   1.290000      2.7083174E-11
   1.297500      2.8303917E-11
   1.305000      2.8710827E-11
   1.312500      2.8196386E-11
   1.320000      2.6670270E-11
   1.327500      2.4065482E-11
   1.335000      2.0344705E-11
   1.342500      1.5506530E-11
   1.350000      9.5912601E-12
   1.357500      2.6858006E-12
   1.365000     -5.0727660E-12
   1.372500     -1.3495406E-11
   1.380000     -2.2341559E-11
   1.387500     -3.1322157E-11
   1.395000     -4.0105471E-11
   1.402500     -4.8325965E-11
   1.410000     -5.5596101E-11
   1.417500     -6.1520899E-11
   1.425000     -6.5714913E-11
   1.432500     -6.7820943E-11
   1.440000     -6.7529794E-11
   1.447500     -6.4600138E-11
   1.455000     -5.8877396E-11
   1.462500     -5.0310558E-11
   1.470000     -3.8965772E-11
   1.477500     -2.5035692E-11
   1.485000     -8.8435734E-12
   1.492500      9.1586209E-12
   1.500000      2.8398596E-11
   1.507500      4.8198744E-11
   1.515000      6.7797684E-11
   1.522500      8.6377759E-11
   1.530000      1.0309756E-10
   1.537500      1.1712827E-10
   1.545000      1.2769212E-10
   1.552500      1.3410148E-10
   1.560000      1.3579611E-10
   1.567500      1.3237707E-10
   1.575000      1.2363505E-10
   1.582500      1.0957146E-10
   1.590000      9.0410804E-11
   1.597500      6.6603070E-11
   1.605000      3.8815843E-11
   1.612500      7.9157505E-12
   1.620000     -2.5060211E-11
   1.627500     -5.8942393E-11
   1.635000     -9.2473772E-11
   1.642500     -1.2436080E-10
   1.650000     -1.5332741E-10
   1.657500     -1.7816974E-10
   1.665000     -1.9780866E-10
   1.672500     -2.1133768E-10
   1.680000     -2.1806379E-10
   1.687500     -2.1753896E-10
   1.695000     -2.0958098E-10
   1.702500     -1.9428238E-10
   1.710000     -1.7200712E-10
   1.717500     -1.4337526E-10
   1.725000     -1.0923663E-10
   1.732500     -7.0634859E-11
   1.740000     -2.8763811E-11
   1.747500      1.5081089E-11
   1.755000      5.9554077E-11
   1.762500      1.0331018E-10
   1.770000      1.4505348E-10
   1.777500      1.8358039E-10
   1.785000      2.1781575E-10
   1.792500      2.4684046E-10
   1.800000      2.6990987E-10
   1.807500      2.8646246E-10
   1.815000      2.9611985E-10
   1.822500      2.9867825E-10
   1.830000      2.9409411E-10
   1.837500      2.8246472E-10
   1.845000      2.6400676E-10
   1.852500      2.3903471E-10
   1.860000      2.0794128E-10
   1.867500      1.7118158E-10
   1.875000      1.2926268E-10
   1.882500      8.2739142E-11
   1.890000      3.2214949E-11
   1.897500     -2.1648690E-11
   1.905000     -7.8120753E-11
   1.912500     -1.3638468E-10
   1.920000     -1.9552174E-10
   1.927500     -2.5449570E-10
   1.935000     -3.1214190E-10
   1.942500     -3.6716263E-10
   1.950000     -4.1813189E-10
   1.957500     -4.6351065E-10
   1.965000     -5.0167426E-10
   1.972500     -5.3095256E-10
   1.980000     -5.4968191E-10
   1.987500     -5.5626803E-10
   1.995000     -5.4925803E-10
   2.002500     -5.2741739E-10
   2.010000     -4.8980986E-10
   2.017500     -4.3587506E-10
   2.025000     -3.6549955E-10
   2.032500     -2.7907737E-10
   2.040000     -1.7755580E-10
   2.047500     -6.2462160E-11
   2.055000      6.4090712E-11
   2.062500      1.9942276E-10
   2.070000      3.4032951E-10
   2.077500      4.8314969E-10
   2.085000      6.2385569E-10
   2.092500      7.5816498E-10
   2.100000      8.8166824E-10
   2.107500      9.8997077E-10
   2.115000      1.0788408E-09
   2.122500      1.1443602E-09
   2.130000      1.1830704E-09
   2.137500      1.1921101E-09
   2.145000      1.1693356E-09
   2.152500      1.1134236E-09
   2.160000      1.0239475E-09
   2.167500      9.0142860E-10
   2.175000      7.4735712E-10
   2.182500      5.6418287E-10
   2.190000      3.5527678E-10
   2.197500      1.2486343E-10
   2.205000     -1.2207270E-10
   2.212500     -3.7990416E-10
   2.220000     -6.4249678E-10
   2.227500     -9.0336133E-10
   2.235000     -1.1558158E-09
   2.242500     -1.3931537E-09
   2.250000     -1.6088135E-09
   2.257500     -1.7965457E-09
   2.265000     -1.9505719E-09
   2.272500     -2.0657343E-09
   2.280000     -2.1376292E-09
   2.287500     -2.1627260E-09
   2.295000     -2.1384656E-09
   2.302500     -2.0633373E-09
   2.310000     -1.9369348E-09
   2.317500     -1.7599878E-09
   2.325000     -1.5343694E-09
   2.332500     -1.2630801E-09
   2.340000     -9.5020736E-10
   2.347500     -6.0086230E-10
   2.355000     -2.2109399E-10
   2.362500      1.8221720E-10
   2.370000      6.0148458E-10
   2.377500      1.0285568E-09
   2.385000      1.4548728E-09
   2.392500      1.8716269E-09
   2.400000      2.2699411E-09
   2.407500      2.6410396E-09
   2.415000      2.9764213E-09
   2.422500      3.2680281E-09
   2.430000      3.5084033E-09
   2.437500      3.6908367E-09
   2.445000      3.8094949E-09
   2.452500      3.8595305E-09
   2.460000      3.8371728E-09
   2.467500      3.7397987E-09
   2.475000      3.5659775E-09
   2.482500      3.3155023E-09
   2.490000      2.9893961E-09
   2.497500      2.5899063E-09
   2.505000      2.1204838E-09
   2.512500      1.5857533E-09
   2.520000      9.9147490E-10
   2.527500      3.4450243E-10
   2.535000     -3.4725983E-10
   2.542500     -1.0749017E-09
   2.550000     -1.8285513E-09
   2.557500     -2.5974198E-09
   2.565000     -3.3698491E-09
   2.572500     -4.1333652E-09
   2.580000     -4.8747393E-09
   2.587500     -5.5800697E-09
   2.595000     -6.2348748E-09
   2.602500     -6.8242234E-09
   2.610000     -7.3328867E-09
   2.617500     -7.7455340E-09
   2.625000     -8.0469693E-09
   2.632500     -8.2224076E-09
   2.640000     -8.2578007E-09
   2.647500     -8.1401996E-09
   2.655000     -7.8581621E-09
   2.662500     -7.4021900E-09
   2.670000     -6.7651893E-09
   2.677500     -5.9429408E-09
   2.685000     -4.9345688E-09
   2.692500     -3.7429926E-09
   2.700000     -2.3753384E-09
   2.707500     -8.4329699E-10
   2.715000      8.3659413E-10
   2.722500      2.6427620E-09
   2.730000      4.5485224E-09
   2.737500      6.5221362E-09
   2.745000      8.5270040E-09
   2.752500      1.0522023E-08
   2.760000      1.2462104E-08
   2.767500      1.4298859E-08
   2.775000      1.5981447E-08
   2.782500      1.7457594E-08
   2.790000      1.8674749E-08
   2.797500      1.9581368E-08
   2.805000      2.0128329E-08
   2.812500      2.0270399E-08
   2.820000      1.9967752E-08
   2.827500      1.9187512E-08
   2.835000      1.7905242E-08
   2.842500      1.6106370E-08
   2.850000      1.3787480E-08
   2.857500      1.0957445E-08
   2.865000      7.6383451E-09
   2.872500      3.8661363E-09
   2.880000     -3.0897152E-10
   2.887500     -4.8224456E-09
   2.895000     -9.5956985E-09
   2.902500     -1.4536707E-08
   2.910000     -1.9540970E-08
   2.917500     -2.4492815E-08
   2.925000     -2.9267026E-08
   2.932500     -3.3730739E-08
   2.940000     -3.7745604E-08
   2.947500     -4.1170136E-08
   2.955000     -4.3862176E-08
   2.962500     -4.5681467E-08
   2.970000     -4.6492172E-08
   2.977500     -4.6165390E-08
   2.985000     -4.4581437E-08
   2.992500     -4.1632024E-08
   3.000000     -3.7222083E-08
   3.007500     -3.1271302E-08
   3.015000     -2.3715300E-08
   3.022500     -1.4506380E-08
   3.030000     -3.6138916E-09
   3.037500      8.9758618E-09
   3.045000      2.3260119E-08
   3.052500      3.9220581E-08
   3.060000      5.6824689E-08
   3.067500      7.6027270E-08
   3.075000      9.6772453E-08
   3.082500      1.1899589E-07
   3.090000      1.4262706E-07
   3.097500      1.6759188E-07
   3.105000      1.9381530E-07
   3.112500      2.2122391E-07
   3.120000      2.4974867E-07
   3.127500      2.7932745E-07
   3.135000      3.0990765E-07
   3.142500      3.4144838E-07
   3.150000      3.7392300E-07
   3.157500      4.0732095E-07
   3.165000      4.4164983E-07
   3.172500      4.7693698E-07
   3.180000      5.1323104E-07
   3.187500      5.5060315E-07
   3.195000      5.8914787E-07
   3.202500      6.2898425E-07
   3.210000      6.7025610E-07
   3.217500      7.1313207E-07
   3.225000      7.5780588E-07
   3.232500      8.0449581E-07
   3.240000      8.5344396E-07
   3.247500      9.0491557E-07
   3.255000      9.5919734E-07
   3.262500      1.0165962E-06
   3.270000      1.0774377E-06
   3.277500      1.1420633E-06
   3.285000      1.2108288E-06
   3.292500      1.2841017E-06
   3.300000      1.3622587E-06
   3.307500      1.4456833E-06
   3.315000      1.5347637E-06
   3.322500      1.6298898E-06
   3.330000      1.7314521E-06
   3.337500      1.8398395E-06
   3.345000      1.9554375E-06
   3.352500      2.0786283E-06
   3.360000      2.2097900E-06
   3.367500      2.3492967E-06
   3.375000      2.4975191E-06
   3.382500      2.6548262E-06
   3.390000      2.8215870E-06
   3.397500      2.9981738E-06
   3.405000      3.1849643E-06
   3.412500      3.3823449E-06
   3.420000      3.5907162E-06
   3.427500      3.8104963E-06
   3.435000      4.0421255E-06
   3.442500      4.2860697E-06
   3.450000      4.5428287E-06
   3.457500      4.8129364E-06
   3.465000      5.0969670E-06
   3.472500      5.3955405E-06
   3.480000      5.7093266E-06
   3.487500      6.0390448E-06
   3.495000      6.3854723E-06
   3.502500      6.7494429E-06
   3.510000      7.1318532E-06
   3.517500      7.5336598E-06
   3.525000      7.9558840E-06
   3.532500      8.3996119E-06
   3.540000      8.8659954E-06
   3.547500      9.3562512E-06
   3.555000      9.8716619E-06
   3.562500      1.0413575E-05
   3.570000      1.0983403E-05
   3.577500      1.1582621E-05
   3.585000      1.2212768E-05
   3.592500      1.2875442E-05
   3.600000      1.3572308E-05
   3.607500      1.4305084E-05
   3.615000      1.5075553E-05
   3.622500      1.5885555E-05
   3.630000      1.6736987E-05
   3.637500      1.7631804E-05
   3.645000      1.8572022E-05
   3.652500      1.9559708E-05
   3.660000      2.0596992E-05
   3.667500      2.1686063E-05
   3.675000      2.2829172E-05
   3.682500      2.4028630E-05
   3.690000      2.5286812E-05
   3.697500      2.6606162E-05
   3.705000      2.7989194E-05
   3.712500      2.9438497E-05
   3.720000      3.0956740E-05
   3.727500      3.2546668E-05
   3.735000      3.4211120E-05
   3.742500      3.5953035E-05
   3.750000      3.7775433E-05
   3.757500      3.9681458E-05
   3.765000      4.1674353E-05
   3.772500      4.3757482E-05
   3.780000      4.5934321E-05
   3.787500      4.8208494E-05
   3.795000      5.0583745E-05
   3.802500      5.3063963E-05
   3.810000      5.5653178E-05
   3.817500      5.8355581E-05
   3.825000      6.1175495E-05
   3.832500      6.4117427E-05
   3.840000      6.7186018E-05
   3.847500      7.0386086E-05
   3.855000      7.3722622E-05
   3.862500      7.7200755E-05
   3.870000      8.0825805E-05
   3.877500      8.4603264E-05
   3.885000      8.8538764E-05
   3.892500      9.2638133E-05
   3.900000      9.6907359E-05
   3.907500      1.0135260E-04
   3.915000      1.0598017E-04
   3.922500      1.1079655E-04
   3.930000      1.1580841E-04
   3.937500      1.2102255E-04
   3.945000      1.2644597E-04
   3.952500      1.3208583E-04
   3.960000      1.3794944E-04
   3.967500      1.4404426E-04
   3.975000      1.5037799E-04
   3.982500      1.5695840E-04
   3.990000      1.6379349E-04
   3.997500      1.7089144E-04
   4.005000      1.7826050E-04
   4.012500      1.8590922E-04
   4.020000      1.9384621E-04
   4.027500      2.0208035E-04
   4.035000      2.1062062E-04
   4.042500      2.1947619E-04
   4.050000      2.2865640E-04
   4.057500      2.3817077E-04
   4.065000      2.4802901E-04
   4.072500      2.5824091E-04
   4.080000      2.6881651E-04
   4.087500      2.7976595E-04
   4.095000      2.9109960E-04
   4.102500      3.0282789E-04
   4.110000      3.1496145E-04
   4.117500      3.2751105E-04
   4.125000      3.4048766E-04
   4.132500      3.5390229E-04
   4.140000      3.6776613E-04
   4.147500      3.8209045E-04
   4.155000      3.9688669E-04
   4.162500      4.1216635E-04
   4.170000      4.2794115E-04
   4.177500      4.4422277E-04
   4.185000      4.6102310E-04
   4.192500      4.7835402E-04
   4.200000      4.9622764E-04
   4.207500      5.1465601E-04
   4.215000      5.3365121E-04
   4.222500      5.5322557E-04
   4.230000      5.7339133E-04
   4.237500      5.9416075E-04
   4.245000      6.1554625E-04