  -3.000000        1.0000000E-24
  -2.993500        1.0000000E-24
  -2.987000        1.0000000E-24
  -2.980500        1.0000000E-24
  -2.974000        1.0000000E-24
  -2.967500        1.0000000E-24
  -2.961000        1.0000000E-24
  -2.954500        1.0000000E-24
  -2.948000        1.0000000E-24
  -2.941500        1.0000000E-24
  -2.935000        1.0000000E-24
  -2.928500        1.0000000E-24
  -2.922000        1.0000000E-24
  -2.915500        1.0000000E-24
  -2.909000        1.0000000E-24
  -2.902500        1.0000000E-24
  -2.896000        1.0000000E-24
  -2.889500        1.0000000E-24
  -2.883000        1.0000000E-24
  -2.876500        1.0000000E-24
  -2.870000        1.0000000E-24
  -2.863500        1.0000000E-24
  -2.857000        1.0000000E-24
  -2.850500        1.0000000E-24
  -2.844000        1.0000000E-24
  -2.837500        1.0000000E-24
  -2.831000        1.0000000E-24
  -2.824500        1.0000000E-24
  -2.818000        1.0000000E-24
  -2.811500        1.0000000E-24
  -2.805000        1.0000000E-24
  -2.798500        1.0000000E-24
  -2.792000        1.0000000E-24
  -2.785500        1.0000000E-24
  -2.779000        1.0000000E-24
  -2.772500        1.0000000E-24
  -2.766000        1.0000000E-24
  -2.759500        1.0000000E-24
  -2.753000        1.0000000E-24
  -2.746500        1.0000000E-24
  -2.740000        1.0000000E-24
  -2.733500        1.0000000E-24
  -2.727000        1.0000000E-24
  -2.720500        1.0000001E-24
  -2.714000        1.0000002E-24
  -2.707500        1.0000003E-24
  -2.701000        1.0000004E-24
  -2.694500        1.0000004E-24
  -2.688000        1.0000004E-24
  -2.681500        1.0000004E-24
  -2.675000        1.0000004E-24
  -2.668500        1.0000004E-24
  -2.662000        1.0000004E-24
  -2.655500        1.0000004E-24
  -2.649000        1.0000004E-24
  -2.642500        1.0000004E-24
  -2.636000        1.0000004E-24
  -2.629500        1.0000004E-24
  -2.623000        1.0000004E-24
  -2.616500        1.0000004E-24
  -2.610000        1.0000004E-24
  -2.603500        1.0000004E-24
  -2.597000        1.0000003E-24
  -2.590500        1.0000002E-24
  -2.584000        1.0000001E-24
  -2.577500        1.0000000E-24
  -2.571000        9.9999992E-25
  -2.564500        9.9999982E-25
  -2.558000        9.9999972E-25
  -2.551500        9.9999972E-25
  -2.545000        9.9999972E-25
  -2.538500        9.9999972E-25
  -2.532000        9.9999972E-25
  -2.525500        9.9999972E-25
  -2.519000        9.9999972E-25
  -2.512500        9.9999972E-25
  -2.506000        9.9999972E-25
  -2.499500        9.9999972E-25
  -2.493000        9.9999972E-25
  -2.486500        9.9999982E-25
  -2.480000        9.9999992E-25
  -2.473500        1.0000000E-24
  -2.467000        1.0000001E-24
  -2.460500        1.0000002E-24
  -2.454000        1.0000002E-24
  -2.447500        1.0000002E-24
  -2.441000        1.0000002E-24
  -2.434500        1.0000002E-24
  -2.428000        1.0000002E-24
  -2.421500        1.0000002E-24
  -2.415000        1.0000002E-24
  -2.408500        1.0000002E-24
  -2.402000        1.0000002E-24
  -2.395500        1.0000002E-24
  -2.389000        1.0000002E-24
  -2.382500        1.0000002E-24
  -2.376000        1.0000002E-24
  -2.369500        1.0000002E-24
  -2.363000        1.0000002E-24
  -2.356500        1.0000002E-24
  -2.350000        1.0000002E-24
  -2.343500        1.0000002E-24
  -2.337000        1.0000002E-24
  -2.330500        1.0000002E-24
  -2.324000        1.0000002E-24
  -2.317500        1.0000002E-24
  -2.311000        1.0000002E-24
  -2.304500        1.0000001E-24
  -2.298000        1.0000000E-24
  -2.291500        9.9999992E-25
  -2.285000        9.9999982E-25
  -2.278500        9.9999972E-25
  -2.272000        9.9999963E-25
  -2.265500        9.9999953E-25
  -2.259000        9.9999953E-25
  -2.252500        9.9999953E-25
  -2.246000        9.9999953E-25
  -2.239500        9.9999953E-25
  -2.233000        9.9999953E-25
  -2.226500        9.9999963E-25
  -2.220000        9.9999972E-25
  -2.213500        9.9999982E-25
  -2.207000        9.9999992E-25
  -2.200500        1.0000000E-24
  -2.194000        1.0000002E-24
  -2.187500        1.0000004E-24
  -2.181000        1.0000006E-24
  -2.174500        1.0000007E-24
  -2.168000        1.0000008E-24
  -2.161500        1.0000009E-24
  -2.155000        1.0000010E-24
  -2.148500        1.0000011E-24
  -2.142000        1.0000011E-24
  -2.135500        1.0000011E-24
  -2.129000        1.0000011E-24
  -2.122500        1.0000010E-24
  -2.116000        1.0000009E-24
  -2.109500        1.0000008E-24
  -2.103000        1.0000006E-24
  -2.096500        1.0000004E-24
  -2.090000        1.0000002E-24
  -2.083500        1.0000000E-24
  -2.077000        9.9999982E-25
  -2.070500        9.9999963E-25
  -2.064000        9.9999953E-25
  -2.057500        9.9999943E-25
  -2.051000        9.9999933E-25
  -2.044500        9.9999923E-25
  -2.038000        9.9999923E-25
  -2.031500        9.9999923E-25
  -2.025000        9.9999923E-25
  -2.018500        9.9999923E-25
  -2.012000        9.9999933E-25
  -2.005500        9.9999943E-25
  -1.999000        9.9999953E-25
  -1.992500        9.9999963E-25
  -1.986000        9.9999972E-25
  -1.979500        9.9999982E-25
  -1.973000        9.9999992E-25
  -1.966500        1.0000000E-24
  -1.960000        1.0000000E-24
  -1.953500        1.0000000E-24
  -1.947000        1.0000000E-24
  -1.940500        1.0000000E-24
  -1.934000        1.0000000E-24
  -1.927500        1.0000000E-24
  -1.921000        1.0000000E-24
  -1.914500        1.0000001E-24
  -1.908000        1.0000002E-24
  -1.901500        1.0000003E-24
  -1.895000        1.0000004E-24
  -1.888500        1.0000005E-24
  -1.882000        1.0000006E-24
  -1.875500        1.0000007E-24
  -1.869000        1.0000008E-24
  -1.862500        1.0000009E-24
  -1.856000        1.0000010E-24
  -1.849500        1.0000011E-24
  -1.843000        1.0000012E-24
  -1.836500        1.0000012E-24
  -1.830000        1.0000012E-24
  -1.823500        1.0000012E-24
  -1.817000        1.0000011E-24
  -1.810500        1.0000010E-24
  -1.804000        1.0000009E-24
  -1.797500        1.0000007E-24
  -1.791000        1.0000005E-24
  -1.784500        1.0000003E-24
  -1.778000        1.0000001E-24
  -1.771500        9.9999992E-25
  -1.765000        9.9999972E-25
  -1.758500        9.9999953E-25
  -1.752000        9.9999933E-25
  -1.745500        9.9999923E-25
  -1.739000        9.9999913E-25
  -1.732500        9.9999903E-25
  -1.726000        9.9999893E-25
  -1.719500        9.9999893E-25
  -1.713000        9.9999893E-25
  -1.706500        9.9999893E-25
  -1.700000        9.9999903E-25
  -1.693500        9.9999913E-25
  -1.687000        9.9999923E-25
  -1.680500        9.9999943E-25
  -1.674000        9.9999963E-25
  -1.667500        9.9999982E-25
  -1.661000        1.0000000E-24
  -1.654500        1.0000002E-24
  -1.648000        1.0000004E-24
  -1.641500        1.0000006E-24
  -1.635000        1.0000008E-24
  -1.628500        1.0000010E-24
  -1.622000        1.0000012E-24
  -1.615500        1.0000014E-24
  -1.609000        1.0000015E-24
  -1.602500        1.0000016E-24
  -1.596000        1.0000017E-24
  -1.589500        1.0000017E-24
  -1.583000        1.0000017E-24
  -1.576500        1.0000017E-24
  -1.570000        1.0000016E-24
  -1.563500        1.0000015E-24
  -1.557000        1.0000013E-24
  -1.550500        1.0000011E-24
  -1.544000        1.0000009E-24
  -1.537500        1.0000006E-24
  -1.531000        1.0000003E-24
  -1.524500        1.0000000E-24
  -1.518000        9.9999972E-25
  -1.511500        9.9999943E-25
  -1.505000        9.9999913E-25
  -1.498500        9.9999893E-25
  -1.492000        9.9999874E-25
  -1.485500        9.9999854E-25
  -1.479000        9.9999844E-25
  -1.472500        9.9999834E-25
  -1.466000        9.9999834E-25
  -1.459500        9.9999844E-25
  -1.453000        9.9999854E-25
  -1.446500        9.9999874E-25
  -1.440000        9.9999893E-25
  -1.433500        9.9999913E-25
  -1.427000        9.9999943E-25
  -1.420500        9.9999972E-25
  -1.414000        1.0000000E-24
  -1.407500        1.0000003E-24
  -1.401000        1.0000006E-24
  -1.394500        1.0000008E-24
  -1.388000        1.0000010E-24
  -1.381500        1.0000012E-24
  -1.375000        1.0000013E-24
  -1.368500        1.0000014E-24
  -1.362000        1.0000014E-24
  -1.355500        1.0000014E-24
  -1.349000        1.0000014E-24
  -1.342500        1.0000013E-24
  -1.336000        1.0000012E-24
  -1.329500        1.0000011E-24
  -1.323000        1.0000010E-24
  -1.316500        1.0000009E-24
  -1.310000        1.0000007E-24
  -1.303500        1.0000005E-24
  -1.297000        1.0000003E-24
  -1.290500        1.0000001E-24
  -1.284000        9.9999992E-25
  -1.277500        9.9999982E-25
  -1.271000        9.9999972E-25
  -1.264500        9.9999963E-25
  -1.258000        9.9999953E-25
  -1.251500        9.9999943E-25
  -1.245000        9.9999933E-25
  -1.238500        9.9999933E-25
  -1.232000        9.9999933E-25
  -1.225500        9.9999933E-25
  -1.219000        9.9999933E-25
  -1.212500        9.9999943E-25
  -1.206000        9.9999953E-25
  -1.199500        9.9999963E-25
  -1.193000        9.9999972E-25
  -1.186500        9.9999982E-25
  -1.180000        1.0000000E-24
  -1.173500        1.0000002E-24
  -1.167000        1.0000003E-24
  -1.160500        1.0000004E-24
  -1.154000        1.0000005E-24
  -1.147500        1.0000006E-24
  -1.141000        1.0000007E-24
  -1.134500        1.0000007E-24
  -1.128000        1.0000007E-24
  -1.121500        1.0000007E-24
  -1.115000        1.0000007E-24
  -1.108500        1.0000006E-24
  -1.102000        1.0000005E-24
  -1.095500        1.0000004E-24
  -1.089000        1.0000003E-24
  -1.082500        1.0000002E-24
  -1.076000        1.0000001E-24
  -1.069500        1.0000000E-24
  -1.063000        9.9999992E-25
  -1.056500        9.9999982E-25
  -1.050000        9.9999972E-25
  -1.043500        9.9999963E-25
  -1.037000        9.9999953E-25
  -1.030500        9.9999953E-25
  -1.024000        9.9999953E-25
  -1.017500        9.9999953E-25
  -1.011000        9.9999953E-25
  -1.004500        9.9999953E-25
 -0.9980000        9.9999953E-25
 -0.9915000        9.9999943E-25
 -0.9850000        9.9999933E-25
 -0.9785000        9.9999923E-25
 -0.9720000        9.9999913E-25
 -0.9655000        9.9999903E-25
 -0.9590000        9.9999903E-25
 -0.9525000        9.9999903E-25
 -0.9460000        9.9999903E-25
 -0.9395000        9.9999903E-25
 -0.9330000        9.9999913E-25
 -0.9265000        9.9999923E-25
 -0.9200000        9.9999933E-25
 -0.9135000        9.9999953E-25
 -0.9070000        9.9999972E-25
 -0.9005000        9.9999992E-25
 -0.8940000        1.0000001E-24
 -0.8875000        1.0000004E-24
 -0.8810000        1.0000007E-24
 -0.8745000        1.0000010E-24
 -0.8680000        1.0000013E-24
 -0.8615000        1.0000015E-24
 -0.8550000        1.0000017E-24
 -0.8485000        1.0000019E-24
 -0.8420000        1.0000020E-24
 -0.8355000        1.0000020E-24
 -0.8290000        1.0000020E-24
 -0.8225000        1.0000019E-24
 -0.8160000        1.0000018E-24
 -0.8095000        1.0000016E-24
 -0.8030000        1.0000013E-24
 -0.7965000        1.0000010E-24
 -0.7900000        1.0000007E-24
 -0.7835000        1.0000003E-24
 -0.7770000        9.9999992E-25
 -0.7705000        9.9999953E-25
 -0.7640000        9.9999923E-25
 -0.7575000        9.9999893E-25
 -0.7510000        9.9999864E-25
 -0.7445000        9.9999844E-25
 -0.7380000        9.9999824E-25
 -0.7315000        9.9999815E-25
 -0.7250000        9.9999815E-25
 -0.7185000        9.9999815E-25
 -0.7120000        9.9999824E-25
 -0.7055000        9.9999834E-25
 -0.6990000        9.9999854E-25
 -0.6925000        9.9999874E-25
 -0.6860000        9.9999903E-25
 -0.6795000        9.9999933E-25
 -0.6730000        9.9999963E-25
 -0.6665000        9.9999992E-25
 -0.6600000        1.0000002E-24
 -0.6535000        1.0000005E-24
 -0.6470000        1.0000008E-24
 -0.6405000        1.0000011E-24
 -0.6340000        1.0000013E-24
 -0.6275000        1.0000015E-24
 -0.6210000        1.0000017E-24
 -0.6145000        1.0000018E-24
 -0.6080000        1.0000019E-24
 -0.6015000        1.0000020E-24
 -0.5950000        1.0000020E-24
 -0.5885000        1.0000020E-24
 -0.5820000        1.0000020E-24
 -0.5755000        1.0000020E-24
 -0.5690000        1.0000020E-24
 -0.5625000        1.0000020E-24
 -0.5560000        1.0000020E-24
 -0.5495000        1.0000020E-24
 -0.5430000        1.0000021E-24
 -0.5365000        1.0000023E-24
 -0.5300000        1.0000024E-24
 -0.5235000        1.0000024E-24
 -0.5170000        1.0000023E-24
 -0.5105000        1.0000020E-24
 -0.5040000        1.0000017E-24
 -0.4975000        1.0000012E-24
 -0.4910000        1.0000007E-24
 -0.4845000        1.0000002E-24
 -0.4780000        9.9999963E-25
 -0.4715000        9.9999893E-25
 -0.4650000        9.9999815E-25
 -0.4585000        9.9999736E-25
 -0.4520000        9.9999657E-25
 -0.4455000        9.9999568E-25
 -0.4390000        9.9999460E-25
 -0.4325000        9.9999351E-25
 -0.4260000        9.9999243E-25
 -0.4195000        9.9999105E-25
 -0.4130000        9.9998967E-25
 -0.4065000        9.9998809E-25
 -0.4000000        9.9998651E-25
 -0.3935000        9.9998513E-25
 -0.3870000        9.9998405E-25
 -0.3805000        9.9998306E-25
 -0.3740000        9.9998296E-25
 -0.3675000        9.9998326E-25
 -0.3610000        9.9998454E-25
 -0.3545000        9.9998671E-25
 -0.3480000        9.9999006E-25
 -0.3415000        9.9999469E-25
 -0.3350000        1.0000001E-24
 -0.3285000        1.0000063E-24
 -0.3220000        1.0000130E-24
 -0.3155000        1.0000200E-24
 -0.3090000        1.0000274E-24
 -0.3025000        1.0000351E-24
 -0.2960000        1.0000429E-24
 -0.2895000        1.0000510E-24
 -0.2830000        1.0000590E-24
 -0.2765000        1.0000663E-24
 -0.2700000        1.0000721E-24
 -0.2635000        1.0000758E-24
 -0.2570000        1.0000770E-24
 -0.2505000        1.0000747E-24
 -0.2440000        1.0000685E-24
 -0.2375000        1.0000557E-24
 -0.2310000        1.0000385E-24
 -0.2245000        1.0000159E-24
 -0.2180000        9.9998710E-25
 -0.2115000        9.9995259E-25
 -0.2050000        9.9991324E-25
 -0.1985000        9.9987360E-25
 -0.1920000        9.9983357E-25
 -0.1855000        9.9979580E-25
 -0.1790000        9.9976297E-25
 -0.1725000        9.9973841E-25
 -0.1660000        9.9972362E-25
 -0.1595000        9.9971978E-25
 -0.1530000        9.9972471E-25
 -0.1465000        9.9973841E-25
 -0.1400000        9.9976238E-25
 -0.1335000        9.9979639E-25
 -0.1270000        9.9984028E-25
 -0.1205000        9.9989145E-25
 -0.1140000        9.9994766E-25
 -0.1075000        1.0000088E-24
 -0.1010000        1.0000645E-24
 -9.4499998E-02    1.0001146E-24
 -8.8000000E-02    1.0001521E-24
 -8.1500001E-02    1.0001750E-24
 -7.5000003E-02    1.0001872E-24
 -6.8499997E-02    1.0001836E-24
 -6.1999999E-02    1.0001667E-24
 -5.5500001E-02    1.0001390E-24
 -4.8999999E-02    1.0001057E-24
 -4.2500000E-02    1.0000723E-24
 -3.5999998E-02    1.0000389E-24
 -2.9500000E-02    1.0000166E-24
 -2.3000000E-02    1.0000011E-24
 -1.6500000E-02    1.0000096E-24
 -9.9999998E-03    1.0000385E-24
 -3.5000001E-03    1.0000879E-24
  3.0000000E-03    1.0001849E-24
  9.4999997E-03    1.0003242E-24
  1.6000001E-02    1.0005029E-24
  2.2500001E-02    1.0007173E-24
  2.8999999E-02    1.0009634E-24
  3.5500001E-02    1.0012307E-24
  4.1999999E-02    1.0014747E-24
  4.8500001E-02    1.0016796E-24
  5.5000000E-02    1.0018133E-24
  6.1500002E-02    1.0018571E-24
  6.8000004E-02    1.0017914E-24
  7.4500002E-02    1.0015882E-24
  8.1000000E-02    1.0012323E-24
  8.7499999E-02    1.0007134E-24
  9.3999997E-02    1.0000293E-24
  0.1005000        9.9919331E-25
  0.1070000        9.9823652E-25
  0.1135000        9.9718625E-25
  0.1200000        9.9607475E-25
  0.1265000        9.9496728E-25
  0.1330000        9.9390351E-25
  0.1395000        9.9290441E-25
  0.1460000        9.9204426E-25
  0.1525000        9.9137718E-25
  0.1590000        9.9094971E-25
  0.1655000        9.9082695E-25
  0.1720000        9.9106942E-25
  0.1785000        9.9170456E-25
  0.1850000        9.9272593E-25
  0.1915000        9.9412212E-25
  0.1980000        9.9583306E-25
  0.2045000        9.9782967E-25
  0.2110000        1.0000795E-24
  0.2175000        1.0024921E-24
  0.2240000        1.0049974E-24
  0.2305000        1.0074911E-24
  0.2370000        1.0097961E-24
  0.2435000        1.0118651E-24
  0.2500000        1.0135612E-24
  0.2565000        1.0147954E-24
  0.2630000        1.0154112E-24
  0.2695000        1.0155806E-24
  0.2760000        1.0152892E-24
  0.2825000        1.0145662E-24
  0.2890000        1.0134149E-24
  0.2955000        1.0119448E-24
  0.3020000        1.0100782E-24
  0.3085000        1.0078892E-24
  0.3150000        1.0054155E-24
  0.3215000        1.0028181E-24
  0.3280000        1.0001594E-24
  0.3345000        9.9754055E-25
  0.3410000        9.9510839E-25
  0.3475000        9.9293755E-25
  0.3540000        9.9133931E-25
  0.3605000        9.9033815E-25
  0.3670000        9.8992489E-25
  0.3735000        9.8991315E-25
  0.3800000        9.9048281E-25
  0.3865000        9.9139729E-25
  0.3930000        9.9237026E-25
  0.3995000        9.9323327E-25
  0.4060000        9.9367138E-25
  0.4125000        9.9363007E-25
  0.4190000        9.9270059E-25
  0.4255000        9.9064837E-25
  0.4320000        9.8743416E-25
  0.4385000        9.8313516E-25
  0.4450000        9.7788332E-25
  0.4515000        9.7185652E-25
  0.4580000        9.6553873E-25
  0.4645000        9.5931186E-25
  0.4710000        9.5341867E-25
  0.4775000        9.4848898E-25
  0.4840000        9.4478666E-25
  0.4905000        9.4276096E-25
  0.4970000        9.4309593E-25
  0.5035000        9.4583358E-25
  0.5100000        9.5165537E-25
  0.5165000        9.6044831E-25
  0.5230000        9.7196134E-25
  0.5295000        9.8654639E-25
  0.5360000        1.0043135E-24
  0.5425000        1.0246184E-24
  0.5490000        1.0476868E-24
  0.5555000        1.0734565E-24
  0.5620000        1.1018708E-24
  0.5685000        1.1320841E-24
  0.5750000        1.1634966E-24
  0.5815000        1.1952074E-24
  0.5880000        1.2257332E-24
  0.5945000        1.2546151E-24
  0.6010000        1.2803605E-24
  0.6075000        1.3014664E-24
  0.6140000        1.3162077E-24
  0.6205000        1.3232305E-24
  0.6270000        1.3207263E-24
  0.6335000        1.3089492E-24
  0.6400000        1.2861465E-24
  0.6465000        1.2510896E-24
  0.6530000        1.2036103E-24
  0.6595000        1.1440738E-24
  0.6660000        1.0737608E-24
  0.6725000        9.9515839E-25
  0.6790000        9.0933288E-25
  0.6855000        8.1877643E-25
  0.6920000        7.2808410E-25
  0.6985000        6.4067762E-25
  0.7050000        5.6090559E-25
  0.7115000        4.9273997E-25
  0.7180000        4.3755713E-25
  0.7245000        3.9806289E-25
  0.7310000        3.7676633E-25
  0.7375000        3.7768740E-25
  0.7440000        4.0170530E-25
  0.7505000        4.5034787E-25
  0.7570000        5.2103094E-25
  0.7635000        6.1174378E-25
  0.7700000        7.2263209E-25
  0.7765000        8.5287786E-25
  0.7830000        9.9942593E-25
  0.7895000        1.1603068E-24
  0.7960000        1.3320017E-24
  0.8025000        1.5083161E-24
  0.8090000        1.6792756E-24
  0.8155000        1.8405093E-24
  0.8220000        1.9824100E-24
  0.8285000        2.1001260E-24
  0.8350000        2.1849844E-24
  0.8415000        2.2302563E-24
  0.8480000        2.2282398E-24
  0.8545000        2.1741803E-24
  0.8610000        2.0649310E-24
  0.8675000        1.9002085E-24
  0.8740000        1.6879568E-24
  0.8805000        1.4335378E-24
  0.8870000        1.1466814E-24
  0.8935000        8.4003076E-25
  0.9000000        5.2345102E-25
  0.9065000        2.0733318E-25
  0.9130000       -9.5985970E-26
  0.9195000       -3.8078974E-25
  0.9260000       -6.3640215E-25
  0.9325000       -8.5193526E-25
  0.9390000       -1.0211585E-24
  0.9455000       -1.1340875E-24
  0.9520000       -1.1842647E-24
  0.9585000       -1.1696676E-24
  0.9650000       -1.0886676E-24
  0.9715000       -9.2802839E-25
  0.9780000       -6.8026483E-25
  0.9845000       -3.5416036E-25
  0.9910000        4.9362121E-26
  0.9975000        5.1576002E-25
   1.004000        1.0384811E-24
   1.010500        1.6086038E-24
   1.017000        2.2098962E-24
   1.023500        2.8494119E-24
   1.030000        3.4941556E-24
   1.036500        4.1313872E-24
   1.043000        4.7257513E-24
   1.049500        5.2517989E-24
   1.056000        5.6858298E-24
   1.062500        6.0047867E-24
   1.069000        6.1928622E-24
   1.075500        6.2605761E-24
   1.082000        6.1918036E-24
   1.088500        5.9696816E-24
   1.095000        5.6007898E-24
   1.101500        5.1191669E-24
   1.108000        4.5193321E-24
   1.114500        3.8084063E-24
   1.121000        3.0247053E-24
   1.127500        2.2098288E-24
   1.134000        1.4173539E-24
   1.140500        6.6658135E-25
   1.147000        3.1694342E-27
   1.153500       -5.2451682E-25
   1.160000       -9.1846099E-25
   1.166500       -1.1894338E-24
   1.173000       -1.3096786E-24
   1.179500       -1.2770359E-24
   1.186000       -1.0959187E-24
   1.192500       -7.7766653E-25
   1.199000       -3.5296810E-25
   1.205500        1.7218699E-25
   1.212000        7.6586038E-25
   1.218500        1.3307299E-24
   1.225000        1.8191752E-24
   1.231500        2.2384930E-24
   1.238000        2.4583395E-24
   1.244500        2.4912709E-24
   1.251000        2.3010757E-24
   1.257500        1.8315027E-24
   1.264000        1.1527916E-24
   1.270500        3.1196658E-25
   1.277000       -5.8141203E-25
   1.283500       -1.4751590E-24
   1.290000       -2.2893152E-24
   1.296500       -2.9259451E-24
   1.303000       -3.2795723E-24
   1.309500       -3.3169558E-24
   1.316000       -3.0328751E-24
   1.322500       -2.4259561E-24
   1.329000       -1.5317161E-24
   1.335500       -3.2170731E-25
   1.342000        1.3160201E-24
   1.348500        3.4011797E-24
   1.355000        5.6382591E-24
   1.361500        7.8649298E-24
   1.368000        9.9967712E-24
   1.374500        1.1959107E-23
   1.381000        1.3623809E-23
   1.387500        1.4924299E-23
   1.394000        1.5732431E-23
   1.400500        1.5924888E-23
   1.407000        1.5536734E-23
   1.413500        1.4452533E-23
   1.420000        1.2617799E-23
   1.426500        9.8360100E-24
   1.433000        6.1577488E-24
   1.439500        1.5425144E-24
   1.446000       -4.1502694E-24
   1.452500       -1.0991055E-23
   1.459000       -1.8763121E-23
   1.465500       -2.7334977E-23
   1.472000       -3.6278391E-23
   1.478500       -4.5124977E-23
   1.485000       -5.3575753E-23
   1.491500       -6.1201407E-23
   1.498000       -6.7748094E-23
   1.504500       -7.2841460E-23
   1.511000       -7.6414331E-23
   1.517500       -7.8170739E-23
   1.524000       -7.8011755E-23
   1.530500       -7.5988358E-23
   1.537000       -7.2237445E-23
   1.543500       -6.6877905E-23
   1.550000       -6.0038973E-23
   1.556500       -5.1933708E-23
   1.563000       -4.2745208E-23
   1.569500       -3.2612731E-23
   1.576000       -2.1844505E-23
   1.582500       -1.1062716E-23
   1.589000       -6.4663347E-25
   1.595500        9.3633924E-24
   1.602000        1.8651559E-23
   1.608500        2.7488739E-23
   1.615000        3.5673120E-23
   1.621500        4.2964044E-23
   1.628000        4.9592025E-23
   1.634500        5.5646431E-23
   1.641000        6.1016952E-23
   1.647500        6.6358847E-23
   1.654000        7.1274996E-23
   1.660500        7.5954456E-23
   1.667000        8.0418229E-23
   1.673500        8.4408704E-23
   1.680000        8.7475158E-23
   1.686500        8.9648368E-23
   1.693000        8.9892120E-23
   1.699500        8.8082107E-23
   1.706000        8.3051541E-23
   1.712500        7.4765226E-23
   1.719000        6.2827079E-23
   1.725500        4.6567545E-23
   1.732000        2.6495235E-23
   1.738500        2.8390000E-24
   1.745000       -2.5015942E-23
   1.751500       -5.6582544E-23
   1.758000       -9.1085345E-23
   1.764500       -1.2740908E-22
   1.771000       -1.6547852E-22
   1.777500       -2.0431607E-22
   1.784000       -2.4320875E-22
   1.790500       -2.8182421E-22
   1.797000       -3.1965989E-22
   1.803500       -3.5606556E-22
   1.810000       -3.9090305E-22
   1.816500       -4.2388432E-22
   1.823000       -4.5311792E-22
   1.829500       -4.7802977E-22
   1.836000       -4.9832815E-22
   1.842500       -5.1264922E-22
   1.849000       -5.2195087E-22
   1.855500       -5.2502942E-22
   1.862000       -5.1956348E-22
   1.868500       -5.0566378E-22
   1.875000       -4.8259607E-22
   1.881500       -4.5097615E-22
   1.888000       -4.0986355E-22
   1.894500       -3.5937206E-22
   1.901000       -2.9890149E-22
   1.907500       -2.2916273E-22
   1.914000       -1.5112081E-22
   1.920500       -6.6898775E-23
   1.927000        2.0528586E-23
   1.933500        1.1004969E-22
   1.940000        1.9772393E-22
   1.946500        2.8078947E-22
   1.953000        3.5374126E-22
   1.959500        4.1498774E-22
   1.966000        4.6248247E-22
   1.972500        4.8842067E-22
   1.979000        4.9147988E-22
   1.985500        4.6959024E-22
   1.992000        4.2181667E-22
   1.998500        3.4645107E-22
   2.005000        2.4518731E-22
   2.011500        1.2032784E-22
   2.018000       -2.6392003E-23
   2.024500       -1.9096966E-22
   2.031000       -3.6824784E-22
   2.037500       -5.5325892E-22
   2.044000       -7.4100575E-22
   2.050500       -9.2608039E-22
   2.057000       -1.1017742E-21
   2.063500       -1.2627829E-21
   2.070000       -1.4034322E-21
   2.076500       -1.5217961E-21
   2.083000       -1.6120175E-21
   2.089500       -1.6773640E-21
   2.096000       -1.7107505E-21
   2.102500       -1.7100699E-21
   2.109000       -1.6761850E-21
   2.115500       -1.6123868E-21
   2.122000       -1.5234391E-21
   2.128500       -1.4097888E-21
   2.135000       -1.2717615E-21
   2.141500       -1.1180823E-21
   2.148000       -9.4866166E-22
   2.154500       -7.6677790E-22
   2.161000       -5.7508950E-22
   2.167500       -3.7400885E-22
   2.174000       -1.6604568E-22
   2.180500        4.6017652E-23
   2.187000        2.6127995E-22
   2.193500        4.8565503E-22
   2.200000        7.1618725E-22
   2.206500        9.5071477E-22
   2.213000        1.1953322E-21
   2.219500        1.4464828E-21
   2.226000        1.7058215E-21
   2.232500        1.9698997E-21
   2.239000        2.2366225E-21
   2.245500        2.4980079E-21
   2.252000        2.7534042E-21
   2.258500        2.9985923E-21
   2.265000        3.2341185E-21
   2.271500        3.4578448E-21
   2.278000        3.6595892E-21
   2.284500        3.8393289E-21
   2.291000        3.9930213E-21
   2.297500        4.1237926E-21
   2.304000        4.2134577E-21
   2.310500        4.2566278E-21
   2.317000        4.2483932E-21
   2.323500        4.1790146E-21
   2.330000        4.0570778E-21
   2.336500        3.8820087E-21
   2.343000        3.6463111E-21
   2.349500        3.3589454E-21
   2.356000        3.0406925E-21
   2.362500        2.6812367E-21
   2.369000        2.2918897E-21
   2.375500        1.8807468E-21
   2.382000        1.4682981E-21
   2.388500        1.0544684E-21
   2.395000        6.4566647E-22
   2.401500        2.5058731E-22
   2.408000       -1.1343454E-22
   2.414500       -4.3892640E-22
   2.421000       -7.1183824E-22
   2.427500       -9.1612636E-22
   2.434000       -1.0449113E-21
   2.440500       -1.0857210E-21
   2.447000       -1.0249088E-21
   2.453500       -8.5389324E-22
   2.460000       -5.8302405E-22
   2.466500       -2.1750700E-22
   2.473000        2.6539098E-22
   2.479500        8.3652461E-22
   2.486000        1.4988485E-21
   2.492500        2.2454109E-21
   2.499000        3.0633101E-21
   2.505500        3.9284326E-21
   2.512000        4.8128163E-21
   2.518500        5.6829336E-21
   2.525000        6.5259554E-21
   2.531500        7.3178157E-21
   2.538000        8.0497881E-21
   2.544500        8.7371922E-21
   2.551000        9.3893853E-21
   2.557500        1.0009772E-20
   2.564000        1.0588052E-20
   2.570500        1.1143525E-20
   2.577000        1.1669033E-20
   2.583500        1.2166305E-20
   2.590000        1.2637279E-20
   2.596500        1.3072107E-20
   2.603000        1.3439824E-20
   2.609500        1.3743826E-20
   2.616000        1.3961970E-20
   2.622500        1.4048438E-20
   2.629000        1.3970702E-20
   2.635500        1.3700807E-20
   2.642000        1.3186918E-20
   2.648500        1.2417658E-20
   2.655000        1.1361349E-20
   2.661500        1.0013289E-20
   2.668000        8.3893554E-21
   2.674500        6.5128150E-21
   2.681000        4.4065773E-21
   2.687500        2.0967845E-21
   2.694000       -3.9827330E-22
   2.700500       -3.0289458E-21
   2.707000       -5.7323766E-21
   2.713500       -8.4555792E-21
   2.720000       -1.1116738E-20
   2.726500       -1.3664549E-20
   2.733000       -1.5992828E-20
   2.739500       -1.8078977E-20
   2.746000       -1.9848877E-20
   2.752500       -2.1261080E-20
   2.759000       -2.2243914E-20
   2.765500       -2.2761136E-20
   2.772000       -2.2812730E-20
   2.778500       -2.2387243E-20
   2.785000       -2.1468318E-20
   2.791500       -2.0090369E-20
   2.798000       -1.8261552E-20
   2.804500       -1.5993967E-20
   2.811000       -1.3375411E-20
   2.817500       -1.0427462E-20
   2.824000       -7.2057093E-21
   2.830500       -3.7483407E-21
   2.837000       -1.2248401E-22
   2.843500        3.6542049E-21
   2.850000        7.4747966E-21
   2.856500        1.1282993E-20
   2.863000        1.5035615E-20
   2.869500        1.8665647E-20
   2.876000        2.2166085E-20
   2.882500        2.5462298E-20
   2.889000        2.8533615E-20
   2.895500        3.1318195E-20
   2.902000        3.3836779E-20