  -3.000000        1.0000000E-24
  -2.993500        1.0000000E-24
  -2.987000        1.0000000E-24
  -2.980500        1.0000000E-24
  -2.974000        1.0000000E-24
  -2.967500        1.0000000E-24
  -2.961000        1.0000000E-24
  -2.954500        1.0000000E-24
  -2.948000        1.0000000E-24
  -2.941500        1.0000000E-24
  -2.935000        1.0000000E-24
  -2.928500        1.0000000E-24
  -2.922000        1.0000000E-24
  -2.915500        1.0000001E-24
  -2.909000        1.0000002E-24
  -2.902500        1.0000003E-24
  -2.896000        1.0000003E-24
  -2.889500        1.0000003E-24
  -2.883000        1.0000003E-24
  -2.876500        1.0000003E-24
  -2.870000        1.0000003E-24
  -2.863500        1.0000003E-24
  -2.857000        1.0000003E-24
  -2.850500        1.0000003E-24
  -2.844000        1.0000003E-24
  -2.837500        1.0000002E-24
  -2.831000        1.0000001E-24
  -2.824500        1.0000000E-24
  -2.818000        9.9999992E-25
  -2.811500        9.9999982E-25
  -2.805000        9.9999972E-25
  -2.798500        9.9999972E-25
  -2.792000        9.9999972E-25
  -2.785500        9.9999972E-25
  -2.779000        9.9999972E-25
  -2.772500        9.9999972E-25
  -2.766000        9.9999982E-25
  -2.759500        9.9999992E-25
  -2.753000        1.0000000E-24
  -2.746500        1.0000001E-24
  -2.740000        1.0000002E-24
  -2.733500        1.0000003E-24
  -2.727000        1.0000004E-24
  -2.720500        1.0000005E-24
  -2.714000        1.0000005E-24
  -2.707500        1.0000005E-24
  -2.701000        1.0000005E-24
  -2.694500        1.0000005E-24
  -2.688000        1.0000005E-24
  -2.681500        1.0000004E-24
  -2.675000        1.0000003E-24
  -2.668500        1.0000002E-24
  -2.662000        1.0000001E-24
  -2.655500        1.0000000E-24
  -2.649000        9.9999992E-25
  -2.642500        9.9999982E-25
  -2.636000        9.9999972E-25
  -2.629500        9.9999972E-25
  -2.623000        9.9999972E-25
  -2.616500        9.9999972E-25
  -2.610000        9.9999972E-25
  -2.603500        9.9999972E-25
  -2.597000        9.9999982E-25
  -2.590500        9.9999992E-25
  -2.584000        1.0000000E-24
  -2.577500        1.0000001E-24
  -2.571000        1.0000002E-24
  -2.564500        1.0000003E-24
  -2.558000        1.0000004E-24
  -2.551500        1.0000005E-24
  -2.545000        1.0000005E-24
  -2.538500        1.0000005E-24
  -2.532000        1.0000005E-24
  -2.525500        1.0000005E-24
  -2.519000        1.0000004E-24
  -2.512500        1.0000003E-24
  -2.506000        1.0000002E-24
  -2.499500        1.0000001E-24
  -2.493000        1.0000000E-24
  -2.486500        9.9999992E-25
  -2.480000        9.9999982E-25
  -2.473500        9.9999972E-25
  -2.467000        9.9999972E-25
  -2.460500        9.9999972E-25
  -2.454000        9.9999972E-25
  -2.447500        9.9999972E-25
  -2.441000        9.9999972E-25
  -2.434500        9.9999982E-25
  -2.428000        9.9999992E-25
  -2.421500        1.0000000E-24
  -2.415000        1.0000001E-24
  -2.408500        1.0000002E-24
  -2.402000        1.0000003E-24
  -2.395500        1.0000004E-24
  -2.389000        1.0000005E-24
  -2.382500        1.0000006E-24
  -2.376000        1.0000006E-24
  -2.369500        1.0000006E-24
  -2.363000        1.0000006E-24
  -2.356500        1.0000006E-24
  -2.350000        1.0000005E-24
  -2.343500        1.0000004E-24
  -2.337000        1.0000003E-24
  -2.330500        1.0000002E-24
  -2.324000        1.0000001E-24
  -2.317500        1.0000000E-24
  -2.311000        9.9999992E-25
  -2.304500        9.9999982E-25
  -2.298000        9.9999972E-25
  -2.291500        9.9999963E-25
  -2.285000        9.9999953E-25
  -2.278500        9.9999953E-25
  -2.272000        9.9999953E-25
  -2.265500        9.9999953E-25
  -2.259000        9.9999953E-25
  -2.252500        9.9999963E-25
  -2.246000        9.9999972E-25
  -2.239500        9.9999982E-25
  -2.233000        9.9999992E-25
  -2.226500        1.0000001E-24
  -2.220000        1.0000003E-24
  -2.213500        1.0000005E-24
  -2.207000        1.0000006E-24
  -2.200500        1.0000007E-24
  -2.194000        1.0000008E-24
  -2.187500        1.0000008E-24
  -2.181000        1.0000008E-24
  -2.174500        1.0000008E-24
  -2.168000        1.0000007E-24
  -2.161500        1.0000006E-24
  -2.155000        1.0000005E-24
  -2.148500        1.0000003E-24
  -2.142000        1.0000001E-24
  -2.135500        9.9999992E-25
  -2.129000        9.9999982E-25
  -2.122500        9.9999972E-25
  -2.116000        9.9999972E-25
  -2.109500        9.9999972E-25
  -2.103000        9.9999982E-25
  -2.096500        9.9999992E-25
  -2.090000        1.0000001E-24
  -2.083500        1.0000003E-24
  -2.077000        1.0000005E-24
  -2.070500        1.0000007E-24
  -2.064000        1.0000009E-24
  -2.057500        1.0000011E-24
  -2.051000        1.0000013E-24
  -2.044500        1.0000014E-24
  -2.038000        1.0000014E-24
  -2.031500        1.0000014E-24
  -2.025000        1.0000013E-24
  -2.018500        1.0000011E-24
  -2.012000        1.0000009E-24
  -2.005500        1.0000006E-24
  -1.999000        1.0000003E-24
  -1.992500        9.9999992E-25
  -1.986000        9.9999953E-25
  -1.979500        9.9999923E-25
  -1.973000        9.9999893E-25
  -1.966500        9.9999874E-25
  -1.960000        9.9999864E-25
  -1.953500        9.9999864E-25
  -1.947000        9.9999874E-25
  -1.940500        9.9999893E-25
  -1.934000        9.9999923E-25
  -1.927500        9.9999953E-25
  -1.921000        9.9999992E-25
  -1.914500        1.0000003E-24
  -1.908000        1.0000007E-24
  -1.901500        1.0000011E-24
  -1.895000        1.0000014E-24
  -1.888500        1.0000016E-24
  -1.882000        1.0000016E-24
  -1.875500        1.0000015E-24
  -1.869000        1.0000013E-24
  -1.862500        1.0000011E-24
  -1.856000        1.0000008E-24
  -1.849500        1.0000005E-24
  -1.843000        1.0000001E-24
  -1.836500        9.9999972E-25
  -1.830000        9.9999933E-25
  -1.823500        9.9999893E-25
  -1.817000        9.9999854E-25
  -1.810500        9.9999824E-25
  -1.804000        9.9999815E-25
  -1.797500        9.9999815E-25
  -1.791000        9.9999824E-25
  -1.784500        9.9999844E-25
  -1.778000        9.9999864E-25
  -1.771500        9.9999893E-25
  -1.765000        9.9999933E-25
  -1.758500        9.9999972E-25
  -1.752000        1.0000001E-24
  -1.745500        1.0000005E-24
  -1.739000        1.0000008E-24
  -1.732500        1.0000011E-24
  -1.726000        1.0000012E-24
  -1.719500        1.0000012E-24
  -1.713000        1.0000010E-24
  -1.706500        1.0000007E-24
  -1.700000        1.0000004E-24
  -1.693500        1.0000001E-24
  -1.687000        9.9999972E-25
  -1.680500        9.9999933E-25
  -1.674000        9.9999893E-25
  -1.667500        9.9999854E-25
  -1.661000        9.9999824E-25
  -1.654500        9.9999815E-25
  -1.648000        9.9999815E-25
  -1.641500        9.9999824E-25
  -1.635000        9.9999844E-25
  -1.628500        9.9999874E-25
  -1.622000        9.9999903E-25
  -1.615500        9.9999943E-25
  -1.609000        9.9999992E-25
  -1.602500        1.0000005E-24
  -1.596000        1.0000011E-24
  -1.589500        1.0000017E-24
  -1.583000        1.0000022E-24
  -1.576500        1.0000026E-24
  -1.570000        1.0000028E-24
  -1.563500        1.0000029E-24
  -1.557000        1.0000029E-24
  -1.550500        1.0000027E-24
  -1.544000        1.0000024E-24
  -1.537500        1.0000020E-24
  -1.531000        1.0000016E-24
  -1.524500        1.0000011E-24
  -1.518000        1.0000006E-24
  -1.511500        1.0000001E-24
  -1.505000        9.9999963E-25
  -1.498500        9.9999923E-25
  -1.492000        9.9999893E-25
  -1.485500        9.9999884E-25
  -1.479000        9.9999884E-25
  -1.472500        9.9999893E-25
  -1.466000        9.9999913E-25
  -1.459500        9.9999933E-25
  -1.453000        9.9999963E-25
  -1.446500        1.0000000E-24
  -1.440000        1.0000005E-24
  -1.433500        1.0000010E-24
  -1.427000        1.0000015E-24
  -1.420500        1.0000020E-24
  -1.414000        1.0000025E-24
  -1.407500        1.0000029E-24
  -1.401000        1.0000032E-24
  -1.394500        1.0000033E-24
  -1.388000        1.0000033E-24
  -1.381500        1.0000031E-24
  -1.375000        1.0000027E-24
  -1.368500        1.0000020E-24
  -1.362000        1.0000012E-24
  -1.355500        1.0000001E-24
  -1.349000        9.9999884E-25
  -1.342500        9.9999726E-25
  -1.336000        9.9999538E-25
  -1.329500        9.9999331E-25
  -1.323000        9.9999105E-25
  -1.316500        9.9998878E-25
  -1.310000        9.9998671E-25
  -1.303500        9.9998493E-25
  -1.297000        9.9998375E-25
  -1.290500        9.9998326E-25
  -1.284000        9.9998395E-25
  -1.277500        9.9998602E-25
  -1.271000        9.9998986E-25
  -1.264500        9.9999568E-25
  -1.258000        1.0000039E-24
  -1.251500        1.0000145E-24
  -1.245000        1.0000274E-24
  -1.238500        1.0000424E-24
  -1.232000        1.0000593E-24
  -1.225500        1.0000769E-24
  -1.219000        1.0000943E-24
  -1.212500        1.0001101E-24
  -1.206000        1.0001224E-24
  -1.199500        1.0001293E-24
  -1.193000        1.0001284E-24
  -1.186500        1.0001172E-24
  -1.180000        1.0000932E-24
  -1.173500        1.0000543E-24
  -1.167000        9.9999854E-25
  -1.160500        9.9992508E-25
  -1.154000        9.9983367E-25
  -1.147500        9.9972569E-25
  -1.141000        9.9960421E-25
  -1.134500        9.9947395E-25
  -1.128000        9.9934211E-25
  -1.121500        9.9921796E-25
  -1.115000        9.9911304E-25
  -1.108500        9.9904126E-25
  -1.102000        9.9901779E-25
  -1.095500        9.9905891E-25
  -1.089000        9.9918138E-25
  -1.082500        9.9940039E-25
  -1.076000        9.9972905E-25
  -1.069500        1.0001765E-24
  -1.063000        1.0007455E-24
  -1.056500        1.0014313E-24
  -1.050000        1.0022196E-24
  -1.043500        1.0030841E-24
  -1.037000        1.0039864E-24
  -1.030500        1.0048740E-24
  -1.024000        1.0056806E-24
  -1.017500        1.0063270E-24
  -1.011000        1.0067226E-24
  -1.004500        1.0067690E-24
 -0.9980000        1.0063647E-24
 -0.9915000        1.0054106E-24
 -0.9850000        1.0038180E-24
 -0.9785000        1.0015172E-24
 -0.9720000        9.9846766E-25
 -0.9655000        9.9466791E-25
 -0.9590000        9.9016716E-25
 -0.9525000        9.8507398E-25
 -0.9460000        9.7956596E-25
 -0.9395000        9.7389563E-25
 -0.9330000        9.6839303E-25
 -0.9265000        9.6346442E-25
 -0.9200000        9.5958500E-25
 -0.9135000        9.5728616E-25
 -0.9070000        9.5713470E-25
 -0.9005000        9.5970491E-25
 -0.8940000        9.6554376E-25
 -0.8875000        9.7512822E-25
 -0.8810000        9.8881782E-25
 -0.8745000        1.0068008E-24
 -0.8680000        1.0290411E-24
 -0.8615000        1.0552235E-24
 -0.8550000        1.0847055E-24
 -0.8485000        1.1164769E-24
 -0.8420000        1.1491334E-24
 -0.8355000        1.1808683E-24
 -0.8290000        1.2094879E-24
 -0.8225000        1.2324542E-24
 -0.8160000        1.2469585E-24
 -0.8095000        1.2500309E-24
 -0.8030000        1.2386830E-24
 -0.7965000        1.2100877E-24
 -0.7900000        1.1617878E-24
 -0.7835000        1.0919332E-24
 -0.7770000        9.9953341E-25
 -0.7705000        8.8471756E-25
 -0.7640000        7.4898497E-25
 -0.7575000        5.9543093E-25
 -0.7510000        4.2892759E-25
 -0.7445000        2.5623955E-25
 -0.7380000        8.6053243E-26
 -0.7315000       -7.1101494E-26
 -0.7250000       -2.0305532E-25
 -0.7185000       -2.9634472E-25
 -0.7120000       -3.3670881E-25
 -0.7055000       -3.0974081E-25
 -0.6990000       -2.0168958E-25
 -0.6925000       -3.9616254E-28
 -0.6860000        3.0365998E-25
 -0.6795000        7.1624300E-25
 -0.6730000        1.2382195E-24
 -0.6665000        1.8644556E-24
 -0.6600000        2.5828225E-24
 -0.6535000        3.3733893E-24
 -0.6470000        4.2078902E-24
 -0.6405000        5.0495476E-24
 -0.6340000        5.8533361E-24
 -0.6275000        6.5667669E-24
 -0.6210000        7.1312418E-24
 -0.6145000        7.4840252E-24
 -0.6080000        7.5608508E-24
 -0.6015000        7.2991264E-24
 -0.5950000        6.6417071E-24
 -0.5885000        5.5411077E-24
 -0.5820000        3.9640422E-24
 -0.5755000        1.8960775E-24
 -0.5690000       -6.5381053E-25
 -0.5625000       -3.6490528E-24
 -0.5560000       -7.0219751E-24
 -0.5495000       -1.0671269E-23
 -0.5430000       -1.4460780E-23
 -0.5365000       -1.8219902E-23
 -0.5300000       -2.1745913E-23
 -0.5235000       -2.4808410E-23
 -0.5170000       -2.7156089E-23
 -0.5105000       -2.8525873E-23
 -0.5040000       -2.8654382E-23
 -0.4975000       -2.7291580E-23
 -0.4910000       -2.4216209E-23
 -0.4845000       -1.9252655E-23
 -0.4780000       -1.2288507E-23
 -0.4715000       -3.2920795E-24
 -0.4650000        7.6710002E-24
 -0.4585000        2.0423207E-23
 -0.4520000        3.4663605E-23
 -0.4455000        4.9960546E-23
 -0.4390000        6.5749714E-23
 -0.4325000        8.1338501E-23
 -0.4260000        9.5917635E-23
 -0.4195000        1.0858077E-22
 -0.4130000        1.1835226E-22
 -0.4065000        1.2422328E-22
 -0.4000000        1.2519594E-22
 -0.3935000        1.2033431E-22
 -0.3870000        1.0882124E-22
 -0.3805000        9.0018969E-23
 -0.3740000        6.3531247E-23
 -0.3675000        2.9264089E-23
 -0.3610000       -1.2518000E-23
 -0.3545000       -6.1143858E-23
 -0.3480000       -1.1549921E-22
 -0.3415000       -1.7400560E-22
 -0.3350000       -2.3461821E-22
 -0.3285000       -2.9484581E-22
 -0.3220000       -3.5179521E-22
 -0.3155000       -4.0224217E-22
 -0.3090000       -4.4272944E-22
 -0.3025000       -4.6969172E-22
 -0.2960000       -4.7960532E-22
 -0.2895000       -4.6915984E-22
 -0.2830000       -4.3544703E-22
 -0.2765000       -3.7615985E-22
 -0.2700000       -2.8979513E-22
 -0.2635000       -1.7584988E-22
 -0.2570000       -3.5001695E-23
 -0.2505000        1.3073798E-22
 -0.2440000        3.1790857E-22
 -0.2375000        5.2153425E-22
 -0.2310000        7.3511714E-22
 -0.2245000        9.5069901E-22
 -0.2180000        1.1589993E-21
 -0.2115000        1.3496322E-21
 -0.2050000        1.5114072E-21
 -0.1985000        1.6327091E-21
 -0.1920000        1.7019532E-21
 -0.1855000        1.7081045E-21
 -0.1790000        1.6412473E-21
 -0.1725000        1.4931866E-21
 -0.1660000        1.2580594E-21
 -0.1595000        9.3292887E-22
 -0.1530000        5.1833230E-22
 -0.1465000        1.8754916E-23
 -0.1400000       -5.5700512E-22
 -0.1335000       -1.1956085E-21
 -0.1270000       -1.8791142E-21
 -0.1205000       -2.5851088E-21
 -0.1140000       -3.2870479E-21
 -0.1075000       -3.9548220E-21
 -0.1010000       -4.5555510E-21
 -9.4499998E-02   -5.0546031E-21
 -8.8000000E-02   -5.4168237E-21
 -8.1500001E-02   -5.6079509E-21
 -7.5000003E-02   -5.5961721E-21
 -6.8499997E-02   -5.3537864E-21
 -6.1999999E-02   -4.8589025E-21
 -5.5500001E-02   -4.0971160E-21
 -4.8999999E-02   -3.0630805E-21
 -4.2500000E-02   -1.7619052E-21
 -3.5999998E-02   -2.1028983E-22
 -2.9500000E-02    1.5626789E-21
 -2.3000000E-02    3.5151424E-21
 -1.6500000E-02    5.5925661E-21
 -9.9999998E-03    7.7283662E-21
 -3.5000001E-03    9.8451101E-21
  3.0000000E-03    1.1856295E-20
  9.4999997E-03    1.3668717E-20
  1.6000001E-02    1.5185401E-20
  2.2500001E-02    1.6309003E-20
  2.8999999E-02    1.6945666E-20
  3.5500001E-02    1.7009142E-20
  4.1999999E-02    1.6425135E-20
  4.8500001E-02    1.5135625E-20
  5.5000000E-02    1.3103067E-20
  6.1500002E-02    1.0314248E-20
  6.8000004E-02    6.7836153E-21
  7.4500002E-02    2.5558954E-21
  8.1000000E-02   -2.2921823E-21
  8.7499999E-02   -7.6512187E-21
  9.3999997E-02   -1.3379681E-20
  0.1005000       -1.9305730E-20
  0.1070000       -2.5230427E-20
  0.1135000       -3.0932309E-20
  0.1200000       -3.6173322E-20
  0.1265000       -4.0706007E-20
  0.1330000       -4.4281793E-20
  0.1395000       -4.6660202E-20
  0.1460000       -4.7618659E-20
  0.1525000       -4.6962672E-20
  0.1590000       -4.4535973E-20
  0.1655000       -4.0230249E-20
  0.1720000       -3.3994044E-20
  0.1785000       -2.5840492E-20
  0.1850000       -1.5853356E-20
  0.1915000       -4.1911267E-21
  0.1980000        8.9112450E-21
  0.2045000        2.3143219E-20
  0.2110000        3.8122350E-20
  0.2175000        5.3400929E-20
  0.2240000        6.8475549E-20
  0.2305000        8.2799571E-20
  0.2370000        9.5798268E-20
  0.2435000        1.0688631E-19
  0.2500000        1.1548723E-19
  0.2565000        1.2105432E-19
  0.2630000        1.2309222E-19
  0.2695000        1.2117884E-19
  0.2760000        1.1498649E-19
  0.2825000        1.0430167E-19
  0.2890000        8.9042497E-20
  0.2955000        6.9273404E-20
  0.3020000        4.5215893E-20
  0.3085000        1.7254983E-20
  0.3150000       -1.4059288E-20
  0.3215000       -4.8015734E-20
  0.3280000       -8.3751559E-20
  0.3345000       -1.2026769E-19
  0.3410000       -1.5644980E-19
  0.3475000       -1.9109467E-19
  0.3540000       -2.2294180E-19
  0.3605000       -2.5070903E-19
  0.3670000       -2.7313207E-19
  0.3735000       -2.8900597E-19
  0.3800000       -2.9722864E-19
  0.3865000       -2.9684395E-19
  0.3930000       -2.8708399E-19
  0.3995000       -2.6740829E-19
  0.4060000       -2.3753949E-19
  0.4125000       -1.9749333E-19
  0.4190000       -1.4760206E-19
  0.4255000       -8.8530026E-20
  0.4320000       -2.1280399E-20
  0.4385000        5.2807834E-20
  0.4450000        1.3207306E-19
  0.4515000        2.1455493E-19
  0.4580000        2.9802888E-19
  0.4645000        3.8005105E-19
  0.4710000        4.5801321E-19
  0.4775000        5.2920668E-19
  0.4840000        5.9089409E-19
  0.4905000        6.4038762E-19
  0.4970000        6.7513236E-19
  0.5035000        6.9279173E-19
  0.5100000        6.9133414E-19
  0.5165000        6.6911782E-19
  0.5230000        6.2497114E-19
  0.5295000        5.5826647E-19
  0.5360000        4.6898483E-19
  0.5425000        3.5776823E-19
  0.5490000        2.2595842E-19
  0.5555000        7.5618512E-20
  0.5620000       -9.0463716E-20
  0.5685000       -2.6879273E-19
  0.5750000       -4.5520369E-19
  0.5815000       -6.4492351E-19
  0.5880000       -8.3265484E-19
  0.5945000       -1.0126823E-18
  0.6010000       -1.1790006E-18
  0.6075000       -1.3254634E-18
  0.6140000       -1.4459493E-18
  0.6205000       -1.5345440E-18
  0.6270000       -1.5857325E-18
  0.6335000       -1.5945993E-18
  0.6400000       -1.5570297E-18
  0.6465000       -1.4699080E-18
  0.6530000       -1.3313052E-18
  0.6595000       -1.1406500E-18
  0.6660000       -8.9887587E-19
  0.6725000       -6.0853889E-19
  0.6790000       -2.7389796E-19
  0.6855000        9.9049444E-20
  0.6920000        5.0257964E-19
  0.6985000        9.2730979E-19
  0.7050000        1.3623224E-18
  0.7115000        1.7953513E-18
  0.7180000        2.2130266E-18
  0.7245000        2.6011813E-18
  0.7310000        2.9452121E-18
  0.7375000        3.2304939E-18
  0.7440000        3.4428345E-18
  0.7505000        3.5689634E-18
  0.7570000        3.5970425E-18
  0.7635000        3.5171823E-18
  0.7700000        3.3219466E-18
  0.7765000        3.0068317E-18
  0.7830000        2.5706987E-18
  0.7895000        2.0161402E-18
  0.7960000        1.3497625E-18
  0.8025000        5.8236503E-19
  0.8090000       -2.7100027E-19
  0.8155000       -1.1911028E-18
  0.8220000       -2.1547532E-18
  0.8285000       -3.1351766E-18
  0.8350000       -4.1025416E-18
  0.8415000       -5.0246429E-18
  0.8480000       -5.8677331E-18
  0.8545000       -6.5974867E-18
  0.8610000       -7.1800774E-18
  0.8675000       -7.5833462E-18
  0.8740000       -7.7780281E-18
  0.8805000       -7.7389976E-18
  0.8870000       -7.4464991E-18
  0.8935000       -6.8873117E-18
  0.9000000       -6.0558116E-18
  0.9065000       -4.9548698E-18
  0.9130000       -3.5965548E-18
  0.9195000       -2.0025890E-18
  0.9260000       -2.0451780E-19
  0.9325000        1.7564337E-18
  0.9390000        3.8298512E-18
  0.9455000        5.9569776E-18
  0.9520000        8.0719229E-18
  0.9585000        1.0103226E-17
  0.9650000        1.1975763E-17
  0.9715000        1.3612931E-17
  0.9780000        1.4939117E-17
  0.9845000        1.5882319E-17
  0.9910000        1.6376927E-17
  0.9975000        1.6366498E-17
   1.004000        1.5806497E-17
   1.010500        1.4666864E-17
   1.017000        1.2934335E-17
   1.023500        1.0614381E-17
   1.030000        7.7326986E-18
   1.036500        4.3361370E-18
   1.043000        4.9299685E-19
   1.049500       -3.7073764E-18
   1.056000       -8.1557444E-18
   1.062500       -1.2724900E-17
   1.069000       -1.7272368E-17
   1.075500       -2.1643854E-17
   1.082000       -2.5677382E-17
   1.088500       -2.9208055E-17
   1.095000       -3.2073316E-17
   1.101500       -3.4118567E-17
   1.108000       -3.5203030E-17
   1.114500       -3.5205601E-17
   1.121000       -3.4030558E-17
   1.127500       -3.1612904E-17
   1.134000       -2.7923139E-17
   1.140500       -2.2971219E-17
   1.147000       -1.6809569E-17
   1.153500       -9.5349151E-18
   1.160000       -1.2888234E-18
   1.166500        7.7432154E-18
   1.173000        1.7334203E-17
   1.179500        2.7219612E-17
   1.186000        3.7102922E-17
   1.192500        4.6662631E-17
   1.199000        5.5560643E-17
   1.205500        6.3451880E-17
   1.212000        6.9994839E-17
   1.218500        7.4862903E-17
   1.225000        7.7756030E-17
   1.231500        7.8412507E-17
   1.238000        7.6620403E-17
   1.244500        7.2228280E-17
   1.251000        6.5154774E-17
   1.257500        5.5396759E-17
   1.264000        4.3035537E-17
   1.270500        2.8240892E-17
   1.277000        1.1272635E-17
   1.283500       -7.5206004E-18
   1.290000       -2.7705412E-17
   1.296500       -4.8770658E-17
   1.303000       -7.0137458E-17
   1.309500       -9.1171999E-17
   1.316000       -1.1120100E-16
   1.322500       -1.2952956E-16
   1.329000       -1.4546089E-16
   1.335500       -1.5831763E-16
   1.342000       -1.6746399E-16
   1.348500       -1.7232818E-16
   1.355000       -1.7242465E-16
   1.361500       -1.6737497E-16
   1.368000       -1.5692721E-16
   1.374500       -1.4097261E-16
   1.381000       -1.1955920E-16
   1.387500       -9.2901561E-17
   1.394000       -6.1386218E-17
   1.400500       -2.5572348E-17
   1.407000        1.3812731E-17
   1.413500        5.5883396E-17
   1.420000        9.9610903E-17
   1.426500        1.4384385E-16
   1.433000        1.8733367E-16
   1.439500        2.2876467E-16
   1.446000        2.6678793E-16
   1.452500        3.0005880E-16
   1.459000        3.2727617E-16
   1.465500        3.4722334E-16
   1.472000        3.5880932E-16
   1.478500        3.6110849E-16
   1.485000        3.5339872E-16
   1.491500        3.3519553E-16
   1.498000        3.0628177E-16
   1.504500        2.6673142E-16
   1.511000        2.1692657E-16
   1.517500        1.5756642E-16
   1.524000        8.9668026E-17
   1.530500        1.4557752E-17
   1.537000       -6.6146643E-17
   1.543500       -1.5056326E-16
   1.550000       -2.3658260E-16
   1.556500       -3.2191297E-16
   1.563000       -4.0413358E-16
   1.569500       -4.8075504E-16
   1.576000       -5.4928509E-16
   1.582500       -6.0729891E-16
   1.589000       -6.5251130E-16
   1.595500       -6.8284996E-16
   1.602000       -6.9652668E-16
   1.608500       -6.9210549E-16
   1.615000       -6.6856453E-16
   1.621500       -6.2535034E-16
   1.628000       -5.6242220E-16
   1.634500       -4.8028478E-16
   1.641000       -3.8000765E-16
   1.647500       -2.6322991E-16
   1.654000       -1.3214936E-16
   1.660500        1.0504846E-17
   1.667000        1.6151583E-16
   1.673500        3.1723909E-16
   1.680000        4.7367808E-16
   1.686500        6.2657436E-16
   1.693000        7.7151017E-16
   1.699500        9.0402217E-16
   1.706000        1.0197230E-15
   1.712500        1.1144279E-15
   1.719000        1.1842843E-15
   1.725500        1.2258986E-15
   1.732000        1.2364589E-15
   1.738500        1.2138482E-15
   1.745000        1.1567461E-15
   1.751500        1.0647129E-15
   1.758000        9.3825554E-16
   1.764500        7.7887025E-16
   1.771000        5.8906070E-16
   1.777500        3.7232868E-16
   1.784000        1.3313618E-16
   1.790500       -1.2316124E-16
   1.797000       -3.9041059E-16
   1.803500       -6.6178568E-16
   1.810000       -9.2993778E-16
   1.816500       -1.1871701E-15
   1.823000       -1.4256330E-15
   1.829500       -1.6375351E-15
   1.836000       -1.8153657E-15
   1.842500       -1.9521232E-15
   1.849000       -2.0415432E-15
   1.855500       -2.0783194E-15
   1.862000       -2.0583123E-15
   1.868500       -1.9787359E-15
   1.875000       -1.8383205E-15
   1.881500       -1.6374392E-15
   1.888000       -1.3782003E-15
   1.894500       -1.0644929E-15
   1.901000       -7.0198660E-16
   1.907500       -2.9808127E-16
   1.914000        1.3819585E-16
   1.920500        5.9634471E-16
   1.927000        1.0645983E-15
   1.933500        1.5301771E-15
   1.940000        1.9795869E-15
   1.946500        2.3989570E-15
   1.953000        2.7744071E-15
   1.959500        3.0924408E-15
   1.966000        3.3403481E-15
   1.972500        3.5066158E-15
   1.979000        3.5813235E-15
   1.985500        3.5565262E-15
   1.992000        3.4265968E-15
   1.998500        3.1885329E-15
   2.005000        2.8422027E-15
   2.011500        2.3905273E-15
   2.018000        1.8395891E-15
   2.024500        1.1986586E-15
   2.031000        4.8013147E-16
   2.037500       -3.0062271E-16
   2.044000       -1.1255067E-15
   2.050500       -1.9740308E-15
   2.057000       -2.8237376E-15
   2.063500       -3.6507035E-15
   2.070000       -4.4301161E-15
   2.076500       -5.1369054E-15
   2.083000       -5.7464278E-15
   2.089500       -6.2351696E-15
   2.096000       -6.5814701E-15
   2.102500       -6.7662322E-15
   2.109000       -6.7736039E-15
   2.115500       -6.5916134E-15
   2.122000       -6.2127351E-15
   2.128500       -5.6343619E-15
   2.135000       -4.8591764E-15
   2.141500       -3.8953978E-15
   2.148000       -2.7568875E-15
   2.154500       -1.4631139E-15
   2.161000       -3.8956475E-17
   2.167500        1.4856445E-15
   2.174000        3.0761967E-15
   2.180500        4.6943150E-15
   2.187000        6.2985281E-15
   2.193500        7.8452048E-15
   2.200000        9.2895967E-15
   2.206500        1.0586969E-14
   2.213000        1.1693786E-14
   2.219500        1.2568942E-14
   2.226000        1.3174979E-14
   2.232500        1.3479285E-14
   2.239000        1.3455223E-14
   2.245500        1.3083158E-14
   2.252000        1.2351370E-14
   2.258500        1.1256779E-14
   2.265000        9.8054999E-15
   2.271500        8.0131807E-15
   2.278000        5.9051016E-15
   2.284500        3.5160350E-15
   2.291000        8.8984167E-16
   2.297500       -1.9211844E-15
   2.304000       -4.8572262E-15
   2.310500       -7.8520920E-15
   2.317000       -1.0834590E-14
   2.323500       -1.3730095E-14
   2.330000       -1.6462280E-14
   2.336500       -1.8954971E-14
   2.343000       -2.1134094E-14
   2.349500       -2.2929646E-14
   2.356000       -2.4277668E-14
   2.362500       -2.5122132E-14
   2.369000       -2.5416728E-14
   2.375500       -2.5126477E-14
   2.382000       -2.4229123E-14
   2.388500       -2.2716260E-14
   2.395000       -2.0594158E-14
   2.401500       -1.7884252E-14
   2.408000       -1.4623256E-14
   2.414500       -1.0862912E-14
   2.421000       -6.6693274E-15
   2.427500       -2.1219306E-15
   2.434000        2.6879508E-15
   2.440500        7.6588753E-15
   2.447000        1.2681397E-14
   2.453500        1.7640456E-14
   2.460000        2.2418004E-14
   2.466500        2.6895808E-14
   2.473000        3.0958363E-14
   2.479500        3.4495830E-14
   2.486000        3.7406947E-14
   2.492500        3.9601823E-14
   2.499000        4.1004560E-14
   2.505500        4.1555579E-14
   2.512000        4.1213638E-14
   2.518500        3.9957427E-14
   2.525000        3.7786753E-14
   2.531500        3.4723174E-14
   2.538000        3.0810139E-14
   2.544500        2.6112569E-14
   2.551000        2.0715853E-14
   2.557500        1.4724323E-14
   2.564000        8.2591743E-15
   2.570500        1.4559031E-15
   2.577000       -5.5386997E-15
   2.583500       -1.2569939E-14
   2.590000       -1.9478902E-14
   2.596500       -2.6106352E-14
   2.603000       -3.2296756E-14
   2.609500       -3.7902302E-14
   2.616000       -4.2786839E-14
   2.622500       -4.6829612E-14
   2.629000       -4.9928682E-14
   2.635500       -5.2003954E-14
   2.642000       -5.2999678E-14
   2.648500       -5.2886372E-14
   2.655000       -5.1662115E-14
   2.661500       -4.9353066E-14
   2.668000       -4.6013306E-14
   2.674500       -4.1723860E-14
   2.681000       -3.6590956E-14
   2.687500       -3.0743579E-14
   2.694000       -2.4330288E-14
   2.700500       -1.7515410E-14
   2.707000       -1.0474702E-14
   2.713500       -3.3905403E-15
   2.720000        3.5531829E-15
   2.726500        1.0176383E-14
   2.733000        1.6308132E-14
   2.739500        2.1791922E-14
   2.746000        2.6490652E-14
   2.752500        3.0291226E-14
   2.759000        3.3108580E-14
   2.765500        3.4889019E-14
   2.772000        3.5612735E-14
   2.778500        3.5295395E-14
   2.785000        3.3988739E-14
   2.791500        3.1780066E-14
   2.798000        2.8790667E-14
   2.804500        2.5173111E-14
   2.811000        2.1107461E-14
   2.817500        1.6796482E-14
   2.824000        1.2459897E-14
   2.830500        8.3278433E-15
   2.837000        4.6336573E-15
   2.843500        1.6061684E-15
   2.850000       -5.3829531E-16
   2.856500       -1.6039910E-15
   2.863000       -1.4236960E-15
   2.869500        1.3373654E-16
   2.876000        3.1564327E-15
   2.882500        7.6834054E-15
   2.889000        1.3699518E-14
   2.895500        2.1131727E-14
   2.902000        2.9846771E-14