  -3.000000        1.0000000E-24
  -2.993500        1.0000000E-24
  -2.987000        1.0000000E-24
  -2.980500        1.0000000E-24
  -2.974000        1.0000000E-24
  -2.967500        1.0000000E-24
  -2.961000        1.0000000E-24
  -2.954500        1.0000000E-24
  -2.948000        1.0000000E-24
  -2.941500        1.0000000E-24
  -2.935000        1.0000000E-24
  -2.928500        1.0000000E-24
  -2.922000        1.0000000E-24
  -2.915500        1.0000000E-24
  -2.909000        1.0000000E-24
  -2.902500        1.0000000E-24
  -2.896000        1.0000000E-24
  -2.889500        1.0000000E-24
  -2.883000        1.0000000E-24
  -2.876500        1.0000000E-24
  -2.870000        1.0000000E-24
  -2.863500        1.0000000E-24
  -2.857000        1.0000000E-24
  -2.850500        1.0000000E-24
  -2.844000        1.0000000E-24
  -2.837500        1.0000000E-24
  -2.831000        1.0000000E-24
  -2.824500        1.0000000E-24
  -2.818000        1.0000000E-24
  -2.811500        1.0000000E-24
  -2.805000        1.0000000E-24
  -2.798500        1.0000000E-24
  -2.792000        1.0000000E-24
  -2.785500        1.0000000E-24
  -2.779000        1.0000000E-24
  -2.772500        1.0000000E-24
  -2.766000        1.0000000E-24
  -2.759500        1.0000000E-24
  -2.753000        1.0000000E-24
  -2.746500        1.0000000E-24
  -2.740000        1.0000000E-24
  -2.733500        1.0000000E-24
  -2.727000        1.0000000E-24
  -2.720500        1.0000000E-24
  -2.714000        1.0000001E-24
  -2.707500        1.0000003E-24
  -2.701000        1.0000004E-24
  -2.694500        1.0000004E-24
  -2.688000        1.0000004E-24
  -2.681500        1.0000004E-24
  -2.675000        1.0000004E-24
  -2.668500        1.0000004E-24
  -2.662000        1.0000004E-24
  -2.655500        1.0000004E-24
  -2.649000        1.0000004E-24
  -2.642500        1.0000004E-24
  -2.636000        1.0000004E-24
  -2.629500        1.0000004E-24
  -2.623000        1.0000004E-24
  -2.616500        1.0000004E-24
  -2.610000        1.0000004E-24
  -2.603500        1.0000004E-24
  -2.597000        1.0000003E-24
  -2.590500        1.0000002E-24
  -2.584000        1.0000002E-24
  -2.577500        1.0000000E-24
  -2.571000        9.9999992E-25
  -2.564500        9.9999982E-25
  -2.558000        9.9999972E-25
  -2.551500        9.9999963E-25
  -2.545000        9.9999963E-25
  -2.538500        9.9999963E-25
  -2.532000        9.9999963E-25
  -2.525500        9.9999963E-25
  -2.519000        9.9999963E-25
  -2.512500        9.9999972E-25
  -2.506000        9.9999972E-25
  -2.499500        9.9999972E-25
  -2.493000        9.9999972E-25
  -2.486500        9.9999982E-25
  -2.480000        9.9999992E-25
  -2.473500        1.0000000E-24
  -2.467000        1.0000001E-24
  -2.460500        1.0000001E-24
  -2.454000        1.0000001E-24
  -2.447500        1.0000001E-24
  -2.441000        1.0000001E-24
  -2.434500        1.0000001E-24
  -2.428000        1.0000001E-24
  -2.421500        1.0000002E-24
  -2.415000        1.0000002E-24
  -2.408500        1.0000002E-24
  -2.402000        1.0000002E-24
  -2.395500        1.0000002E-24
  -2.389000        1.0000003E-24
  -2.382500        1.0000003E-24
  -2.376000        1.0000003E-24
  -2.369500        1.0000003E-24
  -2.363000        1.0000003E-24
  -2.356500        1.0000003E-24
  -2.350000        1.0000003E-24
  -2.343500        1.0000003E-24
  -2.337000        1.0000003E-24
  -2.330500        1.0000003E-24
  -2.324000        1.0000003E-24
  -2.317500        1.0000004E-24
  -2.311000        1.0000003E-24
  -2.304500        1.0000002E-24
  -2.298000        1.0000001E-24
  -2.291500        1.0000000E-24
  -2.285000        9.9999992E-25
  -2.278500        9.9999982E-25
  -2.272000        9.9999972E-25
  -2.265500        9.9999972E-25
  -2.259000        9.9999963E-25
  -2.252500        9.9999963E-25
  -2.246000        9.9999963E-25
  -2.239500        9.9999953E-25
  -2.233000        9.9999963E-25
  -2.226500        9.9999972E-25
  -2.220000        9.9999972E-25
  -2.213500        9.9999982E-25
  -2.207000        9.9999992E-25
  -2.200500        1.0000000E-24
  -2.194000        1.0000000E-24
  -2.187500        1.0000001E-24
  -2.181000        1.0000002E-24
  -2.174500        1.0000003E-24
  -2.168000        1.0000004E-24
  -2.161500        1.0000005E-24
  -2.155000        1.0000006E-24
  -2.148500        1.0000007E-24
  -2.142000        1.0000007E-24
  -2.135500        1.0000007E-24
  -2.129000        1.0000006E-24
  -2.122500        1.0000005E-24
  -2.116000        1.0000005E-24
  -2.109500        1.0000004E-24
  -2.103000        1.0000003E-24
  -2.096500        1.0000002E-24
  -2.090000        1.0000001E-24
  -2.083500        9.9999992E-25
  -2.077000        9.9999982E-25
  -2.070500        9.9999972E-25
  -2.064000        9.9999963E-25
  -2.057500        9.9999953E-25
  -2.051000        9.9999953E-25
  -2.044500        9.9999953E-25
  -2.038000        9.9999953E-25
  -2.031500        9.9999953E-25
  -2.025000        9.9999963E-25
  -2.018500        9.9999963E-25
  -2.012000        9.9999972E-25
  -2.005500        9.9999992E-25
  -1.999000        1.0000000E-24
  -1.992500        1.0000001E-24
  -1.986000        1.0000002E-24
  -1.979500        1.0000003E-24
  -1.973000        1.0000004E-24
  -1.966500        1.0000004E-24
  -1.960000        1.0000004E-24
  -1.953500        1.0000004E-24
  -1.947000        1.0000004E-24
  -1.940500        1.0000003E-24
  -1.934000        1.0000003E-24
  -1.927500        1.0000003E-24
  -1.921000        1.0000002E-24
  -1.914500        1.0000002E-24
  -1.908000        1.0000002E-24
  -1.901500        1.0000003E-24
  -1.895000        1.0000003E-24
  -1.888500        1.0000003E-24
  -1.882000        1.0000004E-24
  -1.875500        1.0000004E-24
  -1.869000        1.0000005E-24
  -1.862500        1.0000005E-24
  -1.856000        1.0000005E-24
  -1.849500        1.0000005E-24
  -1.843000        1.0000005E-24
  -1.836500        1.0000005E-24
  -1.830000        1.0000005E-24
  -1.823500        1.0000005E-24
  -1.817000        1.0000004E-24
  -1.810500        1.0000003E-24
  -1.804000        1.0000002E-24
  -1.797500        1.0000002E-24
  -1.791000        1.0000001E-24
  -1.784500        1.0000000E-24
  -1.778000        1.0000000E-24
  -1.771500        9.9999982E-25
  -1.765000        9.9999972E-25
  -1.758500        9.9999963E-25
  -1.752000        9.9999963E-25
  -1.745500        9.9999953E-25
  -1.739000        9.9999953E-25
  -1.732500        9.9999943E-25
  -1.726000        9.9999943E-25
  -1.719500        9.9999953E-25
  -1.713000        9.9999963E-25
  -1.706500        9.9999963E-25
  -1.700000        9.9999972E-25
  -1.693500        9.9999972E-25
  -1.687000        9.9999992E-25
  -1.680500        1.0000000E-24
  -1.674000        1.0000001E-24
  -1.667500        1.0000002E-24
  -1.661000        1.0000002E-24
  -1.654500        1.0000003E-24
  -1.648000        1.0000003E-24
  -1.641500        1.0000004E-24
  -1.635000        1.0000004E-24
  -1.628500        1.0000004E-24
  -1.622000        1.0000004E-24
  -1.615500        1.0000004E-24
  -1.609000        1.0000004E-24
  -1.602500        1.0000004E-24
  -1.596000        1.0000004E-24
  -1.589500        1.0000003E-24
  -1.583000        1.0000003E-24
  -1.576500        1.0000003E-24
  -1.570000        1.0000001E-24
  -1.563500        1.0000000E-24
  -1.557000        9.9999992E-25
  -1.550500        9.9999982E-25
  -1.544000        9.9999972E-25
  -1.537500        9.9999963E-25
  -1.531000        9.9999963E-25
  -1.524500        9.9999953E-25
  -1.518000        9.9999953E-25
  -1.511500        9.9999943E-25
  -1.505000        9.9999933E-25
  -1.498500        9.9999923E-25
  -1.492000        9.9999923E-25
  -1.485500        9.9999913E-25
  -1.479000        9.9999913E-25
  -1.472500        9.9999913E-25
  -1.466000        9.9999913E-25
  -1.459500        9.9999923E-25
  -1.453000        9.9999933E-25
  -1.446500        9.9999943E-25
  -1.440000        9.9999963E-25
  -1.433500        9.9999972E-25
  -1.427000        9.9999992E-25
  -1.420500        1.0000001E-24
  -1.414000        1.0000004E-24
  -1.407500        1.0000006E-24
  -1.401000        1.0000008E-24
  -1.394500        1.0000009E-24
  -1.388000        1.0000009E-24
  -1.381500        1.0000010E-24
  -1.375000        1.0000011E-24
  -1.368500        1.0000011E-24
  -1.362000        1.0000011E-24
  -1.355500        1.0000011E-24
  -1.349000        1.0000011E-24
  -1.342500        1.0000012E-24
  -1.336000        1.0000013E-24
  -1.329500        1.0000014E-24
  -1.323000        1.0000016E-24
  -1.316500        1.0000018E-24
  -1.310000        1.0000020E-24
  -1.303500        1.0000023E-24
  -1.297000        1.0000025E-24
  -1.290500        1.0000026E-24
  -1.284000        1.0000025E-24
  -1.277500        1.0000023E-24
  -1.271000        1.0000019E-24
  -1.264500        1.0000011E-24
  -1.258000        9.9999992E-25
  -1.251500        9.9999854E-25
  -1.245000        9.9999686E-25
  -1.238500        9.9999509E-25
  -1.232000        9.9999322E-25
  -1.225500        9.9999154E-25
  -1.219000        9.9999016E-25
  -1.212500        9.9998927E-25
  -1.206000        9.9998907E-25
  -1.199500        9.9998967E-25
  -1.193000        9.9999105E-25
  -1.186500        9.9999331E-25
  -1.180000        9.9999627E-25
  -1.173500        9.9999992E-25
  -1.167000        1.0000040E-24
  -1.160500        1.0000082E-24
  -1.154000        1.0000123E-24
  -1.147500        1.0000163E-24
  -1.141000        1.0000196E-24
  -1.134500        1.0000219E-24
  -1.128000        1.0000230E-24
  -1.121500        1.0000225E-24
  -1.115000        1.0000201E-24
  -1.108500        1.0000158E-24
  -1.102000        1.0000094E-24
  -1.095500        1.0000011E-24
  -1.089000        9.9999184E-25
  -1.082500        9.9998207E-25
  -1.076000        9.9997201E-25
  -1.069500        9.9996235E-25
  -1.063000        9.9995259E-25
  -1.056500        9.9994312E-25
  -1.050000        9.9993376E-25
  -1.043500        9.9992478E-25
  -1.037000        9.9991601E-25
  -1.030500        9.9990664E-25
  -1.024000        9.9989628E-25
  -1.017500        9.9988692E-25
  -1.011000        9.9987844E-25
  -1.004500        9.9987124E-25
 -0.9980000        9.9986453E-25
 -0.9915000        9.9986029E-25
 -0.9850000        9.9985990E-25
 -0.9785000        9.9986512E-25
 -0.9720000        9.9987804E-25
 -0.9655000        9.9990240E-25
 -0.9590000        9.9993977E-25
 -0.9525000        9.9999529E-25
 -0.9460000        1.0000651E-24
 -0.9395000        1.0001525E-24
 -0.9330000        1.0002568E-24
 -0.9265000        1.0003708E-24
 -0.9200000        1.0004861E-24
 -0.9135000        1.0005924E-24
 -0.9070000        1.0006839E-24
 -0.9005000        1.0007552E-24
 -0.8940000        1.0008004E-24
 -0.8875000        1.0007937E-24
 -0.8810000        1.0007329E-24
 -0.8745000        1.0005991E-24
 -0.8680000        1.0004134E-24
 -0.8615000        1.0001722E-24
 -0.8550000        9.9988297E-25
 -0.8485000        9.9955589E-25
 -0.8420000        9.9920455E-25
 -0.8355000        9.9882432E-25
 -0.8290000        9.9845109E-25
 -0.8225000        9.9809985E-25
 -0.8160000        9.9781990E-25
 -0.8095000        9.9764123E-25
 -0.8030000        9.9756806E-25
 -0.7965000        9.9763068E-25
 -0.7900000        9.9782572E-25
 -0.7835000        9.9813210E-25
 -0.7770000        9.9850483E-25
 -0.7705000        9.9897174E-25
 -0.7640000        9.9953568E-25
 -0.7575000        1.0001555E-24
 -0.7510000        1.0007906E-24
 -0.7445000        1.0014753E-24
 -0.7380000        1.0021962E-24
 -0.7315000        1.0029143E-24
 -0.7250000        1.0036604E-24
 -0.7185000        1.0044087E-24
 -0.7120000        1.0051135E-24
 -0.7055000        1.0056802E-24
 -0.6990000        1.0059943E-24
 -0.6925000        1.0060412E-24
 -0.6860000        1.0056035E-24
 -0.6795000        1.0048412E-24
 -0.6730000        1.0036361E-24
 -0.6665000        1.0021277E-24
 -0.6600000        1.0002785E-24
 -0.6535000        9.9835899E-25
 -0.6470000        9.9628725E-25
 -0.6405000        9.9413464E-25
 -0.6340000        9.9240575E-25
 -0.6275000        9.9130588E-25
 -0.6210000        9.9080999E-25
 -0.6145000        9.9096204E-25
 -0.6080000        9.9160979E-25
 -0.6015000        9.9278954E-25
 -0.5950000        9.9439132E-25
 -0.5885000        9.9612632E-25
 -0.5820000        9.9768925E-25
 -0.5755000        9.9898919E-25
 -0.5690000        9.9941754E-25
 -0.5625000        9.9889443E-25
 -0.5560000        9.9779259E-25
 -0.5495000        9.9647845E-25
 -0.5430000        9.9474660E-25
 -0.5365000        9.9306317E-25
 -0.5300000        9.9119988E-25
 -0.5235000        9.8900310E-25
 -0.5170000        9.8538410E-25
 -0.5105000        9.8155182E-25
 -0.5040000        9.7713252E-25
 -0.4975000        9.7288016E-25
 -0.4910000        9.6836532E-25
 -0.4845000        9.6558517E-25
 -0.4780000        9.6541646E-25
 -0.4715000        9.6825803E-25
 -0.4650000        9.7468350E-25
 -0.4585000        9.8451645E-25
 -0.4520000        9.9904264E-25
 -0.4455000        1.0186091E-24
 -0.4390000        1.0413165E-24
 -0.4325000        1.0682714E-24
 -0.4260000        1.0978800E-24
 -0.4195000        1.1278983E-24
 -0.4130000        1.1559105E-24
 -0.4065000        1.1787237E-24
 -0.4000000        1.1954539E-24
 -0.3935000        1.2041303E-24
 -0.3870000        1.2001216E-24
 -0.3805000        1.1828354E-24
 -0.3740000        1.1517060E-24
 -0.3675000        1.1076648E-24
 -0.3610000        1.0506912E-24
 -0.3545000        9.8353501E-25
 -0.3480000        9.1002718E-25
 -0.3415000        8.3383840E-25
 -0.3350000        7.5891131E-25
 -0.3285000        6.9046998E-25
 -0.3220000        6.3188518E-25
 -0.3155000        5.8446867E-25
 -0.3090000        5.5182817E-25
 -0.3025000        5.3544023E-25
 -0.2960000        5.4247213E-25
 -0.2895000        5.7903490E-25
 -0.2830000        6.4707203E-25
 -0.2765000        7.5468637E-25
 -0.2700000        8.9279155E-25
 -0.2635000        1.0552090E-24
 -0.2570000        1.2350359E-24
 -0.2505000        1.4283196E-24
 -0.2440000        1.6304436E-24
 -0.2375000        1.8326262E-24
 -0.2310000        2.0337672E-24
 -0.2245000        2.2250303E-24
 -0.2180000        2.3983428E-24
 -0.2115000        2.5369903E-24
 -0.2050000        2.6411487E-24
 -0.1985000        2.6969273E-24
 -0.1920000        2.6918034E-24
 -0.1855000        2.6190397E-24
 -0.1790000        2.4724747E-24
 -0.1725000        2.2380597E-24
 -0.1660000        1.9350257E-24
 -0.1595000        1.5610563E-24
 -0.1530000        1.1269848E-24
 -0.1465000        6.4988526E-25
 -0.1400000        1.5160145E-25
 -0.1335000       -3.4638577E-25
 -0.1270000       -8.1155806E-25
 -0.1205000       -1.2168042E-24
 -0.1140000       -1.5476540E-24
 -0.1075000       -1.8007054E-24
 -0.1010000       -1.9871759E-24
 -9.4499998E-02   -2.0745943E-24
 -8.8000000E-02   -2.0898440E-24
 -8.1500001E-02   -2.0409015E-24
 -7.5000003E-02   -1.9345490E-24
 -6.8499997E-02   -1.8101072E-24
 -6.1999999E-02   -1.6972354E-24
 -5.5500001E-02   -1.6162561E-24
 -4.8999999E-02   -1.6040146E-24
 -4.2500000E-02   -1.6697693E-24
 -3.5999998E-02   -1.8237837E-24
 -2.9500000E-02   -2.0837690E-24
 -2.3000000E-02   -2.4324956E-24
 -1.6500000E-02   -2.8413632E-24
 -9.9999998E-03   -3.2791552E-24
 -3.5000001E-03   -3.6654584E-24
  3.0000000E-03   -3.9784587E-24
  9.4999997E-03   -4.1721997E-24
  1.6000001E-02   -4.2110697E-24
  2.2500001E-02   -4.0162853E-24
  2.8999999E-02   -3.5815618E-24
  3.5500001E-02   -2.9011277E-24
  4.1999999E-02   -1.9989185E-24
  4.8500001E-02   -9.5533649E-25
  5.5000000E-02    2.5927240E-25
  6.1500002E-02    1.5708571E-24
  6.8000004E-02    2.9373074E-24
  7.4500002E-02    4.2796410E-24
  8.1000000E-02    5.5036794E-24
  8.7499999E-02    6.4571030E-24
  9.3999997E-02    7.0151002E-24
  0.1005000        7.0403730E-24
  0.1070000        6.4950038E-24
  0.1135000        5.4979763E-24
  0.1200000        4.0229682E-24
  0.1265000        2.0967266E-24
  0.1330000       -1.2305695E-25
  0.1395000       -2.5363397E-24
  0.1460000       -5.0887484E-24
  0.1525000       -7.5673667E-24
  0.1590000       -9.9041187E-24
  0.1655000       -1.1977181E-23
  0.1720000       -1.3660629E-23
  0.1785000       -1.4777908E-23
  0.1850000       -1.5336086E-23
  0.1915000       -1.5366199E-23
  0.1980000       -1.4726763E-23
  0.2045000       -1.3708736E-23
  0.2110000       -1.2301390E-23
  0.2175000       -1.0711743E-23
  0.2240000       -9.2184368E-24
  0.2305000       -7.8093214E-24
  0.2370000       -6.8334358E-24
  0.2435000       -6.1707674E-24
  0.2500000       -6.0652072E-24
  0.2565000       -6.2573942E-24
  0.2630000       -6.9906124E-24
  0.2695000       -8.6275721E-24
  0.2760000       -1.0805861E-23
  0.2825000       -1.3662708E-23
  0.2890000       -1.6897328E-23
  0.2955000       -2.0477739E-23
  0.3020000       -2.4059798E-23
  0.3085000       -2.7243226E-23
  0.3150000       -2.9456732E-23
  0.3215000       -3.0431218E-23
  0.3280000       -3.0000891E-23
  0.3345000       -2.7693183E-23
  0.3410000       -2.3077891E-23
  0.3475000       -1.6386787E-23
  0.3540000       -7.4368458E-24
  0.3605000        2.8778900E-24
  0.3670000        1.3508115E-23
  0.3735000        2.4336785E-23
  0.3800000        3.4438736E-23
  0.3865000        4.3223289E-23
  0.3930000        4.9786170E-23
  0.3995000        5.4036530E-23
  0.4060000        5.5284313E-23
  0.4125000        5.3367273E-23
  0.4190000        4.8858804E-23
  0.4255000        4.1033594E-23
  0.4320000        3.0519864E-23
  0.4385000        1.8731797E-23
  0.4450000        5.5090969E-24
  0.4515000       -8.5150033E-24
  0.4580000       -2.3962928E-23
  0.4645000       -4.0886367E-23
  0.4710000       -5.8626678E-23
  0.4775000       -7.6083810E-23
  0.4840000       -9.2738059E-23
  0.4905000       -1.0707252E-22
  0.4970000       -1.1788865E-22
  0.5035000       -1.2684536E-22
  0.5100000       -1.3137239E-22
  0.5165000       -1.3125959E-22
  0.5230000       -1.2689643E-22
  0.5295000       -1.1892134E-22
  0.5360000       -1.1041111E-22
  0.5425000       -1.0027026E-22
  0.5490000       -8.8892419E-23
  0.5555000       -7.8877098E-23
  0.5620000       -6.9772210E-23
  0.5685000       -6.4243721E-23
  0.5750000       -6.5178686E-23
  0.5815000       -6.9790442E-23
  0.5880000       -7.7954875E-23
  0.5945000       -8.9097302E-23
  0.6010000       -1.0236920E-22
  0.6075000       -1.1988012E-22
  0.6140000       -1.3891458E-22
  0.6205000       -1.5684543E-22
  0.6270000       -1.7730245E-22
  0.6335000       -1.9790079E-22
  0.6400000       -2.1579652E-22
  0.6465000       -2.3140920E-22
  0.6530000       -2.4393833E-22
  0.6595000       -2.5031990E-22
  0.6660000       -2.5068705E-22
  0.6725000       -2.3949825E-22
  0.6790000       -2.1846764E-22
  0.6855000       -1.9057430E-22
  0.6920000       -1.5499661E-22
  0.6985000       -1.1349690E-22
  0.7050000       -6.0136003E-23
  0.7115000       -3.0910753E-24
  0.7180000        6.4178486E-23
  0.7245000        1.4337302E-22
  0.7310000        2.2451759E-22
  0.7375000        3.2142735E-22
  0.7440000        4.3408827E-22
  0.7505000        5.4996621E-22
  0.7570000        6.6218226E-22
  0.7635000        7.7050157E-22
  0.7700000        8.6671181E-22
  0.7765000        9.5304131E-22
  0.7830000        1.0295219E-21
  0.7895000        1.0839094E-21
  0.7960000        1.1134073E-21
  0.8025000        1.1163640E-21
  0.8090000        1.0933807E-21
  0.8155000        1.0497090E-21
  0.8220000        9.7715153E-22
  0.8285000        8.8525703E-22
  0.8350000        7.8088642E-22
  0.8415000        6.8131233E-22
  0.8480000        5.7950686E-22
  0.8545000        4.8651700E-22
  0.8610000        4.1176383E-22
  0.8675000        3.7547366E-22
  0.8740000        3.6143660E-22
  0.8805000        3.9219529E-22
  0.8870000        4.4973281E-22
  0.8935000        5.4576725E-22
  0.9000000        6.8536609E-22
  0.9065000        8.7586946E-22
  0.9130000        1.1029163E-21
  0.9195000        1.3551055E-21
  0.9260000        1.6049756E-21
  0.9325000        1.8305598E-21
  0.9390000        2.0219982E-21
  0.9455000        2.1568193E-21
  0.9520000        2.2154175E-21
  0.9585000        2.2026743E-21
  0.9650000        2.1030718E-21
  0.9715000        1.9501678E-21
  0.9780000        1.7062785E-21
  0.9845000        1.3770950E-21
  0.9910000        9.3554410E-22
  0.9975000        3.6622278E-22
   1.004000       -3.2243984E-22
   1.010500       -1.0983004E-21
   1.017000       -1.9335535E-21
   1.023500       -2.7947468E-21
   1.030000       -3.6513121E-21
   1.036500       -4.4616886E-21
   1.043000       -5.2092810E-21
   1.049500       -5.8653616E-21
   1.056000       -6.4018787E-21
   1.062500       -6.8043578E-21
   1.069000       -7.0416924E-21
   1.075500       -7.1157307E-21
   1.082000       -7.0060017E-21
   1.088500       -6.7644427E-21
   1.095000       -6.4283061E-21
   1.101500       -5.9877561E-21
   1.108000       -5.4561443E-21
   1.114500       -4.8605064E-21
   1.121000       -4.2487870E-21
   1.127500       -3.6316448E-21
   1.134000       -3.0327559E-21
   1.140500       -2.4649841E-21
   1.147000       -1.9280378E-21
   1.153500       -1.4328397E-21
   1.160000       -9.3984267E-22
   1.166500       -4.6575075E-22
   1.173000        1.3001999E-23
   1.179500        5.0908665E-22
   1.186000        9.8038482E-22
   1.192500        1.4193364E-21
   1.199000        1.8306547E-21
   1.205500        2.1544719E-21
   1.212000        2.3023516E-21
   1.218500        2.2215418E-21
   1.225000        1.8455639E-21
   1.231500        1.1143193E-21
   1.238000       -4.1821366E-23
   1.244500       -1.6293864E-21
   1.251000       -3.6957460E-21
   1.257500       -6.1713138E-21
   1.264000       -9.0064281E-21
   1.270500       -1.2121771E-20
   1.277000       -1.5474124E-20
   1.283500       -1.8991269E-20
   1.290000       -2.2613006E-20
   1.296500       -2.6163175E-20
   1.303000       -2.9488662E-20
   1.309500       -3.2407967E-20
   1.316000       -3.4645116E-20
   1.322500       -3.6081434E-20
   1.329000       -3.6567542E-20
   1.335500       -3.5956630E-20
   1.342000       -3.4177365E-20
   1.348500       -3.1173726E-20
   1.355000       -2.6985567E-20
   1.361500       -2.1638998E-20
   1.368000       -1.5296807E-20
   1.374500       -7.9951433E-21
   1.381000        7.1470766E-23
   1.387500        8.7664359E-21
   1.394000        1.7829802E-20
   1.400500        2.7039281E-20
   1.407000        3.6099865E-20
   1.413500        4.4641044E-20
   1.420000        5.2319826E-20
   1.426500        5.8843774E-20
   1.433000        6.3767399E-20
   1.439500        6.6979767E-20
   1.446000        6.8103221E-20
   1.452500        6.6909787E-20
   1.459000        6.3082480E-20
   1.465500        5.6494329E-20
   1.472000        4.7064932E-20
   1.478500        3.4874762E-20
   1.485000        2.0091232E-20
   1.491500        2.8045234E-21
   1.498000       -1.6525838E-20
   1.504500       -3.7528561E-20
   1.511000       -5.9788518E-20
   1.517500       -8.2789250E-20
   1.524000       -1.0595672E-19
   1.530500       -1.2858687E-19
   1.537000       -1.5009289E-19
   1.543500       -1.6993689E-19
   1.550000       -1.8765311E-19
   1.556500       -2.0274294E-19
   1.563000       -2.1452317E-19
   1.569500       -2.2272089E-19
   1.576000       -2.2675730E-19
   1.582500       -2.2671542E-19
   1.589000       -2.2228522E-19
   1.595500       -2.1348415E-19
   1.602000       -2.0037822E-19
   1.608500       -1.8352119E-19
   1.615000       -1.6291675E-19
   1.621500       -1.3949666E-19
   1.628000       -1.1391328E-19
   1.634500       -8.6865209E-20
   1.641000       -5.8740777E-20
   1.647500       -3.0096291E-20
   1.654000       -1.5937763E-21
   1.660500        2.6111913E-20
   1.667000        5.2485647E-20
   1.673500        7.6979819E-20
   1.680000        9.8739955E-20
   1.686500        1.1755506E-19
   1.693000        1.3319463E-19
   1.699500        1.4475192E-19
   1.706000        1.5124565E-19
   1.712500        1.5319389E-19
   1.719000        1.4985550E-19
   1.725500        1.4139317E-19
   1.732000        1.2691462E-19
   1.738500        1.0705461E-19
   1.745000        8.1809255E-20
   1.751500        5.1642382E-20
   1.758000        1.7342924E-20
   1.764500       -2.0132657E-20
   1.771000       -6.0098038E-20
   1.777500       -1.0168916E-19
   1.784000       -1.4420541E-19
   1.790500       -1.8710020E-19
   1.797000       -2.2930462E-19
   1.803500       -2.7025614E-19
   1.810000       -3.0822849E-19
   1.816500       -3.4172904E-19
   1.823000       -3.7107284E-19
   1.829500       -3.9553885E-19
   1.836000       -4.1545759E-19
   1.842500       -4.3112816E-19
   1.849000       -4.4273684E-19
   1.855500       -4.5188313E-19
   1.862000       -4.5946280E-19
   1.868500       -4.6653540E-19
   1.875000       -4.7481708E-19
   1.881500       -4.8260834E-19
   1.888000       -4.9053470E-19
   1.894500       -4.9939980E-19
   1.901000       -5.0833997E-19
   1.907500       -5.1570012E-19
   1.914000       -5.2094713E-19
   1.920500       -5.2436328E-19
   1.927000       -5.2248817E-19
   1.933500       -5.1468475E-19
   1.940000       -4.9979478E-19
   1.946500       -4.7575763E-19
   1.953000       -4.4166993E-19
   1.959500       -3.9962150E-19
   1.966000       -3.5115404E-19
   1.972500       -3.0052627E-19
   1.979000       -2.4640263E-19
   1.985500       -1.9232836E-19
   1.992000       -1.4161545E-19
   1.998500       -9.8099252E-20
   2.005000       -6.0703632E-20
   2.011500       -3.5542707E-20
   2.018000       -2.6263085E-20
   2.024500       -3.3220704E-20
   2.031000       -6.0427702E-20
   2.037500       -1.0313552E-19
   2.044000       -1.5779507E-19
   2.050500       -2.2798189E-19
   2.057000       -3.1293383E-19
   2.063500       -4.1248408E-19
   2.070000       -5.2632634E-19
   2.076500       -6.4940714E-19
   2.083000       -7.8332825E-19
   2.089500       -9.1954743E-19
   2.096000       -1.0514694E-18
   2.102500       -1.1800024E-18
   2.109000       -1.3020595E-18
   2.115500       -1.4100483E-18
   2.122000       -1.5077115E-18
   2.128500       -1.5785402E-18
   2.135000       -1.6174436E-18
   2.141500       -1.6212223E-18
   2.148000       -1.5932906E-18
   2.154500       -1.5332852E-18
   2.161000       -1.4279866E-18
   2.167500       -1.2897438E-18
   2.174000       -1.1147912E-18
   2.180500       -9.1916827E-19
   2.187000       -6.9695369E-19
   2.193500       -4.5512356E-19
   2.200000       -1.9690470E-19
   2.206500        6.8777483E-20
   2.213000        3.3423199E-19
   2.219500        6.0023601E-19
   2.226000        8.5693781E-19
   2.232500        1.0841968E-18
   2.239000        1.2788952E-18
   2.245500        1.4315130E-18
   2.252000        1.5493349E-18
   2.258500        1.6319901E-18
   2.265000        1.7070631E-18
   2.271500        1.7662182E-18
   2.278000        1.7967103E-18
   2.284500        1.7821493E-18
   2.291000        1.7068064E-18
   2.297500        1.5754848E-18
   2.304000        1.3826555E-18
   2.310500        1.1364139E-18
   2.317000        8.6979355E-19
   2.323500        6.1737426E-19
   2.330000        3.8323955E-19
   2.336500        1.9862881E-19
   2.343000        8.6578080E-20
   2.349500        7.2167198E-20
   2.356000        1.9289149E-19
   2.362500        4.5454536E-19
   2.369000        8.6415031E-19
   2.375500        1.4219274E-18
   2.382000        2.1027223E-18
   2.388500        2.9020683E-18
   2.395000        3.7880988E-18
   2.401500        4.7664889E-18
   2.408000        5.7933675E-18
   2.414500        6.8455668E-18
   2.421000        7.8714242E-18
   2.427500        8.8651353E-18
   2.434000        9.7270567E-18
   2.440500        1.0427810E-17
   2.447000        1.0904937E-17
   2.453500        1.1159982E-17
   2.460000        1.1166392E-17
   2.466500        1.0954575E-17
   2.473000        1.0479747E-17
   2.479500        9.7915809E-18
   2.486000        8.8672546E-18
   2.492500        7.7199666E-18
   2.499000        6.4080640E-18
   2.505500        4.9723001E-18
   2.512000        3.4574406E-18
   2.518500        1.9848784E-18
   2.525000        6.0725516E-19
   2.531500       -6.6287954E-19
   2.538000       -1.8061141E-18
   2.544500       -2.7477412E-18
   2.551000       -3.4495634E-18
   2.557500       -3.8189746E-18
   2.564000       -3.8072353E-18
   2.570500       -3.4094906E-18
   2.577000       -2.5523245E-18
   2.583500       -1.2892460E-18
   2.590000        3.8601198E-19
   2.596500        2.4881130E-18
   2.603000        4.9489827E-18
   2.609500        7.7824543E-18
   2.616000        1.0956721E-17
   2.622500        1.4315303E-17
   2.629000        1.7875476E-17
   2.635500        2.1549231E-17
   2.642000        2.5117994E-17
   2.648500        2.8626772E-17
   2.655000        3.1923285E-17
   2.661500        3.5039774E-17
   2.668000        3.7868434E-17
   2.674500        4.0450452E-17
   2.681000        4.2678450E-17
   2.687500        4.4315166E-17
   2.694000        4.5371700E-17
   2.700500        4.5555311E-17
   2.707000        4.4942599E-17
   2.713500        4.3581546E-17
   2.720000        4.1404668E-17
   2.726500        3.8510313E-17
   2.733000        3.5111680E-17
   2.739500        3.1115957E-17
   2.746000        2.6529616E-17
   2.752500        2.1542784E-17
   2.759000        1.6455916E-17
   2.765500        1.1516730E-17
   2.772000        6.6498815E-18
   2.778500        2.0831138E-18
   2.785000       -1.8469661E-18
   2.791500       -5.2356504E-18
   2.798000       -7.5913318E-18
   2.804500       -8.4553856E-18
   2.811000       -7.5683511E-18
   2.817500       -4.8371909E-18
   2.824000        1.8515696E-19
   2.830500        6.8501531E-18
   2.837000        1.5573253E-17
   2.843500        2.5544656E-17
   2.850000        3.5969016E-17
   2.856500        4.6023552E-17
   2.863000        5.5277751E-17
   2.869500        6.2953553E-17
   2.876000        6.8278697E-17
   2.882500        7.1223315E-17
   2.889000        7.2446596E-17
   2.895500        6.9817399E-17
   2.902000        6.4117039E-17