  -3.000000        1.0000000E-24
  -2.993500        1.0000000E-24
  -2.987000        1.0000000E-24
  -2.980500        1.0000000E-24
  -2.974000        1.0000000E-24
  -2.967500        1.0000000E-24
  -2.961000        1.0000000E-24
  -2.954500        1.0000000E-24
  -2.948000        1.0000000E-24
  -2.941500        1.0000000E-24
  -2.935000        1.0000000E-24
  -2.928500        1.0000000E-24
  -2.922000        1.0000000E-24
  -2.915500        1.0000000E-24
  -2.909000        1.0000000E-24
  -2.902500        1.0000000E-24
  -2.896000        1.0000000E-24
  -2.889500        1.0000000E-24
  -2.883000        1.0000000E-24
  -2.876500        1.0000000E-24
  -2.870000        1.0000000E-24
  -2.863500        1.0000000E-24
  -2.857000        1.0000000E-24
  -2.850500        1.0000000E-24
  -2.844000        1.0000000E-24
  -2.837500        1.0000000E-24
  -2.831000        1.0000000E-24
  -2.824500        1.0000000E-24
  -2.818000        1.0000000E-24
  -2.811500        1.0000000E-24
  -2.805000        1.0000000E-24
  -2.798500        1.0000001E-24
  -2.792000        1.0000002E-24
  -2.785500        1.0000002E-24
  -2.779000        1.0000002E-24
  -2.772500        1.0000002E-24
  -2.766000        1.0000002E-24
  -2.759500        1.0000002E-24
  -2.753000        1.0000001E-24
  -2.746500        1.0000001E-24
  -2.740000        1.0000001E-24
  -2.733500        1.0000001E-24
  -2.727000        1.0000001E-24
  -2.720500        1.0000001E-24
  -2.714000        1.0000002E-24
  -2.707500        1.0000002E-24
  -2.701000        1.0000003E-24
  -2.694500        1.0000003E-24
  -2.688000        1.0000003E-24
  -2.681500        1.0000003E-24
  -2.675000        1.0000003E-24
  -2.668500        1.0000003E-24
  -2.662000        1.0000003E-24
  -2.655500        1.0000003E-24
  -2.649000        1.0000003E-24
  -2.642500        1.0000003E-24
  -2.636000        1.0000003E-24
  -2.629500        1.0000003E-24
  -2.623000        1.0000003E-24
  -2.616500        1.0000003E-24
  -2.610000        1.0000003E-24
  -2.603500        1.0000003E-24
  -2.597000        1.0000003E-24
  -2.590500        1.0000003E-24
  -2.584000        1.0000003E-24
  -2.577500        1.0000002E-24
  -2.571000        1.0000002E-24
  -2.564500        1.0000001E-24
  -2.558000        1.0000001E-24
  -2.551500        1.0000001E-24
  -2.545000        1.0000000E-24
  -2.538500        1.0000000E-24
  -2.532000        1.0000000E-24
  -2.525500        1.0000000E-24
  -2.519000        1.0000000E-24
  -2.512500        1.0000000E-24
  -2.506000        1.0000000E-24
  -2.499500        9.9999992E-25
  -2.493000        9.9999992E-25
  -2.486500        9.9999982E-25
  -2.480000        9.9999972E-25
  -2.473500        9.9999963E-25
  -2.467000        9.9999963E-25
  -2.460500        9.9999963E-25
  -2.454000        9.9999963E-25
  -2.447500        9.9999963E-25
  -2.441000        9.9999963E-25
  -2.434500        9.9999972E-25
  -2.428000        9.9999972E-25
  -2.421500        9.9999982E-25
  -2.415000        9.9999982E-25
  -2.408500        9.9999992E-25
  -2.402000        9.9999992E-25
  -2.395500        9.9999992E-25
  -2.389000        1.0000000E-24
  -2.382500        1.0000000E-24
  -2.376000        1.0000000E-24
  -2.369500        1.0000001E-24
  -2.363000        1.0000002E-24
  -2.356500        1.0000002E-24
  -2.350000        1.0000003E-24
  -2.343500        1.0000004E-24
  -2.337000        1.0000005E-24
  -2.330500        1.0000006E-24
  -2.324000        1.0000006E-24
  -2.317500        1.0000007E-24
  -2.311000        1.0000007E-24
  -2.304500        1.0000006E-24
  -2.298000        1.0000006E-24
  -2.291500        1.0000005E-24
  -2.285000        1.0000005E-24
  -2.278500        1.0000004E-24
  -2.272000        1.0000003E-24
  -2.265500        1.0000003E-24
  -2.259000        1.0000003E-24
  -2.252500        1.0000002E-24
  -2.246000        1.0000001E-24
  -2.239500        1.0000001E-24
  -2.233000        1.0000000E-24
  -2.226500        9.9999992E-25
  -2.220000        1.0000000E-24
  -2.213500        1.0000000E-24
  -2.207000        1.0000000E-24
  -2.200500        1.0000000E-24
  -2.194000        1.0000001E-24
  -2.187500        1.0000001E-24
  -2.181000        1.0000002E-24
  -2.174500        1.0000001E-24
  -2.168000        1.0000001E-24
  -2.161500        1.0000001E-24
  -2.155000        1.0000000E-24
  -2.148500        1.0000000E-24
  -2.142000        9.9999992E-25
  -2.135500        9.9999982E-25
  -2.129000        9.9999972E-25
  -2.122500        9.9999963E-25
  -2.116000        9.9999963E-25
  -2.109500        9.9999963E-25
  -2.103000        9.9999963E-25
  -2.096500        9.9999953E-25
  -2.090000        9.9999953E-25
  -2.083500        9.9999953E-25
  -2.077000        9.9999963E-25
  -2.070500        9.9999963E-25
  -2.064000        9.9999972E-25
  -2.057500        9.9999982E-25
  -2.051000        9.9999992E-25
  -2.044500        1.0000000E-24
  -2.038000        1.0000001E-24
  -2.031500        1.0000002E-24
  -2.025000        1.0000004E-24
  -2.018500        1.0000004E-24
  -2.012000        1.0000005E-24
  -2.005500        1.0000005E-24
  -1.999000        1.0000005E-24
  -1.992500        1.0000005E-24
  -1.986000        1.0000004E-24
  -1.979500        1.0000003E-24
  -1.973000        1.0000001E-24
  -1.966500        1.0000000E-24
  -1.960000        9.9999982E-25
  -1.953500        9.9999963E-25
  -1.947000        9.9999943E-25
  -1.940500        9.9999923E-25
  -1.934000        9.9999913E-25
  -1.927500        9.9999903E-25
  -1.921000        9.9999893E-25
  -1.914500        9.9999903E-25
  -1.908000        9.9999913E-25
  -1.901500        9.9999943E-25
  -1.895000        9.9999982E-25
  -1.888500        1.0000005E-24
  -1.882000        1.0000011E-24
  -1.875500        1.0000020E-24
  -1.869000        1.0000030E-24
  -1.862500        1.0000039E-24
  -1.856000        1.0000049E-24
  -1.849500        1.0000059E-24
  -1.843000        1.0000067E-24
  -1.836500        1.0000074E-24
  -1.830000        1.0000078E-24
  -1.823500        1.0000079E-24
  -1.817000        1.0000075E-24
  -1.810500        1.0000065E-24
  -1.804000        1.0000047E-24
  -1.797500        1.0000018E-24
  -1.791000        9.9999775E-25
  -1.784500        9.9999253E-25
  -1.778000        9.9998602E-25
  -1.771500        9.9997823E-25
  -1.765000        9.9996945E-25
  -1.758500        9.9995998E-25
  -1.752000        9.9995062E-25
  -1.745500        9.9994224E-25
  -1.739000        9.9993602E-25
  -1.732500        9.9993356E-25
  -1.726000        9.9993701E-25
  -1.719500        9.9994845E-25
  -1.713000        9.9997044E-25
  -1.706500        1.0000053E-24
  -1.700000        1.0000548E-24
  -1.693500        1.0001204E-24
  -1.687000        1.0002019E-24
  -1.680500        1.0002974E-24
  -1.674000        1.0004029E-24
  -1.667500        1.0005111E-24
  -1.661000        1.0006115E-24
  -1.654500        1.0006894E-24
  -1.648000        1.0007265E-24
  -1.641500        1.0007009E-24
  -1.635000        1.0005881E-24
  -1.628500        1.0003622E-24
  -1.622000        9.9999824E-25
  -1.615500        9.9947562E-25
  -1.609000        9.9878153E-25
  -1.602500        9.9791555E-25
  -1.596000        9.9689487E-25
  -1.589500        9.9575940E-25
  -1.583000        9.9457739E-25
  -1.576500        9.9344863E-25
  -1.570000        9.9250811E-25
  -1.563500        9.9192544E-25
  -1.557000        9.9190207E-25
  -1.550500        9.9266342E-25
  -1.544000        9.9444624E-25
  -1.537500        9.9748010E-25
  -1.531000        1.0019621E-24
  -1.524500        1.0080272E-24
  -1.518000        1.0157111E-24
  -1.511500        1.0249118E-24
  -1.505000        1.0353482E-24
  -1.498500        1.0465224E-24
  -1.492000        1.0576875E-24
  -1.485500        1.0678282E-24
  -1.479000        1.0756582E-24
  -1.472500        1.0796418E-24
  -1.466000        1.0780458E-24
  -1.459500        1.0690248E-24
  -1.453000        1.0507469E-24
  -1.446500        1.0215586E-24
  -1.440000        9.8018748E-25
  -1.433500        9.2597962E-25
  -1.427000        8.5915798E-25
  -1.420500        7.8108905E-25
  -1.414000        6.9453617E-25
  -1.407500        6.0387435E-25
  -1.401000        5.1523617E-25
  -1.394500        4.3655597E-25
  -1.388000        3.7747800E-25
  -1.381500        3.4909610E-25
  -1.375000        3.6349584E-25
  -1.368500        4.3307985E-25
  -1.362000        5.6966772E-25
  -1.355500        7.8337857E-25
  -1.349000        1.0813245E-24
  -1.342500        1.4661643E-24
  -1.336000        1.9345954E-24
  -1.329500        2.4758814E-24
  -1.323000        3.0705448E-24
  -1.316500        3.6893676E-24
  -1.310000        4.2928639E-24
  -1.303500        4.8313889E-24
  -1.297000        5.2460445E-24
  -1.290500        5.4705319E-24
  -1.284000        5.4340478E-24
  -1.277500        5.0652909E-24
  -1.271000        4.2975604E-24
  -1.264500        3.0748564E-24
  -1.258000        1.3587840E-24
  -1.251500       -8.6403580E-25
  -1.245000       -3.5744597E-24
  -1.238500       -6.7137364E-24
  -1.232000       -1.0177449E-23
  -1.225500       -1.3811175E-23
  -1.219000       -1.7408582E-23
  -1.212500       -2.0712685E-23
  -1.206000       -2.3420928E-23
  -1.199500       -2.5194649E-23
  -1.193000       -2.5673317E-23
  -1.186500       -2.4493672E-23
  -1.180000       -2.1313606E-23
  -1.173500       -1.5840261E-23
  -1.167000       -7.8614036E-24
  -1.160500        2.7212315E-24
  -1.154000        1.5858504E-23
  -1.147500        3.1322420E-23
  -1.141000        4.8679278E-23
  -1.134500        6.7270170E-23
  -1.128000        8.6201646E-23
  -1.121500        1.0434953E-22
  -1.115000        1.2037841E-22
  -1.108500        1.3277877E-22
  -1.102000        1.3992359E-22
  -1.095500        1.4014457E-22
  -1.089000        1.3182745E-22
  -1.082500        1.1352459E-22
  -1.076000        8.4081118E-23
  -1.069500        4.2769867E-23
  -1.063000       -1.0571575E-23
  -1.056500       -7.5409719E-23
  -1.050000       -1.5039908E-22
  -1.043500       -2.3329136E-22
  -1.037000       -3.2088037E-22
  -1.030500       -4.0899353E-22
  -1.024000       -4.9253910E-22
  -1.017500       -5.6561812E-22
  -1.011000       -6.2170645E-22
  -1.004500       -6.5391031E-22
 -0.9980000       -6.5529431E-22
 -0.9915000       -6.1927676E-22
 -0.9850000       -5.4008250E-22
 -0.9785000       -4.1323680E-22
 -0.9720000       -2.3608131E-22
 -0.9655000       -8.2847789E-24
 -0.9590000        2.6768047E-22
 -0.9525000        5.8613102E-22
 -0.9460000        9.3786853E-22
 -0.9395000        1.3100170E-21
 -0.9330000        1.6860361E-21
 -0.9265000        2.0459412E-21
 -0.9200000        2.3667564E-21
 -0.9135000        2.6232171E-21
 -0.9070000        2.7887282E-21
 -0.9005000        2.8365703E-21
 -0.8940000        2.7413337E-21
 -0.8875000        2.4805390E-21
 -0.8810000        2.0363904E-21
 -0.8745000        1.3975941E-21
 -0.8680000        5.6114546E-22
 -0.8615000       -4.6600768E-22
 -0.8550000       -1.6655399E-21
 -0.8485000       -3.0066789E-21
 -0.8420000       -4.4456079E-21
 -0.8355000       -5.9254518E-21
 -0.8290000       -7.3769461E-21
 -0.8225000       -8.7198755E-21
 -0.8160000       -9.8653195E-21
 -0.8095000       -1.0718738E-20
 -0.8030000       -1.1183877E-20
 -0.7965000       -1.1167403E-20
 -0.7900000       -1.0584186E-20
 -0.7835000       -9.3630326E-21
 -0.7770000       -7.4526623E-21
 -0.7705000       -4.8276644E-21
 -0.7640000       -1.4941239E-21
 -0.7575000        2.5054127E-21
 -0.7510000        7.0880024E-21
 -0.7445000        1.2127749E-20
 -0.7380000        1.7454971E-20
 -0.7315000        2.2857427E-20
 -0.7250000        2.8083816E-20
 -0.7185000        3.2849788E-20
 -0.7120000        3.6846534E-20
 -0.7055000        3.9751903E-20
 -0.6990000        4.1243939E-20
 -0.6925000        4.1016510E-20
 -0.6860000        3.8796632E-20
 -0.6795000        3.4362818E-20
 -0.6730000        2.7563839E-20
 -0.6665000        1.8336945E-20
 -0.6600000        6.7246520E-21
 -0.6535000       -7.1109365E-21
 -0.6470000       -2.2877342E-20
 -0.6405000       -4.0145450E-20
 -0.6340000       -5.8348803E-20
 -0.6275000       -7.6789238E-20
 -0.6210000       -9.4649554E-20
 -0.6145000       -1.1101366E-19
 -0.6080000       -1.2489428E-19
 -0.6015000       -1.3526804E-19
 -0.5950000       -1.4111743E-19
 -0.5885000       -1.4147853E-19
 -0.5820000       -1.3549328E-19
 -0.5755000       -1.2246439E-19
 -0.5690000       -1.0191073E-19
 -0.5625000       -7.3620884E-20
 -0.5560000       -3.7701955E-20
 -0.5495000        5.3791378E-21
 -0.5430000        5.4764914E-20
 -0.5365000        1.0918978E-19
 -0.5300000        1.6697866E-19
 -0.5235000        2.2606360E-19
 -0.5170000        2.8402066E-19
 -0.5105000        3.3812755E-19
 -0.5040000        3.8544295E-19
 -0.4975000        4.2290609E-19
 -0.4910000        4.4745570E-19
 -0.4845000        4.5616519E-19
 -0.4780000        4.4638998E-19
 -0.4715000        4.1592303E-19
 -0.4650000        3.6315129E-19
 -0.4585000        2.8720807E-19
 -0.4520000        1.8811243E-19
 -0.4455000        6.6888739E-20
 -0.4390000       -7.4341539E-20
 -0.4325000       -2.3230408E-19
 -0.4260000       -4.0255807E-19
 -0.4195000       -5.7953194E-19
 -0.4130000       -7.5661234E-19
 -0.4065000       -9.2629008E-19
 -0.4000000       -1.0803635E-18
 -0.3935000       -1.2101981E-18
 -0.3870000       -1.3070387E-18
 -0.3805000       -1.3623669E-18
 -0.3740000       -1.3682941E-18
 -0.3675000       -1.3179798E-18
 -0.3610000       -1.2060557E-18
 -0.3545000       -1.0290447E-18
 -0.3480000       -7.8575117E-19
 -0.3415000       -4.7760328E-19
 -0.3350000       -1.0892976E-19
 -0.3285000        3.1285284E-19
 -0.3220000        7.7715780E-19
 -0.3155000        1.2702711E-18
 -0.3090000        1.7755287E-18
 -0.3025000        2.2736414E-18
 -0.2960000        2.7431685E-18
 -0.2895000        3.1611412E-18
 -0.2830000        3.5038262E-18
 -0.2765000        3.7476133E-18
 -0.2700000        3.8700133E-18
 -0.2635000        3.8507214E-18
 -0.2570000        3.6727274E-18
 -0.2505000        3.3234235E-18
 -0.2440000        2.7956618E-18
 -0.2375000        2.0887169E-18
 -0.2310000        1.2090979E-18
 -0.2245000        1.7116297E-19
 -0.2180000       -1.0025177E-18
 -0.2115000       -2.2810901E-18
 -0.2050000       -3.6256770E-18
 -0.1985000       -4.9899985E-18
 -0.1920000       -6.3213676E-18
 -0.1855000       -7.5620678E-18
 -0.1790000       -8.6510941E-18
 -0.1725000       -9.5262412E-18
 -0.1660000       -1.0126480E-17
 -0.1595000       -1.0394567E-17
 -0.1530000       -1.0279814E-17
 -0.1465000       -9.7409004E-18
 -0.1400000       -8.7486551E-18
 -0.1335000       -7.2886565E-18
 -0.1270000       -5.3635495E-18
 -0.1205000       -2.9949364E-18
 -0.1140000       -2.2473254E-19
 -0.1075000        2.8841426E-18
 -0.1010000        6.2478383E-18
 -9.4499998E-02    9.7624882E-18
 -8.8000000E-02    1.3306035E-17
 -8.1500001E-02    1.6740994E-17
 -7.5000003E-02    1.9918148E-17
 -6.8499997E-02    2.2681125E-17
 -6.1999999E-02    2.4871794E-17
 -5.5500001E-02    2.6336347E-17
 -4.8999999E-02    2.6931884E-17
 -4.2500000E-02    2.6533337E-17
 -3.5999998E-02    2.5040455E-17
 -2.9500000E-02    2.2384609E-17
 -2.3000000E-02    1.8535112E-17
 -1.6500000E-02    1.3504763E-17
 -9.9999998E-03    7.3542891E-18
 -3.5000001E-03    1.9542116E-19
  3.0000000E-03   -7.8076991E-18
  9.4999997E-03   -1.6438999E-17
  1.6000001E-02   -2.5433053E-17
  2.2500001E-02   -3.4479862E-17
  2.8999999E-02   -4.3231923E-17
  3.5500001E-02   -5.1313517E-17
  4.1999999E-02   -5.8332161E-17
  4.8500001E-02   -6.3891947E-17
  5.5000000E-02   -6.7608509E-17
  6.1500002E-02   -6.9125201E-17
  6.8000004E-02   -6.8129983E-17
  7.4500002E-02   -6.4372419E-17
  8.1000000E-02   -5.7680217E-17
  8.7499999E-02   -4.7974566E-17
  9.3999997E-02   -3.5283548E-17
  0.1005000       -1.9752924E-17
  0.1070000       -1.6536392E-18
  0.1135000        1.8614681E-17
  0.1200000        4.0524716E-17
  0.1265000        6.3427429E-17
  0.1330000        8.6563260E-17
  0.1395000        1.0907877E-16
  0.1460000        1.3004856E-16
  0.1525000        1.4850231E-16
  0.1590000        1.6345643E-16
  0.1655000        1.7394951E-16
  0.1720000        1.7908071E-16
  0.1785000        1.7805015E-16
  0.1850000        1.7019965E-16
  0.1915000        1.5505256E-16
  0.1980000        1.3235104E-16
  0.2045000        1.0208923E-16
  0.2110000        6.4540509E-17
  0.2175000        2.0277340E-17
  0.2240000       -2.9817823E-17
  0.2305000       -8.4551888E-17
  0.2370000       -1.4243181E-16
  0.2435000       -2.0168731E-16
  0.2500000       -2.6030612E-16
  0.2565000       -3.1608165E-16
  0.2630000       -3.6667260E-16
  0.2695000       -4.0967363E-16
  0.2760000       -4.4269534E-16
  0.2825000       -4.6345228E-16
  0.2890000       -4.6985553E-16
  0.2955000       -4.6010830E-16
  0.3020000       -4.3280006E-16
  0.3085000       -3.8699673E-16
  0.3150000       -3.2232282E-16
  0.3215000       -2.3903190E-16
  0.3280000       -1.3806178E-16
  0.3345000       -2.1070891E-17
  0.3410000        1.0954699E-16
  0.3475000        2.5067270E-16
  0.3540000        3.9849785E-16
  0.3605000        5.4858894E-16
  0.3670000        6.9597923E-16
  0.3735000        8.3528820E-16
  0.3800000        9.6086740E-16
  0.3865000        1.0669687E-15
  0.3930000        1.1479327E-15
  0.3995000        1.1983923E-15
  0.4060000        1.2134844E-15
  0.4125000        1.1890658E-15
  0.4190000        1.1219237E-15
  0.4255000        1.0099743E-15
  0.4320000        8.5244178E-16
  0.4385000        6.5000906E-16
  0.4450000        4.0493366E-16
  0.4515000        1.2112022E-16
  0.4580000       -1.9585576E-16
  0.4645000       -5.3877770E-16
  0.4710000       -8.9887613E-16
  0.4775000       -1.2659766E-15
  0.4840000       -1.6287072E-15
  0.4905000       -1.9747667E-15
  0.4970000       -2.2912442E-15
  0.5035000       -2.5649900E-15
  0.5100000       -2.7830261E-15
  0.5165000       -2.9329863E-15
  0.5230000       -3.0035759E-15
  0.5295000       -2.9850356E-15
  0.5360000       -2.8695941E-15
  0.5425000       -2.6518971E-15
  0.5490000       -2.3293910E-15
  0.5555000       -1.9026509E-15
  0.5620000       -1.3756331E-15
  0.5685000       -7.5584022E-16
  0.5750000       -5.4385739E-17
  0.5815000        7.1405333E-16
  0.5880000        1.5314015E-15
  0.5945000        2.3764718E-15
  0.6010000        3.2253778E-15
  0.6075000        4.0520625E-15
  0.6140000        4.8289416E-15
  0.6205000        5.5276455E-15
  0.6270000        6.1198465E-15
  0.6335000        6.5781502E-15
  0.6400000        6.8770258E-15
  0.6465000        6.9937550E-15
  0.6530000        6.9093638E-15
  0.6595000        6.6095090E-15
  0.6660000        6.0852897E-15
  0.6725000        5.3339520E-15
  0.6790000        4.3594528E-15
  0.6855000        3.1728615E-15
  0.6920000        1.7925691E-15
  0.6985000        2.4428719E-16
  0.7050000       -1.4391790E-15
  0.7115000       -3.2183925E-15
  0.7180000       -5.0479864E-15
  0.7245000       -6.8775971E-15
  0.7310000       -8.6530150E-15
  0.7375000       -1.0317546E-14
  0.7440000       -1.1813535E-14
  0.7505000       -1.3084033E-14
  0.7570000       -1.4074562E-14
  0.7635000       -1.4734922E-14
  0.7700000       -1.5021008E-14
  0.7765000       -1.4896553E-14
  0.7830000       -1.4334769E-14
  0.7895000       -1.3319807E-14
  0.7960000       -1.1847991E-14
  0.8025000       -9.9287703E-15
  0.8090000       -7.5853401E-15
  0.8155000       -4.8549027E-15
  0.8220000       -1.7885137E-15
  0.8285000        1.5494835E-15
  0.8350000        5.0824548E-15
  0.8415000        8.7229105E-15
  0.8480000        1.2374352E-14
  0.8545000        1.5933491E-14
  0.8610000        1.9292832E-14
  0.8675000        2.2343533E-14
  0.8740000        2.4978471E-14
  0.8805000        2.7095483E-14
  0.8870000        2.8600627E-14
  0.8935000        2.9411437E-14
  0.9000000        2.9460013E-14
  0.9065000        2.8695894E-14
  0.9130000        2.7088595E-14
  0.9195000        2.4629699E-14
  0.9260000        2.1334459E-14
  0.9325000        1.7242782E-14
  0.9390000        1.2419582E-14
  0.9455000        6.9544022E-15
  0.9520000        9.6032456E-16
  0.9585000       -5.4278718E-15
  0.9650000       -1.2056287E-14
  0.9715000       -1.8755170E-14
  0.9780000       -2.5342836E-14
  0.9845000       -3.1630148E-14
  0.9910000       -3.7425463E-14
  0.9975000       -4.2539922E-14
   1.004000       -4.6792980E-14
   1.010500       -5.0017963E-14
   1.017000       -5.2067576E-14
   1.023500       -5.2819135E-14
   1.030000       -5.2179395E-14
   1.036500       -5.0088799E-14
   1.043000       -4.6524972E-14
   1.049500       -4.1505414E-14
   1.056000       -3.5089106E-14
   1.062500       -2.7377120E-14
   1.069000       -1.8511997E-14
   1.075500       -8.6759569E-15
   1.082000        1.9121193E-15
   1.088500        1.3000907E-14
   1.095000        2.4311989E-14
   1.101500        3.5546239E-14
   1.108000        4.6391127E-14
   1.114500        5.6528790E-14
   1.121000        6.5644633E-14
   1.127500        7.3436286E-14
   1.134000        7.9622723E-14
   1.140500        8.3953156E-14
   1.147000        8.6215594E-14
   1.153500        8.6244705E-14
   1.160000        8.3928781E-14
   1.166500        7.9215572E-14
   1.173000        7.2116697E-14
   1.179500        6.2710484E-14
   1.186000        5.1143141E-14
   1.192500        3.7628050E-14
   1.199000        2.2443136E-14
   1.205500        5.9263308E-15
   1.212000       -1.1530869E-14
   1.218500       -2.9491665E-14
   1.225000       -4.7483881E-14
   1.231500       -6.5011337E-14
   1.238000       -8.1566501E-14
   1.244500       -9.6644033E-14
   1.251000       -1.0975488E-13
   1.257500       -1.2044078E-13
   1.264000       -1.2828838E-13
   1.270500       -1.3294300E-13
   1.277000       -1.3412130E-13
   1.283500       -1.3162266E-13
   1.290000       -1.2533883E-13
   1.296500       -1.1526140E-13
   1.303000       -1.0148698E-13
   1.309500       -8.4219666E-14
   1.316000       -6.3770637E-14
   1.322500       -4.0554826E-14
   1.329000       -1.5084539E-14
   1.335500        1.2039960E-14
   1.342000        4.0142694E-14
   1.348500        6.8486951E-14
   1.355000        9.6292643E-14
   1.361500        1.2275573E-13
   1.368000        1.4706925E-13
   1.374500        1.6844550E-13
   1.381000        1.8613869E-13
   1.387500        1.9946769E-13
   1.394000        2.0783805E-13
   1.400500        2.1076264E-13
   1.407000        2.0788070E-13
   1.413500        1.9897396E-13
   1.420000        1.8397996E-13
   1.426500        1.6300168E-13
   1.433000        1.3631301E-13
   1.439500        1.0436010E-13
   1.446000        6.7757777E-14
   1.452500        2.7281349E-14
   1.459000       -1.6146447E-14
   1.465500       -6.1473138E-14
   1.472000       -1.0753869E-13
   1.478500       -1.5310169E-13
   1.485000       -1.9686919E-13
   1.491500       -2.3752929E-13
   1.498000       -2.7378626E-13
   1.504500       -3.0439648E-13
   1.511000       -3.2820548E-13
   1.517500       -3.4418399E-13
   1.524000       -3.5146270E-13
   1.530500       -3.4936453E-13
   1.537000       -3.3743313E-13
   1.543500       -3.1545730E-13
   1.550000       -2.8348973E-13
   1.556500       -2.4185981E-13
   1.563000       -1.9117952E-13
   1.569500       -1.3234216E-13
   1.576000       -6.6513174E-14
   1.582500        4.8866373E-15
   1.589000        8.0205706E-14
   1.595500        1.5759392E-13
   1.602000        2.3504202E-13
   1.608500        3.1042709E-13
   1.615000        3.8156411E-13
   1.621500        4.4626149E-13
   1.628000        5.0238020E-13
   1.634500        5.4789452E-13
   1.641000        5.8095358E-13
   1.647500        5.9994100E-13
   1.654000        6.0353225E-13
   1.660500        5.9074691E-13
   1.667000        5.6099504E-13
   1.673500        5.1411577E-13
   1.680000        4.5040610E-13
   1.686500        3.7064010E-13
   1.693000        2.7607541E-13
   1.699500        1.6844820E-13
   1.706000        4.9954307E-14
   1.712500       -7.6782412E-14
   1.719000       -2.0875523E-13
   1.725500       -3.4263250E-13
   1.732000       -4.7482775E-13
   1.738500       -6.0158047E-13
   1.745000       -7.1904668E-13
   1.751500       -8.2339712E-13
   1.758000       -9.1092075E-13
   1.764500       -9.7813186E-13
   1.771000       -1.0218771E-12
   1.777500       -1.0394419E-12
   1.784000       -1.0286498E-12
   1.790500       -9.8795581E-13
   1.797000       -9.1652749E-13
   1.803500       -8.1431400E-13
   1.810000       -6.8209772E-13
   1.816500       -5.2152846E-13
   1.823000       -3.3513668E-13
   1.829500       -1.2632477E-13
   1.836000        1.0066445E-13
   1.842500        3.4080367E-13
   1.849000        5.8836009E-13
   1.855500        8.3699860E-13
   1.862000        1.0799066E-12
   1.868500        1.3099389E-12
   1.875000        1.5197825E-12
   1.881500        1.7021332E-12
   1.888000        1.8498879E-12
   1.894500        1.9563411E-12
   1.901000        2.0153855E-12
   1.907500        2.0217127E-12
   1.914000        1.9710043E-12
   1.920500        1.8601128E-12
   1.927000        1.6872258E-12
   1.933500        1.4520063E-12
   1.940000        1.1557079E-12
   1.946500        8.0125674E-13
   1.953000        3.9329870E-13
   1.959500       -6.1792802E-14
   1.966000       -5.5595047E-13
   1.972500       -1.0794913E-12
   1.979000       -1.6212375E-12
   1.985500       -2.1686841E-12
   1.992000       -2.7082082E-12
   1.998500       -3.2253206E-12
   2.005000       -3.7049539E-12
   2.011500       -4.1317852E-12
   2.018000       -4.4905850E-12
   2.024500       -4.7665921E-12
   2.031000       -4.9458953E-12
   2.037500       -5.0158276E-12
   2.044000       -4.9653550E-12
   2.050500       -4.7854533E-12
   2.057000       -4.4694665E-12
   2.063500       -4.0134293E-12
   2.070000       -3.4163547E-12
   2.076500       -2.6804702E-12
   2.083000       -1.8113964E-12
   2.089500       -8.1826164E-13
   2.096000        2.8625642E-13
   2.102500        1.4859639E-12
   2.109000        2.7612671E-12
   2.115500        4.0893699E-12
   2.122000        5.4445554E-12
   2.128500        6.7985526E-12
   2.135000        8.1209787E-12
   2.141500        9.3798580E-12
   2.148000        1.0542209E-11
   2.154500        1.1574688E-11
   2.161000        1.2444285E-11
   2.167500        1.3119050E-11
   2.174000        1.3568850E-11
   2.180500        1.3766123E-11
   2.187000        1.3686639E-11
   2.193500        1.3310222E-11
   2.200000        1.2621441E-11
   2.206500        1.1610241E-11
   2.213000        1.0272500E-11
   2.219500        8.6104899E-12
   2.226000        6.6332517E-12
   2.232500        4.3568326E-12
   2.239000        1.8044105E-12
   2.245500       -9.9372940E-13
   2.252000       -4.0003543E-12
   2.258500       -7.1715966E-12
   2.265000       -1.0457414E-11
   2.271500       -1.3802201E-11
   2.278000       -1.7145537E-11
   2.284500       -2.0423078E-11
   2.291000       -2.3567565E-11
   2.297500       -2.6509950E-11
   2.304000       -2.9180602E-11
   2.310500       -3.1510614E-11
   2.317000       -3.3433121E-11
   2.323500       -3.4884696E-11
   2.330000       -3.5806712E-11
   2.336500       -3.6146693E-11
   2.343000       -3.5859624E-11
   2.349500       -3.4909162E-11
   2.356000       -3.3268780E-11
   2.362500       -3.0922740E-11
   2.369000       -2.7866950E-11
   2.375500       -2.4109624E-11
   2.382000       -1.9671745E-11
   2.388500       -1.4587345E-11
   2.395000       -8.9035211E-12
   2.401500       -2.6802597E-12
   2.408000        4.0100106E-12
   2.414500        1.1083088E-11
   2.421000        1.8443903E-11
   2.427500        2.5987650E-11
   2.434000        3.3601139E-11
   2.440500        4.1164336E-11
   2.447000        4.8552076E-11
   2.453500        5.5635954E-11
   2.460000        6.2286280E-11
   2.466500        6.8374195E-11
   2.473000        7.3773779E-11
   2.479500        7.8364218E-11
   2.486000        8.2031937E-11
   2.492500        8.4672679E-11
   2.499000        8.6193504E-11
   2.505500        8.6514650E-11
   2.512000        8.5571210E-11
   2.518500        8.3314633E-11
   2.525000        7.9714055E-11
   2.531500        7.4757221E-11
   2.538000        6.8451321E-11
   2.544500        6.0823409E-11
   2.551000        5.1920555E-11
   2.557500        4.1809715E-11
   2.564000        3.0577249E-11
   2.570500        1.8328157E-11
   2.577000        5.1850126E-12
   2.583500       -8.7133859E-12
   2.590000       -2.3213606E-11
   2.596500       -3.8149435E-11
   2.603000       -5.3343926E-11
   2.609500       -6.8611603E-11
   2.616000       -8.3760804E-11
   2.622500       -9.8596180E-11
   2.629000       -1.1292113E-10
   2.635500       -1.2654038E-10
   2.642000       -1.3926242E-10
   2.648500       -1.5090201E-10
   2.655000       -1.6128243E-10
   2.661500       -1.7023769E-10
   2.668000       -1.7761455E-10
   2.674500       -1.8327435E-10
   2.681000       -1.8709456E-10
   2.687500       -1.8897010E-10
   2.694000       -1.8881449E-10
   2.700500       -1.8656059E-10
   2.707000       -1.8216118E-10
   2.713500       -1.7558922E-10
   2.720000       -1.6683789E-10
   2.726500       -1.5592030E-10
   2.733000       -1.4286911E-10
   2.739500       -1.2773581E-10
   2.746000       -1.1058992E-10
   2.752500       -9.1517981E-11
   2.759000       -7.0622494E-11
   2.765500       -4.8020730E-11
   2.772000       -2.3843502E-11
   2.778500        1.7659915E-12
   2.785000        2.8653425E-11
   2.791500        5.6654452E-11
   2.798000        8.5595739E-11
   2.804500        1.1529589E-10
   2.811000        1.4556628E-10
   2.817500        1.7621163E-10
   2.824000        2.0703050E-10
   2.830500        2.3781566E-10
   2.837000        2.6835401E-10
   2.843500        2.9842678E-10
   2.850000        3.2780920E-10
   2.856500        3.5627012E-10
   2.863000        3.8357173E-10
   2.869500        4.0946879E-10
   2.876000        4.3370815E-10
   2.882500        4.5602816E-10
   2.889000        4.7615800E-10
   2.895500        4.9381704E-10
   2.902000        5.0871463E-10