  -3.000000        1.0000000E-24
  -2.993500        1.0000000E-24
  -2.987000        1.0000000E-24
  -2.980500        1.0000000E-24
  -2.974000        1.0000000E-24
  -2.967500        1.0000000E-24
  -2.961000        1.0000000E-24
  -2.954500        1.0000000E-24
  -2.948000        1.0000000E-24
  -2.941500        1.0000000E-24
  -2.935000        1.0000000E-24
  -2.928500        1.0000000E-24
  -2.922000        1.0000000E-24
  -2.915500        1.0000000E-24
  -2.909000        1.0000000E-24
  -2.902500        1.0000000E-24
  -2.896000        1.0000000E-24
  -2.889500        1.0000000E-24
  -2.883000        1.0000000E-24
  -2.876500        1.0000000E-24
  -2.870000        1.0000000E-24
  -2.863500        1.0000000E-24
  -2.857000        1.0000000E-24
  -2.850500        1.0000000E-24
  -2.844000        1.0000000E-24
  -2.837500        1.0000000E-24
  -2.831000        1.0000000E-24
  -2.824500        1.0000000E-24
  -2.818000        1.0000000E-24
  -2.811500        1.0000000E-24
  -2.805000        1.0000000E-24
  -2.798500        1.0000000E-24
  -2.792000        1.0000001E-24
  -2.785500        1.0000001E-24
  -2.779000        1.0000001E-24
  -2.772500        1.0000001E-24
  -2.766000        1.0000001E-24
  -2.759500        1.0000001E-24
  -2.753000        1.0000001E-24
  -2.746500        1.0000001E-24
  -2.740000        1.0000001E-24
  -2.733500        1.0000001E-24
  -2.727000        1.0000001E-24
  -2.720500        1.0000001E-24
  -2.714000        1.0000001E-24
  -2.707500        1.0000002E-24
  -2.701000        1.0000003E-24
  -2.694500        1.0000004E-24
  -2.688000        1.0000004E-24
  -2.681500        1.0000004E-24
  -2.675000        1.0000004E-24
  -2.668500        1.0000004E-24
  -2.662000        1.0000004E-24
  -2.655500        1.0000004E-24
  -2.649000        1.0000004E-24
  -2.642500        1.0000004E-24
  -2.636000        1.0000004E-24
  -2.629500        1.0000004E-24
  -2.623000        1.0000004E-24
  -2.616500        1.0000003E-24
  -2.610000        1.0000003E-24
  -2.603500        1.0000003E-24
  -2.597000        1.0000003E-24
  -2.590500        1.0000003E-24
  -2.584000        1.0000003E-24
  -2.577500        1.0000003E-24
  -2.571000        1.0000002E-24
  -2.564500        1.0000001E-24
  -2.558000        1.0000000E-24
  -2.551500        1.0000000E-24
  -2.545000        9.9999992E-25
  -2.538500        9.9999982E-25
  -2.532000        9.9999972E-25
  -2.525500        9.9999963E-25
  -2.519000        9.9999953E-25
  -2.512500        9.9999953E-25
  -2.506000        9.9999953E-25
  -2.499500        9.9999972E-25
  -2.493000        1.0000001E-24
  -2.486500        1.0000006E-24
  -2.480000        1.0000012E-24
  -2.473500        1.0000017E-24
  -2.467000        1.0000021E-24
  -2.460500        1.0000021E-24
  -2.454000        1.0000016E-24
  -2.447500        1.0000004E-24
  -2.441000        9.9999864E-25
  -2.434500        9.9999598E-25
  -2.428000        9.9999253E-25
  -2.421500        9.9998868E-25
  -2.415000        9.9998474E-25
  -2.408500        9.9998148E-25
  -2.402000        9.9997980E-25
  -2.395500        9.9998059E-25
  -2.389000        9.9998483E-25
  -2.382500        9.9999361E-25
  -2.376000        1.0000073E-24
  -2.369500        1.0000260E-24
  -2.363000        1.0000488E-24
  -2.356500        1.0000743E-24
  -2.350000        1.0000999E-24
  -2.343500        1.0001218E-24
  -2.337000        1.0001356E-24
  -2.330500        1.0001363E-24
  -2.324000        1.0001188E-24
  -2.317500        1.0000791E-24
  -2.311000        1.0000139E-24
  -2.304500        9.9992311E-25
  -2.298000        9.9980931E-25
  -2.291500        9.9967915E-25
  -2.285000        9.9954347E-25
  -2.278500        9.9941754E-25
  -2.272000        9.9931992E-25
  -2.265500        9.9927141E-25
  -2.259000        9.9929340E-25
  -2.252500        9.9940512E-25
  -2.246000        9.9962048E-25
  -2.239500        9.9994549E-25
  -2.233000        1.0003747E-24
  -2.226500        1.0008892E-24
  -2.220000        1.0014549E-24
  -2.213500        1.0020228E-24
  -2.207000        1.0025306E-24
  -2.200500        1.0029071E-24
  -2.194000        1.0030768E-24
  -2.187500        1.0029692E-24
  -2.181000        1.0025264E-24
  -2.174500        1.0017137E-24
  -2.168000        1.0005278E-24
  -2.161500        9.9900458E-25
  -2.155000        9.9722382E-25
  -2.148500        9.9530926E-25
  -2.142000        9.9342437E-25
  -2.135500        9.9176323E-25
  -2.129000        9.9053458E-25
  -2.122500        9.8994293E-25
  -2.116000        9.9016578E-25
  -2.109500        9.9133014E-25
  -2.103000        9.9349103E-25
  -2.096500        9.9661393E-25
  -2.090000        1.0005650E-24
  -2.083500        1.0051111E-24
  -2.077000        1.0099310E-24
  -2.070500        1.0146379E-24
  -2.064000        1.0188130E-24
  -2.057500        1.0220459E-24
  -2.051000        1.0239789E-24
  -2.044500        1.0243489E-24
  -2.038000        1.0230209E-24
  -2.031500        1.0200072E-24
  -2.025000        1.0154683E-24
  -2.018500        1.0096903E-24
  -2.012000        1.0030417E-24
  -2.005500        9.9591076E-25
  -1.999000        9.8863382E-25
  -1.992500        9.8142156E-25
  -1.986000        9.7430179E-25
  -1.979500        9.6709002E-25
  -1.973000        9.5940603E-25
  -1.966500        9.5074414E-25
  -1.960000        9.4060550E-25
  -1.953500        9.2868975E-25
  -1.947000        9.1513032E-25
  -1.940500        9.0075254E-25
  -1.934000        8.8731637E-25
  -1.927500        8.7769986E-25
  -1.921000        8.7597107E-25
  -1.914500        8.8729694E-25
  -1.908000        9.1764274E-25
  -1.901500        9.7322667E-25
  -1.895000        1.0597210E-24
  -1.888500        1.1812123E-24
  -1.882000        1.3389744E-24
  -1.875500        1.5301437E-24
  -1.869000        1.7464215E-24
  -1.862500        1.9729681E-24
  -1.856000        2.1876748E-24
  -1.849500        2.3610128E-24
  -1.843000        2.4566564E-24
  -1.836500        2.4330468E-24
  -1.830000        2.2460195E-24
  -1.823500        1.8525436E-24
  -1.817000        1.2155300E-24
  -1.810500        3.0955190E-25
  -1.804000       -8.7279926E-25
  -1.797500       -2.3143274E-24
  -1.791000       -3.9669437E-24
  -1.784500       -5.7463121E-24
  -1.778000       -7.5281462E-24
  -1.771500       -9.1469211E-24
  -1.765000       -1.0397763E-23
  -1.758500       -1.1042224E-23
  -1.752000       -1.0818532E-23
  -1.745500       -9.4567162E-24
  -1.739000       -6.6987465E-24
  -1.732500       -2.3235320E-24
  -1.726000        3.8238340E-24
  -1.719500        1.1799591E-23
  -1.713000        2.1527146E-23
  -1.706500        3.2763290E-23
  -1.700000        4.5067422E-23
  -1.693500        5.7776949E-23
  -1.687000        6.9992391E-23
  -1.680500        8.0576234E-23
  -1.674000        8.8169475E-23
  -1.667500        9.1229990E-23
  -1.661000        8.8096149E-23
  -1.654500        7.7078602E-23
  -1.648000        5.6581484E-23
  -1.641500        2.5252888E-23
  -1.635000       -1.7838223E-23
  -1.628500       -7.3004142E-23
  -1.622000       -1.3972858E-22
  -1.615500       -2.1645740E-22
  -1.609000       -3.0040621E-22
  -1.602500       -3.8740495E-22
  -1.596000       -4.7180274E-22
  -1.589500       -5.4645761E-22
  -1.583000       -6.0283821E-22
  -1.576500       -6.3126154E-22
  -1.570000       -6.2128847E-22
  -1.563500       -5.6229213E-22
  -1.557000       -4.4420528E-22
  -1.550500       -2.5843904E-22
  -1.544000        1.0484234E-24
  -1.537500        3.3657421E-22
  -1.531000        7.4550380E-22
  -1.524500        1.2190553E-21
  -1.518000        1.7412366E-21
  -1.511500        2.2880298E-21
  -1.505000        2.8269556E-21
  -1.498500        3.3171489E-21
  -1.492000        3.7100783E-21
  -1.485500        3.9510233E-21
  -1.479000        3.9813976E-21
  -1.472500        3.7419648E-21
  -1.466000        3.1769309E-21
  -1.459500        2.2388469E-21
  -1.453000        8.9415013E-22
  -1.446500       -8.7088810E-22
  -1.440000       -3.0441474E-21
  -1.433500       -5.5819969E-21
  -1.427000       -8.4044693E-21
  -1.420500       -1.1391827E-20
  -1.414000       -1.4383101E-20
  -1.407500       -1.7177147E-20
  -1.401000       -1.9536777E-20
  -1.394500       -2.1196342E-20
  -1.388000       -2.1873069E-20
  -1.381500       -2.1282205E-20
  -1.375000       -1.9155794E-20
  -1.368500       -1.5264576E-20
  -1.362000       -9.4422966E-21
  -1.355500       -1.6111679E-21
  -1.349000        8.1928548E-21
  -1.342500        1.9796802E-20
  -1.336000        3.2871405E-20
  -1.329500        4.6917923E-20
  -1.323000        6.1263245E-20
  -1.316500        7.5065374E-20
  -1.310000        8.7331041E-20
  -1.303500        9.6946873E-20
  -1.297000        1.0272483E-19
  -1.290500        1.0346197E-19
  -1.284000        9.8013374E-20
  -1.277500        8.5376575E-20
  -1.271000        6.4783965E-20
  -1.264500        3.5799236E-20
  -1.258000       -1.5876184E-21
  -1.251500       -4.6873017E-20
  -1.245000       -9.8967158E-20
  -1.238500       -1.5614337E-19
  -1.232000       -2.1601687E-19
  -1.225500       -2.7555994E-19
  -1.219000       -3.3115917E-19
  -1.212500       -3.7871965E-19
  -1.206000       -4.1381791E-19
  -1.199500       -4.3190406E-19
  -1.193000       -4.2854914E-19
  -1.186500       -3.9973206E-19
  -1.180000       -3.4215491E-19
  -1.173500       -2.5357387E-19
  -1.167000       -1.3312837E-19
  -1.160500        1.8351680E-20
  -1.154000        1.9808161E-19
  -1.147500        4.0112531E-19
  -1.141000        6.2028842E-19
  -1.134500        8.4612413E-19
  -1.128000        1.0670700E-18
  -1.121500        1.2697324E-18
  -1.115000        1.4393244E-18
  -1.108500        1.5602616E-18
  -1.102000        1.6169069E-18
  -1.095500        1.5944465E-18
  -1.089000        1.4798697E-18
  -1.082500        1.2630161E-18
  -1.076000        9.3763890E-19
  -1.069500        5.0242935E-19
  -1.063000       -3.8061343E-20
  -1.056500       -6.7267387E-19
  -1.050000       -1.3831334E-18
  -1.043500       -2.1438522E-18
  -1.037000       -2.9221044E-18
  -1.030500       -3.6786215E-18
  -1.024000       -4.3686460E-18
  -1.017500       -4.9434551E-18
  -1.011000       -5.3523549E-18
  -1.004500       -5.5450999E-18
 -0.9980000       -5.4746829E-18
 -0.9915000       -5.1003986E-18
 -0.9850000       -4.3910668E-18
 -0.9785000       -3.3282489E-18
 -0.9720000       -1.9093095E-18
 -0.9655000       -1.5011318E-19
 -0.9590000        1.9128306E-18
 -0.9525000        4.2209745E-18
 -0.9460000        6.6932895E-18
 -0.9395000        9.2269284E-18
 -0.9330000        1.1699142E-17
 -0.9265000        1.3970535E-17
 -0.9200000        1.5889690E-17
 -0.9135000        1.7299138E-17
 -0.9070000        1.8042568E-17
 -0.9005000        1.7973083E-17
 -0.8940000        1.6962238E-17
 -0.8875000        1.4909538E-17
 -0.8810000        1.1751932E-17
 -0.8745000        7.4728721E-18
 -0.8680000        2.1103801E-18
 -0.8615000       -4.2364200E-18
 -0.8550000       -1.1402856E-17
 -0.8485000       -1.9156893E-17
 -0.8420000       -2.7200405E-17
 -0.8355000       -3.5173953E-17
 -0.8290000       -4.2665308E-17
 -0.8225000       -4.9221875E-17
 -0.8160000       -5.4366962E-17
 -0.8095000       -5.7619648E-17
 -0.8030000       -5.8517807E-17
 -0.7965000       -5.6643628E-17
 -0.7900000       -5.1650759E-17
 -0.7835000       -4.3291927E-17
 -0.7770000       -3.1445896E-17
 -0.7705000       -1.6142256E-17
 -0.7640000        2.4173803E-18
 -0.7575000        2.3843337E-17
 -0.7510000        4.7548436E-17
 -0.7445000        7.2746591E-17
 -0.7380000        9.8460559E-17
 -0.7315000        1.2353994E-16
 -0.7250000        1.4668973E-16
 -0.7185000        1.6650991E-16
 -0.7120000        1.8154546E-16
 -0.7055000        1.9034620E-16
 -0.6990000        1.9153484E-16
 -0.6925000        1.8388138E-16
 -0.6860000        1.6638132E-16
 -0.6795000        1.3833455E-16
 -0.6730000        9.9421525E-17
 -0.6665000        4.9772847E-17
 -0.6600000       -9.9717657E-18
 -0.6535000       -7.8619295E-17
 -0.6470000       -1.5439780E-16
 -0.6405000       -2.3495325E-16
 -0.6340000       -3.1737197E-16
 -0.6275000       -3.9823071E-16
 -0.6210000       -4.7367671E-16
 -0.6145000       -5.3953712E-16
 -0.6080000       -5.9145785E-16
 -0.6015000       -6.2506923E-16
 -0.5950000       -6.3617500E-16
 -0.5885000       -6.2095890E-16
 -0.5820000       -5.7620316E-16
 -0.5755000       -4.9951073E-16
 -0.5690000       -3.8952152E-16
 -0.5625000       -2.4611360E-16
 -0.5560000       -7.0578021E-17
 -0.5495000        1.3424265E-16
 -0.5430000        3.6386418E-16
 -0.5365000        6.1212694E-16
 -0.5300000        8.7122839E-16
 -0.5235000        1.1318299E-15
 -0.5170000        1.3832394E-15
 -0.5105000        1.6136764E-15
 -0.5040000        1.8106151E-15
 -0.4975000        1.9612029E-15
 -0.4910000        2.0527460E-15
 -0.4845000        2.0732508E-15
 -0.4780000        2.0120054E-15
 -0.4715000        1.8601826E-15
 -0.4650000        1.6114440E-15
 -0.4585000        1.2625158E-15
 -0.4520000        8.1371792E-16
 -0.4455000        2.6941106E-16
 -0.4390000       -3.6166165E-16
 -0.4325000       -1.0661639E-15
 -0.4260000       -1.8261141E-15
 -0.4195000       -2.6190119E-15
 -0.4130000       -3.4181542E-15
 -0.4065000       -4.1931612E-15
 -0.4000000       -4.9107040E-15
 -0.3935000       -5.5354420E-15
 -0.3870000       -6.0311435E-15
 -0.3805000       -6.3619802E-15
 -0.3740000       -6.4939589E-15
 -0.3675000       -6.3964489E-15
 -0.3610000       -6.0437601E-15
 -0.3545000       -5.4167206E-15
 -0.3480000       -4.5041849E-15
 -0.3415000       -3.3044104E-15
 -0.3350000       -1.8262397E-15
 -0.3285000       -9.0015356E-17
 -0.3220000        1.8718348E-15
 -0.3155000        4.0145978E-15
 -0.3090000        6.2815159E-15
 -0.3025000        8.6045012E-15
 -0.2960000        1.0905354E-14
 -0.2895000        1.3097484E-14
 -0.2830000        1.5088150E-14
 -0.2765000        1.6781152E-14
 -0.2700000        1.8079954E-14
 -0.2635000        1.8891162E-14
 -0.2570000        1.9128255E-14
 -0.2505000        1.8715476E-14
 -0.2440000        1.7591744E-14
 -0.2375000        1.5714450E-14
 -0.2310000        1.3062998E-14
 -0.2245000        9.6419107E-15
 -0.2180000        5.4833804E-15
 -0.2115000        6.4908759E-16
 -0.2050000       -4.7688463E-15
 -0.1985000       -1.0647875E-14
 -0.1920000       -1.6836138E-14
 -0.1855000       -2.3154696E-14
 -0.1790000       -2.9400961E-14
 -0.1725000       -3.5353288E-14
 -0.1660000       -4.0776705E-14
 -0.1595000       -4.5429647E-14
 -0.1530000       -4.9071614E-14
 -0.1465000       -5.1471522E-14
 -0.1400000       -5.2416560E-14
 -0.1335000       -5.1721251E-14
 -0.1270000       -4.9236473E-14
 -0.1205000       -4.4858082E-14
 -0.1140000       -3.8534842E-14
 -0.1075000       -3.0275282E-14
 -0.1010000       -2.0153194E-14
 -9.4499998E-02   -8.3114439E-15
 -8.8000000E-02    5.0362093E-15
 -8.1500001E-02    1.9605494E-14
 -7.5000003E-02    3.5044392E-14
 -6.8499997E-02    5.0938427E-14
 -6.1999999E-02    6.6818506E-14
 -5.5500001E-02    8.2171242E-14
 -4.8999999E-02    9.6451737E-14
 -4.2500000E-02    1.0909846E-13
 -3.5999998E-02    1.1955001E-13
 -2.9500000E-02    1.2726335E-13
 -2.3000000E-02    1.3173306E-13
 -1.6500000E-02    1.3251089E-13
 -9.9999998E-03    1.2922534E-13
 -3.5000001E-03    1.2160027E-13
  3.0000000E-03    1.0947205E-13
  9.4999997E-03    9.2804596E-14
  1.6000001E-02    7.1701461E-14
  2.2500001E-02    4.6414546E-14
  2.8999999E-02    1.7348763E-14
  3.5500001E-02   -1.4937761E-14
  4.1999999E-02   -4.9738381E-14
  4.8500001E-02   -8.6207639E-14
  5.5000000E-02   -1.2337616E-13
  6.1500002E-02   -1.6017073E-13
  6.8000004E-02   -1.9543895E-13
  7.4500002E-02   -2.2797869E-13
  8.1000000E-02   -2.5657113E-13
  8.7499999E-02   -2.8001698E-13
  9.3999997E-02   -2.9717488E-13
  0.1005000       -3.0700103E-13
  0.1070000       -3.0858877E-13
  0.1135000       -3.0120687E-13
  0.1200000       -2.8433546E-13
  0.1265000       -2.5769819E-13
  0.1330000       -2.2128916E-13
  0.1395000       -1.7539381E-13
  0.1460000       -1.2060235E-13
  0.1525000       -5.7815000E-14
  0.1590000        1.1761739E-14
  0.1655000        8.6628438E-14
  0.1720000        1.6501572E-13
  0.1785000        2.4491707E-13
  0.1850000        3.2413102E-13
  0.1915000        4.0031219E-13
  0.1980000        4.7103012E-13
  0.2045000        5.3383480E-13
  0.2110000        5.8632716E-13
  0.2175000        6.2623301E-13
  0.2240000        6.5147849E-13
  0.2305000        6.6026432E-13
  0.2370000        6.5113756E-13
  0.2435000        6.2305738E-13
  0.2500000        5.7545386E-13
  0.2565000        5.0827631E-13
  0.2630000        4.2203020E-13
  0.2695000        3.1779982E-13
  0.2760000        1.9725617E-13
  0.2825000        6.2647912E-14
  0.2890000       -8.3224504E-14
  0.2955000       -2.3705281E-13
  0.3020000       -3.9508178E-13
  0.3085000       -5.5318716E-13
  0.3150000       -7.0696883E-13
  0.3215000       -8.5185803E-13
  0.3280000       -9.8323595E-13
  0.3345000       -1.0965608E-12
  0.3410000       -1.1875016E-12
  0.3475000       -1.2520730E-12
  0.3540000       -1.2867695E-12
  0.3605000       -1.2886945E-12
  0.3670000       -1.2556788E-12
  0.3735000       -1.1863874E-12
  0.3800000       -1.0804080E-12
  0.3865000       -9.3832038E-13
  0.3930000       -7.6174077E-13
  0.3995000       -5.5334063E-13
  0.4060000       -3.1683730E-13
  0.4125000       -5.6954245E-14
  0.4190000        2.2064841E-13
  0.4255000        5.0947370E-13
  0.4320000        8.0231693E-13
  0.4385000        1.0914215E-12
  0.4450000        1.3686601E-12
  0.4515000        1.6257355E-12
  0.4580000        1.8543990E-12
  0.4645000        2.0466801E-12
  0.4710000        2.1951217E-12
  0.4775000        2.2930147E-12
  0.4840000        2.3346275E-12
  0.4905000        2.3154200E-12
  0.4970000        2.2322407E-12
  0.5035000        2.0834935E-12
  0.5100000        1.8692762E-12
  0.5165000        1.5914784E-12
  0.5230000        1.2538382E-12
  0.5295000        8.6195162E-13
  0.5360000        4.2323277E-13
  0.5425000       -5.3177396E-14
  0.5490000       -5.5655350E-13
  0.5555000       -1.0747797E-12
  0.5620000       -1.5945919E-12
  0.5685000       -2.1018649E-12
  0.5750000       -2.5819397E-12
  0.5815000       -3.0199838E-12
  0.5880000       -3.4013788E-12
  0.5945000       -3.7121239E-12
  0.6010000       -3.9392491E-12
  0.6075000       -4.0712238E-12
  0.6140000       -4.0983545E-12
  0.6205000       -4.0131566E-12
  0.6270000       -3.8106926E-12
  0.6335000       -3.4888618E-12
  0.6400000       -3.0486364E-12
  0.6465000       -2.4942320E-12
  0.6530000       -1.8332031E-12
  0.6595000       -1.0764585E-12
  0.6660000       -2.3819312E-13
  0.6725000        6.6427099E-13
  0.6790000        1.6107336E-12
  0.6855000        2.5784518E-12
  0.6920000        3.5425655E-12
  0.6985000        4.4766005E-12
  0.7050000        5.3530453E-12
  0.7115000        6.1439907E-12
  0.7180000        6.8218222E-12
  0.7245000        7.3599451E-12
  0.7310000        7.7335352E-12
  0.7375000        7.9202912E-12
  0.7440000        7.9011754E-12
  0.7505000        7.6611191E-12
  0.7570000        7.1896768E-12
  0.7635000        6.4816121E-12
  0.7700000        5.5373896E-12
  0.7765000        4.3635638E-12
  0.7830000        2.9730439E-12
  0.7895000        1.3852197E-12
  0.7960000       -3.7405853E-13
  0.8025000       -2.2726584E-12
  0.8090000       -4.2725073E-12
  0.8155000       -6.3300992E-12
  0.8220000       -8.3971666E-12
  0.8285000       -1.0421512E-11
  0.8350000       -1.2347984E-11
  0.8415000       -1.4119596E-11
  0.8480000       -1.5678766E-11
  0.8545000       -1.6968640E-11
  0.8610000       -1.7934515E-11
  0.8675000       -1.8525279E-11
  0.8740000       -1.8694895E-11
  0.8805000       -1.8403848E-11
  0.8870000       -1.7620551E-11
  0.8935000       -1.6322669E-11
  0.9000000       -1.4498315E-11
  0.9065000       -1.2147087E-11
  0.9130000       -9.2809328E-12
  0.9195000       -5.9247737E-12
  0.9260000       -2.1168967E-12
  0.9325000        2.0909418E-12
  0.9390000        6.6336914E-12
  0.9455000        1.1433509E-11
  0.9520000        1.6400555E-11
  0.9585000        2.1434146E-11
  0.9650000        2.6424182E-11
  0.9715000        3.1252910E-11
  0.9780000        3.5796970E-11
  0.9845000        3.9929685E-11
  0.9910000        4.3523612E-11
  0.9975000        4.6453241E-11
   1.004000        4.8597883E-11
   1.010500        4.9844611E-11
   1.017000        5.0091244E-11
   1.023500        4.9249327E-11
   1.030000        4.7246981E-11
   1.036500        4.4031608E-11
   1.043000        3.9572394E-11
   1.049500        3.3862482E-11
   1.056000        2.6920818E-11
   1.062500        1.8793564E-11
   1.069000        9.5550469E-12
   1.075500       -6.9181282E-13
   1.082000       -1.1815633E-11
   1.088500       -2.3657290E-11
   1.095000       -3.6031268E-11
   1.101500       -4.8727591E-11
   1.108000       -6.1514412E-11
   1.114500       -7.4141207E-11
   1.121000       -8.6342489E-11
   1.127500       -9.7842109E-11
   1.134000       -1.0835802E-10
   1.140500       -1.1760744E-10
   1.147000       -1.2531233E-10
   1.153500       -1.3120513E-10
   1.160000       -1.3503466E-10
   1.166500       -1.3657195E-10
   1.173000       -1.3561610E-10
   1.179500       -1.3199992E-10
   1.186000       -1.2559513E-10
   1.192500       -1.1631725E-10
   1.199000       -1.0412989E-10
   1.205500       -8.9048331E-11
   1.212000       -7.1142349E-11
   1.218500       -5.0538209E-11
   1.225000       -2.7419655E-11
   1.231500       -2.0278961E-12
   1.238000        2.5339467E-11
   1.244500        5.4330606E-11
   1.251000        8.4542734E-11
   1.257500        1.1552656E-10
   1.264000        1.4679165E-10
   1.270500        1.7781293E-10
   1.277000        2.0803813E-10
   1.283500        2.3689603E-10
   1.290000        2.6380537E-10
   1.296500        2.8818462E-10
   1.303000        3.0946187E-10
   1.309500        3.2708522E-10
   1.316000        3.4053321E-10
   1.322500        3.4932518E-10
   1.329000        3.5303144E-10
   1.335500        3.5128286E-10
   1.342000        3.4377989E-10
   1.348500        3.3030084E-10
   1.355000        3.1070901E-10
   1.361500        2.8495870E-10
   1.368000        2.5310004E-10
   1.374500        2.1528236E-10
   1.381000        1.7175580E-10
   1.387500        1.2287160E-10
   1.394000        6.9080658E-11
   1.400500        1.0930274E-11
   1.407000       -5.0940616E-11
   1.413500       -1.1580793E-10
   1.420000       -1.8287043E-10
   1.426500       -2.5125935E-10
   1.433000       -3.2004910E-10
   1.439500       -3.8826950E-10
   1.446000       -4.5491877E-10
   1.452500       -5.1897736E-10
   1.459000       -5.7942262E-10
   1.465500       -6.3524352E-10
   1.472000       -6.8545597E-10
   1.478500       -7.2911738E-10
   1.485000       -7.6534168E-10
   1.491500       -7.9331297E-10
   1.498000       -8.1229906E-10
   1.504500       -8.2166324E-10
   1.511000       -8.2087565E-10
   1.517500       -8.0952234E-10
   1.524000       -7.8731360E-10
   1.530500       -7.5408979E-10
   1.537000       -7.0982609E-10
   1.543500       -6.5463462E-10
   1.550000       -5.8876543E-10
   1.556500       -5.1260490E-10
   1.563000       -4.2667261E-10
   1.569500       -3.3161635E-10
   1.576000       -2.2820530E-10
   1.582500       -1.1732174E-10
   1.589000        4.8783724E-14
   1.595500        1.2282841E-10
   1.602000        2.4985916E-10
   1.608500        3.7991585E-10
   1.615000        5.1171967E-10
   1.621500        6.4395211E-10
   1.628000        7.7526902E-10
   1.634500        9.0431468E-10
   1.641000        1.0297354E-09
   1.647500        1.1501929E-09
   1.654000        1.2643764E-09
   1.660500        1.3710146E-09
   1.667000        1.4688859E-09
   1.673500        1.5568276E-09
   1.680000        1.6337443E-09
   1.686500        1.6986142E-09
   1.693000        1.7504950E-09
   1.699500        1.7885271E-09
   1.706000        1.8119364E-09
   1.712500        1.8200358E-09
   1.719000        1.8122249E-09
   1.725500        1.7879893E-09
   1.732000        1.7468982E-09
   1.738500        1.6886010E-09
   1.745000        1.6128248E-09
   1.751500        1.5193691E-09
   1.758000        1.4081019E-09
   1.764500        1.2789545E-09
   1.771000        1.1319176E-09
   1.777500        9.6703534E-10
   1.784000        7.8440260E-10
   1.790500        5.8415961E-10
   1.797000        3.6648945E-10
   1.803500        1.3161496E-10
   1.810000       -1.2020335E-10
   1.816500       -3.8866901E-10
   1.823000       -6.7344991E-10
   1.829500       -9.7417885E-10
   1.836000       -1.2904530E-09
   1.842500       -1.6218321E-09
   1.849000       -1.9678386E-09
   1.855500       -2.3279538E-09
   1.862000       -2.7016178E-09
   1.868500       -3.0882259E-09
   1.875000       -3.4871284E-09
   1.881500       -3.8976267E-09
   1.888000       -4.3189741E-09
   1.894500       -4.7503743E-09
   1.901000       -5.1909823E-09
   1.907500       -5.6399054E-09
   1.914000       -6.0962031E-09
   1.920500       -6.5588921E-09
   1.927000       -7.0269528E-09
   1.933500       -7.4993292E-09
   1.940000       -7.9749407E-09
   1.946500       -8.4526866E-09
   1.953000       -8.9314556E-09
   1.959500       -9.4101384E-09
   1.966000       -9.8876347E-09
   1.972500       -1.0362867E-08
   1.979000       -1.0834791E-08
   1.985500       -1.1302409E-08
   1.992000       -1.1764786E-08
   1.998500       -1.2221054E-08
   2.005000       -1.2670434E-08
   2.011500       -1.3112240E-08
   2.018000       -1.3545897E-08
   2.024500       -1.3970944E-08
   2.031000       -1.4387050E-08
   2.037500       -1.4794010E-08
   2.044000       -1.5191768E-08
   2.050500       -1.5580408E-08
   2.057000       -1.5960159E-08
   2.063500       -1.6331404E-08
   2.070000       -1.6694660E-08
   2.076500       -1.7050592E-08
   2.083000       -1.7400000E-08
   2.089500       -1.7743814E-08
   2.096000       -1.8083082E-08
   2.102500       -1.8418957E-08
   2.109000       -1.8752692E-08
   2.115500       -1.9085622E-08
   2.122000       -1.9419142E-08
   2.128500       -1.9754703E-08
   2.135000       -2.0093788E-08
   2.141500       -2.0437898E-08
   2.148000       -2.0788528E-08
   2.154500       -2.1147166E-08
   2.161000       -2.1515255E-08
   2.167500       -2.1894195E-08
   2.174000       -2.2285317E-08
   2.180500       -2.2689878E-08
   2.187000       -2.3109040E-08
   2.193500       -2.3543867E-08
   2.200000       -2.3995309E-08
   2.206500       -2.4464196E-08
   2.213000       -2.4951245E-08
   2.219500       -2.5457037E-08
   2.226000       -2.5982031E-08
   2.232500       -2.6526557E-08
   2.239000       -2.7090817E-08
   2.245500       -2.7674901E-08
   2.252000       -2.8278777E-08
   2.258500       -2.8902312E-08
   2.265000       -2.9545278E-08
   2.271500       -3.0207364E-08
   2.278000       -3.0888174E-08
   2.284500       -3.1587259E-08
   2.291000       -3.2304126E-08
   2.297500       -3.3038237E-08
   2.304000       -3.3789043E-08
   2.310500       -3.4555985E-08
   2.317000       -3.5338502E-08
   2.323500       -3.6136079E-08
   2.330000       -3.6948208E-08
   2.336500       -3.7774445E-08
   2.343000       -3.8614395E-08
   2.349500       -3.9467725E-08
   2.356000       -4.0334193E-08
   2.362500       -4.1213632E-08
   2.369000       -4.2105960E-08
   2.375500       -4.3011205E-08
   2.382000       -4.3929482E-08
   2.388500       -4.4861014E-08
   2.395000       -4.5806129E-08
   2.401500       -4.6765248E-08
   2.408000       -4.7738911E-08
   2.414500       -4.8727742E-08
   2.421000       -4.9732460E-08
   2.427500       -5.0753886E-08
   2.434000       -5.1792924E-08
   2.440500       -5.2850552E-08
   2.447000       -5.3927813E-08
   2.453500       -5.5025840E-08
   2.460000       -5.6145797E-08
   2.466500       -5.7288911E-08
   2.473000       -5.8456457E-08
   2.479500       -5.9649729E-08
   2.486000       -6.0870065E-08
   2.492500       -6.2118822E-08
   2.499000       -6.3397351E-08
   2.505500       -6.4707038E-08
   2.512000       -6.6049246E-08
   2.518500       -6.7425354E-08
   2.525000       -6.8836734E-08
   2.531500       -7.0284727E-08
   2.538000       -7.1770693E-08
   2.544500       -7.3295958E-08
   2.551000       -7.4861838E-08
   2.557500       -7.6469625E-08
   2.564000       -7.8120635E-08
   2.570500       -7.9816132E-08
   2.577000       -8.1557388E-08
   2.583500       -8.3345682E-08
   2.590000       -8.5182272E-08
   2.596500       -8.7068443E-08
   2.603000       -8.9005454E-08
   2.609500       -9.0994625E-08
   2.616000       -9.3037237E-08
   2.622500       -9.5134645E-08
   2.629000       -9.7288208E-08
   2.635500       -9.9499310E-08
   2.642000       -1.0176937E-07
   2.648500       -1.0409985E-07
   2.655000       -1.0649227E-07
   2.661500       -1.0894814E-07
   2.668000       -1.1146906E-07
   2.674500       -1.1405665E-07
   2.681000       -1.1671255E-07
   2.687500       -1.1943845E-07
   2.694000       -1.2223609E-07
   2.700500       -1.2510716E-07
   2.707000       -1.2805346E-07
   2.713500       -1.3107669E-07
   2.720000       -1.3417862E-07
   2.726500       -1.3736097E-07
   2.733000       -1.4062545E-07
   2.739500       -1.4397369E-07
   2.746000       -1.4740729E-07
   2.752500       -1.5092776E-07
   2.759000       -1.5453654E-07
   2.765500       -1.5823495E-07
   2.772000       -1.6202422E-07
   2.778500       -1.6590542E-07
   2.785000       -1.6987947E-07
   2.791500       -1.7394716E-07
   2.798000       -1.7810909E-07
   2.804500       -1.8236572E-07
   2.811000       -1.8671730E-07
   2.817500       -1.9116388E-07
   2.824000       -1.9570533E-07
   2.830500       -2.0034130E-07
   2.837000       -2.0507130E-07
   2.843500       -2.0989459E-07
   2.850000       -2.1481033E-07
   2.856500       -2.1981741E-07
   2.863000       -2.2491464E-07
   2.869500       -2.3010065E-07
   2.876000       -2.3537396E-07
   2.882500       -2.4073296E-07
   2.889000       -2.4617594E-07
   2.895500       -2.5170124E-07
   2.902000       -2.5730705E-07