  -3.000000        1.0000000E-24
  -2.993500        1.0000000E-24
  -2.987000        1.0000000E-24
  -2.980500        1.0000000E-24
  -2.974000        1.0000000E-24
  -2.967500        1.0000000E-24
  -2.961000        1.0000000E-24
  -2.954500        1.0000000E-24
  -2.948000        1.0000000E-24
  -2.941500        1.0000000E-24
  -2.935000        1.0000000E-24
  -2.928500        1.0000000E-24
  -2.922000        1.0000000E-24
  -2.915500        1.0000000E-24
  -2.909000        1.0000002E-24
  -2.902500        1.0000003E-24
  -2.896000        1.0000003E-24
  -2.889500        1.0000003E-24
  -2.883000        1.0000003E-24
  -2.876500        1.0000003E-24
  -2.870000        1.0000003E-24
  -2.863500        1.0000003E-24
  -2.857000        1.0000003E-24
  -2.850500        1.0000003E-24
  -2.844000        1.0000003E-24
  -2.837500        1.0000002E-24
  -2.831000        1.0000001E-24
  -2.824500        1.0000001E-24
  -2.818000        1.0000000E-24
  -2.811500        1.0000000E-24
  -2.805000        9.9999992E-25
  -2.798500        9.9999992E-25
  -2.792000        9.9999982E-25
  -2.785500        9.9999972E-25
  -2.779000        9.9999972E-25
  -2.772500        9.9999972E-25
  -2.766000        9.9999982E-25
  -2.759500        9.9999992E-25
  -2.753000        9.9999992E-25
  -2.746500        1.0000000E-24
  -2.740000        1.0000000E-24
  -2.733500        1.0000001E-24
  -2.727000        1.0000001E-24
  -2.720500        1.0000002E-24
  -2.714000        1.0000003E-24
  -2.707500        1.0000004E-24
  -2.701000        1.0000004E-24
  -2.694500        1.0000005E-24
  -2.688000        1.0000005E-24
  -2.681500        1.0000004E-24
  -2.675000        1.0000004E-24
  -2.668500        1.0000003E-24
  -2.662000        1.0000002E-24
  -2.655500        1.0000002E-24
  -2.649000        1.0000001E-24
  -2.642500        1.0000001E-24
  -2.636000        1.0000000E-24
  -2.629500        9.9999992E-25
  -2.623000        9.9999992E-25
  -2.616500        9.9999982E-25
  -2.610000        9.9999982E-25
  -2.603500        9.9999972E-25
  -2.597000        9.9999972E-25
  -2.590500        9.9999972E-25
  -2.584000        9.9999982E-25
  -2.577500        9.9999982E-25
  -2.571000        9.9999992E-25
  -2.564500        9.9999992E-25
  -2.558000        9.9999992E-25
  -2.551500        1.0000000E-24
  -2.545000        1.0000000E-24
  -2.538500        1.0000000E-24
  -2.532000        1.0000001E-24
  -2.525500        1.0000002E-24
  -2.519000        1.0000002E-24
  -2.512500        1.0000003E-24
  -2.506000        1.0000005E-24
  -2.499500        1.0000007E-24
  -2.493000        1.0000010E-24
  -2.486500        1.0000014E-24
  -2.480000        1.0000018E-24
  -2.473500        1.0000022E-24
  -2.467000        1.0000023E-24
  -2.460500        1.0000022E-24
  -2.454000        1.0000016E-24
  -2.447500        1.0000005E-24
  -2.441000        9.9999864E-25
  -2.434500        9.9999608E-25
  -2.428000        9.9999302E-25
  -2.421500        9.9998967E-25
  -2.415000        9.9998621E-25
  -2.408500        9.9998326E-25
  -2.402000        9.9998158E-25
  -2.395500        9.9998178E-25
  -2.389000        9.9998474E-25
  -2.382500        9.9999105E-25
  -2.376000        1.0000012E-24
  -2.369500        1.0000153E-24
  -2.363000        1.0000332E-24
  -2.356500        1.0000536E-24
  -2.350000        1.0000749E-24
  -2.343500        1.0000946E-24
  -2.337000        1.0001099E-24
  -2.330500        1.0001172E-24
  -2.324000        1.0001129E-24
  -2.317500        1.0000940E-24
  -2.311000        1.0000579E-24
  -2.304500        1.0000038E-24
  -2.298000        9.9993228E-25
  -2.291500        9.9984698E-25
  -2.285000        9.9975340E-25
  -2.278500        9.9965982E-25
  -2.272000        9.9957660E-25
  -2.265500        9.9951546E-25
  -2.259000        9.9948825E-25
  -2.252500        9.9950580E-25
  -2.246000        9.9957611E-25
  -2.239500        9.9970291E-25
  -2.233000        9.9988396E-25
  -2.226500        1.0001107E-24
  -2.220000        1.0003673E-24
  -2.213500        1.0006326E-24
  -2.207000        1.0008803E-24
  -2.200500        1.0010831E-24
  -2.194000        1.0012157E-24
  -2.187500        1.0012590E-24
  -2.181000        1.0012047E-24
  -2.174500        1.0010578E-24
  -2.168000        1.0008389E-24
  -2.161500        1.0005843E-24
  -2.155000        1.0003420E-24
  -2.148500        1.0001664E-24
  -2.142000        1.0001084E-24
  -2.135500        1.0002046E-24
  -2.129000        1.0004641E-24
  -2.122500        1.0008569E-24
  -2.116000        1.0013047E-24
  -2.109500        1.0016773E-24
  -2.103000        1.0017967E-24
  -2.096500        1.0014502E-24
  -2.090000        1.0004148E-24
  -2.083500        9.9849063E-25
  -2.077000        9.9554335E-25
  -2.070500        9.9155063E-25
  -2.064000        9.8664598E-25
  -2.057500        9.8115551E-25
  -2.051000        9.7561771E-25
  -2.044500        9.7077854E-25
  -2.038000        9.6755673E-25
  -2.031500        9.6697554E-25
  -2.025000        9.7005900E-25
  -2.018500        9.7770060E-25
  -2.012000        9.9051288E-25
  -2.005500        1.0086748E-24
  -1.999000        1.0317958E-24
  -1.992500        1.0588210E-24
  -1.986000        1.0879979E-24
  -1.979500        1.1169257E-24
  -1.973000        1.1426976E-24
  -1.966500        1.1621381E-24
  -1.960000        1.1721215E-24
  -1.953500        1.1699453E-24
  -1.947000        1.1537129E-24
  -1.940500        1.1226722E-24
  -1.934000        1.0774460E-24
  -1.927500        1.0200931E-24
  -1.921000        9.5394740E-25
  -1.914500        8.8320768E-25
  -1.908000        8.1228189E-25
  -1.901500        7.4493274E-25
  -1.895000        6.8332275E-25
  -1.888500        6.2710350E-25
  -1.882000        5.7273851E-25
  -1.875500        5.1327521E-25
  -1.869000        4.3878371E-25
  -1.862500        3.3765125E-25
  -1.856000        1.9885020E-25
  -1.849500        1.5188506E-26
  -1.843000       -2.1260006E-25
  -1.836500       -4.7124943E-25
  -1.830000       -7.3036391E-25
  -1.823500       -9.3854736E-25
  -1.817000       -1.0211440E-24
  -1.810500       -8.8057506E-25
  -1.804000       -4.0026304E-25
  -1.797500        5.4698279E-25
  -1.791000        2.0855224E-24
  -1.784500        4.3182139E-24
  -1.778000        7.3029619E-24
  -1.771500        1.1025651E-23
  -1.765000        1.5371512E-23
  -1.758500        2.0097805E-23
  -1.752000        2.4811564E-23
  -1.745500        2.8956774E-23
  -1.739000        3.1815738E-23
  -1.732500        3.2529367E-23
  -1.726000        3.0140523E-23
  -1.719500        2.3663396E-23
  -1.713000        1.2180063E-23
  -1.706500       -5.0371459E-24
  -1.700000       -2.8381963E-23
  -1.693500       -5.7757215E-23
  -1.687000       -9.2416235E-23
  -1.680500       -1.3081829E-22
  -1.674000       -1.7051646E-22
  -1.667500       -2.0809883E-22
  -1.661000       -2.3920497E-22
  -1.654500       -2.5863828E-22
  -1.648000       -2.6059221E-22
  -1.641500       -2.3900206E-22
  -1.635000       -1.8802664E-22
  -1.628500       -1.0265280E-22
  -1.622000        2.0597112E-23
  -1.615500        1.8288908E-22
  -1.609000        3.8228230E-22
  -1.602500        6.1297966E-22
  -1.596000        8.6470141E-22
  -1.589500        1.1222702E-21
  -1.583000        1.3654980E-21
  -1.576500        1.5694674E-21
  -1.570000        1.7052872E-21
  -1.563500        1.7413838E-21
  -1.557000        1.6453614E-21
  -1.550500        1.3864283E-21
  -1.544000        9.3833604E-22
  -1.537500        2.8272573E-22
  -1.531000       -5.8728117E-22
  -1.524500       -1.6634711E-21
  -1.518000       -2.9191850E-21
  -1.511500       -4.3065462E-21
  -1.505000       -5.7546321E-21
  -1.498500       -7.1689538E-21
  -1.492000       -8.4326079E-21
  -1.485500       -9.4094145E-21
  -1.479000       -9.9492727E-21
  -1.472500       -9.8958751E-21
  -1.466000       -9.0967556E-21
  -1.459500       -7.4154803E-21
  -1.453000       -4.7455857E-21
  -1.446500       -1.0256633E-21
  -1.440000        3.7452529E-21
  -1.433500        9.4930131E-21
  -1.427000        1.6055627E-20
  -1.420500        2.3173815E-20
  -1.414000        3.0486242E-20
  -1.407500        3.7530832E-20
  -1.401000        4.3753386E-20
  -1.394500        4.8524554E-20
  -1.388000        5.1165803E-20
  -1.381500        5.0984589E-20
  -1.375000        4.7318224E-20
  -1.368500        3.9585507E-20
  -1.362000        2.7344126E-20
  -1.355500        1.0351288E-20
  -1.349000       -1.1375822E-20
  -1.342500       -3.7503784E-20
  -1.336000       -6.7335559E-20
  -1.329500       -9.9776852E-20
  -1.323000       -1.3332137E-19
  -1.316500       -1.6605971E-19
  -1.310000       -1.9571632E-19
  -1.303500       -2.1971755E-19
  -1.297000       -2.3529297E-19
  -1.290500       -2.3961016E-19
  -1.284000       -2.2994070E-19
  -1.277500       -2.0385352E-19
  -1.271000       -1.5942844E-19
  -1.264500       -9.5480521E-20
  -1.258000       -1.1783454E-20
  -1.251500        9.0722410E-20
  -1.245000        2.0975305E-19
  -1.238500        3.4155172E-19
  -1.232000        4.8082510E-19
  -1.225500        6.2076064E-19
  -1.219000        7.5313952E-19
  -1.212500        8.6855639E-19
  -1.206000        9.5675215E-19
  -1.199500        1.0070611E-18
  -1.193000        1.0089660E-18
  -1.186500        9.5274839E-19
  -1.180000        8.3021207E-19
  -1.173500        6.3545033E-19
  -1.167000        3.6561944E-19
  -1.160500        2.1673888E-20
  -1.154000       -3.9098667E-19
  -1.147500       -8.6201241E-19
  -1.141000       -1.3757940E-18
  -1.134500       -1.9114020E-18
  -1.128000       -2.4428215E-18
  -1.121500       -2.9395182E-18
  -1.115000       -3.3673636E-18
  -1.108500       -3.6899228E-18
  -1.102000       -3.8700997E-18
  -1.095500       -3.8720982E-18
  -1.089000       -3.6636491E-18
  -1.082500       -3.2184158E-18
  -1.076000       -2.5184781E-18
  -1.069500       -1.5567590E-18
  -1.063000       -3.3926089E-19
  -1.056500        1.1130556E-18
  -1.050000        2.7629046E-18
  -1.043500        4.5559838E-18
  -1.037000        6.4211037E-18
  -1.030500        8.2712602E-18
  -1.024000        1.0005741E-17
  -1.017500        1.1513326E-17
  -1.011000        1.2676550E-17
  -1.004500        1.3377001E-17
 -0.9980000        1.3501487E-17
 -0.9915000        1.2948907E-17
 -0.9850000        1.1637542E-17
 -0.9785000        9.5124348E-18
 -0.9720000        6.5524967E-18
 -0.9655000        2.7769005E-18
 -0.9590000       -1.7496897E-18
 -0.9525000       -6.9134879E-18
 -0.9460000       -1.2550007E-17
 -0.9395000       -1.8444918E-17
 -0.9330000       -2.4337626E-17
 -0.9265000       -2.9927835E-17
 -0.9200000       -3.4885148E-17
 -0.9135000       -3.8861643E-17
 -0.9070000       -4.1507222E-17
 -0.9005000       -4.2487312E-17
 -0.8940000       -4.1502325E-17
 -0.8875000       -3.8308130E-17
 -0.8810000       -3.2736646E-17
 -0.8745000       -2.4715401E-17
 -0.8680000       -1.4285058E-17
 -0.8615000       -1.6136102E-18
 -0.8550000        1.2993967E-17
 -0.8485000        2.9091641E-17
 -0.8420000        4.6094858E-17
 -0.8355000        6.3290500E-17
 -0.8290000        7.9854699E-17
 -0.8225000        9.4878774E-17
 -0.8160000        1.0740298E-16
 -0.8095000        1.1645749E-16
 -0.8030000        1.2110945E-16
 -0.7965000        1.2051468E-16
 -0.7900000        1.1397192E-16
 -0.7835000        1.0097722E-16
 -0.7770000        8.1275869E-17
 -0.7705000        5.4908914E-17
 -0.7640000        2.2251203E-17
 -0.7575000       -1.5962041E-17
 -0.7510000       -5.8622985E-17
 -0.7445000       -1.0425570E-16
 -0.7380000       -1.5103930E-16
 -0.7315000       -1.9685136E-16
 -0.7250000       -2.3933159E-16
 -0.7185000       -2.7596556E-16
 -0.7120000       -3.0418700E-16
 -0.7055000       -3.2149596E-16
 -0.6990000       -3.2558888E-16
 -0.6925000       -3.1449629E-16
 -0.6860000       -2.8672192E-16
 -0.6795000       -2.4137699E-16
 -0.6730000       -1.7830238E-16
 -0.6665000       -9.8171549E-17
 -0.6600000       -2.5664207E-18
 -0.6535000        1.0598020E-16
 -0.6470000        2.2398243E-16
 -0.6405000        3.4704425E-16
 -0.6340000        4.6995093E-16
 -0.6275000        5.8681077E-16
 -0.6210000        6.9124697E-16
 -0.6145000        7.7663641E-16
 -0.6080000        8.3638955E-16
 -0.6015000        8.6426430E-16
 -0.5950000        8.5470262E-16
 -0.5885000        8.0317718E-16
 -0.5820000        7.0653342E-16
 -0.5755000        5.6331037E-16
 -0.5690000        3.7402259E-16
 -0.5625000        1.4138683E-16
 -0.5560000       -1.2952482E-16
 -0.5495000       -4.3122119E-16
 -0.5430000       -7.5382888E-16
 -0.5365000       -1.0852440E-15
 -0.5300000       -1.4114012E-15
 -0.5235000       -1.7166646E-15
 -0.5170000       -1.9843371E-15
 -0.5105000       -2.1972763E-15
 -0.5040000       -2.3386071E-15
 -0.4975000       -2.3925053E-15
 -0.4910000       -2.3450300E-15
 -0.4845000       -2.1849704E-15
 -0.4780000       -1.9046739E-15
 -0.4715000       -1.5008166E-15
 -0.4650000       -9.7507585E-16
 -0.4585000       -3.3466383E-16
 -0.4520000        4.0731493E-16
 -0.4455000        1.2317190E-15
 -0.4390000        2.1134652E-15
 -0.4325000        3.0218915E-15
 -0.4260000        3.9213971E-15
 -0.4195000        4.7723662E-15
 -0.4130000        5.5323622E-15
 -0.4065000        6.1575827E-15
 -0.4000000        6.6045298E-15
 -0.3935000        6.8318599E-15
 -0.3870000        6.8023480E-15
 -0.3805000        6.4849033E-15
 -0.3740000        5.8565548E-15
 -0.3675000        4.9043237E-15
 -0.3610000        3.6268956E-15
 -0.3545000        2.0359995E-15
 -0.3480000        1.5741140E-16
 -0.3415000       -1.9685003E-15
 -0.3350000       -4.2867529E-15
 -0.3285000       -6.7283109E-15
 -0.3220000       -9.2112648E-15
 -0.3155000       -1.1642644E-14
 -0.3090000       -1.3920857E-14
 -0.3025000       -1.5938722E-14
 -0.2960000       -1.7587042E-14
 -0.2895000       -1.8758607E-14
 -0.2830000       -1.9352562E-14
 -0.2765000       -1.9278949E-14
 -0.2700000       -1.8463312E-14
 -0.2635000       -1.6851161E-14
 -0.2570000       -1.4412145E-14
 -0.2505000       -1.1143705E-14
 -0.2440000       -7.0740524E-15
 -0.2375000       -2.2642904E-15
 -0.2310000        3.1905004E-15
 -0.2245000        9.1613203E-15
 -0.2180000        1.5486590E-14
 -0.2115000        2.1974810E-14
 -0.2050000        2.8408591E-14
 -0.1985000        3.4549993E-14
 -0.1920000        4.0147149E-14
 -0.1855000        4.4941979E-14
 -0.1790000        4.8678892E-14
 -0.1725000        5.1114176E-14
 -0.1660000        5.2025824E-14
 -0.1595000        5.1223501E-14
 -0.1530000        4.8558281E-14
 -0.1465000        4.3931774E-14
 -0.1400000        3.7304330E-14
 -0.1335000        2.8701844E-14
 -0.1270000        1.8220931E-14
 -0.1205000        6.0320405E-15
 -0.1140000       -7.6197178E-15
 -0.1075000       -2.2416256E-14
 -0.1010000       -3.7970840E-14
 -9.4499998E-02   -5.3835185E-14
 -8.8000000E-02   -6.9509231E-14
 -8.1500001E-02   -8.4453528E-14
 -7.5000003E-02   -9.8103966E-14
 -6.8499997E-02   -1.0988861E-13
 -6.1999999E-02   -1.1924611E-13
 -5.5500001E-02   -1.2564537E-13
 -4.8999999E-02   -1.2860568E-13
 -4.2500000E-02   -1.2771686E-13
 -3.5999998E-02   -1.2265873E-13
 -2.9500000E-02   -1.1321895E-13
 -2.3000000E-02   -9.9308935E-14
 -1.6500000E-02   -8.0976756E-14
 -9.9999998E-03   -5.8416732E-14
 -3.5000001E-03   -3.1974850E-14
  3.0000000E-03   -2.1497129E-15
  9.4999997E-03    3.0411346E-14
  1.6000001E-02    6.4921362E-14
  2.2500001E-02    1.0046787E-13
  2.8999999E-02    1.3603227E-13
  3.5500001E-02    1.7051391E-13
  4.1999999E-02    2.0275857E-13
  4.8500001E-02    2.3159076E-13
  5.5000000E-02    2.5584900E-13
  6.1500002E-02    2.7442317E-13
  6.8000004E-02    2.8629296E-13
  7.4500002E-02    2.9056605E-13
  8.1000000E-02    2.8651525E-13
  8.7499999E-02    2.7361270E-13
  9.3999997E-02    2.5156060E-13
  0.1005000        2.2031663E-13
  0.1070000        1.8011333E-13
  0.1135000        1.3147033E-13
  0.1200000        7.5198447E-14
  0.1265000        1.2395331E-14
  0.1330000       -5.5568218E-14
  0.1395000       -1.2707085E-13
  0.1460000       -2.0027255E-13
  0.1525000       -2.7315522E-13
  0.1590000       -3.4357115E-13
  0.1655000       -4.0929852E-13
  0.1720000       -4.6810261E-13
  0.1785000       -5.1780135E-13
  0.1850000       -5.5633346E-13
  0.1915000       -5.8182680E-13
  0.1980000       -5.9266578E-13
  0.2045000       -5.8755480E-13
  0.2110000       -5.6557667E-13
  0.2175000       -5.2624289E-13
  0.2240000       -4.6953440E-13
  0.2305000       -3.9593109E-13
  0.2370000       -3.0642820E-13
  0.2435000       -2.0253897E-13
  0.2500000       -8.6281900E-14
  0.2565000        3.9847117E-14
  0.2630000        1.7291848E-13
  0.2695000        3.0962727E-13
  0.2760000        4.4636622E-13
  0.2825000        5.7931128E-13
  0.2890000        7.0451847E-13
  0.2955000        8.1802935E-13
  0.3020000        9.1598333E-13
  0.3085000        9.9473316E-13
  0.3150000        1.0509599E-12
  0.3215000        1.0817868E-12
  0.3280000        1.0848850E-12
  0.3345000        1.0585703E-12
  0.3410000        1.0018872E-12
  0.3475000        9.1467600E-13
  0.3540000        7.9762201E-13
  0.3605000        6.5228292E-13
  0.3670000        4.8109357E-13
  0.3735000        2.8734594E-13
  0.3800000        7.5144379E-14
  0.3865000       -1.5066454E-13
  0.3930000       -3.8458660E-13
  0.3995000       -6.2059743E-13
  0.4060000       -8.5228146E-13
  0.4125000       -1.0729887E-12
  0.4190000       -1.2760070E-12
  0.4255000       -1.4547444E-12
  0.4320000       -1.6029189E-12
  0.4385000       -1.7147492E-12
  0.4450000       -1.7851421E-12
  0.4515000       -1.8098713E-12
  0.4580000       -1.7857419E-12
  0.4645000       -1.7107357E-12
  0.4710000       -1.5841320E-12
  0.4775000       -1.4066001E-12
  0.4840000       -1.1802589E-12
  0.4905000       -9.0870069E-13
  0.4970000       -5.9697624E-13
  0.5035000       -2.5153976E-13
  0.5100000        1.1984715E-13
  0.5165000        5.0825083E-13
  0.5230000        9.0374160E-13
  0.5295000        1.2956046E-12
  0.5360000        1.6725843E-12
  0.5425000        2.0231572E-12
  0.5490000        2.3358271E-12
  0.5555000        2.5994352E-12
  0.5620000        2.8034827E-12
  0.5685000        2.9384505E-12
  0.5750000        2.9961153E-12
  0.5815000        2.9698490E-12
  0.5880000        2.8548936E-12
  0.5945000        2.6486064E-12
  0.6010000        2.3506624E-12
  0.6075000        1.9632115E-12
  0.6140000        1.4909806E-12
  0.6205000        9.4131593E-13
  0.6270000        3.2416195E-13
  0.6335000       -3.4802770E-13
  0.6400000       -1.0604478E-12
  0.6465000       -1.7961690E-12
  0.6530000       -2.5364314E-12
  0.6595000       -3.2610047E-12
  0.6660000       -3.9486079E-12
  0.6725000       -4.5773784E-12
  0.6790000       -5.1253919E-12
  0.6855000       -5.5712119E-12
  0.6920000       -5.8944676E-12
  0.6985000       -6.0764419E-12
  0.7050000       -6.1006564E-12
  0.7115000       -5.9534456E-12
  0.7180000       -5.6244983E-12
  0.7245000       -5.1073533E-12
  0.7310000       -4.3998425E-12
  0.7375000       -3.5044545E-12
  0.7440000       -2.4286194E-12
  0.7505000       -1.1848902E-12
  0.7570000        2.0897922E-13
  0.7635000        1.7300749E-12
  0.7700000        3.3504870E-12
  0.7765000        5.0375997E-12
  0.7830000        6.7545123E-12
  0.7895000        8.4605855E-12
  0.7960000        1.0112114E-11
  0.8025000        1.1663118E-11
  0.8090000        1.3066239E-11
  0.8155000        1.4273730E-11
  0.8220000        1.5238527E-11
  0.8285000        1.5915380E-11
  0.8350000        1.6262021E-11
  0.8415000        1.6240360E-11
  0.8480000        1.5817653E-11
  0.8545000        1.4967661E-11
  0.8610000        1.3671720E-11
  0.8675000        1.1919754E-11
  0.8740000        9.7111503E-12
  0.8805000        7.0554933E-12
  0.8870000        3.9731460E-12
  0.8935000        4.9562828E-13
  0.9000000       -3.3342090E-12
  0.9065000       -7.4622392E-12
  0.9130000       -1.1823364E-11
  0.9195000       -1.6342056E-11
  0.9260000       -2.0933174E-11
  0.9325000       -2.5503018E-11
  0.9390000       -2.9950657E-11
  0.9455000       -3.4169476E-11
  0.9520000       -3.8048963E-11
  0.9585000       -4.1476707E-11
  0.9650000       -4.4340538E-11
  0.9715000       -4.6530856E-11
  0.9780000       -4.7943028E-11
  0.9845000       -4.8479887E-11
  0.9910000       -4.8054224E-11
  0.9975000       -4.6591252E-11
   1.004000       -4.4031001E-11
   1.010500       -4.0330610E-11
   1.017000       -3.5466366E-11
   1.023500       -2.9435589E-11
   1.030000       -2.2258166E-11
   1.036500       -1.3977804E-11
   1.043000       -4.6628786E-12
   1.049500        5.5931197E-12
   1.056000        1.6671593E-11
   1.062500        2.8429304E-11
   1.069000        4.0699347E-11
   1.075500        5.3292613E-11
   1.082000        6.5999761E-11
   1.088500        7.8593666E-11
   1.095000        9.0832376E-11
   1.101500        1.0246248E-10
   1.108000        1.1322294E-10
   1.114500        1.2284922E-10
   1.121000        1.3107775E-10
   1.127500        1.3765070E-10
   1.134000        1.4232078E-10
   1.140500        1.4485632E-10
   1.147000        1.4504623E-10
   1.153500        1.4270488E-10
   1.160000        1.3767694E-10
   1.166500        1.2984187E-10
   1.173000        1.1911808E-10
   1.179500        1.0546664E-10
   1.186000        8.8894531E-11
   1.192500        6.9457308E-11
   1.199000        4.7261025E-11
   1.205500        2.2463488E-11
   1.212000       -4.7252328E-12
   1.218500       -3.4043171E-11
   1.225000       -6.5177676E-11
   1.231500       -9.7767419E-11
   1.238000       -1.3140532E-10
   1.244500       -1.6564229E-10
   1.251000       -1.9999183E-10
   1.257500       -2.3393540E-10
   1.264000       -2.6692848E-10
   1.270500       -2.9840733E-10
   1.277000       -3.2779629E-10
   1.283500       -3.5451567E-10
   1.290000       -3.7798981E-10
   1.296500       -3.9765571E-10
   1.303000       -4.1297149E-10
   1.309500       -4.2342527E-10
   1.316000       -4.2854362E-10
   1.322500       -4.2790002E-10
   1.329000       -4.2112280E-10
   1.335500       -4.0790296E-10
   1.342000       -3.8800108E-10
   1.348500       -3.6125353E-10
   1.355000       -3.2757833E-10
   1.361500       -2.8697972E-10
   1.368000       -2.3955202E-10
   1.374500       -1.8548221E-10
   1.381000       -1.2505186E-10
   1.387500       -5.8637505E-11
   1.394000        1.3289692E-11
   1.400500        9.0165798E-11
   1.407000        1.7133681E-10
   1.413500        2.5606262E-10
   1.420000        3.4352199E-10
   1.426500        4.3281870E-10
   1.433000        5.2298849E-10
   1.439500        6.1300698E-10
   1.446000        7.0179856E-10
   1.452500        7.8824591E-10
   1.459000        8.7119989E-10
   1.465500        9.4949093E-10
   1.472000        1.0219394E-09
   1.478500        1.0873680E-09
   1.485000        1.1446133E-09
   1.491500        1.1925373E-09
   1.498000        1.2300403E-09
   1.504500        1.2560721E-09
   1.511000        1.2696448E-09
   1.517500        1.2698439E-09
   1.524000        1.2558395E-09
   1.530500        1.2268979E-09
   1.537000        1.1823920E-09
   1.543500        1.1218110E-09
   1.550000        1.0447705E-09
   1.556500        9.5102115E-10
   1.563000        8.4045687E-10
   1.569500        7.1312228E-10
   1.576000        5.6921939E-10
   1.582500        4.0911391E-10
   1.589000        2.3334004E-10
   1.595500        4.2604861E-11
   1.602000       -1.6220854E-10
   1.608500       -3.8003853E-10
   1.615000       -6.0964361E-10
   1.621500       -8.4960206E-10
   1.628000       -1.0983129E-09
   1.634500       -1.3539974E-09
   1.641000       -1.6147018E-09
   1.647500       -1.8783028E-09
   1.654000       -2.1425113E-09
   1.660500       -2.4048799E-09
   1.667000       -2.6628111E-09
   1.673500       -2.9135656E-09
   1.680000       -3.1542735E-09
   1.686500       -3.3819467E-09
   1.693000       -3.5934911E-09
   1.699500       -3.7857215E-09
   1.706000       -3.9553782E-09
   1.712500       -4.0991441E-09
   1.719000       -4.2136610E-09
   1.725500       -4.2955532E-09
   1.732000       -4.3414432E-09
   1.738500       -4.3479775E-09
   1.745000       -4.3118464E-09
   1.751500       -4.2298085E-09
   1.758000       -4.0987138E-09
   1.764500       -3.9155283E-09
   1.771000       -3.6773569E-09
   1.777500       -3.3814691E-09
   1.784000       -3.0253227E-09
   1.790500       -2.6065858E-09
   1.797000       -2.1231614E-09
   1.803500       -1.5732085E-09
   1.810000       -9.5516206E-10
   1.816500       -2.6775329E-10
   1.823000        4.8997345E-10
   1.829500        1.3186451E-09
   1.836000        2.2185460E-09
   1.842500        3.1896075E-09
   1.849000        4.2313983E-09
   1.855500        5.3431202E-09
   1.862000        6.5236021E-09
   1.868500        7.7713027E-09
   1.875000        9.0843120E-09
   1.881500        1.0460356E-08
   1.888000        1.1896807E-08
   1.894500        1.3390695E-08
   1.901000        1.4938724E-08
   1.907500        1.6537287E-08
   1.914000        1.8182490E-08
   1.920500        1.9870171E-08
   1.927000        2.1595934E-08
   1.933500        2.3355165E-08
   1.940000        2.5143073E-08
   1.946500        2.6954714E-08
   1.953000        2.8785033E-08
   1.959500        3.0628890E-08
   1.966000        3.2481104E-08
   1.972500        3.4336480E-08
   1.979000        3.6189849E-08
   1.985500        3.8036113E-08
   1.992000        3.9870265E-08
   1.998500        4.1687439E-08
   2.005000        4.3482938E-08
   2.011500        4.5252268E-08
   2.018000        4.6991172E-08
   2.024500        4.8695650E-08
   2.031000        5.0362008E-08
   2.037500        5.1986863E-08
   2.044000        5.3567170E-08
   2.050500        5.5100262E-08
   2.057000        5.6583836E-08
   2.063500        5.8016003E-08
   2.070000        5.9395269E-08
   2.076500        6.0720573E-08
   2.083000        6.1991258E-08
   2.089500        6.3207125E-08
   2.096000        6.4368386E-08
   2.102500        6.5475689E-08
   2.109000        6.6530099E-08
   2.115500        6.7533094E-08
   2.122000        6.8486592E-08
   2.128500        6.9392861E-08
   2.135000        7.0254572E-08
   2.141500        7.1074759E-08
   2.148000        7.1856789E-08
   2.154500        7.2604365E-08
   2.161000        7.3321488E-08
   2.167500        7.4012434E-08
   2.174000        7.4681729E-08
   2.180500        7.5334157E-08
   2.187000        7.5974661E-08
   2.193500        7.6608387E-08
   2.200000        7.7240621E-08
   2.206500        7.7876777E-08
   2.213000        7.8522355E-08
   2.219500        7.9182925E-08
   2.226000        7.9864087E-08
   2.232500        8.0571475E-08
   2.239000        8.1310681E-08
   2.245500        8.2087276E-08
   2.252000        8.2906773E-08
   2.258500        8.3774587E-08
   2.265000        8.4696026E-08
   2.271500        8.5676270E-08
   2.278000        8.6720348E-08
   2.284500        8.7833129E-08
   2.291000        8.9019288E-08
   2.297500        9.0283294E-08
   2.304000        9.1629417E-08
   2.310500        9.3061686E-08
   2.317000        9.4583896E-08
   2.323500        9.6199607E-08
   2.330000        9.7912086E-08
   2.336500        9.9724375E-08
   2.343000        1.0163924E-07
   2.349500        1.0365915E-07
   2.356000        1.0578633E-07
   2.362500        1.0802268E-07
   2.369000        1.1036988E-07
   2.375500        1.1282932E-07
   2.382000        1.1540207E-07
   2.388500        1.1808899E-07
   2.395000        1.2089065E-07
   2.401500        1.2380734E-07
   2.408000        1.2683913E-07
   2.414500        1.2998581E-07
   2.421000        1.3324699E-07
   2.427500        1.3662196E-07
   2.434000        1.4010988E-07
   2.440500        1.4370964E-07
   2.447000        1.4742001E-07
   2.453500        1.5123948E-07
   2.460000        1.5516645E-07
   2.466500        1.5919913E-07
   2.473000        1.6333561E-07
   2.479500        1.6757382E-07
   2.486000        1.7191161E-07
   2.492500        1.7634676E-07
   2.499000        1.8087692E-07
   2.505500        1.8549976E-07
   2.512000        1.9021282E-07
   2.518500        1.9501370E-07
   2.525000        1.9990000E-07
   2.531500        2.0486931E-07
   2.538000        2.0991931E-07
   2.544500        2.1504771E-07
   2.551000        2.2025232E-07
   2.557500        2.2553104E-07
   2.564000        2.3088194E-07
   2.570500        2.3630324E-07
   2.577000        2.4179332E-07
   2.583500        2.4735067E-07
   2.590000        2.5297413E-07
   2.596500        2.5866271E-07
   2.603000        2.6441560E-07
   2.609500        2.7023233E-07
   2.616000        2.7611264E-07
   2.622500        2.8205659E-07
   2.629000        2.8806457E-07
   2.635500        2.9413718E-07
   2.642000        3.0027539E-07
   2.648500        3.0648042E-07
   2.655000        3.1275383E-07
   2.661500        3.1909750E-07
   2.668000        3.2551364E-07
   2.674500        3.3200467E-07
   2.681000        3.3857341E-07
   2.687500        3.4522287E-07
   2.694000        3.5195634E-07
   2.700500        3.5877738E-07
   2.707000        3.6568974E-07
   2.713500        3.7269740E-07
   2.720000        3.7980462E-07
   2.726500        3.8701569E-07
   2.733000        3.9433510E-07
   2.739500        4.0176747E-07
   2.746000        4.0931749E-07
   2.752500        4.1699002E-07
   2.759000        4.2478976E-07
   2.765500        4.3272163E-07
   2.772000        4.4079044E-07
   2.778500        4.4900099E-07
   2.785000        4.5735800E-07
   2.791500        4.6586615E-07
   2.798000        4.7452997E-07
   2.804500        4.8335392E-07
   2.811000        4.9234228E-07
   2.817500        5.0149924E-07
   2.824000        5.1082867E-07
   2.830500        5.2033442E-07
   2.837000        5.3002009E-07
   2.843500        5.3988907E-07
   2.850000        5.4994462E-07
   2.856500        5.6018968E-07
   2.863000        5.7062704E-07
   2.869500        5.8125926E-07
   2.876000        5.9208867E-07
   2.882500        6.0311748E-07
   2.889000        6.1434764E-07
   2.895500        6.2578090E-07
   2.902000        6.3741885E-07