  -3.000000        1.0000000E-24
  -2.993500        1.0000000E-24
  -2.987000        1.0000000E-24
  -2.980500        1.0000000E-24
  -2.974000        1.0000000E-24
  -2.967500        1.0000000E-24
  -2.961000        1.0000000E-24
  -2.954500        1.0000000E-24
  -2.948000        1.0000000E-24
  -2.941500        1.0000000E-24
  -2.935000        1.0000000E-24
  -2.928500        1.0000000E-24
  -2.922000        1.0000000E-24
  -2.915500        1.0000000E-24
  -2.909000        1.0000000E-24
  -2.902500        1.0000000E-24
  -2.896000        1.0000000E-24
  -2.889500        1.0000000E-24
  -2.883000        1.0000000E-24
  -2.876500        1.0000000E-24
  -2.870000        1.0000000E-24
  -2.863500        1.0000000E-24
  -2.857000        1.0000000E-24
  -2.850500        1.0000000E-24
  -2.844000        1.0000000E-24
  -2.837500        1.0000000E-24
  -2.831000        1.0000000E-24
  -2.824500        1.0000000E-24
  -2.818000        1.0000000E-24
  -2.811500        1.0000000E-24
  -2.805000        1.0000000E-24
  -2.798500        1.0000000E-24
  -2.792000        1.0000000E-24
  -2.785500        1.0000000E-24
  -2.779000        1.0000000E-24
  -2.772500        1.0000000E-24
  -2.766000        1.0000000E-24
  -2.759500        1.0000000E-24
  -2.753000        9.9999982E-25
  -2.746500        9.9999933E-25
  -2.740000        9.9999874E-25
  -2.733500        9.9999795E-25
  -2.727000        9.9999706E-25
  -2.720500        9.9999627E-25
  -2.714000        9.9999608E-25
  -2.707500        9.9999716E-25
  -2.701000        1.0000005E-24
  -2.694500        1.0000072E-24
  -2.688000        1.0000181E-24
  -2.681500        1.0000333E-24
  -2.675000        1.0000520E-24
  -2.668500        1.0000717E-24
  -2.662000        1.0000878E-24
  -2.655500        1.0000927E-24
  -2.649000        1.0000766E-24
  -2.642500        1.0000284E-24
  -2.636000        9.9993681E-25
  -2.629500        9.9979363E-25
  -2.623000        9.9959701E-25
  -2.616500        9.9935621E-25
  -2.610000        9.9909589E-25
  -2.603500        9.9885903E-25
  -2.597000        9.9870925E-25
  -2.590500        9.9872828E-25
  -2.584000        9.9900960E-25
  -2.577500        9.9964622E-25
  -2.571000        1.0007129E-24
  -2.564500        1.0022424E-24
  -2.558000        1.0042002E-24
  -2.551500        1.0064592E-24
  -2.545000        1.0087798E-24
  -2.538500        1.0108027E-24
  -2.532000        1.0120590E-24
  -2.525500        1.0120048E-24
  -2.519000        1.0100802E-24
  -2.512500        1.0057961E-24
  -2.506000        9.9883961E-25
  -2.499500        9.8919026E-25
  -2.493000        9.7722699E-25
  -2.486500        9.6381004E-25
  -2.480000        9.5031154E-25
  -2.473500        9.3857773E-25
  -2.467000        9.3080518E-25
  -2.460500        9.2932863E-25
  -2.454000        9.3632583E-25
  -2.447500        9.5346580E-25
  -2.441000        9.8153604E-25
  -2.434500        1.0201030E-24
  -2.428000        1.0672618E-24
  -2.421500        1.1195363E-24
  -2.415000        1.1719746E-24
  -2.408500        1.2184698E-24
  -2.402000        1.2523079E-24
  -2.395500        1.2669032E-24
  -2.389000        1.2566564E-24
  -2.382500        1.2178312E-24
  -2.376000        1.1493277E-24
  -2.369500        1.0532231E-24
  -2.363000        9.3496761E-25
  -2.356500        8.0315418E-25
  -2.350000        6.6883468E-25
  -2.343500        5.4442501E-25
  -2.337000        4.4230820E-25
  -2.330500        3.7331595E-25
  -2.324000        3.4531141E-25
  -2.317500        3.6211915E-25
  -2.311000        4.2302538E-25
  -2.304500        5.2301241E-25
  -2.298000        6.5378938E-25
  -2.291500        8.0554975E-25
  -2.285000        9.6923908E-25
  -2.278500        1.1389765E-24
  -2.272000        1.3141648E-24
  -2.265500        1.5007700E-24
  -2.259000        1.7112766E-24
  -2.252500        1.9629388E-24
  -2.246000        2.2741541E-24
  -2.239500        2.6590746E-24
  -2.233000        3.1209073E-24
  -2.226500        3.6447086E-24
  -2.220000        4.1907892E-24
  -2.213500        4.6900573E-24
  -2.207000        5.0426939E-24
  -2.200500        5.1214183E-24
  -2.194000        4.7802498E-24
  -2.187500        3.8690993E-24
  -2.181000        2.2537711E-24
  -2.174500       -1.5992281E-25
  -2.168000       -3.4001238E-24
  -2.161500       -7.4039589E-24
  -2.155000       -1.1997183E-23
  -2.148500       -1.6882204E-23
  -2.142000       -2.1638007E-23
  -2.135500       -2.5734716E-23
  -2.129000       -2.8564291E-23
  -2.122500       -2.9487065E-23
  -2.116000       -2.7891875E-23
  -2.109500       -2.3265278E-23
  -2.103000       -1.5263586E-23
  -2.096500       -3.7796846E-24
  -2.090000        1.1003840E-23
  -2.083500        2.8583763E-23
  -2.077000        4.8134364E-23
  -2.070500        6.8539088E-23
  -2.064000        8.8456381E-23
  -2.057500        1.0641615E-22
  -2.051000        1.2093823E-22
  -2.044500        1.3066026E-22
  -2.038000        1.3445826E-22
  -2.031500        1.3154209E-22
  -2.025000        1.2150761E-22
  -2.018500        1.0433136E-22
  -2.012000        8.0298669E-23
  -2.005500        4.9866126E-23
  -1.999000        1.3469213E-23
  -1.992500       -2.8700984E-23
  -1.986000       -7.6916456E-23
  -1.979500       -1.3208055E-22
  -1.973000       -1.9579340E-22
  -1.966500       -2.7026168E-22
  -1.960000       -3.5800606E-22
  -1.953500       -4.6133459E-22
  -1.947000       -5.8157406E-22
  -1.940500       -7.1808436E-22
  -1.934000       -8.6711752E-22
  -1.927500       -1.0206278E-21
  -1.921000       -1.1651802E-21
  -1.914500       -1.2811421E-21
  -1.908000       -1.3423675E-21
  -1.901500       -1.3165952E-21
  -1.895000       -1.1667643E-21
  -1.888500       -8.5341391E-22
  -1.882000       -3.3825957E-22
  -1.875500        4.1106100E-22
  -1.869000        1.4152084E-21
  -1.862500        2.6766191E-21
  -1.856000        4.1726908E-21
  -1.849500        5.8492934E-21
  -1.843000        7.6153616E-21
  -1.836500        9.3394507E-21
  -1.830000        1.0849183E-20
  -1.823500        1.1934484E-20
  -1.817000        1.2355426E-20
  -1.810500        1.1855266E-20
  -1.804000        1.0178952E-20
  -1.797500        7.0969237E-21
  -1.791000        2.4335777E-21
  -1.784500       -3.9009062E-21
  -1.778000       -1.1877251E-20
  -1.771500       -2.1314792E-20
  -1.765000       -3.1853265E-20
  -1.758500       -4.2932196E-20
  -1.752000       -5.3781623E-20
  -1.745500       -6.3427886E-20
  -1.739000       -7.0717945E-20
  -1.732500       -7.4365023E-20
  -1.726000       -7.3017262E-20
  -1.719500       -6.5349756E-20
  -1.713000       -5.0178679E-20
  -1.706500       -2.6593750E-20
  -1.700000        5.8964124E-21
  -1.693500        4.7214309E-20
  -1.687000        9.6569220E-20
  -1.680500        1.5233084E-19
  -1.674000        2.1193481E-19
  -1.667500        2.7183481E-19
  -1.661000        3.2751611E-19
  -1.654500        3.7358395E-19
  -1.648000        4.0393858E-19
  -1.641500        4.1204449E-19
  -1.635000        3.9129678E-19
  -1.628500        3.3548163E-19
  -1.622000        2.3932028E-19
  -1.615500        9.9077981E-20
  -1.609000       -8.6789063E-20
  -1.602500       -3.1698486E-19
  -1.596000       -5.8676620E-19
  -1.589500       -8.8742738E-19
  -1.583000       -1.2059327E-18
  -1.576500       -1.5247538E-18
  -1.570000       -1.8219706E-18
  -1.563500       -2.0716842E-18
  -1.557000       -2.2447903E-18
  -1.550500       -2.3101372E-18
  -1.544000       -2.2360822E-18
  -1.537500       -1.9924337E-18
  -1.531000       -1.5527415E-18
  -1.524500       -8.9686448E-19
  -1.518000       -1.3717984E-20
  -1.511500        1.0959334E-18
  -1.505000        2.4167984E-18
  -1.498500        3.9166890E-18
  -1.492000        5.5446661E-18
  -1.485500        7.2299192E-18
  -1.479000        8.8816169E-18
  -1.472500        1.0389924E-17
  -1.466000        1.1628386E-17
  -1.459500        1.2457813E-17
  -1.453000        1.2731760E-17
  -1.446500        1.2303596E-17
  -1.440000        1.1035109E-17
  -1.433500        8.8064221E-18
  -1.427000        5.5269545E-18
  -1.420500        1.1470009E-18
  -1.414000       -4.3306185E-18
  -1.407500       -1.0839462E-17
  -1.401000       -1.8239675E-17
  -1.394500       -2.6310321E-17
  -1.388000       -3.4744666E-17
  -1.381500       -4.3149284E-17
  -1.375000       -5.1047794E-17
  -1.368500       -5.7889904E-17
  -1.362000       -6.3066367E-17
  -1.355500       -6.5930067E-17
  -1.349000       -6.5823526E-17
  -1.342500       -6.2112258E-17
  -1.336000       -5.4223608E-17
  -1.329500       -4.1689870E-17
  -1.323000       -2.4194280E-17
  -1.316500       -1.6180292E-18
  -1.310000        2.5914109E-17
  -1.303500        5.7992031E-17
  -1.297000        9.3885436E-17
  -1.290500        1.3251887E-16
  -1.284000        1.7245990E-16
  -1.277500        2.1192329E-16
  -1.271000        2.4879401E-16
  -1.264500        2.8067143E-16
  -1.258000        3.0493583E-16
  -1.251500        3.1883879E-16
  -1.245000        3.1961613E-16
  -1.238500        3.0462277E-16
  -1.232000        2.7148597E-16
  -1.225500        2.1827311E-16
  -1.219000        1.4366804E-16
  -1.212500        4.7148944E-17
  -1.206000       -7.0840674E-17
  -1.199500       -2.0873732E-16
  -1.193000       -3.6372937E-16
  -1.186500       -5.3166649E-16
  -1.180000       -7.0701671E-16
  -1.173500       -8.8288171E-16
  -1.167000       -1.0510795E-15
  -1.160500       -1.2023005E-15
  -1.154000       -1.3263450E-15
  -1.147500       -1.4124393E-15
  -1.141000       -1.4496347E-15
  -1.134500       -1.4272793E-15
  -1.128000       -1.3355561E-15
  -1.121500       -1.1660713E-15
  -1.115000       -9.1247567E-16
  -1.108500       -5.7109561E-16
  -1.102000       -1.4154621E-16
  -1.095500        3.7270286E-16
  -1.089000        9.6384165E-16
  -1.082500        1.6193480E-15
  -1.076000        2.3217641E-15
  -1.069500        3.0486533E-15
  -1.063000        3.7727665E-15
  -1.056500        4.4624427E-15
  -1.050000        5.0822604E-15
  -1.043500        5.5939538E-15
  -1.037000        5.9575842E-15
  -1.030500        6.1329670E-15
  -1.024000        6.0813175E-15
  -1.017500        5.7670920E-15
  -1.011000        5.1599612E-15
  -1.004500        4.2368652E-15
 -0.9980000        2.9840676E-15
 -0.9915000        1.3991281E-15
 -0.9850000       -5.0729814E-16
 -0.9785000       -2.7099343E-15
 -0.9720000       -5.1677273E-15
 -0.9655000       -7.8231607E-15
 -0.9590000       -1.0602128E-14
 -0.9525000       -1.3414448E-14
 -0.9460000       -1.6155078E-14
 -0.9395000       -1.8706092E-14
 -0.9330000       -2.0939418E-14
 -0.9265000       -2.2720358E-14
 -0.9200000       -2.3911820E-14
 -0.9135000       -2.4379226E-14
 -0.9070000       -2.3995981E-14
 -0.9005000       -2.2649343E-14
 -0.8940000       -2.0246573E-14
 -0.8875000       -1.6721110E-14
 -0.8810000       -1.2038587E-14
 -0.8745000       -6.2024242E-15
 -0.8680000        7.4125886E-16
 -0.8615000        8.6996670E-15
 -0.8550000        1.7530561E-14
 -0.8485000        2.7040927E-14
 -0.8420000        3.6987303E-14
 -0.8355000        4.7077969E-14
 -0.8290000        5.6977101E-14
 -0.8225000        6.6310997E-14
 -0.8160000        7.4676403E-14
 -0.8095000        8.1650825E-14
 -0.8030000        8.6804736E-14
 -0.7965000        8.9715521E-14
 -0.7900000        8.9982716E-14
 -0.7835000        8.7244346E-14
 -0.7770000        8.1193739E-14
 -0.7705000        7.1596503E-14
 -0.7640000        5.8306868E-14
 -0.7575000        4.1283048E-14
 -0.7510000        2.0600727E-14
 -0.7445000       -3.5356940E-15
 -0.7380000       -3.0784942E-14
 -0.7315000       -6.0664202E-14
 -0.7250000       -9.2548582E-14
 -0.7185000       -1.2567498E-13
 -0.7120000       -1.5915094E-13
 -0.7055000       -1.9196832E-13
 -0.6990000       -2.2302223E-13
 -0.6925000       -2.5113481E-13
 -0.6860000       -2.7508391E-13
 -0.6795000       -2.9363580E-13
 -0.6730000       -3.0558165E-13
 -0.6665000       -3.0977708E-13
 -0.6600000       -3.0518345E-13
 -0.6535000       -2.9090998E-13
 -0.6470000       -2.6625588E-13
 -0.6405000       -2.3075050E-13
 -0.6340000       -1.8419087E-13
 -0.6275000       -1.2667466E-13
 -0.6210000       -5.8627704E-14
 -0.6145000        1.9175560E-14
 -0.6080000        1.0559978E-13
 -0.6015000        1.9914560E-13
 -0.5950000        2.9795665E-13
 -0.5885000        3.9983712E-13
 -0.5820000        5.0228089E-13
 -0.5755000        6.0251120E-13
 -0.5690000        6.9753220E-13
 -0.5625000        7.8419037E-13
 -0.5560000        8.5924567E-13
 -0.5495000        9.1945191E-13
 -0.5430000        9.6164277E-13
 -0.5365000        9.8282428E-13
 -0.5300000        9.8027012E-13
 -0.5235000        9.5161715E-13
 -0.5170000        8.9495967E-13
 -0.5105000        8.0893988E-13
 -0.5040000        6.9283078E-13
 -0.4975000        5.4660980E-13
 -0.4910000        3.7102019E-13
 -0.4845000        1.6761762E-13
 -0.4780000       -6.1199608E-14
 -0.4715000       -3.1217962E-13
 -0.4650000       -5.8122631E-13
 -0.4585000       -8.6343037E-13
 -0.4520000       -1.1531224E-12
 -0.4455000       -1.4439489E-12
 -0.4390000       -1.7289705E-12
 -0.4325000       -2.0007813E-12
 -0.4260000       -2.2516483E-12
 -0.4195000       -2.4736695E-12
 -0.4130000       -2.6589458E-12
 -0.4065000       -2.7997669E-12
 -0.4000000       -2.8888051E-12
 -0.3935000       -2.9193143E-12
 -0.3870000       -2.8853304E-12
 -0.3805000       -2.7818661E-12
 -0.3740000       -2.6050993E-12
 -0.3675000       -2.3525474E-12
 -0.3610000       -2.0232227E-12
 -0.3545000       -1.6177685E-12
 -0.3480000       -1.1385642E-12
 -0.3415000       -5.8980387E-13
 -0.3350000        2.2461665E-14
 -0.3285000        6.9031928E-13
 -0.3220000        1.4040271E-12
 -0.3155000        2.1520891E-12
 -0.3090000        2.9213710E-12
 -0.3025000        3.6972599E-12
 -0.2960000        4.4638633E-12
 -0.2895000        5.2042468E-12
 -0.2830000        5.9007096E-12
 -0.2765000        6.5350971E-12
 -0.2700000        7.0891344E-12
 -0.2635000        7.5447920E-12
 -0.2570000        7.8846669E-12
 -0.2505000        8.0923731E-12
 -0.2440000        8.1529453E-12
 -0.2375000        8.0532326E-12
 -0.2310000        7.7822826E-12
 -0.2245000        7.3317186E-12
 -0.2180000        6.6960756E-12
 -0.2115000        5.8731162E-12
 -0.2050000        4.8640970E-12
 -0.1985000        3.6739891E-12
 -0.1920000        2.3116437E-12
 -0.1855000        7.8989522E-13
 -0.1790000       -8.7440320E-13
 -0.1725000       -2.6604170E-12
 -0.1660000       -4.5434433E-12
 -0.1595000       -6.4951013E-12
 -0.1530000       -8.4836036E-12
 -0.1465000       -1.0474109E-11
 -0.1400000       -1.2429146E-11
 -0.1335000       -1.4309129E-11
 -0.1270000       -1.6072929E-11
 -0.1205000       -1.7678520E-11
 -0.1140000       -1.9083677E-11
 -0.1075000       -2.0246735E-11
 -0.1010000       -2.1127379E-11
 -9.4499998E-02   -2.1687475E-11
 -8.8000000E-02   -2.1891893E-11
 -8.1500001E-02   -2.1709365E-11
 -7.5000003E-02   -2.1113311E-11
 -6.8499997E-02   -2.0082639E-11
 -6.1999999E-02   -1.8602524E-11
 -5.5500001E-02   -1.6665091E-11
 -4.8999999E-02   -1.4270065E-11
 -4.2500000E-02   -1.1425301E-11
 -3.5999998E-02   -8.1472303E-12
 -2.9500000E-02   -4.4611728E-12
 -2.3000000E-02   -4.0152454E-13
 -1.6500000E-02    3.9881969E-12
 -9.9999998E-03    8.6554687E-12
 -3.5000001E-03    1.3539032E-11
  3.0000000E-03    1.8569335E-11
  9.4999997E-03    2.3669148E-11
  1.6000001E-02    2.8754341E-11
  2.2500001E-02    3.3734845E-11
  2.8999999E-02    3.8515767E-11
  3.5500001E-02    4.2998664E-11
  4.1999999E-02    4.7082959E-11
  4.8500001E-02    5.0667501E-11
  5.5000000E-02    5.3652222E-11
  6.1500002E-02    5.5939899E-11
  6.8000004E-02    5.7437968E-11
  7.4500002E-02    5.8060400E-11
  8.1000000E-02    5.7729588E-11
  8.7499999E-02    5.6378211E-11
  9.3999997E-02    5.3951066E-11
  0.1005000        5.0406821E-11
  0.1070000        4.5719647E-11
  0.1135000        3.9880717E-11
  0.1200000        3.2899523E-11
  0.1265000        2.4805000E-11
  0.1330000        1.5646375E-11
  0.1395000        5.4938033E-12
  0.1460000       -5.5613305E-12
  0.1525000       -1.7406404E-11
  0.1590000       -2.9907896E-11
  0.1655000       -4.2912052E-11
  0.1720000       -5.6245942E-11
  0.1785000       -6.9718849E-11
  0.1850000       -8.3124056E-11
  0.1915000       -9.6240960E-11
  0.1980000       -1.0883757E-10
  0.2045000       -1.2067330E-10
  0.2110000       -1.3150216E-10
  0.2175000       -1.4107605E-10
  0.2240000       -1.4914857E-10
  0.2305000       -1.5547878E-10
  0.2370000       -1.5983530E-10
  0.2435000       -1.6200044E-10
  0.2500000       -1.6177445E-10
  0.2565000       -1.5897973E-10
  0.2630000       -1.5346498E-10
  0.2695000       -1.4510927E-10
  0.2760000       -1.3382589E-10
  0.2825000       -1.1956591E-10
  0.2890000       -1.0232151E-10
  0.2955000       -8.2128797E-11
  0.3020000       -5.9070214E-11
  0.3085000       -3.3276455E-11
  0.3150000       -4.9277418E-12
  0.3215000        2.5745534E-11
  0.3280000        5.8462839E-11
  0.3345000        9.2894283E-11
  0.3410000        1.2866214E-10
  0.3475000        1.6534325E-10
  0.3540000        2.0247214E-10
  0.3605000        2.3954491E-10
  0.3670000        2.7602415E-10
  0.3735000        3.1134448E-10
  0.3800000        3.4491873E-10
  0.3865000        3.7614509E-10
  0.3930000        4.0441478E-10
  0.3995000        4.2912018E-10
  0.4060000        4.4966381E-10
  0.4125000        4.6546711E-10
  0.4190000        4.7598014E-10
  0.4255000        4.8069093E-10
  0.4320000        4.7913518E-10
  0.4385000        4.7090576E-10
  0.4450000        4.5566176E-10
  0.4515000        4.3313733E-10
  0.4580000        4.0314993E-10
  0.4645000        3.6560777E-10
  0.4710000        3.2051650E-10
  0.4775000        2.6798469E-10
  0.4840000        2.0822839E-10
  0.4905000        1.4157416E-10
  0.4970000        6.8460827E-11
  0.5035000       -1.0560245E-11
  0.5100000       -9.4826570E-11
  0.5165000       -1.8356758E-10
  0.5230000       -2.7590932E-10
  0.5295000       -3.7088091E-10
  0.5360000       -4.6742277E-10
  0.5425000       -5.6439625E-10
  0.5490000       -6.6059519E-10
  0.5555000       -7.5475903E-10
  0.5620000       -8.4558682E-10
  0.5685000       -9.3175312E-10
  0.5750000       -1.0119247E-09
  0.5815000       -1.0847778E-09
  0.5880000       -1.1490165E-09
  0.5945000       -1.2033922E-09
  0.6010000       -1.2467208E-09
  0.6075000       -1.2779030E-09
  0.6140000       -1.2959422E-09
  0.6205000       -1.2999621E-09
  0.6270000       -1.2892232E-09
  0.6335000       -1.2631391E-09
  0.6400000       -1.2212902E-09
  0.6465000       -1.1634352E-09
  0.6530000       -1.0895234E-09
  0.6595000       -9.9970010E-10
  0.6660000       -8.9431457E-10
  0.6725000       -7.7392137E-10
  0.6790000       -6.3928168E-10
  0.6855000       -4.9136012E-10
  0.6920000       -3.3131961E-10
  0.6985000       -1.6051308E-10
  0.7050000        1.9528098E-11
  0.7115000        2.0710768E-10
  0.7180000        4.0038142E-10
  0.7245000        5.9737626E-10
  0.7310000        7.9601165E-10
  0.7375000        9.9412312E-10
  0.7440000        1.1894874E-09
  0.7505000        1.3798492E-09
  0.7570000        1.5629491E-09
  0.7635000        1.7365511E-09
  0.7700000        1.8984727E-09
  0.7765000        2.0466124E-09
  0.7830000        2.1789779E-09
  0.7895000        2.2937130E-09
  0.7960000        2.3891242E-09
  0.8025000        2.4637026E-09
  0.8090000        2.5161468E-09
  0.8155000        2.5453815E-09
  0.8220000        2.5505733E-09
  0.8285000        2.5311440E-09
  0.8350000        2.4867781E-09
  0.8415000        2.4174314E-09
  0.8480000        2.3233293E-09
  0.8545000        2.2049662E-09
  0.8610000        2.0630995E-09
  0.8675000        1.8987381E-09
  0.8740000        1.7131281E-09
  0.8805000        1.5077356E-09
  0.8870000        1.2842238E-09
  0.8935000        1.0444288E-09
  0.9000000        7.9033041E-10
  0.9065000        5.2402260E-10
  0.9130000        2.4767954E-10
  0.9195000       -3.6479250E-11
  0.9260000       -3.2622463E-10
  0.9325000       -6.1935501E-10
  0.9390000       -9.1373342E-10
  0.9455000       -1.2073240E-09
  0.9520000       -1.4982285E-09
  0.9585000       -1.7847196E-09
  0.9650000       -2.0652740E-09
  0.9715000       -2.3386011E-09
  0.9780000       -2.6036713E-09
  0.9845000       -2.8597358E-09
  0.9910000       -3.1063492E-09
  0.9975000       -3.3433809E-09
   1.004000       -3.5710261E-09
   1.010500       -3.7898107E-09
   1.017000       -4.0005905E-09
   1.023500       -4.2045447E-09
   1.030000       -4.4031658E-09
   1.036500       -4.5982436E-09
   1.043000       -4.7918434E-09
   1.049500       -4.9862772E-09
   1.056000       -5.1840776E-09
   1.062500       -5.3879590E-09
   1.069000       -5.6007790E-09
   1.075500       -5.8254970E-09
   1.082000       -6.0651297E-09
   1.088500       -6.3227037E-09
   1.095000       -6.6012058E-09
   1.101500       -6.9035373E-09
   1.108000       -7.2324626E-09
   1.114500       -7.5905637E-09
   1.121000       -7.9801898E-09
   1.127500       -8.4034211E-09
   1.134000       -8.8620205E-09
   1.140500       -9.3574046E-09
   1.147000       -9.8906048E-09
   1.153500       -1.0462244E-08
   1.160000       -1.1072520E-08
   1.166500       -1.1721181E-08
   1.173000       -1.2407529E-08
   1.179500       -1.3130408E-08
   1.186000       -1.3888218E-08
   1.192500       -1.4678924E-08
   1.199000       -1.5500078E-08
   1.205500       -1.6348846E-08
   1.212000       -1.7222041E-08
   1.218500       -1.8116161E-08
   1.225000       -1.9027445E-08
   1.231500       -1.9951909E-08
   1.238000       -2.0885409E-08
   1.244500       -2.1823709E-08
   1.251000       -2.2762530E-08
   1.257500       -2.3697616E-08
   1.264000       -2.4624811E-08
   1.270500       -2.5540103E-08
   1.277000       -2.6439713E-08
   1.283500       -2.7320137E-08
   1.290000       -2.8178208E-08
   1.296500       -2.9011163E-08
   1.303000       -2.9816675E-08
   1.309500       -3.0592911E-08
   1.316000       -3.1338551E-08
   1.322500       -3.2052842E-08
   1.329000       -3.2735592E-08
   1.335500       -3.3387199E-08
   1.342000       -3.4008657E-08
   1.348500       -3.4601534E-08
   1.355000       -3.5167972E-08
   1.361500       -3.5710663E-08
   1.368000       -3.6232805E-08
   1.374500       -3.6738086E-08
   1.381000       -3.7230603E-08
   1.387500       -3.7714834E-08
   1.394000       -3.8195569E-08
   1.400500       -3.8677840E-08
   1.407000       -3.9166856E-08
   1.413500       -3.9667931E-08
   1.420000       -4.0186404E-08
   1.426500       -4.0727567E-08
   1.433000       -4.1296595E-08
   1.439500       -4.1898470E-08
   1.446000       -4.2537916E-08
   1.452500       -4.3219320E-08
   1.459000       -4.3946695E-08
   1.465500       -4.4723610E-08
   1.472000       -4.5553161E-08
   1.478500       -4.6437926E-08
   1.485000       -4.7379928E-08
   1.491500       -4.8380642E-08
   1.498000       -4.9440960E-08
   1.504500       -5.0561216E-08
   1.511000       -5.1741182E-08
   1.517500       -5.2980099E-08
   1.524000       -5.4276704E-08
   1.530500       -5.5629261E-08
   1.537000       -5.7035631E-08
   1.543500       -5.8493310E-08
   1.550000       -5.9999486E-08
   1.556500       -6.1551127E-08
   1.563000       -6.3145016E-08
   1.569500       -6.4777872E-08
   1.576000       -6.6446383E-08
   1.582500       -6.8147280E-08
   1.589000       -6.9877444E-08
   1.595500       -7.1633963E-08
   1.602000       -7.3414164E-08
   1.608500       -7.5215723E-08
   1.615000       -7.7036688E-08
   1.621500       -7.8875544E-08
   1.628000       -8.0731233E-08
   1.634500       -8.2603208E-08
   1.641000       -8.4491440E-08
   1.647500       -8.6396433E-08
   1.654000       -8.8319240E-08
   1.660500       -9.0261430E-08
   1.667000       -9.2225115E-08
   1.673500       -9.4212872E-08
   1.680000       -9.6227772E-08
   1.686500       -9.8273269E-08
   1.693000       -1.0035324E-07
   1.699500       -1.0247184E-07
   1.706000       -1.0463351E-07
   1.712500       -1.0684291E-07
   1.719000       -1.0910482E-07
   1.725500       -1.1142415E-07
   1.732000       -1.1380577E-07
   1.738500       -1.1625455E-07
   1.745000       -1.1877526E-07
   1.751500       -1.2137249E-07
   1.758000       -1.2405064E-07
   1.764500       -1.2681389E-07
   1.771000       -1.2966608E-07
   1.777500       -1.3261077E-07
   1.784000       -1.3565116E-07
   1.790500       -1.3879011E-07
   1.797000       -1.4203012E-07
   1.803500       -1.4537329E-07
   1.810000       -1.4882137E-07
   1.816500       -1.5237579E-07
   1.823000       -1.5603759E-07
   1.829500       -1.5980754E-07
   1.836000       -1.6368615E-07
   1.842500       -1.6767365E-07
   1.849000       -1.7177008E-07
   1.855500       -1.7597534E-07
   1.862000       -1.8028916E-07
   1.868500       -1.8471118E-07
   1.875000       -1.8924102E-07
   1.881500       -1.9387826E-07
   1.888000       -1.9862256E-07
   1.894500       -2.0347353E-07
   1.901000       -2.0843095E-07
   1.907500       -2.1349466E-07
   1.914000       -2.1866462E-07
   1.920500       -2.2394096E-07
   1.927000       -2.2932389E-07
   1.933500       -2.3481383E-07
   1.940000       -2.4041125E-07
   1.946500       -2.4611683E-07
   1.953000       -2.5193131E-07
   1.959500       -2.5785556E-07
   1.966000       -2.6389054E-07
   1.972500       -2.7003722E-07
   1.979000       -2.7629665E-07
   1.985500       -2.8266990E-07
   1.992000       -2.8915795E-07
   1.998500       -2.9576185E-07
   2.005000       -3.0248256E-07
   2.011500       -3.0932094E-07
   2.018000       -3.1627778E-07
   2.024500       -3.2335379E-07
   2.031000       -3.3054954E-07
   2.037500       -3.3786543E-07
   2.044000       -3.4530191E-07
   2.050500       -3.5285922E-07
   2.057000       -3.6053754E-07
   2.063500       -3.6833697E-07
   2.070000       -3.7625756E-07
   2.076500       -3.8429940E-07
   2.083000       -3.9246243E-07
   2.089500       -4.0074679E-07
   2.096000       -4.0915256E-07
   2.102500       -4.1768001E-07
   2.109000       -4.2632948E-07
   2.115500       -4.3510153E-07
   2.122000       -4.4399684E-07
   2.128500       -4.5301638E-07
   2.135000       -4.6216135E-07
   2.141500       -4.7143325E-07
   2.148000       -4.8083388E-07
   2.154500       -4.9036527E-07
   2.161000       -5.0002990E-07
   2.167500       -5.0983056E-07
   2.174000       -5.1977014E-07
   2.180500       -5.2985212E-07
   2.187000       -5.4008018E-07
   2.193500       -5.5045820E-07
   2.200000       -5.6099043E-07
   2.206500       -5.7168126E-07
   2.213000       -5.8253539E-07
   2.219500       -5.9355762E-07
   2.226000       -6.0475281E-07
   2.232500       -6.1612604E-07
   2.239000       -6.2768248E-07
   2.245500       -6.3942718E-07
   2.252000       -6.5136516E-07
   2.258500       -6.6350168E-07
   2.265000       -6.7584176E-07
   2.271500       -6.8839017E-07
   2.278000       -7.0115175E-07
   2.284500       -7.1413115E-07
   2.291000       -7.2733286E-07
   2.297500       -7.4076132E-07
   2.304000       -7.5442068E-07
   2.310500       -7.6831492E-07
   2.317000       -7.8244801E-07
   2.323500       -7.9682354E-07
   2.330000       -8.1144509E-07
   2.336500       -8.2631612E-07
   2.343000       -8.4143994E-07
   2.349500       -8.5681978E-07
   2.356000       -8.7245871E-07
   2.362500       -8.8835981E-07
   2.369000       -9.0452596E-07
   2.375500       -9.2096025E-07
   2.382000       -9.3766550E-07
   2.388500       -9.5464463E-07
   2.395000       -9.7190048E-07
   2.401500       -9.8943588E-07
   2.408000       -1.0072536E-06
   2.414500       -1.0253564E-06
   2.421000       -1.0437468E-06
   2.427500       -1.0624278E-06
   2.434000       -1.0814018E-06
   2.440500       -1.1006714E-06
   2.447000       -1.1202388E-06
   2.453500       -1.1401063E-06
   2.460000       -1.1602762E-06
   2.466500       -1.1807500E-06
   2.473000       -1.2015298E-06
   2.479500       -1.2226169E-06
   2.486000       -1.2440129E-06
   2.492500       -1.2657185E-06
   2.499000       -1.2877350E-06
   2.505500       -1.3100629E-06
   2.512000       -1.3327025E-06
   2.518500       -1.3556543E-06
   2.525000       -1.3789185E-06
   2.531500       -1.4024948E-06
   2.538000       -1.4263835E-06
   2.544500       -1.4505843E-06
   2.551000       -1.4750972E-06
   2.557500       -1.4999222E-06
   2.564000       -1.5250595E-06
   2.570500       -1.5505094E-06
   2.577000       -1.5762724E-06
   2.583500       -1.6023498E-06
   2.590000       -1.6287429E-06
   2.596500       -1.6554532E-06
   2.603000       -1.6824831E-06
   2.609500       -1.7098358E-06
   2.616000       -1.7375148E-06
   2.622500       -1.7655243E-06
   2.629000       -1.7938690E-06
   2.635500       -1.8225546E-06
   2.642000       -1.8515875E-06
   2.648500       -1.8809747E-06
   2.655000       -1.9107238E-06
   2.661500       -1.9408430E-06
   2.668000       -1.9713418E-06
   2.674500       -2.0022294E-06
   2.681000       -2.0335162E-06
   2.687500       -2.0652124E-06
   2.694000       -2.0973287E-06
   2.700500       -2.1298772E-06
   2.707000       -2.1628682E-06
   2.713500       -2.1963137E-06
   2.720000       -2.2302249E-06
   2.726500       -2.2646134E-06
   2.733000       -2.2994896E-06
   2.739500       -2.3348646E-06
   2.746000       -2.3707491E-06
   2.752500       -2.4071524E-06
   2.759000       -2.4440844E-06
   2.765500       -2.4815533E-06
   2.772000       -2.5195673E-06
   2.778500       -2.5581337E-06
   2.785000       -2.5972588E-06
   2.791500       -2.6369489E-06
   2.798000       -2.6772082E-06
   2.804500       -2.7180417E-06
   2.811000       -2.7594529E-06
   2.817500       -2.8014440E-06
   2.824000       -2.8440179E-06
   2.830500       -2.8871757E-06
   2.837000       -2.9309185E-06
   2.843500       -2.9752473E-06
   2.850000       -3.0201622E-06
   2.856500       -3.0656631E-06
   2.863000       -3.1117502E-06
   2.869500       -3.1584232E-06
   2.876000       -3.2056814E-06
   2.882500       -3.2535256E-06
   2.889000       -3.3019551E-06
   2.895500       -3.3509705E-06
   2.902000       -3.4005725E-06