   0.00000000       0.00000000    
   2.00000009E-03   0.00000000    
   4.00000019E-03   0.00000000    
   6.00000005E-03   0.00000000    
   8.00000038E-03   0.00000000    
   9.99999978E-03   0.00000000    
   1.20000001E-02   0.00000000    
   1.40000004E-02   0.00000000    
   1.60000008E-02   0.00000000    
   1.79999992E-02   0.00000000    
   1.99999996E-02   0.00000000    
   2.19999999E-02   3.43318124E-43
   2.40000002E-02   7.56981430E-42
   2.60000005E-02   8.20530316E-41
   2.80000009E-02   6.02996946E-40
   2.99999993E-02   3.43362405E-39
   3.20000015E-02   1.62842652E-38
   3.40000018E-02   6.71784614E-38
   3.59999985E-02   2.48045366E-37
   3.79999988E-02   8.36206855E-37
   3.99999991E-02   2.61127095E-36
   4.19999994E-02   7.63556691E-36
   4.39999998E-02   2.10808181E-35
   4.60000001E-02   5.53124218E-35
   4.80000004E-02   1.38649168E-34
   5.00000007E-02   3.33445641E-34
   5.20000011E-02   7.72120985E-34
   5.40000014E-02   1.72661514E-33
   5.60000017E-02   3.73821420E-33
   5.79999983E-02   7.85324560E-33
   5.99999987E-02   1.60393368E-32
   6.19999990E-02   3.19015296E-32
   6.40000030E-02   6.18836650E-32
   6.59999996E-02   1.17235743E-31
   6.80000037E-02   2.17161085E-31
   7.00000003E-02   3.93737616E-31
   7.19999969E-02   6.99444012E-31
   7.40000010E-02   1.21841974E-30
   7.59999976E-02   2.08295116E-30
   7.80000016E-02   3.49709231E-30
   7.99999982E-02   5.76978293E-30
   8.20000023E-02   9.36027908E-30
   8.39999989E-02   1.49390820E-29
   8.60000029E-02   2.34677829E-29
   8.79999995E-02   3.63011704E-29
   9.00000036E-02   5.53144233E-29
   9.20000002E-02   8.30570228E-29
   9.39999968E-02   1.22933059E-28
   9.60000008E-02   1.79404262E-28
   9.79999974E-02   2.58207646E-28
  0.100000001       3.66573850E-28
  0.101999998       5.13423842E-28
  0.104000002       7.09512784E-28
  0.105999999       9.67479448E-28
  0.108000003       1.30174606E-27
  0.109999999       1.72820492E-27
  0.112000003       2.26361306E-27
  0.114000000       2.92461321E-27
  0.115999997       3.72629234E-27
  0.118000001       4.68019658E-27
  0.119999997       5.79172817E-27
  0.122000001       7.05689004E-27
  0.123999998       8.45835999E-27
  0.126000002       9.96094973E-27
  0.128000006       1.15065517E-26
  0.129999995       1.30087616E-26
  0.131999999       1.43473831E-26
  0.134000003       1.53631278E-26
  0.136000007       1.58527700E-26
  0.137999997       1.55649390E-26
  0.140000001       1.41965997E-26
  0.142000005       1.13896955E-26
  0.143999994       6.72715004E-27
  0.145999998      -2.73742727E-28
  0.148000002      -1.01736140E-26
  0.150000006      -2.36337797E-26
  0.151999995      -4.14567360E-26
  0.153999999      -6.46533943E-26
  0.156000003      -9.45502303E-26
  0.158000007      -1.32952571E-25
  0.159999996      -1.82384074E-25
  0.162000000      -2.46424419E-25
  0.164000005      -3.30174946E-25
  0.165999994      -4.40878040E-25
  0.167999998      -5.88720681E-25
  0.170000002      -7.87847860E-25
  0.172000006      -1.05760659E-24
  0.173999995      -1.42403001E-24
  0.175999999      -1.92154585E-24
  0.178000003      -2.59487965E-24
  0.180000007      -3.50107435E-24
  0.181999996      -4.71150726E-24
  0.184000000      -6.31372201E-24
  0.186000004      -8.41283079E-24
  0.187999994      -1.11321345E-23
  0.189999998      -1.46125596E-23
  0.192000002      -1.90103424E-23
  0.194000006      -2.44923625E-23
  0.195999995      -3.12283590E-23
  0.197999999      -3.93792327E-23
  0.200000003      -4.90805432E-23
  0.202000007      -6.04203019E-23
  0.203999996      -7.34101968E-23
  0.206000000      -8.79494460E-23
  0.208000004      -1.03780736E-22
  0.209999993      -1.20438196E-22
  0.211999997      -1.37187266E-22
  0.214000002      -1.52957630E-22
  0.216000006      -1.66270548E-22
  0.217999995      -1.75163358E-22
  0.219999999      -1.77114710E-22
  0.222000003      -1.68975281E-22
  0.224000007      -1.46910551E-22
  0.225999996      -1.06363252E-22
  0.228000000      -4.20448789E-23
  0.230000004       5.20333947E-23
  0.231999993       1.82478421E-22
  0.233999997       3.56368431E-22
  0.236000001       5.81029605E-22
  0.238000005       8.63722669E-22
  0.239999995       1.21122718E-21
  0.241999999       1.62931569E-21
  0.244000003       2.12210945E-21
  0.246000007       2.69131452E-21
  0.247999996       3.33534349E-21
  0.250000000       4.04833339E-21
  0.252000004       4.81907953E-21
  0.254000008       5.62992292E-21
  0.256000012       6.45561760E-21
  0.257999986       7.26225561E-21
  0.259999990       8.00629811E-21
  0.261999995       8.63379781E-21
  0.263999999       9.07990504E-21
  0.266000003       9.26875344E-21
  0.268000007       9.11383964E-21
  0.270000011       8.51898773E-21
  0.272000015       7.38002222E-21
  0.273999989       5.58723345E-21
  0.275999993       3.02871353E-21
  0.277999997      -4.05374036E-22
  0.280000001      -4.81757824E-21
  0.282000005      -1.02970084E-20
  0.284000009      -1.69123248E-20
  0.286000013      -2.47039978E-20
  0.287999988      -3.36760285E-20
  0.289999992      -4.37873712E-20
  0.291999996      -5.49433719E-20
  0.294000000      -6.69876839E-20
  0.296000004      -7.96950586E-20
  0.298000008      -9.27654235E-20
  0.300000012      -1.05819923E-19
  0.301999986      -1.18399376E-19
  0.303999990      -1.29965558E-19
  0.305999994      -1.39906033E-19
  0.307999998      -1.47542539E-19
  0.310000002      -1.52143498E-19
  0.312000006      -1.52940500E-19
  0.314000010      -1.49148755E-19
  0.316000015      -1.39991103E-19
  0.317999989      -1.24724942E-19
  0.319999993      -1.02671325E-19
  0.321999997      -7.32448981E-20
  0.324000001      -3.59833454E-20
  0.326000005       9.42509300E-21
  0.328000009       6.31181653E-20
  0.330000013       1.25041584E-19
  0.331999987       1.94938656E-19
  0.333999991       2.72348622E-19
  0.335999995       3.56615321E-19
  0.338000000       4.46906815E-19
  0.340000004       5.42246412E-19
  0.342000008       6.41552856E-19
  0.344000012       7.43689344E-19
  0.345999986       8.47518037E-19
  0.347999990       9.51955535E-19
  0.349999994       1.05602344E-18
  0.351999998       1.15888779E-18
  0.354000002       1.25987900E-18
  0.356000006       1.35848503E-18
  0.358000010       1.45430563E-18
  0.360000014       1.54696196E-18
  0.361999989       1.63595015E-18
  0.363999993       1.72043383E-18
  0.365999997       1.79896915E-18
  0.368000001       1.86916183E-18
  0.370000005       1.92725907E-18
  0.372000009       1.96768194E-18
  0.374000013       1.98251701E-18
  0.375999987       1.96098405E-18
  0.377999991       1.88891180E-18
  0.379999995       1.74825698E-18
  0.381999999       1.51671982E-18
  0.384000003       1.16749699E-18
  0.386000007       6.69241125E-19
  0.388000011      -1.37027881E-20
  0.389999986      -9.20724814E-19
  0.391999990      -2.09397091E-18
  0.393999994      -3.57688117E-18
  0.395999998      -5.41219973E-18
  0.398000002      -7.63940752E-18
  0.400000006      -1.02915537E-17
  0.402000010      -1.33914767E-17
  0.404000014      -1.69474666E-17
  0.405999988      -2.09484135E-17
  0.407999992      -2.53585584E-17
  0.409999996      -3.01120213E-17
  0.412000000      -3.51072988E-17
  0.414000005      -4.02019836E-17
  0.416000009      -4.52080708E-17
  0.418000013      -4.98881329E-17
  0.419999987      -5.39528455E-17
  0.421999991      -5.70603216E-17
  0.423999995      -5.88175774E-17
  0.425999999      -5.87847814E-17
  0.428000003      -5.64826252E-17
  0.430000007      -5.14032598E-17
  0.432000011      -4.30251544E-17
  0.433999985      -3.08320721E-17
  0.435999990      -1.43363337E-17
  0.437999994       6.89373770E-18
  0.439999998       3.32023482E-17
  0.442000002       6.48113281E-17
  0.444000006       1.01782463E-16
  0.446000010       1.43978025E-16
  0.448000014       1.91020859E-16
  0.449999988       2.42255579E-16
  0.451999992       2.96712677E-16
  0.453999996       3.53077823E-16
  0.456000000       4.09668306E-16
  0.458000004       4.64419748E-16
  0.460000008       5.14884859E-16
  0.462000012       5.58247546E-16
  0.463999987       5.91354411E-16
  0.465999991       6.10765971E-16
  0.467999995       6.12829502E-16
  0.469999999       5.93774861E-16
  0.472000003       5.49833756E-16
  0.474000007       4.77382899E-16
  0.476000011       3.73109066E-16
  0.477999985       2.34194843E-16
  0.479999989       5.85209505E-17
  0.481999993      -1.55119407E-16
  0.483999997      -4.06799775E-16
  0.486000001      -6.95240990E-16
  0.488000005      -1.01760156E-15
  0.490000010      -1.36928710E-15
  0.492000014      -1.74379065E-15
  0.493999988      -2.13257379E-15
  0.495999992      -2.52500140E-15
  0.497999996      -2.90834268E-15
  0.500000000      -3.26784612E-15
  0.501999974      -3.58690416E-15
  0.504000008      -3.84731216E-15
  0.505999982      -4.02963050E-15
  0.508000016      -4.11364981E-15
  0.509999990      -4.07897144E-15
  0.512000024      -3.90568205E-15
  0.513999999      -3.57513379E-15
  0.515999973      -3.07080085E-15
  0.518000007      -2.37920925E-15
  0.519999981      -1.49090779E-15
  0.522000015      -4.01454839E-16
  0.523999989       8.87607414E-16
  0.526000023       2.36783423E-15
  0.527999997       4.02305498E-15
  0.529999971       5.82868570E-15
  0.532000005       7.75122391E-15
  0.533999979       9.74797534E-15
  0.536000013       1.17670545E-14
  0.537999988       1.37476963E-14
  0.540000021       1.56209206E-14
  0.541999996       1.73105836E-14
  0.544000030       1.87348052E-14
  0.546000004       1.98078401E-14
  0.547999978       2.04423169E-14
  0.550000012       2.05518755E-14
  0.551999986       2.00541572E-14
  0.554000020       1.88740726E-14
  0.555999994       1.69473082E-14
  0.558000028       1.42239465E-14
  0.560000002       1.06721399E-14
  0.561999977       6.28167384E-15
  0.564000010       1.06730948E-15
  0.565999985      -4.92823632E-15
  0.568000019      -1.16318401E-14
  0.569999993      -1.89381879E-14
  0.572000027      -2.67088072E-14
  0.574000001      -3.47720611E-14
  0.575999975      -4.29242450E-14
  0.578000009      -5.09318302E-14
  0.579999983      -5.85350317E-14
  0.582000017      -6.54526211E-14
  0.583999991      -7.13881333E-14
  0.586000025      -7.60372329E-14
  0.588000000      -7.90963906E-14
  0.589999974      -8.02725196E-14
  0.592000008      -7.92934918E-14
  0.593999982      -7.59192581E-14
  0.596000016      -6.99533069E-14
  0.597999990      -6.12540414E-14
  0.600000024      -4.97458249E-14
  0.601999998      -3.54291588E-14
  0.603999972      -1.83896325E-14
  0.606000006       1.19482023E-15
  0.607999980       2.30487694E-14
  0.610000014       4.67966628E-14
  0.611999989       7.19631399E-14
  0.614000022       9.79765314E-14
  0.615999997       1.24175830E-13
  0.617999971       1.49821358E-13
  0.620000005       1.74108964E-13
  0.621999979       1.96188023E-13
  0.624000013       2.15182757E-13
  0.625999987       2.30216643E-13
  0.628000021       2.40439531E-13
  0.629999995       2.45056823E-13
  0.632000029       2.43359776E-13
  0.634000003       2.34756442E-13
  0.635999978       2.18802122E-13
  0.638000011       1.95227908E-13
  0.639999986       1.63967039E-13
  0.642000020       1.25177199E-13
  0.643999994       7.92578961E-14
  0.646000028       2.68619186E-14
  0.648000002      -3.11001225E-14
  0.649999976      -9.34631468E-14
  0.652000010      -1.58819423E-13
  0.653999984      -2.25539165E-13
  0.656000018      -2.91800574E-13
  0.657999992      -3.55628667E-13
  0.660000026      -4.14943009E-13
  0.662000000      -4.67613307E-13
  0.663999975      -5.11521814E-13
  0.666000009      -5.44631668E-13
  0.667999983      -5.65058525E-13
  0.670000017      -5.71144694E-13
  0.671999991      -5.61532212E-13
  0.674000025      -5.35233587E-13
  0.675999999      -4.91696907E-13
  0.677999973      -4.30862892E-13
  0.680000007      -3.53211140E-13
  0.681999981      -2.59793109E-13
  0.684000015      -1.52249700E-13
  0.685999990      -3.28108580E-14
  0.688000023       9.57240607E-14
  0.689999998       2.30026176E-13
  0.691999972       3.66298300E-13
  0.694000006       5.00357080E-13
  0.695999980       6.27735494E-13
  0.698000014       7.43804053E-13
  0.699999988       8.43908764E-13
  0.702000022       9.23522435E-13
  0.703999996       9.78406050E-13
  0.705999970       1.00477536E-12
  0.708000004       9.99468303E-13
  0.709999979       9.60107428E-13
  0.712000012       8.85250749E-13
  0.713999987       7.74527632E-13
  0.716000021       6.28750307E-13
  0.717999995       4.49998193E-13
  0.720000029       2.41667363E-13
  0.722000003       8.48257757E-15
  0.723999977      -2.43533844E-13
  0.726000011      -5.07138494E-13
  0.727999985      -7.73990247E-13
  0.730000019      -1.03482153E-12
  0.731999993      -1.27965531E-12
  0.734000027      -1.49806643E-12
  0.736000001      -1.67948197E-12
  0.737999976      -1.81351548E-12
  0.740000010      -1.89032622E-12
  0.741999984      -1.90099564E-12
  0.744000018      -1.83791133E-12
  0.745999992      -1.69514370E-12
  0.748000026      -1.46880804E-12
  0.750000000      -1.15739503E-12
  0.751999974      -7.62058494E-13
  0.754000008      -2.86847423E-13
  0.755999982       2.61130093E-13
  0.758000016       8.71621839E-13
  0.759999990       1.53123521E-12
  0.762000024       2.22353798E-12
  0.763999999       2.92925970E-12
  0.765999973       3.62660011E-12
  0.768000007       4.29163996E-12
  0.769999981       4.89885693E-12
  0.772000015       5.42173381E-12
  0.773999989       5.83345525E-12
  0.776000023       6.10767600E-12
  0.777999997       6.21934492E-12
  0.779999971       6.14557190E-12
  0.782000005       5.86650303E-12
  0.783999979       5.36619750E-12
  0.786000013       4.63346332E-12
  0.787999988       3.66263920E-12
  0.790000021       2.45429046E-12
  0.791999996       1.01579064E-12
  0.794000030      -6.38231709E-13
  0.796000004      -2.48560829E-12
  0.797999978      -4.49652598E-12
  0.800000012      -6.63361944E-12
  0.801999986      -8.85227308E-12
  0.804000020      -1.11011452E-11
  0.805999994      -1.33229096E-11
  0.808000028      -1.54552204E-11
  0.810000002      -1.74318823E-11
  0.811999977      -1.91842150E-11
  0.814000010      -2.06426057E-11
  0.815999985      -2.17381859E-11
  0.818000019      -2.24046511E-11
  0.819999993      -2.25801339E-11
  0.822000027      -2.22091286E-11
  0.824000001      -2.12444090E-11
  0.825999975      -1.96488867E-11
  0.828000009      -1.73973613E-11
  0.829999983      -1.44781244E-11
  0.832000017      -1.08943601E-11
  0.833999991      -6.66530069E-12
  0.836000025      -1.82708514E-12
  0.838000000       3.56671572E-12
  0.839999974       9.44492314E-12
  0.842000008       1.57189765E-11
  0.843999982       2.22835674E-11
  0.846000016       2.90176876E-11
  0.847999990       3.57861102E-11
  0.850000024       4.24412727E-11
  0.851999998       4.88255755E-11
  0.853999972       5.47740360E-11
  0.856000006       6.01173000E-11
  0.857999980       6.46849380E-11
  0.860000014       6.83089904E-11
  0.861999989       7.08276840E-11
  0.864000022       7.20892859E-11
  0.865999997       7.19559898E-11
  0.867999971       7.03077874E-11
  0.870000005       6.70462227E-11
  0.871999979       6.20979379E-11
  0.874000013       5.54180347E-11
  0.875999987       4.69929720E-11
  0.878000021       3.68431535E-11
  0.879999995       2.50249595E-11
  0.882000029       1.16322273E-11
  0.884000003      -3.20283145E-12
  0.885999978      -1.93094638E-11
  0.888000011      -3.64788408E-11
  0.889999986      -5.44652969E-11
  0.892000020      -7.29883445E-11
  0.893999994      -9.17354109E-11
  0.896000028      -1.10365404E-10
  0.898000002      -1.28512964E-10
  0.899999976      -1.45793461E-10
  0.902000010      -1.61808733E-10
  0.903999984      -1.76153314E-10
  0.906000018      -1.88421376E-10
  0.907999992      -1.98214001E-10
  0.910000026      -2.05146969E-10
  0.912000000      -2.08858736E-10
  0.913999975      -2.09018566E-10
  0.916000009      -2.05334805E-10
  0.917999983      -1.97562980E-10
  0.920000017      -1.85513591E-10
  0.921999991      -1.69059683E-10
  0.924000025      -1.48143775E-10
  0.925999999      -1.22784061E-10
  0.927999973      -9.30798078E-11
  0.930000007      -5.92157573E-11
  0.931999981      -2.14653260E-11
  0.934000015       1.98074508E-11
  0.935999990       6.41474512E-11
  0.938000023       1.11009549E-10
  0.939999998       1.59761329E-10
  0.941999972       2.09687545E-10
  0.944000006       2.59996386E-10
  0.945999980       3.09827497E-10
  0.948000014       3.58262059E-10
  0.949999988       4.04334344E-10
  0.952000022       4.47045234E-10
  0.953999996       4.85377405E-10
  0.955999970       5.18311671E-10
  0.958000004       5.44845169E-10
  0.959999979       5.64010172E-10
  0.962000012       5.74893966E-10
  0.963999987       5.76659331E-10
  0.966000021       5.68564973E-10
  0.967999995       5.49985946E-10
  0.970000029       5.20433918E-10
  0.972000003       4.79575601E-10
  0.973999977       4.27250901E-10
  0.976000011       3.63488267E-10
  0.977999985       2.88518709E-10
  0.980000019       2.02786454E-10
  0.981999993       1.06956985E-10
  0.984000027       1.92154365E-12
  0.986000001      -1.11202082E-10
  0.987999976      -2.31072869E-10
  0.990000010      -3.56134150E-10
  0.991999984      -4.84625562E-10
  0.994000018      -6.14599260E-10
  0.995999992      -7.43941464E-10
  0.998000026      -8.70397476E-10
   1.00000000      -9.91601801E-10
   1.00199997      -1.10511145E-09
   1.00399995      -1.20844401E-09
   1.00600004      -1.29911804E-09
   1.00800002      -1.37469636E-09
   1.00999999      -1.43283185E-09
   1.01199996      -1.47131429E-09
   1.01400006      -1.48811741E-09
   1.01600003      -1.48144697E-09
   1.01800001      -1.44978618E-09
   1.01999998      -1.39194045E-09
   1.02199996      -1.30707878E-09
   1.02400005      -1.19477095E-09
   1.02600002      -1.05502107E-09
   1.02800000      -8.88294160E-10
   1.02999997      -6.95537905E-10
   1.03199995      -4.78196094E-10
   1.03400004      -2.38215336E-10
   1.03600001       2.19573804E-11
   1.03799999       2.99385017E-10
   1.03999996       5.90659965E-10
   1.04200006       8.91932972E-10
   1.04400003       1.19895072E-09
   1.04600000       1.50710244E-09
   1.04799998       1.81147508E-09
   1.04999995       2.10691686E-09
   1.05200005       2.38810816E-09
   1.05400002       2.64963762E-09
   1.05599999       2.88608759E-09
   1.05799997       3.09211945E-09
   1.05999994       3.26256622E-09
   1.06200004       3.39252515E-09
   1.06400001       3.47745188E-09
   1.06599998       3.51325324E-09
   1.06799996       3.49637830E-09
   1.07000005       3.42390405E-09
   1.07200003       3.29361827E-09
   1.07400000       3.10409276E-09
   1.07599998       2.85474888E-09
   1.07799995       2.54591370E-09
   1.08000004       2.17886376E-09
   1.08200002       1.75585790E-09
   1.08399999       1.28015376E-09
   1.08599997       7.56012253E-10
   1.08800006       1.88684776E-10
   1.09000003      -4.15614237E-10
   1.09200001      -1.04975229E-09
   1.09399998      -1.70573933E-09
   1.09599996      -2.37480435E-09
   1.09800005      -3.04748915E-09
   1.10000002      -3.71375730E-09
   1.10200000      -4.36311609E-09
   1.10399997      -4.98475217E-09
   1.10599995      -5.56768143E-09
   1.10800004      -6.10090645E-09
   1.11000001      -6.57358257E-09
   1.11199999      -6.97519287E-09
   1.11399996      -7.29572447E-09
   1.11600006      -7.52584484E-09
   1.11800003      -7.65708563E-09
   1.12000000      -7.68200970E-09
   1.12199998      -7.59438112E-09
   1.12399995      -7.38932515E-09
   1.12600005      -7.06346936E-09
   1.12800002      -6.61507693E-09
   1.13000000      -6.04415629E-09
   1.13199997      -5.35255440E-09
   1.13399994      -4.54402294E-09
   1.13600004      -3.62426178E-09
   1.13800001      -2.60093547E-09
   1.13999999      -1.48365820E-09
   1.14199996      -2.83950613E-10
   1.14400005       9.84836213E-10
   1.14600003       2.30762809E-09
   1.14800000       3.66776631E-09
   1.14999998       5.04717645E-09
   1.15199995       6.42656861E-09
   1.15400004       7.78566722E-09
   1.15600002       9.10346554E-09
   1.15799999       1.03585069E-08
   1.15999997       1.15291803E-08
   1.16199994       1.25940423E-08
   1.16400003       1.35321443E-08
   1.16600001       1.43233727E-08
   1.16799998       1.49487924E-08
   1.16999996       1.53909827E-08
   1.17200005       1.56343862E-08
   1.17400002       1.56656146E-08
   1.17600000       1.54737609E-08
   1.17799997       1.50506843E-08
   1.17999995       1.43912544E-08
   1.18200004       1.34935796E-08
   1.18400002       1.23591777E-08
   1.18599999       1.09931175E-08
   1.18799996       9.40410505E-09
   1.19000006       7.60452057E-09
   1.19200003       5.61040014E-09
   1.19400001       3.44136852E-09
   1.19599998       1.12050436E-09
   1.19799995      -1.32584654E-09
   1.20000005      -3.86831633E-09
   1.20200002      -6.47481446E-09
   1.20400000      -9.11088538E-09
   1.20599997      -1.17401129E-08
   1.20799994      -1.43245709E-08
   1.21000004      -1.68253145E-08
   1.21200001      -1.92029166E-08
   1.21399999      -2.14180140E-08
   1.21599996      -2.34319053E-08
   1.21800005      -2.52071235E-08
   1.22000003      -2.67080509E-08
   1.22200000      -2.79015104E-08
   1.22399998      -2.87573467E-08
   1.22599995      -2.92489979E-08
   1.22800004      -2.93540179E-08
   1.23000002      -2.90545756E-08
   1.23199999      -2.83378991E-08
   1.23399997      -2.71966645E-08
   1.23599994      -2.56293191E-08
   1.23800004      -2.36403288E-08
   1.24000001      -2.12403641E-08
   1.24199998      -1.84463858E-08
   1.24399996      -1.52816426E-08
   1.24600005      -1.17755947E-08
   1.24800003      -7.96372657E-09
   1.25000000      -3.88727361E-09
   1.25199997       4.07144901E-10
   1.25399995       4.86797846E-09
   1.25600004       9.43929734E-09
   1.25800002       1.40614276E-08
   1.25999999       1.86716473E-08
   1.26199996       2.32049739E-08
   1.26400006       2.75950001E-08
   1.26600003       3.17747855E-08
   1.26800001       3.56777861E-08
   1.26999998       3.92388273E-08
   1.27199996       4.23950652E-08
   1.27400005       4.50869777E-08
   1.27600002       4.72593378E-08
   1.27800000       4.88621588E-08
   1.27999997       4.98515931E-08
   1.28199995       5.01907884E-08
   1.28400004       4.98506800E-08
   1.28600001       4.88106906E-08
   1.28799999       4.70593378E-08
   1.28999996       4.45947315E-08
   1.29200006       4.14249719E-08
   1.29400003       3.75683946E-08
   1.29600000       3.30536949E-08
   1.29799998       2.79199064E-08
   1.29999995       2.22162342E-08
   1.30200005       1.60017297E-08
   1.30400002       9.34481648E-09
   1.30599999       2.32267361E-09
   1.30799997      -4.97954034E-09
   1.30999994      -1.24695942E-08
   1.31200004      -2.00492405E-08
   1.31400001      -2.76153802E-08
   1.31599998      -3.50613263E-08
   1.31799996      -4.22782058E-08
   1.32000005      -4.91564158E-08
   1.32200003      -5.55871367E-08
   1.32400000      -6.14639006E-08
   1.32599998      -6.66841942E-08
   1.32799995      -7.11510211E-08
   1.33000004      -7.47745190E-08
   1.33200002      -7.74734303E-08
   1.33399999      -7.91766013E-08
   1.33599997      -7.98243320E-08
   1.33800006      -7.93696344E-08
   1.34000003      -7.77793545E-08
   1.34200001      -7.50351461E-08
   1.34399998      -7.11342452E-08
   1.34599996      -6.60901094E-08
   1.34800005      -5.99327805E-08
   1.35000002      -5.27090869E-08
   1.35200000      -4.44825830E-08
   1.35399997      -3.53332865E-08
   1.35599995      -2.53571475E-08
   1.35800004      -1.46653036E-08
   1.36000001      -3.38309047E-09
   1.36199999       8.35118463E-09
   1.36399996       2.03877040E-08
   1.36600006       3.25667529E-08
   1.36800003       4.47205863E-08
   1.37000000       5.66754252E-08
   1.37199998       6.82536552E-08
   1.37399995       7.92761057E-08
   1.37600005       8.95644590E-08
   1.37800002       9.89436941E-08
   1.38000000       1.07244659E-07
   1.38199997       1.14306530E-07
   1.38399994       1.19979347E-07
   1.38600004       1.24126501E-07
   1.38800001       1.26627000E-07
   1.38999999       1.27377788E-07
   1.39199996       1.26295802E-07
   1.39400005       1.23319836E-07
   1.39600003       1.18412203E-07
   1.39800000       1.11560212E-07
   1.39999998       1.02777257E-07
   1.40199995       9.21036900E-08
   1.40400004       7.96073181E-08
   1.40600002       6.53836096E-08
   1.40799999       4.95555383E-08
   1.40999997       3.22730216E-08
   1.41199994       1.37120244E-08
   1.41400003      -5.92668137E-09
   1.41600001      -2.64191709E-08
   1.41799998      -4.75203734E-08
   1.41999996      -6.89664077E-08
   1.42200005      -9.04772435E-08
   1.42400002      -1.11759697E-07
   1.42600000      -1.32510678E-07
   1.42799997      -1.52420682E-07
   1.42999995      -1.71177547E-07
   1.43200004      -1.88470295E-07
   1.43400002      -2.03993238E-07
   1.43599999      -2.17450008E-07
   1.43799996      -2.28557695E-07
   1.44000006      -2.37051097E-07
   1.44200003      -2.42686667E-07
   1.44400001      -2.45246440E-07
   1.44599998      -2.44541923E-07
   1.44799995      -2.40417535E-07
   1.45000005      -2.32753976E-07
   1.45200002      -2.21471012E-07
   1.45400000      -2.06530217E-07
   1.45599997      -1.87936962E-07
   1.45799994      -1.65742236E-07
   1.46000004      -1.40043809E-07
   1.46200001      -1.10986889E-07
   1.46399999      -7.87643231E-08
   1.46599996      -4.36161152E-08
   1.46800005      -5.82849502E-09
   1.47000003       3.42676394E-08
   1.47200000       7.62988535E-08
   1.47399998       1.19851876E-07
   1.47599995       1.64476731E-07
   1.47800004       2.09690540E-07
   1.48000002       2.54981700E-07
   1.48199999       2.99814531E-07
   1.48399997       3.43634298E-07
   1.48599994       3.85872653E-07
   1.48800004       4.25953289E-07
   1.49000001       4.63297908E-07
   1.49199998       4.97332280E-07
   1.49399996       5.27492375E-07
   1.49600005       5.53230905E-07
   1.49800003       5.74023431E-07
   1.50000000       5.89374451E-07
   1.50199997       5.98823704E-07
   1.50399995       6.01951854E-07
   1.50600004       5.98386123E-07
   1.50800002       5.87805687E-07
   1.50999999       5.69946508E-07
   1.51199996       5.44605882E-07
   1.51400006       5.11646704E-07
   1.51600003       4.71001016E-07
   1.51800001       4.22672912E-07
   1.51999998       3.66741318E-07
   1.52199996       3.03361901E-07
   1.52400005       2.32768443E-07
   1.52600002       1.55273810E-07
   1.52800000       7.12699375E-08
   1.52999997      -1.87724556E-08
   1.53199995      -1.14304832E-07
   1.53400004      -2.14702595E-07
   1.53600001      -3.19267286E-07
   1.53799999      -4.27229537E-07
   1.53999996      -5.37752442E-07
   1.54200006      -6.49935600E-07
   1.54400003      -7.62819866E-07
   1.54600000      -8.75392516E-07
   1.54799998      -9.86593022E-07
   1.54999995      -1.09531925E-06
   1.55200005      -1.20043467E-06
   1.55400002      -1.30077524E-06
   1.55599999      -1.39515771E-06
   1.55799997      -1.48238735E-06
   1.55999994      -1.56126760E-06
   1.56200004      -1.63060838E-06
   1.56400001      -1.68923611E-06
   1.56599998      -1.73600347E-06
   1.56799996      -1.76979984E-06
   1.57000005      -1.78956134E-06
   1.57200003      -1.79428196E-06
   1.57400000      -1.78302412E-06
   1.57599998      -1.75492983E-06
   1.57799995      -1.70923136E-06
   1.58000004      -1.64526261E-06
   1.58200002      -1.56246938E-06
   1.58399999      -1.46042055E-06
   1.58599997      -1.33881815E-06
   1.58800006      -1.19750678E-06
   1.59000003      -1.03648392E-06
   1.59200001      -8.55908354E-07
   1.59399998      -6.56108284E-07
   1.59599996      -4.37588909E-07
   1.59800005      -2.01038972E-07
   1.60000002       5.26640598E-08
   1.60200000       3.22449381E-07
   1.60399997       6.07049685E-07
   1.60599995       9.04999069E-07
   1.60800004       1.21463268E-06
   1.61000001       1.53408814E-06
   1.61199999       1.86130740E-06
   1.61399996       2.19404137E-06
   1.61600006       2.52985615E-06
   1.61800003       2.86614045E-06
   1.62000000       3.20011486E-06
   1.62199998       3.52884445E-06
   1.62399995       3.84925170E-06
   1.62600005       4.15813065E-06
   1.62800002       4.45216756E-06
   1.63000000       4.72795637E-06
   1.63199997       4.98202326E-06
   1.63399994       5.21084667E-06
   1.63600004       5.41088639E-06
   1.63800001       5.57860585E-06
   1.63999999       5.71050487E-06
   1.64199996       5.80314736E-06
   1.64400005       5.85319367E-06
   1.64600003       5.85743328E-06
   1.64800000       5.81282029E-06
   1.64999998       5.71650662E-06
   1.65199995       5.56588020E-06
   1.65400004       5.35859999E-06
   1.65600002       5.09263191E-06
   1.65799999       4.76628975E-06
   1.65999997       4.37826748E-06
   1.66199994       3.92767834E-06
   1.66400003       3.41408918E-06
   1.66600001       2.83755389E-06
   1.66799998       2.19864819E-06
   1.66999996       1.49849780E-06
   1.67200005       7.38809376E-07
   1.67400002      -7.81043710E-08
   1.67600000      -9.49302603E-07
   1.67799997      -1.87119520E-06
   1.67999995      -2.83952681E-06
   1.68200004      -3.84936538E-06
   1.68400002      -4.89509466E-06
   1.68599999      -5.97040707E-06
   1.68799996      -7.06830951E-06
   1.69000006      -8.18112767E-06
   1.69200003      -9.30051829E-06
   1.69400001      -1.04174851E-05
   1.69599998      -1.15223984E-05
   1.69799995      -1.26050290E-05
   1.70000005      -1.36545750E-05
   1.70200002      -1.46597013E-05
   1.70400000      -1.56085862E-05
   1.70599997      -1.64889698E-05
   1.70799994      -1.72881973E-05
   1.71000004      -1.79932922E-05
   1.71200001      -1.85910067E-05