   0.00000000       0.00000000    
   2.00000009E-03   0.00000000    
   4.00000019E-03   0.00000000    
   6.00000005E-03   0.00000000    
   8.00000038E-03   0.00000000    
   9.99999978E-03   0.00000000    
   1.20000001E-02   0.00000000    
   1.40000004E-02   0.00000000    
   1.60000008E-02   0.00000000    
   1.79999992E-02   0.00000000    
   1.99999996E-02   0.00000000    
   2.19999999E-02   0.00000000    
   2.40000002E-02   0.00000000    
   2.60000005E-02   0.00000000    
   2.80000009E-02   0.00000000    
   2.99999993E-02   0.00000000    
   3.20000015E-02   1.40129846E-45
   3.40000018E-02   8.40779079E-45
   3.59999985E-02   3.78350585E-44
   3.79999988E-02   1.41531145E-43
   3.99999991E-02   4.69434986E-43
   4.19999994E-02   1.50779715E-42
   4.39999998E-02   4.42810315E-42
   4.60000001E-02   1.20988109E-41
   4.80000004E-02   3.09630909E-41
   5.00000007E-02   7.50675587E-41
   5.20000011E-02   1.73072972E-40
   5.40000014E-02   3.79161937E-40
   5.60000017E-02   7.94494190E-40
   5.79999983E-02   1.59287418E-39
   5.99999987E-02   3.05123352E-39
   6.19999990E-02   5.57691285E-39
   6.40000030E-02   9.69781494E-39
   6.59999996E-02   1.59512565E-38
   6.80000037E-02   2.45386839E-38
   7.00000003E-02   3.45262986E-38
   7.19999969E-02   4.21802328E-38
   7.40000010E-02   3.77922601E-38
   7.59999976E-02   6.42635476E-42
   7.80000016E-02  -1.13835826E-37
   7.99999982E-02  -3.83438442E-37
   8.20000023E-02  -9.50218291E-37
   8.39999989E-02  -2.05453870E-36
   8.60000029E-02  -4.08993113E-36
   8.79999995E-02  -7.67922536E-36
   9.00000036E-02  -1.37774223E-35
   9.20000002E-02  -2.38049315E-35
   9.39999968E-02  -3.98118585E-35
   9.60000008E-02  -6.46683179E-35
   9.79999974E-02  -1.02266046E-34
  0.100000001      -1.57701601E-34
  0.101999998      -2.37389936E-34
  0.104000002      -3.49025808E-34
  0.105999999      -5.01271153E-34
  0.108000003      -7.02991861E-34
  0.109999999      -9.61803896E-34
  0.112000003      -1.28161321E-33
  0.114000000      -1.65873971E-33
  0.115999997      -2.07612176E-33
  0.118000001      -2.49500421E-33
  0.119999997      -2.84341192E-33
  0.122000001      -3.00064163E-33
  0.123999998      -2.77695222E-33
  0.126000002      -1.88766558E-33
  0.128000006       7.90818990E-35
  0.129999995       3.70143849E-33
  0.131999999       9.77001109E-33
  0.134000003       1.93408934E-32
  0.136000007       3.37946868E-32
  0.137999997       5.48995476E-32
  0.140000001       8.48754705E-32
  0.142000005       1.26455345E-31
  0.143999994       1.82936543E-31
  0.145999998       2.58214778E-31
  0.148000002       3.56789713E-31
  0.150000006       4.83728762E-31
  0.151999995       6.44572594E-31
  0.153999999       8.45162947E-31
  0.156000003       1.09137005E-30
  0.158000007       1.38869376E-30
  0.159999996       1.74170967E-30
  0.162000000       2.15333224E-30
  0.164000005       2.62386157E-30
  0.165999994       3.14979072E-30
  0.167999998       3.72234712E-30
  0.170000002       4.32576128E-30
  0.172000006       4.93525755E-30
  0.173999995       5.51480448E-30
  0.175999999       6.01467545E-30
  0.178000003       6.36891942E-30
  0.180000007       6.49290568E-30
  0.181999996       6.28114140E-30
  0.184000000       5.60568317E-30
  0.186000004       4.31551925E-30
  0.187999994       2.23739344E-30
  0.189999998      -8.21331915E-31
  0.192000002      -5.06711228E-30
  0.194000006      -1.07112076E-29
  0.195999995      -1.79564394E-29
  0.197999999      -2.69789202E-29
  0.200000003      -3.79040858E-29
  0.202000007      -5.07764870E-29
  0.203999996      -6.55231279E-29
  0.206000000      -8.19106431E-29
  0.208000004      -9.94970618E-29
  0.209999993      -1.17579889E-28
  0.211999997      -1.35143178E-28
  0.214000002      -1.50807465E-28
  0.216000006      -1.62787652E-28
  0.217999995      -1.68865477E-28
  0.219999999      -1.66384795E-28
  0.222000003      -1.52279020E-28
  0.224000007      -1.23140867E-28
  0.225999996      -7.53462072E-29
  0.228000000      -5.24231811E-30
  0.230000004       9.05888714E-29
  0.231999993       2.14985132E-28
  0.233999997       3.69771399E-28
  0.236000001       5.55242040E-28
  0.238000005       7.69566361E-28
  0.239999995       1.00813487E-27
  0.241999999       1.26287598E-27
  0.244000003       1.52158567E-27
  0.246000007       1.76732441E-27
  0.247999996       1.97795625E-27
  0.250000000       2.12591158E-27
  0.252000004       2.17827723E-27
  0.254000008       2.09731980E-27
  0.256000012       1.84155726E-27
  0.257999986       1.36749038E-27
  0.259999990       6.32095360E-28
  0.261999995      -4.03845530E-28
  0.263999999      -1.77153161E-27
  0.266000003      -3.48906207E-27
  0.268000007      -5.55556140E-27
  0.270000011      -7.94467210E-27
  0.272000015      -1.05976822E-26
  0.273999989      -1.34166566E-26
  0.275999993      -1.62580812E-26
  0.277999997      -1.89276481E-26
  0.280000001      -2.11769109E-26
  0.282000005      -2.27027127E-26
  0.284000009      -2.31502742E-26
  0.286000013      -2.21209817E-26
  0.287999988      -1.91857905E-26
  0.289999992      -1.39051649E-26
  0.291999996      -5.85624837E-27
  0.294000000       5.33231415E-27
  0.296000004       1.99378585E-26
  0.298000008       3.80939883E-26
  0.300000012       5.97347541E-26
  0.301999986       8.45346551E-26
  0.303999990       1.11847140E-25
  0.305999994       1.40645419E-25
  0.307999998       1.69470113E-25
  0.310000002       1.96389388E-25
  0.312000006       2.18978198E-25
  0.314000010       2.34323687E-25
  0.316000015       2.39064273E-25
  0.317999989       2.29470615E-25
  0.319999993       2.01575063E-25
  0.321999997       1.51356412E-25
  0.324000001       7.49844523E-26
  0.326000005      -3.08736955E-26
  0.328000009      -1.68686478E-25
  0.330000013      -3.39635582E-25
  0.331999987      -5.43148680E-25
  0.333999991      -7.76403904E-25
  0.335999995      -1.03382864E-24
  0.338000000      -1.30662276E-24
  0.340000004      -1.58234296E-24
  0.342000008      -1.84459188E-24
  0.344000012      -2.07286239E-24
  0.345999986      -2.24259094E-24
  0.347999990      -2.32547537E-24
  0.349999994      -2.29011823E-24
  0.351999998      -2.10304302E-24
  0.354000002      -1.73013368E-24
  0.356000006      -1.13852616E-24
  0.358000010      -2.98967165E-25
  0.360000014       8.11369720E-25
  0.361999989       2.20565292E-24
  0.363999993       3.88382374E-24
  0.365999997       5.82880606E-24
  0.368000001       8.00266414E-24
  0.370000005       1.03429202E-23
  0.372000009       1.27592950E-23
  0.374000013       1.51311789E-23
  0.375999987       1.73061994E-23
  0.377999991       1.91002442E-23
  0.379999995       2.02993759E-23
  0.381999999       2.06640063E-23
  0.384000003       1.99357394E-23
  0.386000007       1.78471749E-23
  0.388000011       1.41349407E-23
  0.389999986       8.55604770E-24
  0.391999990       9.07528167E-25
  0.393999994      -8.95090335E-24
  0.395999998      -2.10716549E-23
  0.398000002      -3.53923045E-23
  0.400000006      -5.17079801E-23
  0.402000010      -6.96444714E-23
  0.404000014      -8.86337860E-23
  0.405999988      -1.07894298E-22
  0.407999992      -1.26417674E-22
  0.409999996      -1.42965262E-22
  0.412000000      -1.56076534E-22
  0.414000005      -1.64092333E-22
  0.416000009      -1.65195438E-22
  0.418000013      -1.57470659E-22
  0.419999987      -1.38986197E-22
  0.421999991      -1.07897037E-22
  0.423999995      -6.25705096E-23
  0.425999999      -1.73240895E-24
  0.428000003       7.53690709E-23
  0.430000007       1.68786320E-22
  0.432000011       2.77688732E-22
  0.433999985       4.00180958E-22
  0.435999990       5.33134010E-22
  0.437999994       6.72041233E-22
  0.439999998       8.10914225E-22
  0.442000002       9.42233439E-22
  0.444000006       1.05697102E-21
  0.446000010       1.14470165E-21
  0.448000014       1.19381812E-21
  0.449999988       1.19186487E-21
  0.451999992       1.12600102E-21
  0.453999996       9.83598629E-22
  0.456000000       7.52978463E-22
  0.458000004       4.24273730E-22
  0.460000008      -9.59070898E-24
  0.462000012      -5.51831301E-22
  0.463999987      -1.20068659E-21
  0.465999991      -1.94829368E-21
  0.467999995      -2.77962069E-21
  0.469999999      -3.67152677E-21
  0.472000003      -4.59202774E-21
  0.474000007      -5.49986088E-21
  0.476000011      -6.34443976E-21
  0.477999985      -7.06629459E-21
  0.479999989      -7.59808933E-21
  0.481999993      -7.86629699E-21
  0.483999997      -7.79359960E-21
  0.486000001      -7.30204753E-21
  0.488000005      -6.31699901E-21
  0.490000010      -4.77180260E-21
  0.492000014      -2.61315039E-21
  0.493999988       1.93029556E-22
  0.495999992       3.65531880E-21
  0.497999996       7.75045454E-21
  0.500000000       1.24171685E-20
  0.501999974       1.75505948E-20
  0.504000008       2.29976777E-20
  0.505999982       2.85540130E-20
  0.508000016       3.39626627E-20
  0.509999990       3.89153775E-20
  0.512000024       4.30567736E-20
  0.513999999       4.59918624E-20
  0.515999973       4.72972698E-20
  0.518000007       4.65364704E-20
  0.519999981       4.32790170E-20
  0.522000015       3.71237431E-20
  0.523999989       2.77256046E-20
  0.526000023       1.48255484E-20
  0.527999997      -1.71744748E-21
  0.529999971      -2.18932720E-20
  0.532000005      -4.55080716E-20
  0.533999979      -7.21537822E-20
  0.536000013      -1.01181922E-19
  0.537999988      -1.31683754E-19
  0.540000021      -1.62479314E-19
  0.541999996      -1.92117583E-19
  0.544000030      -2.18890317E-19
  0.546000004      -2.40861656E-19
  0.547999978      -2.55915180E-19
  0.550000012      -2.61820112E-19
  0.551999986      -2.56316931E-19
  0.554000020      -2.37222475E-19
  0.555999994      -2.02553151E-19
  0.558000028      -1.50664228E-19
  0.560000002      -8.04010637E-20
  0.561999977       8.74204780E-21
  0.564000010       1.16462313E-19
  0.565999985       2.41495328E-19
  0.568000019       3.81477759E-19
  0.569999993       5.32835009E-19
  0.572000027       6.90705376E-19
  0.574000001       8.48910699E-19
  0.575999975       9.99985363E-19
  0.578000009       1.13527251E-18
  0.579999983       1.24509780E-18
  0.582000017       1.31902624E-18
  0.583999991       1.34620739E-18
  0.586000025       1.31580902E-18
  0.588000000       1.21753511E-18
  0.589999974       1.04222224E-18
  0.592000008       7.82498591E-19
  0.593999982       4.33487360E-19
  0.596000016      -6.47011224E-21
  0.597999990      -5.35102208E-19
  0.600000024      -1.14554216E-18
  0.601999998      -1.82575036E-18
  0.603999972      -2.55806887E-18
  0.606000006      -3.31895343E-18
  0.607999980      -4.07892893E-18
  0.610000014      -4.80281371E-18
  0.611999989      -5.45025542E-18
  0.614000022      -5.97660409E-18
  0.615999997      -6.33415581E-18
  0.617999971      -6.47376859E-18
  0.620000005      -6.34685262E-18
  0.621999979      -5.90770491E-18
  0.624000013      -5.11615221E-18
  0.625999987      -3.94042622E-18
  0.628000021      -2.36019589E-18
  0.629999995      -3.69632171E-19
  0.632000029       2.01962412E-18
  0.634000003       4.77574050E-18
  0.635999978       7.84439280E-18
  0.638000011       1.11470677E-17
  0.639999986       1.45801436E-17
  0.642000020       1.80149515E-17
  0.643999994       2.12989694E-17
  0.646000028       2.42583089E-17
  0.648000002       2.67016069E-17
  0.649999976       2.84254000E-17
  0.652000010       2.92210055E-17
  0.653999984       2.88828574E-17
  0.656000018       2.72181845E-17
  0.657999992       2.40578301E-17
  0.660000026       1.92679349E-17
  0.662000000       1.27621180E-17
  0.663999975       4.51368844E-18
  0.666000009      -5.43265178E-18
  0.667999983      -1.69501963E-17
  0.670000017      -2.98213798E-17
  0.671999991      -4.37313946E-17
  0.674000025      -5.82649480E-17
  0.675999999      -7.29068455E-17
  0.677999973      -8.70470283E-17
  0.680000007      -9.99906314E-17
  0.681999981      -1.10973366E-16
  0.684000015      -1.19182565E-16
  0.685999990      -1.23783913E-16
  0.688000023      -1.23953531E-16
  0.689999998      -1.18915035E-16
  0.691999972      -1.07980812E-16
  0.694000006      -9.05963081E-17
  0.695999980      -6.63860352E-17
  0.698000014      -3.51995592E-17
  0.699999988       2.84453764E-18
  0.702000022       4.73188603E-17
  0.703999996       9.74539927E-17
  0.705999970       1.52114306E-16
  0.708000004       2.09785351E-16
  0.709999979       2.68575169E-16
  0.712000012       3.26231590E-16
  0.713999987       3.80177742E-16
  0.716000021       4.27566509E-16
  0.717999995       4.65355454E-16
  0.720000029       4.90401424E-16
  0.722000003       4.99574791E-16
  0.723999977       4.89891246E-16
  0.726000011       4.58658071E-16
  0.727999985       4.03631819E-16
  0.730000019       3.23182112E-16
  0.731999993       2.16455670E-16
  0.734000027       8.35340385E-17
  0.736000001      -7.44224059E-17
  0.737999976      -2.55052711E-16
  0.740000010      -4.54703380E-16
  0.741999984      -6.68375487E-16
  0.744000018      -8.89718431E-16
  0.745999992      -1.11107747E-15
  0.748000026      -1.32360185E-15
  0.750000000      -1.51741770E-15
  0.751999974      -1.68186788E-15
  0.754000008      -1.80582130E-15
  0.755999982      -1.87804569E-15
  0.758000016      -1.88764236E-15
  0.759999990      -1.82453078E-15
  0.762000024      -1.67997465E-15
  0.763999999      -1.44713017E-15
  0.765999973      -1.12160164E-15
  0.768000007      -7.01980408E-16
  0.769999981      -1.90344741E-16
  0.772000015       4.07305057E-16
  0.773999989       1.08070361E-15
  0.776000023       1.81509610E-15
  0.777999997       2.59115849E-15
  0.779999971       3.38508480E-15
  0.782000005       4.16886493E-15
  0.783999979       4.91076499E-15
  0.786000013       5.57602467E-15
  0.787999988       6.12776753E-15
  0.790000021       6.52812866E-15
  0.791999996       6.73957562E-15
  0.794000030       6.72640552E-15
  0.796000004       6.45637989E-15
  0.797999978       5.90245380E-15
  0.800000012       5.04454792E-15
  0.801999986       3.87129802E-15
  0.804000020       2.38170926E-15
  0.805999994       5.86644590E-16
  0.808000028      -1.48993911E-15
  0.810000002      -3.81008379E-15
  0.811999977      -6.32133573E-15
  0.814000010      -8.95673391E-15
  0.815999985      -1.16353452E-14
  0.818000019      -1.42634063E-14
  0.819999993      -1.67361073E-14
  0.822000027      -1.89400175E-14
  0.824000001      -2.07561798E-14
  0.825999975      -2.20638124E-14
  0.828000009      -2.27445694E-14
  0.829999983      -2.26872794E-14
  0.832000017      -2.17930329E-14
  0.833999991      -1.99804857E-14
  0.836000025      -1.71911994E-14
  0.838000000      -1.33948147E-14
  0.839999974      -8.59386838E-15
  0.842000008      -2.82800267E-15
  0.843999982       3.82265249E-15
  0.846000016       1.12351551E-14
  0.847999990       1.92427115E-14
  0.850000024       2.76351123E-14
  0.851999998       3.61608259E-14
  0.853999972       4.45308598E-14
  0.856000006       5.24244852E-14
  0.857999980       5.94968343E-14
  0.860000014       6.53883211E-14
  0.861999989       6.97357821E-14
  0.864000022       7.21851235E-14
  0.865999997       7.24051827E-14
  0.867999971       7.01024864E-14
  0.870000005       6.50364365E-14
  0.871999979       5.70345027E-14
  0.874000013       4.60067199E-14
  0.875999987       3.19590444E-14
  0.878000021       1.50048871E-14
  0.879999995      -4.62585021E-15
  0.882000029      -2.65807816E-14
  0.884000003      -5.03826988E-14
  0.885999978      -7.54313875E-14
  0.888000011      -1.01010014E-13
  0.889999986      -1.26296461E-13
  0.892000020      -1.50379587E-13
  0.893999994      -1.72280633E-13
  0.896000028      -1.90979475E-13
  0.898000002      -2.05445307E-13
  0.899999976      -2.14671339E-13
  0.902000010      -2.17712567E-13
  0.903999984      -2.13725711E-13
  0.906000018      -2.02010189E-13
  0.907999992      -1.82048753E-13
  0.910000026      -1.53546338E-13
  0.912000000      -1.16465567E-13
  0.913999975      -7.10573297E-14
  0.916000009      -1.78848364E-14
  0.917999983       4.21604856E-14
  0.920000017       1.07852590E-13
  0.921999991       1.77635264E-13
  0.924000025       2.49638228E-13
  0.925999999       3.21706014E-13
  0.927999973       3.91439404E-13
  0.930000007       4.56250001E-13
  0.931999981       5.13426812E-13
  0.934000015       5.60214310E-13
  0.935999990       5.93900254E-13
  0.938000023       6.11911509E-13
  0.939999998       6.11915195E-13
  0.941999972       5.91922236E-13
  0.944000006       5.50390571E-13
  0.945999980       4.86323872E-13
  0.948000014       3.99362211E-13
  0.949999988       2.89860800E-13
  0.952000022       1.58953092E-13
  0.953999996       8.59435966E-15
  0.955999970      -1.58417875E-13
  0.958000004      -3.38448968E-13
  0.959999979      -5.27060546E-13
  0.962000012      -7.19074539E-13
  0.963999987      -9.08666913E-13
  0.966000021      -1.08949286E-12
  0.967999995      -1.25484117E-12
  0.970000029      -1.39781643E-12
  0.972000003      -1.51154371E-12
  0.973999977      -1.58939452E-12
  0.976000011      -1.62522480E-12
  0.977999985      -1.61362145E-12
  0.980000019      -1.55014814E-12
  0.981999993      -1.43158261E-12
  0.984000027      -1.25613810E-12
  0.986000001      -1.02365891E-12
  0.987999976      -7.35780957E-13
  0.990000010      -3.96050814E-13
  0.991999984      -9.99361658E-15
  0.994000018       4.14875816E-13
  0.995999992       8.69105027E-13
  0.998000026       1.34142231E-12
   1.00000000       1.81892424E-12
   1.00199997       2.28733135E-12
   1.00399995       2.73131279E-12
   1.00600004       3.13487018E-12
   1.00800002       3.48178019E-12
   1.00999999       3.75608052E-12
   1.01199996       3.94259191E-12
   1.01400006       4.02746283E-12
   1.01600003       3.99871629E-12
   1.01800001       3.84678704E-12
   1.01999998       3.56503108E-12
   1.02199996       3.15018454E-12
   1.02400005       2.60275764E-12
   1.02600002       1.92734457E-12
   1.02800000       1.13283233E-12
   1.02999997       2.32493847E-13
   1.03199995      -7.56047189E-13
   1.03400004      -1.81098886E-12
   1.03600001      -2.90666536E-12
   1.03799999      -4.01400744E-12
   1.03999996      -5.10114260E-12
   1.04200006      -6.13413357E-12
   1.04400003      -7.07783138E-12
   1.04600000      -7.89684203E-12
   1.04799998      -8.55657038E-12
   1.04999995      -9.02432122E-12
   1.05200005      -9.27043251E-12
   1.05400002      -9.26940382E-12
   1.05599999      -9.00097791E-12
   1.05799997      -8.45115818E-12
   1.05999994      -7.61310112E-12
   1.06200004      -6.48787317E-12
   1.06400001      -5.08501748E-12
   1.06599998      -3.42291299E-12
   1.06799996      -1.52889615E-12
   1.07000005       5.60877679E-13
   1.07200003       2.80184383E-12
   1.07400000       5.14171778E-12
   1.07599998       7.52146088E-12
   1.07799995       9.87651367E-12
   1.08000004       1.21382834E-11
   1.08200002       1.42358417E-11
   1.08399999       1.60978193E-11
   1.08599997       1.76544404E-11
   1.08800006       1.88396399E-11
   1.09000003       1.95932177E-11
   1.09200001       1.98629758E-11
   1.09399998       1.96067433E-11
   1.09599996       1.87942561E-11
   1.09800005       1.74088053E-11
   1.10000002       1.54486077E-11
   1.10200000       1.29278246E-11
   1.10399997       9.87718761E-12
   1.10599995       6.34418820E-12
   1.10800004       2.39279560E-12
   1.11000001      -1.89730631E-12
   1.11199999      -6.43198429E-12
   1.11399996      -1.11044056E-11
   1.11600006      -1.57972489E-11
   1.11800003      -2.03853358E-11
   1.12000000      -2.47386556E-11
   1.12199998      -2.87256659E-11
   1.12399995      -3.22168542E-11
   1.12600005      -3.50884252E-11
   1.12800002      -3.72260105E-11
   1.13000000      -3.85283576E-11
   1.13199997      -3.89107982E-11
   1.13399994      -3.83084918E-11
   1.13600004      -3.66792326E-11
   1.13800001      -3.40058155E-11
   1.13999999      -3.02978025E-11
   1.14199996      -2.55926530E-11
   1.14400005      -1.99561357E-11
   1.14600003      -1.34819890E-11
   1.14800000      -6.29078343E-12
   1.14999998       1.47197033E-12
   1.15199995       9.63851048E-12
   1.15400004       1.80222278E-11
   1.15600002       2.64217259E-11
   1.15799999       3.46254553E-11
   1.15999997       4.24168235E-11
   1.16199994       4.95796598E-11
   1.16400003       5.59038614E-11
   1.16600001       6.11911494E-11
   1.16799998       6.52606719E-11
   1.16999996       6.79544337E-11
   1.17200005       6.91422405E-11
   1.17400002       6.87261290E-11
   1.17600000       6.66441138E-11
   1.17799997       6.28730748E-11
   1.17999995       5.74307546E-11
   1.18200004       5.03767479E-11
   1.18400002       4.18124077E-11
   1.18599999       3.18796933E-11
   1.18799996       2.07589137E-11
   1.19000006       8.66541821E-12
   1.19200003      -4.15468007E-12
   1.19400001      -1.74297139E-11
   1.19599998      -3.08683981E-11
   1.19799995      -4.41664795E-11
   1.20000005      -5.70137861E-11
   1.20200002      -6.91016133E-11
   1.20400000      -8.01301872E-11
   1.20599997      -8.98160504E-11
   1.20799994      -9.78991610E-11
   1.21000004      -1.04149529E-10
   1.21200001      -1.08373172E-10
   1.21399999      -1.10417238E-10
   1.21599996      -1.10174231E-10
   1.21800005      -1.07585128E-10
   1.22000003      -1.02641312E-10
   1.22200000      -9.53853455E-11
   1.22399998      -8.59104940E-11
   1.22599995      -7.43590814E-11
   1.22800004      -6.09195819E-11
   1.23000002      -4.58227310E-11
   1.23199999      -2.93366338E-11
   1.23399997      -1.17610479E-11
   1.23599994       6.57904330E-12
   1.23800004       2.53402993E-11
   1.24000001       4.41682108E-11
   1.24199998       6.27044111E-11
   1.24399996       8.05939829E-11
   1.24600005       9.74923961E-11
   1.24800003       1.13072086E-10
   1.25000000       1.27028457E-10
   1.25199997       1.39085216E-10
   1.25399995       1.48998813E-10
   1.25600004       1.56562152E-10
   1.25800002       1.61607311E-10
   1.25999999       1.64007322E-10
   1.26199996       1.63677183E-10
   1.26400006       1.60573888E-10
   1.26600003       1.54695867E-10
   1.26800001       1.46081661E-10
   1.26999998       1.34808123E-10
   1.27199996       1.20988164E-10
   1.27400005       1.04768340E-10
   1.27600002       8.63261615E-11
   1.27800000       6.58675128E-11
   1.27999997       4.36240662E-11
   1.28199995       1.98509733E-11
   1.28400004      -5.17528598E-12
   1.28600001      -3.11587110E-11
   1.28799999      -5.77853806E-11
   1.28999996      -8.47246717E-11
   1.29200006      -1.11630462E-10
   1.29400003      -1.38142164E-10
   1.29600000      -1.63885724E-10
   1.29799998      -1.88474888E-10
   1.29999995      -2.11512696E-10
   1.30200005      -2.32593583E-10
   1.30400002      -2.51306004E-10
   1.30599999      -2.67235928E-10
   1.30799997      -2.79971268E-10
   1.30999994      -2.89107321E-10
   1.31200004      -2.94253205E-10
   1.31400001      -2.95039743E-10
   1.31599998      -2.91127983E-10
   1.31799996      -2.82219192E-10
   1.32000005      -2.68065264E-10
   1.32200003      -2.48480042E-10
   1.32400000      -2.23350893E-10
   1.32599998      -1.92650437E-10
   1.32799995      -1.56447730E-10
   1.33000004      -1.14918894E-10
   1.33200002      -6.83562582E-11
   1.33399999      -1.71762656E-11
   1.33599997       3.80752617E-11
   1.33800006       9.67202152E-11
   1.34000003       1.57948279E-10
   1.34200001       2.20820529E-10
   1.34399998       2.84276741E-10
   1.34599996       3.47146478E-10
   1.34800005       4.08164391E-10
   1.35000002       4.65989414E-10
   1.35200000       5.19228216E-10
   1.35399997       5.66461822E-10
   1.35599995       6.06275974E-10
   1.35800004       6.37294273E-10
   1.36000001       6.58213262E-10
   1.36199999       6.67839062E-10
   1.36399996       6.65124400E-10
   1.36600006       6.49205634E-10
   1.36800003       6.19437668E-10
   1.37000000       5.75426873E-10
   1.37199998       5.17060450E-10
   1.37399995       4.44530801E-10
   1.37600005       3.58354485E-10
   1.37800002       2.59384708E-10
   1.38000000       1.48816043E-10
   1.38199997       2.81815439E-11
   1.38399994      -1.00658856E-10
   1.38600004      -2.35538922E-10
   1.38800001      -3.74015457E-10
   1.38999999      -5.13406484E-10
   1.39199996      -6.50837828E-10
   1.39400005      -7.83297094E-10
   1.39600003      -9.07694864E-10
   1.39800000      -1.02093156E-09
   1.39999998      -1.11996801E-09
   1.40199995      -1.20189980E-09
   1.40400004      -1.26403199E-09
   1.40600002      -1.30395317E-09
   1.40799999      -1.31960698E-09
   1.40999997      -1.30935973E-09
   1.41199994      -1.27205979E-09
   1.41400003      -1.20709065E-09
   1.41600001      -1.11441267E-09
   1.41799998      -9.94593075E-10
   1.41999996      -8.48824122E-10
   1.42200005      -6.78925860E-10
   1.42400002      -4.87335172E-10
   1.42600000      -2.77078943E-10
   1.42799997      -5.17323268E-11
   1.42999995       1.84638194E-10
   1.43200004       4.27545443E-10
   1.43400002       6.72165879E-10
   1.43599999       9.13434772E-10
   1.43799996       1.14615173E-09
   1.44000006       1.36509326E-09
   1.44200003       1.56513047E-09
   1.44400001       1.74134929E-09
   1.44599998       1.88917038E-09
   1.44799995       2.00446570E-09
   1.45000005       2.08366746E-09
   1.45200002       2.12386997E-09
   1.45400000       2.12291784E-09
   1.45599997       2.07948103E-09
   1.45799994       1.99311079E-09
   1.46000004       1.86427918E-09
   1.46200001       1.69439718E-09
   1.46399999       1.48581092E-09
   1.46599996       1.24177657E-09
   1.46800005       9.66413061E-10
   1.47000003       6.64633071E-10
   1.47200000       3.42053108E-10
   1.47399998       4.88513700E-12
   1.47599995      -3.40188877E-10
   1.47800004      -6.86156798E-10
   1.48000002      -1.02582742E-09
   1.48199999      -1.35198963E-09
   1.48399997      -1.65757552E-09
   1.48599994      -1.93582483E-09
   1.48800004      -2.18044471E-09
   1.49000001      -2.38576292E-09
   1.49199998      -2.54686960E-09
   1.49399996      -2.65974398E-09
   1.49600005      -2.72136180E-09
   1.49800003      -2.72978329E-09
   1.50000000      -2.68421441E-09
   1.50199997      -2.58504529E-09
   1.50399995      -2.43385823E-09
   1.50600004      -2.23340924E-09
   1.50800002      -1.98758077E-09
   1.50999999      -1.70130665E-09
   1.51199996      -1.38047107E-09
   1.51400006      -1.03178277E-09
   1.51600003      -6.62627397E-10
   1.51800001      -2.80902301E-10
   1.51999998       1.05164835E-10
   1.52199996       4.87206275E-10
   1.52400005       8.56911653E-10
   1.52600002       1.20622656E-09
   1.52800000       1.52754653E-09
   1.52999997       1.81390347E-09
   1.53199995       2.05913775E-09
   1.53400004       2.25805397E-09
   1.53600001       2.40655229E-09
   1.53799999       2.50173704E-09
   1.53999996       2.54199573E-09
   1.54200006       2.52704457E-09
   1.54400003       2.45794474E-09
   1.54600000       2.33708253E-09
   1.54799998       2.16811880E-09
   1.54999995       1.95590211E-09
   1.55200005       1.70635317E-09
   1.55400002       1.42632062E-09
   1.55599999       1.12341025E-09
   1.55799997       8.05794542E-10
   1.55999994       4.82004325E-10
   1.56200004       1.60709140E-10
   1.56400001      -1.49508544E-10
   1.56599998      -4.40379289E-10
   1.56799996      -7.04168057E-10
   1.57000005      -9.33883637E-10
   1.57200003      -1.12347232E-09
   1.57400000      -1.26798838E-09
   1.57599998      -1.36373879E-09
   1.57799995      -1.40839718E-09
   1.58000004      -1.40108314E-09
   1.58200002      -1.34240352E-09
   1.58399999      -1.23445731E-09
   1.58599997      -1.08079978E-09
   1.58800006      -8.86366980E-10
   1.59000003      -6.57363997E-10
   1.59200001      -4.01116335E-10
   1.59399998      -1.25889410E-10
   1.59599996       1.59320140E-10
   1.59800005       4.45016302E-10
   1.60000002       7.21453286E-10
   1.60200000       9.78896963E-10
   1.60399997       1.20789001E-09
   1.60599995       1.39951695E-09
   1.60800004       1.54565905E-09
   1.61000001       1.63923330E-09
   1.61199999       1.67441039E-09
   1.61399996       1.64680414E-09
   1.61600006       1.55362656E-09
   1.61800003       1.39380574E-09
   1.62000000       1.16806054E-09
   1.62199998       8.78931705E-10
   1.62399995       5.30765654E-10
   1.62600005       1.29652067E-10
   1.62800002      -3.16685400E-10
   1.63000000      -7.99041611E-10
   1.63199997      -1.30692390E-09
   1.63399994      -1.82878290E-09
   1.63600004      -2.35227438E-09
   1.63800001      -2.86454660E-09
   1.63999999      -3.35254580E-09
   1.64199996      -3.80333276E-09
   1.64400005      -4.20440216E-09
   1.64600003      -4.54399496E-09
   1.64800000      -4.81140239E-09
   1.64999998      -4.99724040E-09
   1.65199995      -5.09370368E-09
   1.65400004      -5.09477882E-09
   1.65600002      -4.99641661E-09
   1.65799999      -4.79665996E-09
   1.65999997      -4.49571935E-09
   1.66199994      -4.09599554E-09
   1.66400003      -3.60204933E-09
   1.66600001      -3.02051517E-09
   1.66799998      -2.35996667E-09
   1.66999996      -1.63072789E-09
   1.67200005      -8.44644910E-10
   1.67400002      -1.48149392E-11
   1.67600000       8.44714299E-10
   1.67799997       1.71926962E-09
   1.67999995       2.59389377E-09
   1.68200004       3.45369333E-09
   1.68400002       4.28418145E-09
   1.68599999       5.07160980E-09
   1.68799996       5.80328230E-09
   1.69000006       6.46783072E-09
   1.69200003       7.05545888E-09
   1.69400001       7.55813723E-09
   1.69599998       7.96975019E-09
   1.69799995       8.28618596E-09
   1.70000005       8.50536708E-09
   1.70200002       8.62722160E-09
   1.70400000       8.65360317E-09
   1.70599997       8.58813820E-09
   1.70799994       8.43604120E-09
   1.71000004       8.20386248E-09
   1.71200001       7.89921550E-09