   0.00000000       0.00000000    
   2.00000009E-03   0.00000000    
   4.00000019E-03   0.00000000    
   6.00000005E-03   0.00000000    
   8.00000038E-03   0.00000000    
   9.99999978E-03   0.00000000    
   1.20000001E-02   0.00000000    
   1.40000004E-02   0.00000000    
   1.60000008E-02   0.00000000    
   1.79999992E-02   0.00000000    
   1.99999996E-02   0.00000000    
   2.19999999E-02   0.00000000    
   2.40000002E-02   0.00000000    
   2.60000005E-02   0.00000000    
   2.80000009E-02  -0.00000000    
   2.99999993E-02  -1.40129846E-45
   3.20000015E-02  -1.12103877E-44
   3.40000018E-02  -8.82818033E-44
   3.59999985E-02  -4.68033687E-43
   3.79999988E-02  -2.05150095E-42
   3.99999991E-02  -7.54178833E-42
   4.19999994E-02  -2.58679697E-41
   4.39999998E-02  -8.39097520E-41
   4.60000001E-02  -2.55647287E-40
   4.80000004E-02  -7.34344855E-40
   5.00000007E-02  -1.99959265E-39
   5.20000011E-02  -5.18655314E-39
   5.40000014E-02  -1.28669145E-38
   5.60000017E-02  -3.06416891E-38
   5.79999983E-02  -7.02703760E-38
   5.99999987E-02  -1.55619273E-37
   6.19999990E-02  -3.33617887E-37
   6.40000030E-02  -6.93857576E-37
   6.59999996E-02  -1.40268622E-36
   6.80000037E-02  -2.76097644E-36
   7.00000003E-02  -5.29958255E-36
   7.19999969E-02  -9.93329676E-36
   7.40000010E-02  -1.82034398E-35
   7.59999976E-02  -3.26515826E-35
   7.80000016E-02  -5.73826521E-35
   7.99999982E-02  -9.88950859E-35
   8.20000023E-02  -1.67278414E-34
   8.39999989E-02  -2.77903647E-34
   8.60000029E-02  -4.53756569E-34
   8.79999995E-02  -7.28585449E-34
   9.00000036E-02  -1.15104517E-33
   9.20000002E-02  -1.79001194E-33
   9.39999968E-02  -2.74120305E-33
   9.60000008E-02  -4.13514521E-33
   9.79999974E-02  -6.14638372E-33
  0.100000001      -9.00354617E-33
  0.101999998      -1.29995231E-32
  0.104000002      -1.85004429E-32
  0.105999999      -2.59513653E-32
  0.108000003      -3.58756673E-32
  0.109999999      -4.88637808E-32
  0.112000003      -6.55453181E-32
  0.114000000      -8.65370670E-32
  0.115999997      -1.12356724E-31
  0.118000001      -1.43290634E-31
  0.119999997      -1.79201010E-31
  0.122000001      -2.19256122E-31
  0.123999998      -2.61565901E-31
  0.126000002      -3.02704136E-31
  0.128000006      -3.37100888E-31
  0.129999995      -3.56289446E-31
  0.131999999      -3.48002234E-31
  0.134000003      -2.95118084E-31
  0.136000007      -1.74480766E-31
  0.137999997       4.43721258E-32
  0.140000001       4.00497931E-31
  0.142000005       9.42747222E-31
  0.143999994       1.73072453E-30
  0.145999998       2.83530629E-30
  0.148000002       4.33844534E-30
  0.150000006       6.33195210E-30
  0.151999995       8.91485813E-30
  0.153999999       1.21889255E-29
  0.156000003       1.62518034E-29
  0.158000007       2.11873735E-29
  0.159999996       2.70527645E-29
  0.162000000       3.38616431E-29
  0.164000005       4.15635333E-29
  0.165999994       5.00190548E-29
  0.167999998       5.89714092E-29
  0.170000002       6.80147516E-29
  0.172000006       7.65606685E-29
  0.173999995       8.38046989E-29
  0.175999999       8.86955077E-29
  0.178000003       8.99102219E-29
  0.180000007       8.58404550E-29
  0.181999996       7.45941677E-29
  0.184000000       5.40197650E-29
  0.186000004       2.17589429E-29
  0.187999994      -2.46643797E-29
  0.189999998      -8.77121640E-29
  0.192000002      -1.69651052E-28
  0.194000006      -2.72317202E-28
  0.195999995      -3.96824696E-28
  0.197999999      -5.43218893E-28
  0.200000003      -7.10079922E-28
  0.202000007      -8.94089095E-28
  0.203999996      -1.08957590E-27
  0.206000000      -1.28807331E-27
  0.208000004      -1.47791569E-27
  0.209999993      -1.64392604E-27
  0.211999997      -1.76724391E-27
  0.214000002      -1.82535653E-27
  0.216000006      -1.79239867E-27
  0.217999995      -1.63979145E-27
  0.219999999      -1.33728737E-27
  0.222000003      -8.54477916E-28
  0.224000007      -1.62812207E-28
  0.225999996       7.61855275E-28
  0.228000000       1.93619611E-27
  0.230000004       3.36587188E-27
  0.231999993       5.04163200E-27
  0.233999997       6.93520671E-27
  0.236000001       8.99522375E-27
  0.238000005       1.11434468E-26
  0.239999995       1.32716896E-26
  0.241999999       1.52398636E-26
  0.244000003       1.68755960E-26
  0.246000007       1.79759830E-26
  0.247999996       1.83119576E-26
  0.250000000       1.76357852E-26
  0.252000004       1.56920951E-26
  0.254000008       1.22327228E-26
  0.256000012       7.03550066E-27
  0.257999986      -7.31838453E-29
  0.259999990      -9.19249752E-27
  0.261999995      -2.03187443E-26
  0.263999999      -3.33156760E-26
  0.266000003      -4.78851943E-26
  0.268000007      -6.35405889E-26
  0.270000011      -7.95848919E-26
  0.272000015      -9.50973054E-26
  0.273999989      -1.08930955E-25
  0.275999993      -1.19725309E-25
  0.277999997      -1.25936688E-25
  0.280000001      -1.25889825E-25
  0.282000005      -1.17852886E-25
  0.284000009      -1.00137560E-25
  0.286000013      -7.12243529E-26
  0.287999988      -2.99116149E-26
  0.289999992       2.45150498E-26
  0.291999996       9.20988204E-26
  0.294000000       1.72021597E-25
  0.296000004       2.62418968E-25
  0.298000008       3.60213660E-25
  0.300000012       4.60984379E-25
  0.301999986       5.58888131E-25
  0.303999990       6.46655563E-25
  0.305999994       7.15680498E-25
  0.307999998       7.56222426E-25
  0.310000002       7.57739997E-25
  0.312000006       7.09368871E-25
  0.314000010       6.00550932E-25
  0.316000015       4.21815463E-25
  0.317999989       1.65701207E-25
  0.319999993      -1.72202727E-25
  0.321999997      -5.92133392E-25
  0.324000001      -1.08899822E-24
  0.326000005      -1.65125390E-24
  0.328000009      -2.25990111E-24
  0.330000013      -2.88769102E-24
  0.331999987      -3.49865136E-24
  0.333999991      -4.04804368E-24
  0.335999995      -4.48287446E-24
  0.338000000      -4.74306682E-24
  0.340000004      -4.76339774E-24
  0.342000008      -4.47627564E-24
  0.344000012      -3.81540465E-24
  0.345999986      -2.72033812E-24
  0.347999990      -1.14186443E-24
  0.349999994       9.51889168E-25
  0.351999998       3.56883040E-24
  0.354000002       6.68603162E-24
  0.356000006       1.02429668E-23
  0.358000010       1.41353146E-23
  0.360000014       1.82098301E-23
  0.361999989       2.22608990E-23
  0.363999993       2.60293933E-23
  0.365999997       2.92044701E-23
  0.368000001       3.14290168E-23
  0.370000005       3.23092373E-23
  0.372000009       3.14289600E-23
  0.374000013       2.83688991E-23
  0.375999987       2.27310538E-23
  0.377999991       1.41680302E-23
  0.379999995       2.41679963E-24
  0.381999999      -1.26639801E-23
  0.384000003      -3.10544278E-23
  0.386000007      -5.25333810E-23
  0.388000011      -7.66400962E-23
  0.389999986      -1.02640321E-22
  0.391999990      -1.29499810E-22
  0.393999994      -1.55868628E-22
  0.395999998      -1.80079766E-22
  0.398000002      -2.00165654E-22
  0.400000006      -2.13896037E-22
  0.402000010      -2.18840087E-22
  0.404000014      -2.12455236E-22
  0.405999988      -1.92204193E-22
  0.407999992      -1.55699963E-22
  0.409999996      -1.00877911E-22
  0.412000000      -2.61912991E-23
  0.414000005       6.91747521E-23
  0.416000009       1.85078746E-22
  0.418000013       3.20197455E-22
  0.419999987       4.71812078E-22
  0.421999991       6.35620598E-22
  0.423999995       8.05592683E-22
  0.425999999       9.73884911E-22
  0.428000003       1.13083597E-21
  0.430000007       1.26505945E-21
  0.432000011       1.36365248E-21
  0.433999985       1.41253691E-21
  0.435999990       1.39694236E-21
  0.437999994       1.30204115E-21
  0.439999998       1.11373296E-21
  0.442000002       8.19573520E-22
  0.444000006       4.09828866E-22
  0.446000010      -1.21371223E-22
  0.448000014      -7.74820645E-22
  0.449999988      -1.54501566E-21
  0.451999992      -2.41898772E-21
  0.453999996      -3.37526566E-21
  0.456000000      -4.38304750E-21
  0.458000004      -5.40167842E-21
  0.460000008      -6.38052430E-21
  0.462000012      -7.25934271E-21
  0.463999987      -7.96923250E-21
  0.465999991      -8.43425260E-21
  0.467999995      -8.57376502E-21
  0.469999999      -8.30554282E-21
  0.472000003      -7.54965483E-21
  0.474000007      -6.23308299E-21
  0.476000011      -4.29501659E-21
  0.477999985      -1.69267558E-21
  0.479999989       1.59250706E-21
  0.481999993       5.54858417E-21
  0.483999997       1.01269727E-20
  0.486000001       1.52368608E-20
  0.488000005       2.07405490E-20
  0.490000010       2.64501341E-20
  0.492000014       3.21260439E-20
  0.493999988       3.74778152E-20
  0.495999992       4.21676385E-20
  0.497999996       4.58169848E-20
  0.500000000       4.80167295E-20
  0.501999974       4.83408971E-20
  0.504000008       4.63642003E-20
  0.505999982       4.16832176E-20
  0.508000016       3.39409654E-20
  0.509999990       2.28542943E-20
  0.512000024       8.24340733E-21
  0.513999999      -9.93756289E-21
  0.515999973      -3.15702140E-20
  0.518000007      -5.63432782E-20
  0.519999981      -8.37275706E-20
  0.522000015      -1.12956359E-19
  0.523999989      -1.43013376E-19
  0.526000023      -1.72630345E-19
  0.527999997      -2.00296396E-19
  0.529999971      -2.24280976E-19
  0.532000005      -2.42672018E-19
  0.533999979      -2.53430846E-19
  0.536000013      -2.54463762E-19
  0.537999988      -2.43711009E-19
  0.540000021      -2.19251821E-19
  0.541999996      -1.79423863E-19
  0.544000030      -1.22953897E-19
  0.546000004      -4.90961937E-20
  0.547999978       4.22270080E-20
  0.550000012       1.50288791E-19
  0.551999986       2.73432203E-19
  0.554000020       4.08964040E-19
  0.555999994       5.53076842E-19
  0.558000028       7.00808094E-19
  0.560000002       8.46045500E-19
  0.561999977       9.81587212E-19
  0.564000010       1.09926461E-18
  0.565999985       1.19013351E-18
  0.568000019       1.24473849E-18
  0.569999993       1.25345160E-18
  0.572000027       1.20688247E-18
  0.574000001       1.09635707E-18
  0.575999975       9.14451993E-19
  0.578000009       6.55573878E-19
  0.579999983       3.16562408E-19
  0.582000017      -1.02704858E-19
  0.583999991      -5.98733852E-19
  0.586000025      -1.16389244E-18
  0.588000000      -1.78598158E-18
  0.589999974      -2.44793349E-18
  0.592000008      -3.12767784E-18
  0.593999982      -3.79820699E-18
  0.596000016      -4.42787921E-18
  0.597999990      -4.98098552E-18
  0.600000024      -5.41860294E-18
  0.601999998      -5.69974757E-18
  0.603999972      -5.78283042E-18
  0.606000006      -5.62739946E-18
  0.607999980      -5.19614719E-18
  0.610000014      -4.45713741E-18
  0.611999989      -3.38619102E-18
  0.614000022      -1.96934933E-18
  0.615999997      -2.05322966E-19
  0.617999971       1.89218475E-18
  0.620000005       4.29241101E-18
  0.621999979       6.94585215E-18
  0.624000013       9.78311722E-18
  0.625999987       1.27144509E-17
  0.628000021       1.56300707E-17
  0.629999995       1.84014334E-17
  0.632000029       2.08835493E-17
  0.634000003       2.29184037E-17
  0.635999978       2.43395381E-17
  0.638000011       2.49777890E-17
  0.639999986       2.46681091E-17
  0.642000020       2.32573873E-17
  0.643999994       2.06130729E-17
  0.646000028       1.66323737E-17
  0.648000002       1.12517268E-17
  0.649999976       4.45617664E-18
  0.652000010      -3.71177241E-18
  0.653999984      -1.31442614E-17
  0.656000018      -2.36616702E-17
  0.657999992      -3.50082026E-17
  0.660000026      -4.68499978E-17
  0.662000000      -5.87762118E-17
  0.663999975      -7.03035758E-17
  0.666000009      -8.08847379E-17
  0.667999983      -8.99206537E-17
  0.670000017      -9.67772531E-17
  0.671999991      -1.00806172E-16
  0.674000025      -1.01369495E-16
  0.675999999      -9.78680595E-17
  0.677999973      -8.97726281E-17
  0.680000007      -7.66571898E-17
  0.681999981      -5.82332438E-17
  0.684000015      -3.43838070E-17
  0.685999990      -5.19567611E-18
  0.688000023       2.90115534E-17
  0.689999998       6.76616867E-17
  0.691999972       1.09904808E-16
  0.694000006       1.54608897E-16
  0.695999980       2.00361673E-16
  0.698000014       2.45484151E-16
  0.699999988       2.88057403E-16
  0.702000022       3.25963001E-16
  0.703999996       3.56938122E-16
  0.705999970       3.78644586E-16
  0.708000004       3.88751859E-16
  0.709999979       3.85032167E-16
  0.712000012       3.65466050E-16
  0.713999987       3.28355181E-16
  0.716000021       2.72439412E-16
  0.717999995       1.97013921E-16
  0.720000029       1.02041186E-16
  0.722000003      -1.17467786E-17
  0.723999977      -1.42761937E-16
  0.726000011      -2.88495187E-16
  0.727999985      -4.45478132E-16
  0.730000019      -6.09277787E-16
  0.731999993      -7.74528462E-16
  0.734000027      -9.35005789E-16
  0.736000001      -1.08374499E-15
  0.737999976      -1.21320550E-15
  0.740000010      -1.31548293E-15
  0.741999984      -1.38256455E-15
  0.744000018      -1.40662706E-15
  0.745999992      -1.38036862E-15
  0.748000026      -1.29736828E-15
  0.750000000      -1.15246180E-15
  0.751999974      -9.42121395E-16
  0.754000008      -6.64827002E-16
  0.755999982      -3.21409405E-16
  0.758000016       8.46477611E-17
  0.759999990       5.46967079E-16
  0.762000024       1.05611530E-15
  0.763999999       1.59953575E-15
  0.765999973       2.16159166E-15
  0.768000007       2.72373418E-15
  0.769999981       3.26480358E-15
  0.772000015       3.76147427E-15
  0.773999989       4.18884135E-15
  0.776000023       4.52114508E-15
  0.777999997       4.73263100E-15
  0.779999971       4.79851873E-15
  0.782000005       4.69607221E-15
  0.783999979       4.40572710E-15
  0.786000013       3.91225502E-15
  0.787999988       3.20591658E-15
  0.790000021       2.28356186E-15
  0.791999996       1.14962541E-15
  0.794000030      -1.83028375E-16
  0.796000004      -1.69246691E-15
  0.797999978      -3.34730586E-15
  0.800000012      -5.10662823E-15
  0.801999986      -6.92024478E-15
  0.804000020      -8.72933775E-15
  0.805999994      -1.04675019E-14
  0.808000028      -1.20622006E-14
  0.810000002      -1.34366378E-14
  0.811999977      -1.45120173E-14
  0.814000010      -1.52101706E-14
  0.815999985      -1.54564810E-14
  0.818000019      -1.51830588E-14
  0.819999993      -1.43320600E-14
  0.822000027      -1.28590503E-14
  0.824000001      -1.07363010E-14
  0.825999975      -7.95588486E-15
  0.828000009      -4.53243815E-15
  0.829999983      -5.05436630E-16
  0.832000017       4.05914367E-15
  0.833999991       9.06791799E-15
  0.836000025       1.44000683E-14
  0.838000000       1.99082999E-14
  0.839999974       2.54208547E-14
  0.842000008       3.07446566E-14
  0.843999982       3.56695874E-14
  0.846000016       3.99738870E-14
  0.847999990       4.34305810E-14
  0.850000024       4.58149008E-14
  0.851999998       4.69124556E-14
  0.853999972       4.65280043E-14
  0.856000006       4.44945865E-14
  0.857999980       4.06827045E-14
  0.860000014       3.50092405E-14
  0.861999989       2.74457919E-14
  0.864000022       1.80260131E-14
  0.865999997       6.85164358E-15
  0.867999971      -5.90316234E-15
  0.870000005      -1.99895507E-14
  0.871999979      -3.50840369E-14
  0.874000013      -5.07911347E-14
  0.875999987      -6.66488417E-14
  0.878000021      -8.21369950E-14
  0.879999995      -9.66885873E-14
  0.882000029      -1.09703933E-13
  0.884000003      -1.20567537E-13
  0.885999978      -1.28667368E-13
  0.888000011      -1.33416024E-13
  0.889999986      -1.34273533E-13
  0.892000020      -1.30770788E-13
  0.893999994      -1.22533263E-13
  0.896000028      -1.09303896E-13
  0.898000002      -9.09645758E-14
  0.899999976      -6.75550517E-14
  0.902000010      -3.92885831E-14
  0.903999984      -6.56333517E-15
  0.906000018       3.00312618E-14
  0.907999992       6.97139490E-14
  0.910000026       1.11517458E-13
  0.912000000       1.54301173E-13
  0.913999975       1.96770917E-13
  0.916000009       2.37505951E-13
  0.917999983       2.74992784E-13
  0.920000017       3.07665731E-13
  0.921999991       3.33953216E-13
  0.924000025       3.52328816E-13
  0.925999999       3.61366129E-13
  0.927999973       3.59795581E-13
  0.930000007       3.46561918E-13
  0.931999981       3.20880123E-13
  0.934000015       2.82288028E-13
  0.935999990       2.30693502E-13
  0.938000023       1.66414002E-13
  0.939999998       9.02065694E-14
  0.941999972       3.28647471E-15
  0.944000006      -9.26673899E-14
  0.945999980      -1.95521645E-13
  0.948000014      -3.02713204E-13
  0.949999988      -4.11290332E-13
  0.952000022      -5.17970053E-13
  0.953999996      -6.19211822E-13
  0.955999970      -7.11305906E-13
  0.958000004      -7.90476083E-13
  0.959999979      -8.52993403E-13
  0.962000012      -8.95298701E-13
  0.963999987      -9.14131618E-13
  0.966000021      -9.06661085E-13
  0.967999995      -8.70613802E-13
  0.970000029      -8.04397293E-13
  0.972000003      -7.07211416E-13
  0.973999977      -5.79145239E-13
  0.976000011      -4.21254015E-13
  0.977999985      -2.35612636E-13
  0.980000019      -2.53414538E-14
  0.981999993       2.05398605E-13
  0.984000027       4.51443760E-13
  0.986000001       7.06699890E-13
  0.987999976       9.64250598E-13
  0.990000010       1.21649967E-12
  0.991999984       1.45534680E-12
  0.994000018       1.67239454E-12
  0.995999992       1.85918034E-12
  0.998000026       2.00743068E-12
   1.00000000       2.10933051E-12
   1.00199997       2.15779955E-12
   1.00399995       2.14676996E-12
   1.00600004       2.07145412E-12
   1.00800002       1.92859422E-12
   1.00999999       1.71668701E-12
   1.01199996       1.43617019E-12
   1.01400006       1.08956637E-12
   1.01600003       6.81572691E-13
   1.01800001       2.19093515E-13
   1.01999998      -2.88792942E-13
   1.02199996      -8.30935852E-13
   1.02400005      -1.39428356E-12
   1.02600002      -1.96412548E-12
   1.02800000      -2.52440321E-12
   1.02999997      -3.05808308E-12
   1.03199995      -3.54758909E-12
   1.03400004      -3.97528104E-12
   1.03600001      -4.32397130E-12
   1.03799999      -4.57746514E-12
   1.03999996      -4.72110979E-12
   1.04200006      -4.74233803E-12
   1.04400003      -4.63118953E-12
   1.04600000      -4.38078913E-12
   1.04799998      -3.98777018E-12
   1.04999995      -3.45261992E-12
   1.05200005      -2.77994121E-12
   1.05400002      -1.97860586E-12
   1.05599999      -1.06179475E-12
   1.05799997      -4.69161927E-14
   1.05999994       1.04460668E-12
   1.06200004       2.18768038E-12
   1.06400001       3.35401260E-12
   1.06599998       4.51270965E-12
   1.06799996       5.63098786E-12
   1.07000005       6.67498348E-12
   1.07200003       7.61064909E-12
   1.07400000       8.40470749E-12
   1.07599998       9.02564655E-12
   1.07799995       9.44472191E-12
   1.08000004       9.63694662E-12
   1.08200002       9.58203135E-12
   1.08399999       9.26523962E-12
   1.08599997       8.67814848E-12
   1.08800006       7.81927040E-12
   1.09000003       6.69450563E-12
   1.09200001       5.31742228E-12
   1.09399998       3.70933059E-12
   1.09599996       1.89914208E-12
   1.09800005      -7.69885864E-14
   1.10000002      -2.17625202E-12
   1.10200000      -4.34998955E-12
   1.10399997      -6.54470748E-12
   1.10599995      -8.70327595E-12
   1.10800004      -1.07663036E-11
   1.11000001      -1.26736347E-11
   1.11199999      -1.43659572E-11
   1.11399996      -1.57864659E-11
   1.11600006      -1.68825353E-11
   1.11800003      -1.76073722E-11
   1.12000000      -1.79215757E-11
   1.12199998      -1.77945818E-11
   1.12399995      -1.72059259E-11
   1.12600005      -1.61462892E-11
   1.12800002      -1.46182962E-11
   1.13000000      -1.26370112E-11
   1.13199997      -1.02301223E-11
   1.13399994      -7.43779344E-12
   1.13600004      -4.31216347E-12
   1.13800001      -9.16497889E-13
   1.13999999       2.67599116E-12
   1.14199996       6.38364838E-12
   1.14400005       1.01181711E-11
   1.14600003       1.37866524E-11
   1.14800000       1.72938382E-11
   1.14999998       2.05445314E-11
   1.15199995       2.34460871E-11
   1.15400004       2.59109331E-11
   1.15600002       2.78590519E-11
   1.15799999       2.92203484E-11
   1.15999997       2.99368447E-11
   1.16199994       2.99646107E-11
   1.16400003       2.92753946E-11
   1.16600001       2.78579191E-11
   1.16799998       2.57187258E-11
   1.16999996       2.28826003E-11
   1.17200005       1.93925240E-11
   1.17400002       1.53091272E-11
   1.17600000       1.07097040E-11
   1.17799997       5.68671672E-12
   1.17999995       3.45882828E-13
   1.18200004      -5.19614083E-12
   1.18400002      -1.08144162E-11
   1.18599999      -1.63786710E-11
   1.18799996      -2.17564491E-11
   1.19000006      -2.68163859E-11
   1.19200003      -3.14315345E-11
   1.19400001      -3.54826307E-11
   1.19599998      -3.88612510E-11
   1.19799995      -4.14727037E-11
   1.20000005      -4.32386522E-11
   1.20200002      -4.40993214E-11
   1.20400000      -4.40152810E-11
   1.20599997      -4.29687362E-11
   1.20799994      -4.09642251E-11
   1.21000004      -3.80287989E-11
   1.21200001      -3.42115850E-11
   1.21399999      -2.95827876E-11
   1.21599996      -2.42321371E-11
   1.21800005      -1.82668134E-11
   1.22000003      -1.18089115E-11
   1.22200000      -4.99252289E-12
   1.22399998       2.03951504E-12
   1.22599995       9.13909660E-12
   1.22800004       1.61564529E-11
   1.23000002       2.29437771E-11
   1.23199999       2.93587932E-11
   1.23399997       3.52681530E-11
   1.23599994       4.05505803E-11
   1.23800004       4.50996254E-11
   1.24000001       4.88260404E-11
   1.24199998       5.16595898E-11
   1.24399996       5.35504176E-11
   1.24600005       5.44697447E-11
   1.24800003       5.44100251E-11
   1.25000000       5.33845225E-11
   1.25199997       5.14262730E-11
   1.25399995       4.85865861E-11
   1.25600004       4.49330573E-11
   1.25800002       4.05471594E-11
   1.25999999       3.55215579E-11
   1.26199996       2.99572069E-11
   1.26400006       2.39603164E-11
   1.26600003       1.76392997E-11
   1.26800001       1.11018521E-11
   1.26999998       4.45220250E-12
   1.27199996      -2.21134829E-12
   1.27400005      -8.79850533E-12
   1.27600002      -1.52286083E-11
   1.27800000      -2.14317852E-11
   1.27999997      -2.73495497E-11
   1.28199995      -3.29348666E-11
   1.28400004      -3.81516728E-11
   1.28600001      -4.29739092E-11
   1.28799999      -4.73840481E-11
   1.28999996      -5.13712406E-11
   1.29200006      -5.49292070E-11
   1.29400003      -5.80538326E-11
   1.29600000      -6.07407249E-11
   1.29799998      -6.29827926E-11
   1.29999995      -6.47679410E-11
   1.30200005      -6.60771160E-11
   1.30400002      -6.68826522E-11
   1.30599999      -6.71472045E-11
   1.30799997      -6.68232206E-11
   1.30999994      -6.58531008E-11
   1.31200004      -6.41700651E-11
   1.31400001      -6.16998258E-11
   1.31599998      -5.83629603E-11
   1.31799996      -5.40780025E-11
   1.32000005      -4.87652106E-11
   1.32200003      -4.23508902E-11
   1.32400000      -3.47721574E-11
   1.32599998      -2.59820238E-11
   1.32799995      -1.59545779E-11
   1.33000004      -4.69013066E-12
   1.33200002       7.77989565E-12
   1.33399999       2.13885628E-11
   1.33599997       3.60296688E-11
   1.33800006       5.15549062E-11
   1.34000003       6.77720241E-11
   1.34200001       8.44443057E-11
   1.34399998       1.01291385E-10
   1.34599996       1.17991547E-10
   1.34800005       1.34185621E-10
   1.35000002       1.49482315E-10
   1.35200000       1.63465352E-10
   1.35399997       1.75701884E-10
   1.35599995       1.85752316E-10
   1.35800004       1.93181346E-10
   1.36000001       1.97569947E-10
   1.36199999       1.98527986E-10
   1.36399996       1.95707353E-10
   1.36600006       1.88814922E-10
   1.36800003       1.77625317E-10
   1.37000000       1.61992905E-10
   1.37199998       1.41862633E-10
   1.37399995       1.17279478E-10
   1.37600005       8.83958115E-11
   1.37800002       5.54767170E-11
   1.38000000       1.89025913E-11
   1.38199997      -2.08308561E-11
   1.38399994      -6.31157002E-11
   1.38600004      -1.07238066E-10
   1.38800001      -1.52387408E-10
   1.38999999      -1.97669103E-10
   1.39199996      -2.42119852E-10
   1.39400005      -2.84726021E-10
   1.39600003      -3.24444555E-10
   1.39800000      -3.60225710E-10
   1.39999998      -3.91037897E-10
   1.40199995      -4.15893125E-10
   1.40400004      -4.33873465E-10
   1.40600002      -4.44157155E-10
   1.40799999      -4.46043924E-10
   1.40999997      -4.38978937E-10
   1.41199994      -4.22574559E-10
   1.41400003      -3.96629285E-10
   1.41600001      -3.61143254E-10
   1.41799998      -3.16329518E-10
   1.41999996      -2.62621147E-10
   1.42200005      -2.00672964E-10
   1.42400002      -1.31358438E-10
   1.42600000      -5.57607953E-11
   1.42799997       2.48412072E-11
   1.42999995       1.08992898E-10
   1.43200004       1.95088543E-10
   1.43400002       2.81401125E-10
   1.43599999       3.66116276E-10
   1.43799996       4.47369891E-10
   1.44000006       5.23288690E-10
   1.44200003       5.92033089E-10
   1.44400001       6.51840582E-10
   1.44599998       7.01069758E-10
   1.44799995       7.38243133E-10
   1.45000005       7.62087393E-10
   1.45200002       7.71571251E-10
   1.45400000       7.65938479E-10
   1.45599997       7.44735884E-10
   1.45799994       7.07835068E-10
   1.46000004       6.55447419E-10
   1.46200001       5.88131654E-10
   1.46399999       5.06792996E-10
   1.46599996       4.12674422E-10
   1.46800005       3.07339515E-10
   1.47000003       1.92646760E-10
   1.47200000       7.07164674E-11
   1.47399998      -5.61100333E-11
   1.47599995      -1.85317497E-10
   1.47800004      -3.14269805E-10
   1.48000002      -4.40267156E-10
   1.48199999      -5.60606728E-10
   1.48399997      -6.72644829E-10
   1.48599994      -7.73859976E-10
   1.48800004      -8.61913818E-10
   1.49000001      -9.34709976E-10
   1.49199998      -9.90448390E-10
   1.49399996      -1.02767339E-09
   1.49600005      -1.04531506E-09
   1.49800003      -1.04272158E-09
   1.50000000      -1.01968267E-09
   1.50199997      -9.76441927E-10
   1.50399995      -9.13699005E-10
   1.50600004      -8.32599822E-10
   1.50800002      -7.34715511E-10
   1.50999999      -6.22010943E-10
   1.51199996      -4.96801711E-10
   1.51400006      -3.61702585E-10
   1.51600003      -2.19566448E-10
   1.51800001      -7.34168767E-11
   1.51999998       7.36254044E-11
   1.52199996       2.18419519E-10
   1.52400005       3.57883029E-10
   1.52600002       4.89070118E-10
   1.52800000       6.09247708E-10
   1.52999997       7.15966564E-10
   1.53199995       8.07126088E-10
   1.53400004       8.81030138E-10
   1.53600001       9.36433042E-10
   1.53799999       9.72573577E-10
   1.53999996       9.89195503E-10
   1.54200006       9.86554949E-10
   1.54400003       9.65412972E-10
   1.54600000       9.27012633E-10
   1.54799998       8.73043415E-10
   1.54999995       8.05590372E-10
   1.55200005       7.27071958E-10
   1.55400002       6.40165920E-10
   1.55599999       5.47726031E-10
   1.55799997       4.52692189E-10
   1.55999994       3.57995800E-10
   1.56200004       2.66463018E-10
   1.56400001       1.80719356E-10
   1.56599998       1.03097822E-10
   1.56799996       3.55540736E-11
   1.57000005      -2.04089211E-11
   1.57200003      -6.38037609E-11
   1.57400000      -9.42067049E-11
   1.57599998      -1.11789376E-10
   1.57799995      -1.17331117E-10
   1.58000004      -1.12212246E-10
   1.58200002      -9.83872844E-11
   1.58399999      -7.83363582E-11
   1.58599997      -5.49974580E-11
   1.58800006      -3.16797491E-11
   1.59000003      -1.19592105E-11
   1.59200001       4.40552027E-13
   1.59399998       1.78010601E-12
   1.59599996      -1.15556904E-11
   1.59800005      -4.29119587E-11
   1.60000002      -9.52176463E-11
   1.60200000      -1.70842396E-10
   1.60399997      -2.71460798E-10
   1.60599995      -3.97929495E-10
   1.60800004      -5.50181123E-10
   1.61000001      -7.27138516E-10
   1.61199999      -9.26654309E-10
   1.61399996      -1.14547805E-09
   1.61600006      -1.37925416E-09
   1.61800003      -1.62255320E-09
   1.62000000      -1.86893656E-09
   1.62199998      -2.11105577E-09
   1.62399995      -2.34078601E-09
   1.62600005      -2.54939225E-09
   1.62800002      -2.72772405E-09
   1.63000000      -2.86643931E-09
   1.63199997      -2.95624769E-09
   1.63399994      -2.98817393E-09
   1.63600004      -2.95383074E-09
   1.63800001      -2.84569635E-09
   1.63999999      -2.65739231E-09
   1.64199996      -2.38394970E-09
   1.64400005      -2.02205963E-09
   1.64600003      -1.57029956E-09
   1.64800000      -1.02932718E-09
   1.64999998      -4.02038486E-10
   1.65199995       3.06321080E-10
   1.65400004       1.08809339E-09
   1.65600002       1.93319982E-09
   1.65799999       2.82918999E-09
   1.65999997       3.76135123E-09
   1.66199994       4.71287676E-09
   1.66400003       5.66509550E-09
   1.66600001       6.59775967E-09
   1.66799998       7.48938245E-09
   1.66999996       8.31763103E-09
   1.67200005       9.05975472E-09
   1.67400002       9.69305347E-09
   1.67600000       1.01953725E-08
   1.67799997       1.05456053E-08
   1.67999995       1.07242135E-08
   1.68200004       1.07137286E-08
   1.68400002       1.04992468E-08
   1.68599999       1.00688897E-08
   1.68799996       9.41422407E-09
   1.69000006       8.53063309E-09
   1.69200003       7.41762474E-09
   1.69400001       6.07907280E-09
   1.69599998       4.52337590E-09
   1.69799995       2.76353695E-09
   1.70000005       8.17148571E-10
   1.70200002      -1.29370836E-09
   1.70400000      -3.54265972E-09
   1.70599997      -5.89932636E-09
   1.70799994      -8.32969604E-09
   1.71000004      -1.07965841E-08
   1.71200001      -1.32601636E-08