   0.00000000       0.00000000    
   2.00000009E-03   0.00000000    
   4.00000019E-03   0.00000000    
   6.00000005E-03   0.00000000    
   8.00000038E-03   0.00000000    
   9.99999978E-03   0.00000000    
   1.20000001E-02   0.00000000    
   1.40000004E-02   0.00000000    
   1.60000008E-02   0.00000000    
   1.79999992E-02   0.00000000    
   1.99999996E-02   0.00000000    
   2.19999999E-02   0.00000000    
   2.40000002E-02   0.00000000    
   2.60000005E-02   0.00000000    
   2.80000009E-02  -1.40129846E-45
   2.99999993E-02  -8.40779079E-45
   3.20000015E-02  -5.04467447E-44
   3.40000018E-02  -2.36819440E-43
   3.59999985E-02  -9.33264777E-43
   3.79999988E-02  -3.51305525E-42
   3.99999991E-02  -1.19867071E-41
   4.19999994E-02  -3.87122714E-41
   4.39999998E-02  -1.16169044E-40
   4.60000001E-02  -3.27623581E-40
   4.80000004E-02  -8.78572098E-40
   5.00000007E-02  -2.25173809E-39
   5.20000011E-02  -5.53763726E-39
   5.40000014E-02  -1.31089832E-38
   5.60000017E-02  -2.99632364E-38
   5.79999983E-02  -6.63068649E-38
   5.99999987E-02  -1.42388840E-37
   6.19999990E-02  -2.97319818E-37
   6.40000030E-02  -6.04747011E-37
   6.59999996E-02  -1.20005649E-36
   6.80000037E-02  -2.32651113E-36
   7.00000003E-02  -4.41174674E-36
   7.19999969E-02  -8.19187836E-36
   7.40000010E-02  -1.49085902E-35
   7.59999976E-02  -2.66155856E-35
   7.80000016E-02  -4.66452545E-35
   7.99999982E-02  -8.03044820E-35
   8.20000023E-02  -1.35890614E-34
   8.39999989E-02  -2.26143096E-34
   8.60000029E-02  -3.70272295E-34
   8.79999995E-02  -5.96729513E-34
   9.00000036E-02  -9.46896883E-34
   9.20000002E-02  -1.47987153E-33
   9.39999968E-02  -2.27848458E-33
   9.60000008E-02  -3.45660836E-33
   9.79999974E-02  -5.16765757E-33
  0.100000001      -7.61392229E-33
  0.101999998      -1.10559975E-32
  0.104000002      -1.58210093E-32
  0.105999999      -2.23075811E-32
  0.108000003      -3.09844912E-32
  0.109999999      -4.23787284E-32
  0.112000003      -5.70471405E-32
  0.114000000      -7.55241308E-32
  0.115999997      -9.82360688E-32
  0.118000001      -1.25370963E-31
  0.119999997      -1.56690446E-31
  0.122000001      -1.91269682E-31
  0.123999998      -2.27150577E-31
  0.126000002      -2.60894083E-31
  0.128000006      -2.87020808E-31
  0.129999995      -2.97333138E-31
  0.131999999      -2.80122537E-31
  0.134000003      -2.19275799E-31
  0.136000007      -9.33119053E-32
  0.137999997       1.25598609E-31
  0.140000001       4.72550939E-31
  0.142000005       9.90650121E-31
  0.143999994       1.73143528E-30
  0.145999998       2.75480656E-30
  0.148000002       4.12822519E-30
  0.150000006       5.92494028E-30
  0.151999995       8.22095836E-30
  0.153999999       1.10904631E-29
  0.156000003       1.45993916E-29
  0.158000007       1.87969153E-29
  0.159999996       2.37046151E-29
  0.162000000       2.93032739E-29
  0.164000005       3.55173320E-29
  0.165999994       4.21972214E-29
  0.167999998       4.91001335E-29
  0.170000002       5.58699337E-29
  0.172000006       6.20174178E-29
  0.173999995       6.69023405E-29
  0.175999999       6.97191455E-29
  0.178000003       6.94886177E-29
  0.180000007       6.50580640E-29
  0.181999996       5.51129530E-29
  0.184000000       3.82029330E-29
  0.186000004       1.27852844E-29
  0.187999994      -2.27112475E-29
  0.189999998      -6.97999804E-29
  0.192000002      -1.29825409E-28
  0.194000006      -2.03827257E-28
  0.195999995      -2.92380023E-28
  0.197999999      -3.95410510E-28
  0.200000003      -5.11997450E-28
  0.202000007      -6.40159613E-28
  0.203999996      -7.76641169E-28
  0.206000000      -9.16706061E-28
  0.208000004      -1.05395447E-27
  0.209999993      -1.18017828E-27
  0.211999997      -1.28527233E-27
  0.214000002      -1.35722238E-27
  0.216000006      -1.38218994E-27
  0.217999995      -1.34471395E-27
  0.219999999      -1.22805035E-27
  0.222000003      -1.01466685E-27
  0.224000007      -6.86909444E-28
  0.225999996      -2.27849766E-28
  0.228000000       3.77678305E-28
  0.230000004       1.14185209E-27
  0.231999993       2.07245566E-27
  0.233999997       3.17131059E-27
  0.236000001       4.43256783E-27
  0.238000005       5.84090025E-27
  0.239999995       7.36964412E-27
  0.241999999       8.97895580E-27
  0.244000003       1.06140549E-26
  0.246000007       1.22036582E-26
  0.247999996       1.36587152E-26
  0.250000000       1.48715750E-26
  0.252000004       1.57157455E-26
  0.254000008       1.60464308E-26
  0.256000012       1.57020375E-26
  0.257999986       1.45068947E-26
  0.259999990       1.22754152E-26
  0.261999995       8.81798581E-27
  0.263999999       3.94884394E-27
  0.266000003      -2.50379559E-27
  0.268000007      -1.06851233E-26
  0.270000011      -2.06984514E-26
  0.272000015      -3.25871815E-26
  0.273999989      -4.63140361E-26
  0.275999993      -6.17377644E-26
  0.277999997      -7.85878580E-26
  0.280000001      -9.64379190E-26
  0.282000005      -1.14678805E-25
  0.284000009      -1.32493133E-25
  0.286000013      -1.48833105E-25
  0.287999988      -1.62404039E-25
  0.289999992      -1.71656774E-25
  0.291999996      -1.74792311E-25
  0.294000000      -1.69782502E-25
  0.296000004      -1.54411276E-25
  0.298000008      -1.26340376E-25
  0.300000012      -8.32040809E-26
  0.301999986      -2.27362963E-26
  0.303999990       5.70669005E-26
  0.305999994       1.57747776E-25
  0.307999998       2.80151230E-25
  0.310000002       4.24155471E-25
  0.312000006       5.88375308E-25
  0.314000010       7.69847435E-25
  0.316000015       9.63712615E-25
  0.317999989       1.16291163E-24
  0.319999993       1.35792021E-24
  0.321999997       1.53655027E-24
  0.324000001       1.68385003E-24
  0.326000005       1.78214052E-24
  0.328000009       1.81122641E-24
  0.330000013       1.74882239E-24
  0.331999987       1.57123185E-24
  0.333999991       1.25431418E-24
  0.335999995       7.74765736E-25
  0.338000000       1.11729032E-25
  0.340000004      -7.51269464E-25
  0.342000008      -1.82407479E-24
  0.344000012      -3.10739746E-24
  0.345999986      -4.59012247E-24
  0.347999990      -6.24654183E-24
  0.349999994      -8.03364429E-24
  0.351999998      -9.88865859E-24
  0.354000002      -1.17270406E-23
  0.356000006      -1.34411738E-23
  0.358000010      -1.49000363E-23
  0.360000014      -1.59501301E-23
  0.361999989      -1.64179751E-23
  0.363999993      -1.61144388E-23
  0.365999997      -1.48411368E-23
  0.368000001      -1.23991422E-23
  0.370000005      -8.60007245E-24
  0.372000009      -3.27958508E-24
  0.374000013       3.68685385E-24
  0.375999987       1.23662167E-23
  0.377999991       2.27486817E-23
  0.379999995       3.47276134E-23
  0.381999999       4.80796648E-23
  0.384000003       6.24461661E-23
  0.386000007       7.73172040E-23
  0.388000011       9.20199493E-23
  0.389999986       1.05713003E-22
  0.391999990       1.17388574E-22
  0.393999994       1.25884480E-22
  0.395999998       1.29907645E-22
  0.398000002       1.28070811E-22
  0.400000006       1.18943841E-22
  0.402000010       1.01120318E-22
  0.404000014       7.32996426E-23
  0.405999988       3.43841339E-23
  0.407999992      -1.64105314E-23
  0.409999996      -7.94342416E-23
  0.412000000      -1.54474768E-22
  0.414000005      -2.40628400E-22
  0.416000009      -3.36175990E-22
  0.418000013      -4.38472065E-22
  0.419999987      -5.43855905E-22
  0.421999991      -6.47595632E-22
  0.423999995      -7.43874730E-22
  0.425999999      -8.25833465E-22
  0.428000003      -8.85675166E-22
  0.430000007      -9.14847419E-22
  0.432000011      -9.04306521E-22
  0.433999985      -8.44871443E-22
  0.435999990      -7.27668119E-22
  0.437999994      -5.44664557E-22
  0.439999998      -2.89287184E-22
  0.442000002       4.28919073E-23
  0.444000006       4.53418972E-22
  0.446000010       9.40198809E-22
  0.448000014       1.49674596E-21
  0.449999988       2.11148878E-21
  0.451999992       2.76717239E-21
  0.453999996       3.44041744E-21
  0.456000000       4.10148985E-21
  0.458000004       4.71434142E-21
  0.460000008       5.23698547E-21
  0.462000012       5.62225655E-21
  0.463999987       5.81900639E-21
  0.465999991       5.77377399E-21
  0.467999995       5.43295013E-21
  0.469999999       4.74543097E-21
  0.472000003       3.66574580E-21
  0.474000007       2.15759763E-21
  0.476000011       1.97732000E-22
  0.477999985      -2.21998919E-21
  0.479999989      -5.08046739E-21
  0.481999993      -8.34340006E-21
  0.483999997      -1.19396930E-20
  0.486000001      -1.57685182E-20
  0.488000005      -1.96953077E-20
  0.490000010      -2.35509775E-20
  0.492000014      -2.71326809E-20
  0.493999988      -3.02064097E-20
  0.495999992      -3.25116587E-20
  0.497999996      -3.37684336E-20
  0.500000000      -3.36866752E-20
  0.501999974      -3.19782079E-20
  0.504000008      -2.83711544E-20
  0.505999982      -2.26265692E-20
  0.508000016      -1.45570298E-20
  0.509999990      -4.04661926E-21
  0.512000024       8.92835408E-21
  0.513999999       2.42787672E-20
  0.515999973       4.17832386E-20
  0.518000007       6.10710096E-20
  0.519999981       8.16085083E-20
  0.522000015       1.02690867E-19
  0.523999989       1.23440021E-19
  0.526000023       1.42810639E-19
  0.527999997       1.59605236E-19
  0.529999971       1.72499715E-19
  0.532000005       1.80080024E-19
  0.533999979       1.80890648E-19
  0.536000013       1.73494762E-19
  0.537999988       1.56545650E-19
  0.540000021       1.28868225E-19
  0.541999996       8.95488283E-20
  0.544000030       3.80304978E-20
  0.546000004      -2.57894365E-20
  0.547999978      -1.01463835E-19
  0.550000012      -1.87907027E-19
  0.551999986      -2.83318536E-19
  0.554000020      -3.85125031E-19
  0.555999994      -4.89947194E-19
  0.558000028      -5.93597370E-19
  0.560000002      -6.91114365E-19
  0.561999977      -7.76840985E-19
  0.564000010      -8.44548459E-19
  0.565999985      -8.87611533E-19
  0.568000019      -8.99235489E-19
  0.569999993      -8.72733862E-19
  0.572000027      -8.01855289E-19
  0.574000001      -6.81151285E-19
  0.575999975      -5.06378361E-19
  0.578000009      -2.74919836E-19
  0.579999983       1.37861104E-20
  0.582000017       3.57831922E-19
  0.583999991       7.52460819E-19
  0.586000025       1.18974515E-18
  0.588000000       1.65834834E-18
  0.589999974       2.14339723E-18
  0.592000008       2.62648973E-18
  0.593999982       3.08586366E-18
  0.596000016       3.49674722E-18
  0.597999990       3.83190798E-18
  0.600000024       4.06241427E-18
  0.601999998       4.15860917E-18
  0.603999972       4.09129569E-18
  0.606000006       3.83311195E-18
  0.607999980       3.36007692E-18
  0.610000014       2.65326122E-18
  0.611999989       1.70053424E-18
  0.614000022       4.98321570E-19
  0.615999997      -9.46701180E-19
  0.617999971      -2.61606808E-18
  0.620000005      -4.47822721E-18
  0.621999979      -6.48759119E-18
  0.624000013      -8.58403868E-18
  0.625999987      -1.06929605E-17
  0.628000021      -1.27259520E-17
  0.629999995      -1.45822214E-17
  0.632000029      -1.61507891E-17
  0.634000003      -1.73134974E-17
  0.635999978      -1.79488680E-17
  0.638000011      -1.79367498E-17
  0.639999986      -1.71637115E-17
  0.642000020      -1.55290686E-17
  0.643999994      -1.29513844E-17
  0.646000028      -9.37523942E-18
  0.648000002      -4.77804296E-18
  0.649999976       8.23423455E-19
  0.652000010       7.36704011E-18
  0.653999984       1.47403254E-17
  0.656000018       2.27767027E-17
  0.657999992       3.12534677E-17
  0.660000026       3.98917743E-17
  0.662000000       4.83590234E-17
  0.663999975       5.62738779E-17
  0.666000009       6.32142078E-17
  0.667999983       6.87280151E-17
  0.670000017       7.23473803E-17
  0.671999991       7.36054293E-17
  0.674000025       7.20558951E-17
  0.675999999       6.72950802E-17
  0.677999973       5.89854951E-17
  0.680000007       4.68806101E-17
  0.681999981       3.08497274E-17
  0.684000015       1.09020411E-17
  0.685999990      -1.27912579E-17
  0.688000023      -3.98780895E-17
  0.689999998      -6.98110592E-17
  0.691999972      -1.01838798E-16
  0.694000006      -1.35004373E-16
  0.695999980      -1.68151803E-16
  0.698000014      -1.99941783E-16
  0.699999988      -2.28877329E-16
  0.702000022      -2.53339905E-16
  0.703999996      -2.71635843E-16
  0.705999970      -2.82053316E-16
  0.708000004      -2.82928460E-16
  0.709999979      -2.72719754E-16
  0.712000012      -2.50088913E-16
  0.713999987      -2.13985669E-16
  0.716000021      -1.63733930E-16
  0.717999995      -9.91158383E-17
  0.720000029      -2.04501034E-17
  0.722000003       7.13394309E-17
  0.723999977       1.74669152E-16
  0.726000011       2.87259154E-16
  0.727999985       4.06119052E-16
  0.730000019       5.27559966E-16
  0.731999993       6.47235874E-16
  0.734000027       7.60217046E-16
  0.736000001       8.61097241E-16
  0.737999976       9.44135534E-16
  0.740000010       1.00343155E-15
  0.741999984       1.03313244E-15
  0.744000018       1.02766823E-15
  0.745999992       9.82009447E-16
  0.748000026       8.91940622E-16
  0.750000000       7.54341444E-16
  0.751999974       5.67465223E-16
  0.754000008       3.31203250E-16
  0.755999982       4.73233701E-17
  0.758000016      -2.80330107E-16
  0.759999990      -6.45689616E-16
  0.762000024      -1.04038113E-15
  0.763999999      -1.45371945E-15
  0.765999973      -1.87279091E-15
  0.768000007      -2.28263182E-15
  0.769999981      -2.66651160E-15
  0.772000015      -3.00632174E-15
  0.773999989      -3.28306942E-15
  0.776000023      -3.47747238E-15
  0.777999997      -3.57064748E-15
  0.779999971      -3.54487481E-15
  0.782000005      -3.38442263E-15
  0.783999979      -3.07640757E-15
  0.786000013      -2.61166389E-15
  0.787999988      -1.98558668E-15
  0.790000021      -1.19892061E-15
  0.791999996      -2.58448837E-16
  0.794000030       8.22448822E-16
  0.796000004       2.02341327E-15
  0.797999978       3.31693189E-15
  0.800000012       4.66840388E-15
  0.801999986       6.03648152E-15
  0.804000020       7.37370217E-15
  0.805999994       8.62742783E-15
  0.808000028       9.74109658E-15
  0.810000002       1.06557761E-14
  0.811999977       1.13120107E-14
  0.814000010       1.16519089E-14
  0.815999985       1.16214538E-14
  0.818000019       1.11729507E-14
  0.819999993       1.02675623E-14
  0.822000027       8.87783364E-15
  0.824000001       6.99012373E-15
  0.825999975       4.60683941E-15
  0.828000009       1.74836229E-15
  0.829999983      -1.54542559E-15
  0.832000017      -5.21413746E-15
  0.833999991      -9.17648644E-15
  0.836000025      -1.33305910E-14
  0.838000000      -1.75550560E-14
  0.839999974      -2.17108724E-14
  0.842000008      -2.56441834E-14
  0.843999982      -2.91899039E-14
  0.846000016      -3.21761762E-14
  0.847999990      -3.44295922E-14
  0.850000024      -3.57810773E-14
  0.851999998      -3.60723482E-14
  0.853999972      -3.51627263E-14
  0.856000006      -3.29361308E-14
  0.857999980      -2.93080413E-14
  0.860000014      -2.42321591E-14
  0.861999989      -1.77065004E-14
  0.864000022      -9.77865995E-15
  0.865999997      -5.49953982E-16
  0.867999971       9.82183915E-15
  0.870000005       2.11213595E-14
  0.871999979       3.30764333E-14
  0.874000013       4.53608640E-14
  0.875999987       5.75993924E-14
  0.878000021       6.93749257E-14
  0.879999995       8.02379606E-14
  0.882000029       8.97182177E-14
  0.884000003       9.73382345E-14
  0.885999978       1.02628694E-13
  0.888000011       1.05145147E-13
  0.889999986       1.04485776E-13
  0.892000020       1.00309572E-13
  0.893999994       9.23544824E-14
  0.896000028       8.04548146E-14
  0.898000002       6.45572463E-14
  0.899999976       4.47348152E-14
  0.902000010       2.11981498E-14
  0.903999984      -5.69670018E-15
  0.906000018      -3.54445206E-14
  0.907999992      -6.73916963E-14
  0.910000026      -1.00742006E-13
  0.912000000      -1.34567772E-13
  0.913999975      -1.67826460E-13
  0.916000009      -1.99382828E-13
  0.917999983      -2.28036394E-13
  0.920000017      -2.52553783E-13
  0.921999991      -2.71705537E-13
  0.924000025      -2.84306378E-13
  0.925999999      -2.89258201E-13
  0.927999973      -2.85594492E-13
  0.930000007      -2.72524841E-13
  0.931999981      -2.49478010E-13
  0.934000015      -2.16142547E-13
  0.935999990      -1.72502488E-13
  0.938000023      -1.18867332E-13
  0.939999998      -5.58944065E-14
  0.941999972       1.53979714E-14
  0.944000006       9.36273696E-14
  0.945999980       1.77055731E-13
  0.948000014       2.63609908E-13
  0.949999988       3.50914637E-13
  0.952000022       4.36338628E-13
  0.953999996       5.17052655E-13
  0.955999970       5.90099530E-13
  0.958000004       6.52474765E-13
  0.959999979       7.01215670E-13
  0.962000012       7.33497844E-13
  0.963999987       7.46735681E-13
  0.966000021       7.38684829E-13
  0.967999995       7.07542911E-13
  0.970000029       6.52045854E-13
  0.972000003       5.71555498E-13
  0.973999977       4.66136407E-13
  0.976000011       3.36616504E-13
  0.977999985       1.84630794E-13
  0.980000019       1.26428637E-14
  0.981999993      -1.76056611E-13
  0.984000027      -3.77377085E-13
  0.986000001      -5.86482414E-13
  0.987999976      -7.97872022E-13
  0.990000010      -1.00548920E-12
  0.991999984      -1.20285617E-12
  0.994000018      -1.38323218E-12
  0.995999992      -1.53979368E-12
  0.998000026      -1.66583056E-12
   1.00000000      -1.75495707E-12
   1.00199997      -1.80132764E-12
   1.00399995      -1.79985605E-12
   1.00600004      -1.74642831E-12
   1.00800002      -1.63810404E-12
   1.00999999      -1.47329848E-12
   1.01199996      -1.25193898E-12
   1.01400006      -9.75588750E-13
   1.01600003      -6.47531074E-13
   1.01800001      -2.72810854E-13
   1.01999998       1.41774301E-13
   1.02199996       5.87733421E-13
   1.02400005       1.05499691E-12
   1.02600002       1.53208598E-12
   1.02800000       2.00633433E-12
   1.02999997       2.46416277E-12
   1.03199995       2.89139979E-12
   1.03400004       3.27364134E-12
   1.03600001       3.59664468E-12
   1.03799999       3.84674671E-12
   1.03999996       4.01129260E-12
   1.04200006       4.07906825E-12
   1.04400003       4.04072088E-12
   1.04600000       3.88915679E-12
   1.04799998       3.61989974E-12
   1.04999995       3.23140386E-12
   1.05200005       2.72530024E-12
   1.05400002       2.10657360E-12
   1.05599999       1.38365491E-12
   1.05799997       5.68425190E-13
   1.05999994      -3.23879514E-13
   1.06200004      -1.27486140E-12
   1.06400001      -2.26325447E-12
   1.06599998      -3.26531792E-12
   1.06799996      -4.25532049E-12
   1.07000005      -5.20611115E-12
   1.07200003      -6.08976498E-12
   1.07400000      -6.87829047E-12
   1.07599998      -7.54437832E-12
   1.07799995      -8.06217679E-12
   1.08000004      -8.40808239E-12
   1.08200002      -8.56150047E-12
   1.08399999      -8.50558426E-12
   1.08599997      -8.22790187E-12
   1.08800006      -7.72103475E-12
   1.09000003      -6.98306604E-12
   1.09200001      -6.01795523E-12
   1.09399998      -4.83577197E-12
   1.09599996      -3.45278623E-12
   1.09800005      -1.89139416E-12
   1.10000002      -1.79879942E-13
   1.10200000       1.64798806E-12
   1.10399997       3.55352900E-12
   1.10599995       5.49387098E-12
   1.10800004       7.42282971E-12
   1.11000001       9.29190839E-12
   1.11199999       1.10514046E-11
   1.11399996       1.26516063E-11
   1.11600006       1.40440446E-11
   1.11800003       1.51827717E-11
   1.12000000       1.60256322E-11
   1.12199998       1.65355004E-11
   1.12399995       1.66814375E-11
   1.12600005       1.64397593E-11
   1.12800002       1.57949435E-11
   1.13000000       1.47403964E-11
   1.13199997       1.32790159E-11
   1.13399994       1.14235513E-11
   1.13600004       9.19672845E-12
   1.13800001       6.63113141E-12
   1.13999999       3.76884808E-12
   1.14199996       6.60870555E-13
   1.14400005      -2.63373568E-12
   1.14600003      -6.04890703E-12
   1.14800000      -9.51284277E-12
   1.14999998      -1.29494479E-11
   1.15199995      -1.62799340E-11
   1.15400004      -1.94245210E-11
   1.15600002      -2.23042366E-11
   1.15799999      -2.48427303E-11
   1.15999997      -2.69680875E-11
   1.16199994      -2.86146142E-11
   1.16400003      -2.97245006E-11
   1.16600001      -3.02493586E-11
   1.16799998      -3.01516034E-11
   1.16999996      -2.94056134E-11
   1.17200005      -2.79986607E-11
   1.17400002      -2.59315781E-11
   1.17600000      -2.32191488E-11
   1.17799997      -1.98901954E-11
   1.17999995      -1.59873764E-11
   1.18200004      -1.15667025E-11
   1.18400002      -6.69672694E-12
   1.18599999      -1.45748420E-12
   1.18799996       4.06081332E-12
   1.19000006       9.75932269E-12
   1.19200003       1.55323098E-11
   1.19400001       2.12690473E-11
   1.19599998       2.68558457E-11
   1.19799995       3.21781386E-11
   1.20000005       3.71226383E-11
   1.20200002       4.15794725E-11
   1.20400000       4.54442907E-11
   1.20599997       4.86202745E-11
   1.20799994       5.10200493E-11
   1.21000004       5.25674330E-11
   1.21200001       5.31990216E-11
   1.21399999       5.28655626E-11
   1.21599996       5.15331181E-11
   1.21800005       4.91839867E-11
   1.22000003       4.58173707E-11
   1.22200000       4.14497846E-11
   1.22399998       3.61152636E-11
   1.22599995       2.98652561E-11
   1.22800004       2.27683150E-11
   1.23000002       1.49095181E-11
   1.23199999       6.38967395E-12
   1.23399997      -2.67568541E-12
   1.23599994      -1.21575189E-11
   1.23800004      -2.19146905E-11
   1.24000001      -3.17955627E-11
   1.24199998      -4.16397819E-11
   1.24399996      -5.12801815E-11
   1.24600005      -6.05448677E-11
   1.24800003      -6.92594662E-11
   1.25000000      -7.72494221E-11
   1.25199997      -8.43424774E-11
   1.25399995      -9.03712730E-11
   1.25600004      -9.51759990E-11
   1.25800002      -9.86071155E-11
   1.25999999      -1.00528141E-10
   1.26199996      -1.00818520E-10
   1.26400006      -9.93764029E-11
   1.26600003      -9.61214580E-11
   1.26800001      -9.09975983E-11
   1.26999998      -8.39754793E-11
   1.27199996      -7.50550178E-11
   1.27400005      -6.42675010E-11
   1.27600002      -5.16774748E-11
   1.27800000      -3.73842519E-11
   1.27999997      -2.15229327E-11
   1.28199995      -4.26501022E-12
   1.28400004       1.41817148E-11
   1.28600001       3.35737688E-11
   1.28799999       5.36334102E-11
   1.28999996       7.40507933E-11
   1.29200006       9.44869460E-11
   1.29400003       1.14577473E-10
   1.29600000       1.33937264E-10
   1.29799998       1.52165974E-10
   1.29999995       1.68854236E-10
   1.30200005       1.83590670E-10
   1.30400002       1.95969629E-10
   1.30599999       2.05599482E-10
   1.30799997       2.12111245E-10
   1.30999994       2.15167689E-10
   1.31200004       2.14472454E-10
   1.31400001       2.09779097E-10
   1.31599998       2.00900005E-10
   1.31799996       1.87714608E-10
   1.32000005       1.70177011E-10
   1.32200003       1.48322604E-10
   1.32400000       1.22273497E-10
   1.32599998       9.22425053E-11
   1.32799995       5.85355722E-11
   1.33000004       2.15523745E-11
   1.33200002      -1.82151481E-11
   1.33399999      -6.01862379E-11
   1.33599997      -1.03696975E-10
   1.33800006      -1.48008147E-10
   1.34000003      -1.92315289E-10
   1.34200001      -2.35760966E-10
   1.34399998      -2.77448869E-10
   1.34599996      -3.16459942E-10
   1.34800005      -3.51869867E-10
   1.35000002      -3.82768067E-10
   1.35200000      -4.08277523E-10
   1.35399997      -4.27575281E-10
   1.35599995      -4.39912884E-10
   1.35800004      -4.44636661E-10
   1.36000001      -4.41207154E-10
   1.36199999      -4.29217301E-10
   1.36399996      -4.08408779E-10
   1.36600006      -3.78686027E-10
   1.36800003      -3.40127704E-10
   1.37000000      -2.92994962E-10
   1.37199998      -2.37736053E-10
   1.37399995      -1.74987400E-10
   1.37600005      -1.05570525E-10
   1.37800002      -3.04847293E-11
   1.38000000       4.91044705E-11
   1.38199997       1.31880951E-10
   1.38399994       2.16397816E-10
   1.38600004       3.01100950E-10
   1.38800001       3.84356186E-10
   1.38999999       4.64479427E-10
   1.39199996       5.39769229E-10
   1.39400005       6.08541495E-10
   1.39600003       6.69165057E-10
   1.39800000       7.20098092E-10
   1.39999998       7.59923957E-10
   1.40199995       7.87385990E-10
   1.40400004       8.01420208E-10
   1.40600002       8.01185451E-10
   1.40799999       7.86089804E-10
   1.40999997       7.55812746E-10
   1.41199994       7.10322301E-10
   1.41400003       6.49886978E-10
   1.41600001       5.75080927E-10
   1.41799998       4.86783724E-10
   1.41999996       3.86172816E-10
   1.42200005       2.74710032E-10
   1.42400002       1.54120994E-10
   1.42600000       2.63682583E-11
   1.42799997      -1.06380953E-10
   1.42999995      -2.41792891E-10
   1.43200004      -3.77409853E-10
   1.43400002      -5.10696874E-10
   1.43599999      -6.39091058E-10
   1.43799996      -7.60053132E-10
   1.44000006      -8.71119732E-10
   1.44200003      -9.69955449E-10
   1.44400001      -1.05440368E-09
   1.44599998      -1.12253418E-09
   1.44799995      -1.17268761E-09
   1.45000005      -1.20351551E-09
   1.45200002      -1.21401311E-09
   1.45400000      -1.20354748E-09
   1.45599997      -1.17187671E-09
   1.45799994      -1.11916199E-09
   1.46000004      -1.04597075E-09
   1.46200001      -9.53272350E-10
   1.46399999      -8.42423464E-10
   1.46599996      -7.15146442E-10
   1.46800005      -5.73498971E-10
   1.47000003      -4.19836360E-10
   1.47200000      -2.56766997E-10
   1.47399998      -8.71020617E-11
   1.47599995       8.61997904E-11
   1.47800004       2.60091310E-10
   1.48000002       4.31497726E-10
   1.48199999       5.97379091E-10
   1.48399997       7.54791674E-10
   1.48599994       9.00948594E-10
   1.48800004       1.03327602E-09
   1.49000001       1.14946619E-09
   1.49199998       1.24752375E-09
   1.49399996       1.32580580E-09
   1.49600005       1.38305445E-09
   1.49800003       1.41842038E-09
   1.50000000       1.43147771E-09
   1.50199997       1.42222967E-09
   1.50399995       1.39110412E-09
   1.50600004       1.33894096E-09
   1.50800002       1.26696809E-09
   1.50999999       1.17677146E-09
   1.51199996       1.07025588E-09
   1.51400006       9.49598289E-10
   1.51600003       8.17196866E-10
   1.51800001       6.75614453E-10
   1.51999998       5.27518917E-10
   1.52199996       3.75621756E-10
   1.52400005       2.22616522E-10
   1.52600002       7.11185416E-11
   1.52800000      -7.63930030E-11
   1.52999997      -2.17629179E-10
   1.53199995      -3.50539237E-10
   1.53400004      -4.73352690E-10
   1.53600001      -5.84613746E-10
   1.53799999      -6.83207269E-10
   1.53999996      -7.68375863E-10
   1.54200006      -8.39727232E-10
   1.54400003      -8.97232288E-10
   1.54600000      -9.41213774E-10
   1.54799998      -9.72325442E-10
   1.54999995      -9.91522309E-10
   1.55200005      -1.00002340E-09
   1.55400002      -9.99267780E-10
   1.55599999      -9.90863724E-10
   1.55799997      -9.76533965E-10
   1.55999994      -9.58057744E-10
   1.56200004      -9.37210198E-10
   1.56400001      -9.15703402E-10
   1.56599998      -8.95126973E-10
   1.56799996      -8.76892225E-10
   1.57000005      -8.62180882E-10
   1.57200003      -8.51899606E-10
   1.57400000      -8.46641202E-10
   1.57599998      -8.46653969E-10
   1.57799995      -8.51820725E-10
   1.58000004      -8.61646587E-10
   1.58200002      -8.75258033E-10
   1.58399999      -8.91412055E-10
   1.58599997      -9.08515763E-10
   1.58800006      -9.24656463E-10
   1.59000003      -9.37642075E-10
   1.59200001      -9.45049705E-10
   1.59399998      -9.44283540E-10
   1.59599996      -9.32639188E-10
   1.59800005      -9.07373898E-10
   1.60000002      -8.65781613E-10
   1.60200000      -8.05270073E-10
   1.60399997      -7.23439753E-10
   1.60599995      -6.18161744E-10
   1.60800004      -4.87653751E-10
   1.61000001      -3.30551114E-10
   1.61199999      -1.45973234E-10
   1.61399996       6.64180932E-11
   1.61600006       3.06368791E-10
   1.61800003       5.72992820E-10
   1.62000000       8.64743499E-10
   1.62199998       1.17939758E-09
   1.62399995       1.51405122E-09
   1.62600005       1.86513005E-09
   1.62800002       2.22841234E-09
   1.63000000       2.59906630E-09
   1.63199997       2.97169911E-09
   1.63399994       3.34042105E-09
   1.63600004       3.69891873E-09
   1.63800001       4.04054168E-09
   1.63999999       4.35839631E-09
   1.64199996       4.64545113E-09
   1.64400005       4.89464425E-09
   1.64600003       5.09900167E-09
   1.64800000       5.25175325E-09
   1.64999998       5.34645306E-09
   1.65199995       5.37709832E-09
   1.65400004       5.33824762E-09
   1.65600002       5.22513011E-09
   1.65799999       5.03375430E-09
   1.65999997       4.76100581E-09
   1.66199994       4.40473436E-09
   1.66400003       3.96383415E-09
   1.66600001       3.43830719E-09
   1.66799998       2.82931634E-09
   1.66999996       2.13922347E-09
   1.67200005       1.37161249E-09
   1.67400002       5.31296340E-10
   1.67600000      -3.75690784E-10
   1.67799997      -1.34211708E-09
   1.67999995      -2.35959208E-09
   1.68200004      -3.41862183E-09
   1.68400002      -4.50867832E-09
   1.68599999      -5.61828273E-09
   1.68799996      -6.73510092E-09
   1.69000006      -7.84605447E-09
   1.69200003      -8.93743657E-09
   1.69400001      -9.99504657E-09
   1.69599998      -1.10043272E-08
   1.69799995      -1.19505081E-08
   1.70000005      -1.28187638E-08
   1.70200002      -1.35943683E-08
   1.70400000      -1.42628611E-08
   1.70599997      -1.48102064E-08
   1.70799994      -1.52229624E-08
   1.71000004      -1.54884496E-08
   1.71200001      -1.55949156E-08