   0.00000000       0.00000000    
   2.00000009E-03   0.00000000    
   4.00000019E-03   0.00000000    
   6.00000005E-03   0.00000000    
   8.00000038E-03   0.00000000    
   9.99999978E-03   0.00000000    
   1.20000001E-02   0.00000000    
   1.40000004E-02   0.00000000    
   1.60000008E-02   0.00000000    
   1.79999992E-02   0.00000000    
   1.99999996E-02   0.00000000    
   2.19999999E-02   0.00000000    
   2.40000002E-02   0.00000000    
   2.60000005E-02   0.00000000    
   2.80000009E-02   0.00000000    
   2.99999993E-02  -0.00000000    
   3.20000015E-02   0.00000000    
   3.40000018E-02  -1.40129846E-45
   3.59999985E-02  -1.40129846E-45
   3.79999988E-02   2.80259693E-45
   3.99999991E-02   3.22298647E-44
   4.19999994E-02   1.87773994E-43
   4.39999998E-02   5.94150549E-43
   4.60000001E-02   1.47276469E-42
   4.80000004E-02   3.13750726E-42
   5.00000007E-02   6.97846635E-42
   5.20000011E-02   1.36276276E-41
   5.40000014E-02   2.10993510E-41
   5.60000017E-02   1.98760174E-41
   5.79999983E-02  -2.42284504E-41
   5.99999987E-02  -2.06678912E-40
   6.19999990E-02  -7.67835888E-40
   6.40000030E-02  -2.26635504E-39
   6.59999996E-02  -5.92008384E-39
   6.80000037E-02  -1.42596090E-38
   7.00000003E-02  -3.23330899E-38
   7.19999969E-02  -6.98481087E-38
   7.40000010E-02  -1.44888219E-37
   7.59999976E-02  -2.90199271E-37
   7.80000016E-02  -5.63578925E-37
   7.99999982E-02  -1.06472370E-36
   8.20000023E-02  -1.96206179E-36
   8.39999989E-02  -3.53485192E-36
   8.60000029E-02  -6.23836230E-36
   8.79999995E-02  -1.08036418E-35
   9.00000036E-02  -1.83887365E-35
   9.20000002E-02  -3.08060134E-35
   9.39999968E-02  -5.08613217E-35
   9.60000008E-02  -8.28565618E-35
   9.79999974E-02  -1.33329746E-34
  0.100000001      -2.12137540E-34
  0.101999998      -3.34027832E-34
  0.104000002      -5.20906271E-34
  0.105999999      -8.05077622E-34
  0.108000003      -1.23383432E-33
  0.109999999      -1.87588750E-33
  0.112000003      -2.83027265E-33
  0.114000000      -4.23853178E-33
  0.115999997      -6.30113388E-33
  0.118000001      -9.29928512E-33
  0.119999997      -1.36233991E-32
  0.122000001      -1.98095954E-32
  0.123999998      -2.85855335E-32
  0.126000002      -4.09266725E-32
  0.128000006      -5.81234643E-32
  0.129999995      -8.18591814E-32
  0.131999999      -1.14296607E-31
  0.134000003      -1.58169724E-31
  0.136000007      -2.16873747E-31
  0.137999997      -2.94543196E-31
  0.140000001      -3.96103134E-31
  0.142000005      -5.27273022E-31
  0.143999994      -6.94496874E-31
  0.145999998      -9.04766059E-31
  0.148000002      -1.16529576E-30
  0.150000006      -1.48300922E-30
  0.151999995      -1.86378109E-30
  0.153999999      -2.31138940E-30
  0.156000003      -2.82613405E-30
  0.158000007      -3.40308361E-30
  0.159999996      -4.02993995E-30
  0.162000000      -4.68453645E-30
  0.164000005      -5.33202846E-30
  0.165999994      -5.92189453E-30
  0.167999998      -6.38493248E-30
  0.170000002      -6.63052842E-30
  0.172000006      -6.54455972E-30
  0.173999995      -5.98839742E-30
  0.175999999      -4.79958632E-30
  0.178000003      -2.79483656E-30
  0.180000007       2.23933155E-31
  0.181999996       4.45979397E-30
  0.184000000       1.01065288E-29
  0.186000004       1.73293085E-29
  0.187999994       2.62399710E-29
  0.189999998       3.68669153E-29
  0.192000002       4.91200307E-29
  0.194000006       6.27518110E-29
  0.195999995       7.73164757E-29
  0.197999999       9.21299043E-29
  0.200000003       1.06234007E-28
  0.202000007       1.18370435E-28
  0.203999996       1.26969279E-28
  0.206000000       1.30159401E-28
  0.208000004       1.25807365E-28
  0.209999993       1.11592558E-28
  0.211999997       8.51250262E-29
  0.214000002       4.41118786E-29
  0.216000006      -1.34244269E-29
  0.217999995      -8.88753776E-29
  0.219999999      -1.82727551E-28
  0.222000003      -2.94205106E-28
  0.224000007      -4.20889889E-28
  0.225999996      -5.58343221E-28
  0.228000000      -6.99761416E-28
  0.230000004      -8.35705684E-28
  0.231999993      -9.53955087E-28
  0.233999997      -1.03953677E-27
  0.236000001      -1.07499410E-27
  0.238000005      -1.04095040E-27
  0.239999995      -9.17025765E-28
  0.241999999      -6.83150751E-28
  0.244000003      -3.21306624E-28
  0.246000007       1.82306843E-28
  0.247999996       8.34706319E-28
  0.250000000       1.63323693E-27
  0.252000004       2.56248658E-27
  0.254000008       3.59118643E-27
  0.256000012       4.66934242E-27
  0.257999986       5.72590490E-27
  0.259999990       6.66734221E-27
  0.261999995       7.37754043E-27
  0.263999999       7.71946541E-27
  0.266000003       7.53905585E-27
  0.268000007       6.67176877E-27
  0.270000011       4.95213673E-27
  0.272000015       2.22659438E-27
  0.273999989      -1.63035979E-27
  0.275999993      -6.69682434E-27
  0.277999997      -1.29814273E-26
  0.280000001      -2.03993406E-26
  0.282000005      -2.87475705E-26
  0.284000009      -3.76811768E-26
  0.286000013      -4.66925013E-26
  0.287999988      -5.50959438E-26
  0.289999992      -6.20211873E-26
  0.291999996      -6.64180515E-26
  0.294000000      -6.70763682E-26
  0.296000004      -6.26640966E-26
  0.298000008      -5.17867031E-26
  0.300000012      -3.30701554E-26
  0.301999986      -5.26888557E-27
  0.303999990       3.26011714E-26
  0.305999994       8.11062348E-26
  0.307999998       1.40218966E-25
  0.310000002       2.09129762E-25
  0.312000006       2.86054400E-25
  0.314000010       3.68050525E-25
  0.316000015       4.50858068E-25
  0.317999989       5.28782389E-25
  0.319999993       5.94640934E-25
  0.321999997       6.39796122E-25
  0.324000001       6.54298491E-25
  0.326000005       6.27162909E-25
  0.328000009       5.46799380E-25
  0.330000013       4.01614905E-25
  0.331999987       1.80797638E-25
  0.333999991      -1.24716284E-25
  0.335999995      -5.21102384E-25
  0.338000000      -1.01035944E-24
  0.340000004      -1.58891377E-24
  0.342000008      -2.24617631E-24
  0.344000012      -2.96313235E-24
  0.345999986      -3.71106557E-24
  0.347999990      -4.45053511E-24
  0.349999994      -5.13074857E-24
  0.351999998      -5.68947429E-24
  0.354000002      -6.05366455E-24
  0.356000006      -6.14093820E-24
  0.358000010      -5.86208100E-24
  0.360000014      -5.12468814E-24
  0.361999989      -3.83803944E-24
  0.363999993      -1.91925460E-24
  0.365999997       6.99313310E-25
  0.368000001       4.06154109E-24
  0.370000005       8.17808314E-24
  0.372000009       1.30163177E-23
  0.374000013       1.84901549E-23
  0.375999987       2.44502720E-23
  0.377999991       3.06755095E-23
  0.379999995       3.68662248E-23
  0.381999999       4.26405699E-23
  0.384000003       4.75346692E-23
  0.386000007       5.10077461E-23
  0.388000011       5.24532201E-23
  0.389999986       5.12166744E-23
  0.391999990       4.66214555E-23
  0.393999994       3.80024401E-23
  0.395999998       2.47480686E-23
  0.398000002       6.35039892E-24
  0.400000006      -1.75376764E-23
  0.402000010      -4.70395328E-23
  0.404000014      -8.19883775E-23
  0.405999988      -1.21860267E-22
  0.407999992      -1.65710204E-22
  0.409999996      -2.12115913E-22
  0.412000000      -2.59134295E-22
  0.414000005      -3.04276576E-22
  0.416000009      -3.44507826E-22
  0.418000013      -3.76277413E-22
  0.419999987      -3.95586506E-22
  0.421999991      -3.98097558E-22
  0.423999995      -3.79290634E-22
  0.425999999      -3.34669152E-22
  0.428000003      -2.60015749E-22
  0.430000007      -1.51696526E-22
  0.432000011      -7.00829708E-24
  0.433999985       1.75439649E-22
  0.435999990       3.95322332E-22
  0.437999994       6.50190972E-22
  0.439999998       9.35082143E-22
  0.442000002       1.24216891E-21
  0.444000006       1.56048451E-21
  0.446000010       1.87574897E-21
  0.448000014       2.17033553E-21
  0.449999988       2.42340897E-21
  0.451999992       2.61127268E-21
  0.453999996       2.70795082E-21
  0.456000000       2.68603195E-21
  0.458000004       2.51779157E-21
  0.460000008       2.17659229E-21
  0.462000012       1.63855977E-21
  0.463999987       8.84500129E-22
  0.465999991      -9.79827280E-23
  0.467999995      -1.31223722E-21
  0.469999999      -2.75027396E-21
  0.472000003      -4.39054342E-21
  0.474000007      -6.19591883E-21
  0.476000011      -8.11203425E-21
  0.477999985      -1.00661483E-20
  0.479999989      -1.19667129E-20
  0.481999993      -1.37038188E-20
  0.483999997      -1.51507096E-20
  0.486000001      -1.61665019E-20
  0.488000005      -1.66002580E-20
  0.490000010      -1.62964840E-20
  0.492000014      -1.51020885E-20
  0.493999988      -1.28747617E-20
  0.495999992      -9.49266089E-21
  0.497999996      -4.86517263E-21
  0.500000000       1.05555688E-21
  0.501999974       8.26274995E-21
  0.504000008       1.66833218E-20
  0.505999982       2.61670380E-20
  0.508000016       3.64772465E-20
  0.509999990       4.72839832E-20
  0.512000024       5.81603161E-20
  0.513999999       6.85827724E-20
  0.515999973       7.79367634E-20
  0.518000007       8.55277095E-20
  0.519999981       9.05985528E-20
  0.522000015       9.23540821E-20
  0.523999989       8.99923199E-20
  0.526000023       8.27428185E-20
  0.527999997       6.99113925E-20
  0.529999971       5.09304474E-20
  0.532000005       2.54134764E-20
  0.533999979      -6.78811391E-21
  0.536000013      -4.55281760E-20
  0.537999988      -9.03117538E-20
  0.540000021      -1.40247155E-19
  0.541999996      -1.94007600E-19
  0.544000030      -2.49806348E-19
  0.546000004      -3.05389266E-19
  0.547999978      -3.58048799E-19
  0.550000012      -4.04662494E-19
  0.551999986      -4.41759735E-19
  0.554000020      -4.65618623E-19
  0.555999994      -4.72394162E-19
  0.558000028      -4.58278429E-19
  0.560000002      -4.19690169E-19
  0.561999977      -3.53491215E-19
  0.564000010      -2.57224504E-19
  0.565999985      -1.29365994E-19
  0.568000019       3.04184781E-20
  0.569999993       2.21023073E-19
  0.572000027       4.39671673E-19
  0.574000001       6.81722194E-19
  0.575999975       9.40521624E-19
  0.578000009       1.20732842E-18
  0.579999983       1.47131846E-18
  0.582000017       1.71969019E-18
  0.583999991       1.93788296E-18
  0.586000025       2.10991999E-18
  0.588000000       2.21888242E-18
  0.589999974       2.24751590E-18
  0.592000008       2.17896930E-18
  0.593999982       1.99765131E-18
  0.596000016       1.69019076E-18
  0.597999990       1.24647071E-18
  0.600000024       6.60706689E-19
  0.601999998      -6.74776074E-20
  0.603999972      -9.32023377E-19
  0.606000006      -1.91951914E-18
  0.607999980      -3.00845051E-18
  0.610000014      -4.16868547E-18
  0.611999989      -5.36125947E-18
  0.614000022      -6.53852691E-18
  0.615999997      -7.64473291E-18
  0.617999971      -8.61706056E-18
  0.620000005      -9.38718308E-18
  0.621999979      -9.88335331E-18
  0.624000013      -1.00330085E-17
  0.625999987      -9.76589201E-18
  0.628000021      -9.01761202E-18
  0.629999995      -7.73358121E-18
  0.632000029      -5.87319783E-18
  0.634000003      -3.41414869E-18
  0.635999978      -3.56643781E-19
  0.638000011       3.27261064E-18
  0.639999986       7.41692654E-18
  0.642000020       1.19868769E-17
  0.643999994       1.68585116E-17
  0.646000028       2.18727945E-17
  0.648000002       2.68364919E-17
  0.649999976       3.15247300E-17
  0.652000010       3.56853723E-17
  0.653999984       3.90453469E-17
  0.656000018       4.13189719E-17
  0.657999992       4.22182463E-17
  0.660000026       4.14649528E-17
  0.662000000       3.88044355E-17
  0.663999975       3.40205986E-17
  0.666000009       2.69517827E-17
  0.667999983       1.75069038E-17
  0.670000017       5.68126049E-18
  0.671999991      -8.42880831E-18
  0.674000025      -2.46131694E-17
  0.675999999      -4.25379450E-17
  0.677999973      -6.17392455E-17
  0.680000007      -8.16214183E-17
  0.681999981      -1.01460723E-16
  0.684000015      -1.20414945E-16
  0.685999990      -1.37539728E-16
  0.688000023      -1.51811836E-16
  0.689999998      -1.62159508E-16
  0.691999972      -1.67499786E-16
  0.694000006      -1.66782230E-16
  0.695999980      -1.59038231E-16
  0.698000014      -1.43434865E-16
  0.699999988      -1.19331299E-16
  0.702000022      -8.63363941E-17
  0.703999996      -4.43646675E-17
  0.705999970       6.31162961E-18
  0.708000004       6.50171969E-17
  0.709999979       1.30638077E-16
  0.712000012       2.01598778E-16
  0.713999987       2.75854888E-16
  0.716000021       3.50904124E-16
  0.717999995       4.23817700E-16
  0.720000029       4.91294409E-16
  0.722000003       5.49738094E-16
  0.723999977       5.95359077E-16
  0.726000011       6.24299016E-16
  0.727999985       6.32777287E-16
  0.730000019       6.17256414E-16
  0.731999993       5.74622599E-16
  0.734000027       5.02375876E-16
  0.736000001       3.98823849E-16
  0.737999976       2.63271525E-16
  0.740000010       9.61992524E-17
  0.741999984      -1.00580802E-16
  0.744000018      -3.23798408E-16
  0.745999992      -5.68639211E-16
  0.748000026      -8.28708289E-16
  0.750000000      -1.09605100E-15
  0.751999974      -1.36123986E-15
  0.754000008      -1.61353244E-15
  0.755999982      -1.84110446E-15
  0.758000016      -2.03135971E-15
  0.759999990      -2.17131390E-15
  0.762000024      -2.24805149E-15
  0.763999999      -2.24924136E-15
  0.765999973      -2.16370543E-15
  0.768000007      -1.98202194E-15
  0.769999981      -1.69714327E-15
  0.772000015      -1.30501011E-15
  0.773999989      -8.05132610E-16
  0.776000023      -2.01114341E-16
  0.777999997       4.98910188E-16
  0.779999971       1.28195430E-15
  0.782000005       2.13000135E-15
  0.783999979       3.01999772E-15
  0.786000013       3.92403979E-15
  0.787999988       4.80977368E-15
  0.790000021       5.64101878E-15
  0.791999996       6.37862904E-15
  0.794000030       6.98157886E-15
  0.796000004       7.40826959E-15
  0.797999978       7.61803306E-15
  0.800000012       7.57280404E-15
  0.801999986       7.23891213E-15
  0.804000020       6.58894817E-15
  0.805999994       5.60363879E-15
  0.808000028       4.27366111E-15
  0.810000002       2.60132183E-15
  0.811999977       6.02011568E-16
  0.814000010      -1.69463669E-15
  0.815999985      -4.24397727E-15
  0.818000019      -6.98604442E-15
  0.819999993      -9.84578138E-15
  0.822000027      -1.27338580E-14
  0.824000001      -1.55481317E-14
  0.825999975      -1.81757668E-14
  0.828000009      -2.04960289E-14
  0.829999983      -2.23837215E-14
  0.832000017      -2.37132176E-14
  0.833999991      -2.43630274E-14
  0.836000025      -2.42207835E-14
  0.838000000      -2.31885027E-14
  0.839999974      -2.11879871E-14
  0.842000008      -1.81661665E-14
  0.843999982      -1.41001788E-14
  0.846000016      -9.00197224E-15
  0.847999990      -2.92220522E-15
  0.850000024       4.04678927E-15
  0.851999998       1.17691975E-14
  0.853999972       2.00652635E-14
  0.856000006       2.87123773E-14
  0.857999980       3.74478416E-14
  0.860000014       4.59734078E-14
  0.861999989       5.39616332E-14
  0.864000022       6.10640756E-14
  0.865999997       6.69211797E-14
  0.867999971       7.11737120E-14
  0.870000005       7.34756087E-14
  0.871999979       7.35077486E-14
  0.874000013       7.09924876E-14
  0.875999987       6.57083234E-14
  0.878000021       5.75043011E-14
  0.879999995       4.63135864E-14
  0.882000029       3.21656188E-14
  0.884000003       1.51962573E-14
  0.885999978      -4.34468652E-15
  0.888000011      -2.60890095E-14
  0.889999986      -4.95493945E-14
  0.892000020      -7.41227487E-14
  0.893999994      -9.90979624E-14
  0.896000028      -1.23668301E-13
  0.898000002      -1.46948521E-13
  0.899999976      -1.67996585E-13
  0.902000010      -1.85839801E-13
  0.903999984      -1.99504814E-13
  0.906000018      -2.08050943E-13
  0.907999992      -2.10606082E-13
  0.910000026      -2.06403999E-13
  0.912000000      -1.94822091E-13
  0.913999975      -1.75418355E-13
  0.916000009      -1.47965976E-13
  0.917999983      -1.12484342E-13
  0.920000017      -6.92649402E-14
  0.921999991      -1.88906931E-14
  0.924000025       3.77525736E-14
  0.925999999       9.94736994E-14
  0.927999973       1.64783904E-13
  0.930000007       2.31915398E-13
  0.931999981       2.98851194E-13
  0.934000015       3.63366536E-13
  0.935999990       4.23081465E-13
  0.938000023       4.75524026E-13
  0.939999998       5.18202777E-13
  0.941999972       5.48687777E-13
  0.944000006       5.64696944E-13
  0.945999980       5.64186772E-13
  0.948000014       5.45443790E-13
  0.949999988       5.07174272E-13
  0.952000022       4.48589001E-13
  0.953999996       3.69479295E-13
  0.955999970       2.70281790E-13
  0.958000004       1.52127985E-13
  0.959999979       1.68756966E-14
  0.962000012      -1.32880076E-13
  0.963999987      -2.93819656E-13
  0.966000021      -4.61935937E-13
  0.967999995      -6.32597544E-13
  0.970000029      -8.00638473E-13
  0.972000003      -9.60473563E-13
  0.973999977      -1.10623836E-12
  0.976000011      -1.23195041E-12
  0.977999985      -1.33169083E-12
  0.980000019      -1.39979911E-12
  0.981999993      -1.43107759E-12
  0.984000027      -1.42100101E-12
  0.986000001      -1.36592170E-12
  0.987999976      -1.26326662E-12
  0.990000010      -1.11171651E-12
  0.991999984      -9.11362240E-13
  0.994000018      -6.63829018E-13
  0.995999992      -3.72363327E-13
  0.998000026      -4.18759875E-14
   1.00000000       3.21063976E-13
   1.00199997       7.08288029E-13
   1.00399995       1.11014323E-12
   1.00600004       1.51566303E-12
   1.00800002       1.91279479E-12
   1.00999999       2.28867923E-12
   1.01199996       2.62998195E-12
   1.01400006       2.92326363E-12
   1.01600003       3.15538719E-12
   1.01800001       3.31394894E-12
   1.01999998       3.38772109E-12
   1.02199996       3.36709545E-12
   1.02400005       3.24451230E-12
   1.02600002       3.01486136E-12
   1.02800000       2.67583872E-12
   1.02999997       2.22824580E-12
   1.03199995       1.67621776E-12
   1.03400004       1.02736526E-12
   1.03600001       2.92823491E-13
   1.03799999      -5.12804859E-13
   1.03999996      -1.37161571E-12
   1.04200006      -2.26268331E-12
   1.04400003      -3.16245337E-12
   1.04600000      -4.04524678E-12
   1.04799998      -4.88386328E-12
   1.04999995      -5.65027842E-12
   1.05200005      -6.31641701E-12
   1.05400002      -6.85498490E-12
   1.05599999      -7.24033724E-12
   1.05799997      -7.44936144E-12
   1.05999994      -7.46234845E-12
   1.06200004      -7.26382366E-12
   1.06400001      -6.84331281E-12
   1.06599998      -6.19600942E-12
   1.06799996      -5.32332208E-12
   1.07000005      -4.23327692E-12
   1.07200003      -2.94075094E-12
   1.07400000      -1.46751730E-12
   1.07599998       1.57907988E-13
   1.07799995       1.90062809E-12
   1.08000004       3.71994232E-12
   1.08200002       5.57012726E-12
   1.08399999       7.40141889E-12
   1.08599997       9.16117442E-12
   1.08800006       1.07951998E-11
   1.09000003       1.22491938E-11
   1.09200001       1.34703047E-11
   1.09399998       1.44087268E-11
   1.09599996       1.50193157E-11
   1.09800005       1.52631709E-11
   1.10000002       1.51091240E-11
   1.10200000       1.45351110E-11
   1.10399997       1.35293478E-11
   1.10599995       1.20912924E-11
   1.10800004       1.02323393E-11
   1.11000001       7.97620910E-12
   1.11199999       5.35901445E-12
   1.11399996       2.42897521E-12
   1.11600006      -7.54229849E-13
   1.11800003      -4.12046178E-12
   1.12000000      -7.59048466E-12
   1.12199998      -1.10776501E-11
   1.12399995      -1.44898780E-11
   1.12600005      -1.77319062E-11
   1.12800002      -2.07077393E-11
   1.13000000      -2.33232409E-11
   1.13199997      -2.54888177E-11
   1.13399994      -2.71220997E-11
   1.13600004      -2.81505565E-11
   1.13800001      -2.85139638E-11
   1.13999999      -2.81666600E-11
   1.14199996      -2.70794932E-11
   1.14400005      -2.52414062E-11
   1.14600003      -2.26606008E-11
   1.14800000      -1.93652143E-11
   1.14999998      -1.54034945E-11
   1.15199995      -1.08434138E-11
   1.15400004      -5.77173812E-12
   1.15600002      -2.92540325E-13
   1.15799999       5.47481635E-12
   1.15999997       1.13981949E-11
   1.16199994       1.73356485E-11
   1.16400003       2.31387583E-11
   1.16600001       2.86562822E-11
   1.16799998       3.37380124E-11
   1.16999996       3.82387247E-11
   1.17200005       4.20221705E-11
   1.17400002       4.49649346E-11
   1.17600000       4.69600921E-11
   1.17799997       4.79205391E-11
   1.17999995       4.77818965E-11
   1.18200004       4.65049076E-11
   1.18400002       4.40772314E-11
   1.18599999       4.05145778E-11
   1.18799996       3.58611196E-11
   1.19000006       3.01891880E-11
   1.19200003       2.35982050E-11
   1.19400001       1.62128644E-11
   1.19599998       8.18063499E-12
   1.19799995      -3.31399784E-13
   1.20000005      -9.14027621E-12
   1.20200002      -1.80513746E-11
   1.20400000      -2.68630170E-11
   1.20599997      -3.53713274E-11
   1.20799994      -4.33752131E-11
   1.21000004      -5.06813480E-11
   1.21200001      -5.71090050E-11
   1.21399999      -6.24946275E-11
   1.21599996      -6.66959751E-11
   1.21800005      -6.95957944E-11
   1.22000003      -7.11047887E-11
   1.22200000      -7.11639636E-11
   1.22399998      -6.97461672E-11
   1.22599995      -6.68567632E-11
   1.22800004      -6.25335894E-11
   1.23000002      -5.68459481E-11
   1.23199999      -4.98929058E-11
   1.23399997      -4.18008093E-11
   1.23599994      -3.27201287E-11
   1.23800004      -2.28217775E-11
   1.24000001      -1.22929071E-11
   1.24199998      -1.33244696E-12
   1.24399996       9.85357889E-12
   1.24600005       2.10567796E-11
   1.24800003       3.20710264E-11
   1.25000000       4.26968946E-11
   1.25199997       5.27456620E-11
   1.25399995       6.20429333E-11
   1.25600004       7.04316674E-11
   1.25800002       7.77745576E-11
   1.25999999       8.39557798E-11
   1.26199996       8.88820059E-11
   1.26400006       9.24826882E-11
   1.26600003       9.47097886E-11
   1.26800001       9.55367868E-11
   1.26999998       9.49571879E-11
   1.27199996       9.29826702E-11
   1.27400005       8.96408087E-11
   1.27600002       8.49727441E-11
   1.27800000       7.90306778E-11
   1.27999997       7.18755958E-11
   1.28199995       6.35750827E-11
   1.28400004       5.42015773E-11
   1.28600001       4.38310256E-11
   1.28799999       3.25421183E-11
   1.28999996       2.04160491E-11
   1.29200006       7.53695457E-12
   1.29400003      -6.00704859E-12
   1.29600000      -2.01222927E-11
   1.29799998      -3.47074418E-11
   1.29999995      -4.96509778E-11
   1.30200005      -6.48284759E-11
   1.30400002      -8.00997879E-11
   1.30599999      -9.53062559E-11
   1.30799997      -1.10268322E-10
   1.30999994      -1.24783572E-10
   1.31200004      -1.38625528E-10
   1.31400001      -1.51543389E-10
   1.31599998      -1.63262806E-10
   1.31799996      -1.73487960E-10
   1.32000005      -1.81905047E-10
   1.32200003      -1.88187133E-10
   1.32400000      -1.92000540E-10
   1.32599998      -1.93012675E-10
   1.32799995      -1.90901212E-10
   1.33000004      -1.85364460E-10
   1.33200002      -1.76132747E-10
   1.33399999      -1.62980462E-10
   1.33599997      -1.45738588E-10
   1.33800006      -1.24307079E-10
   1.34000003      -9.86669912E-11
   1.34200001      -6.88916701E-11
   1.34399998      -3.51565617E-11
   1.34599996       2.25263037E-12
   1.34800005       4.29341875E-11
   1.35000002       8.63671565E-11
   1.35200000       1.31911204E-10
   1.35399997       1.78809953E-10
   1.35599995       2.26197713E-10
   1.35800004       2.73110118E-10
   1.36000001       3.18498533E-10
   1.36199999       3.61248226E-10
   1.36399996       4.00199984E-10
   1.36600006       4.34175113E-10
   1.36800003       4.62003380E-10
   1.37000000       4.82552887E-10
   1.37199998       4.94761954E-10
   1.37399995       4.97671904E-10
   1.37600005       4.90459617E-10
   1.37800002       4.72469452E-10
   1.38000000       4.43243553E-10
   1.38199997       4.02549133E-10
   1.38399994       3.50402263E-10
   1.38600004       2.87087076E-10
   1.38800001       2.13169399E-10
   1.38999999       1.29504324E-10
   1.39199996       3.72367623E-11
   1.39400005      -6.22051230E-11
   1.39600003      -1.67124425E-10
   1.39800000      -2.75577727E-10
   1.39999998      -3.85404958E-10
   1.40199995      -4.94266961E-10
   1.40400004      -5.99689798E-10
   1.40600002      -6.99115710E-10
   1.40799999      -7.89959209E-10
   1.40999997      -8.69667172E-10
   1.41199994      -9.35782563E-10
   1.41400003      -9.86008719E-10
   1.41600001      -1.01827458E-09
   1.41799998      -1.03079734E-09
   1.41999996      -1.02214215E-09
   1.42200005      -9.91276394E-10
   1.42400002      -9.37616984E-10
   1.42600000      -8.61070215E-10
   1.42799997      -7.62060082E-10
   1.42999995      -6.41547371E-10
   1.43200004      -5.01034936E-10
   1.43400002      -3.42561229E-10
   1.43599999      -1.68679654E-10
   1.43799996       1.75750959E-11
   1.44000006       2.12734524E-10
   1.44200003       4.12956475E-10
   1.44400001       6.14097273E-10
   1.44599998       8.11794576E-10
   1.44799995       1.00155950E-09
   1.45000005       1.17887589E-09
   1.45200002       1.33930467E-09
   1.45400000       1.47859158E-09
   1.45599997       1.59277413E-09
   1.45799994       1.67828706E-09
   1.46000004       1.73206205E-09
   1.46200001       1.75162029E-09
   1.46399999       1.73515380E-09
   1.46599996       1.68159475E-09
   1.46800005       1.59066893E-09
   1.47000003       1.46293289E-09
   1.47200000       1.29979216E-09
   1.47399998       1.10349996E-09
   1.47599995       8.77135475E-10
   1.47800004       6.24561514E-10
   1.48000002       3.50361795E-10
   1.48199999       5.97591629E-11
   1.48399997      -2.41484888E-10
   1.48599994      -5.47186352E-10
   1.48800004      -8.50869042E-10
   1.49000001      -1.14590626E-09
   1.49199998      -1.42567014E-09
   1.49399996      -1.68368597E-09
   1.49600005      -1.91378646E-09
   1.49800003      -2.11026507E-09
   1.50000000      -2.26801977E-09
   1.50199997      -2.38268938E-09
   1.50399995      -2.45077292E-09
   1.50600004      -2.46973375E-09
   1.50800002      -2.43808129E-09
   1.50999999      -2.35543074E-09
   1.51199996      -2.22253616E-09
   1.51400006      -2.04129846E-09
   1.51600003      -1.81474435E-09
   1.51800001      -1.54697766E-09
   1.51999998      -1.24310429E-09
   1.52199996      -9.09129605E-10
   1.52400005      -5.51833190E-10
   1.52600002      -1.78621132E-10
   1.52800000       2.02639461E-10
   1.52999997       5.83800785E-10
   1.53199995       9.56624113E-10
   1.53400004       1.31297540E-09
   1.53600001       1.64502223E-09
   1.53799999       1.94542515E-09
   1.53999996       2.20752061E-09
   1.54200006       2.42548892E-09
   1.54400003       2.59450350E-09
   1.54600000       2.71085687E-09
   1.54799998       2.77206080E-09
   1.54999995       2.77691448E-09
   1.55200005       2.72554201E-09
   1.55400002       2.61939537E-09
   1.55599999       2.46122367E-09
   1.55799997       2.25500640E-09
   1.55999994       2.00585615E-09
   1.56200004       1.71988757E-09
   1.56400001       1.40406120E-09
   1.56599998       1.06600040E-09
   1.56799996       7.13791193E-10
   1.57000005       3.55766194E-10
   1.57200003       2.80189202E-13
   1.57400000      -3.44516166E-10
   1.57599998      -6.70899614E-10
   1.57799995      -9.71787095E-10
   1.58000004      -1.24093158E-09
   1.58200002      -1.47309698E-09
   1.58399999      -1.66420444E-09
   1.58599997      -1.81144633E-09
   1.58800006      -1.91336436E-09
   1.59000003      -1.96988692E-09
   1.59200001      -1.98232741E-09
   1.59399998      -1.95333816E-09
   1.59599996      -1.88682336E-09
   1.59800005      -1.78781223E-09
   1.60000002      -1.66229408E-09
   1.60200000      -1.51701995E-09
   1.60399997      -1.35927658E-09
   1.60599995      -1.19663668E-09
   1.60800004      -1.03669517E-09
   1.61000001      -8.86797025E-10
   1.61199999      -7.53765161E-10
   1.61399996      -6.43637144E-10
   1.61600006      -5.61418689E-10
   1.61800003      -5.10862519E-10
   1.62000000      -4.94280394E-10
   1.62199998      -5.12394460E-10
   1.62399995      -5.64235492E-10
   1.62600005      -6.47092213E-10
   1.62800002      -7.56515850E-10
   1.63000000      -8.86382467E-10
   1.63199997      -1.02901232E-09
   1.63399994      -1.17534860E-09
   1.63600004      -1.31518918E-09
   1.63800001      -1.43747014E-09
   1.63999999      -1.53059332E-09
   1.64199996      -1.58279112E-09
   1.64400005      -1.58251978E-09
   1.64600003      -1.51887170E-09
   1.64800000      -1.38199308E-09
   1.64999998      -1.16349941E-09
   1.65199995      -8.56872684E-10
   1.65400004      -4.57830107E-10
   1.65600002       3.53475131E-11
   1.65799999       6.21540541E-10
   1.65999997       1.29657873E-09
   1.66199994       2.05310102E-09
   1.66400003       2.88049606E-09
   1.66600001       3.76492837E-09
   1.66799998       4.68945682E-09
   1.66999996       5.63424374E-09
   1.67200005       6.57685506E-09
   1.67400002       7.49265094E-09
   1.67600000       8.35525871E-09
   1.67799997       9.13712128E-09
   1.67999995       9.81011272E-09
   1.68200004       1.03462003E-08
   1.68400002       1.07181570E-08
   1.68599999       1.09002851E-08
   1.68799996       1.08691545E-08
   1.69000006       1.06043245E-08
   1.69200003       1.00890407E-08
   1.69400001       9.31087563E-09
   1.69599998       8.26231261E-09
   1.69799995       6.94124092E-09
   1.70000005       5.35135447E-09
   1.70200002       3.50244034E-09
   1.70400000       1.41053802E-09
   1.70599997      -9.02026509E-10
   1.70799994      -3.40674777E-09
   1.71000004      -6.06919315E-09
   1.71200001      -8.84938878E-09