  -1.99999996E-02   0.00000000    
  -1.79999992E-02   0.00000000    
  -1.60000008E-02   0.00000000    
  -1.40000004E-02   0.00000000    
  -1.20000001E-02   0.00000000    
  -9.99999978E-03   0.00000000    
  -8.00000038E-03   0.00000000    
  -6.00000005E-03   0.00000000    
  -4.00000019E-03   0.00000000    
  -2.00000009E-03   0.00000000    
   0.00000000       0.00000000    
   2.00000009E-03   0.00000000    
   4.00000019E-03   0.00000000    
   6.00000005E-03   0.00000000    
   8.00000038E-03   0.00000000    
   9.99999978E-03   0.00000000    
   1.20000001E-02   0.00000000    
   1.40000004E-02   0.00000000    
   1.60000008E-02   0.00000000    
   1.79999992E-02   0.00000000    
   1.99999996E-02   0.00000000    
   2.19999999E-02   0.00000000    
   2.40000002E-02   0.00000000    
   2.60000005E-02   0.00000000    
   2.80000009E-02   0.00000000    
   2.99999993E-02   0.00000000    
   3.20000015E-02   0.00000000    
   3.40000018E-02   0.00000000    
   3.59999985E-02  -0.00000000    
   3.79999988E-02  -4.63699667E-38
   3.99999991E-02  -1.17774854E-37
   4.19999994E-02  -2.87185605E-37
   4.39999998E-02  -6.77181720E-37
   4.60000001E-02  -1.28755294E-36
   4.80000004E-02  -2.35211566E-36
   5.00000007E-02  -4.57628976E-36
   5.20000011E-02  -8.46509040E-36
   5.40000014E-02  -1.46272622E-35
   5.60000017E-02  -2.73704418E-35
   5.79999983E-02  -4.92690492E-35
   5.99999987E-02  -8.24496674E-35
   6.19999990E-02  -1.39272100E-34
   6.40000030E-02  -2.34513603E-34
   6.59999996E-02  -3.81735660E-34
   6.80000037E-02  -6.07633280E-34
   7.00000003E-02  -9.54715665E-34
   7.19999969E-02  -1.48384654E-33
   7.40000010E-02  -2.28109987E-33
   7.59999976E-02  -3.45630677E-33
   7.80000016E-02  -5.16266503E-33
   7.99999982E-02  -7.60610011E-33
   8.20000023E-02  -1.10439230E-32
   8.39999989E-02  -1.58043173E-32
   8.60000029E-02  -2.22891993E-32
   8.79999995E-02  -3.09674642E-32
   9.00000036E-02  -4.23672056E-32
   9.20000002E-02  -5.70416627E-32
   9.39999968E-02  -7.55221266E-32
   9.60000008E-02  -9.82358454E-32
   9.79999974E-02  -1.25371527E-31
  0.100000001      -1.56693068E-31
  0.101999998      -1.91276840E-31
  0.104000002      -2.27162708E-31
  0.105999999      -2.60911410E-31
  0.108000003      -2.87043307E-31
  0.109999999      -2.97360645E-31
  0.112000003      -2.80153500E-31
  0.114000000      -2.19305868E-31
  0.115999997      -9.33372255E-32
  0.118000001       1.25581282E-31
  0.119999997       4.72541347E-31
  0.122000001       9.90645419E-31
  0.123999998       1.73143303E-30
  0.126000002       2.75480656E-30
  0.128000006       4.12822632E-30
  0.129999995       5.92494066E-30
  0.131999999       8.22096061E-30
  0.134000003       1.10904676E-29
  0.136000007       1.45994006E-29
  0.137999997       1.87969288E-29
  0.140000001       2.37046316E-29
  0.142000005       2.93032949E-29
  0.143999994       3.55173500E-29
  0.145999998       4.21972394E-29
  0.148000002       4.91001425E-29
  0.150000006       5.58699337E-29
  0.151999995       6.20174058E-29
  0.153999999       6.69023104E-29
  0.156000003       6.97190913E-29
  0.158000007       6.94885274E-29
  0.159999996       6.50579436E-29
  0.162000000       5.51127965E-29
  0.164000005       3.82027163E-29
  0.165999994       1.27850181E-29
  0.167999998      -2.27115665E-29
  0.170000002      -6.98003655E-29
  0.172000006      -1.29825842E-28
  0.173999995      -2.03827738E-28
  0.175999999      -2.92380480E-28
  0.178000003      -3.95410968E-28
  0.180000007      -5.11997931E-28
  0.181999996      -6.40160047E-28
  0.184000000      -7.76641458E-28
  0.186000004      -9.16706157E-28
  0.187999994      -1.05395428E-27
  0.189999998      -1.18017771E-27
  0.192000002      -1.28527118E-27
  0.194000006      -1.35722065E-27
  0.195999995      -1.38218754E-27
  0.197999999      -1.34471087E-27
  0.200000003      -1.22804641E-27
  0.202000007      -1.01466213E-27
  0.203999996      -6.86903907E-28
  0.206000000      -2.27843122E-28
  0.208000004       3.77685695E-28
  0.209999993       1.14186008E-27
  0.211999997       2.07246452E-27
  0.214000002       3.17132002E-27
  0.216000006       4.43257707E-27
  0.217999995       5.84090911E-27
  0.219999999       7.36965182E-27
  0.222000003       8.97896196E-27
  0.224000007       1.06140580E-26
  0.225999996       1.22036566E-26
  0.228000000       1.36587075E-26
  0.230000004       1.48715611E-26
  0.231999993       1.57157255E-26
  0.233999997       1.60464015E-26
  0.236000001       1.57020021E-26
  0.238000005       1.45068485E-26
  0.239999995       1.22753575E-26
  0.241999999       8.81791570E-27
  0.244000003       3.94875805E-27
  0.246000007      -2.50389420E-27
  0.247999996      -1.06852319E-26
  0.250000000      -2.06985715E-26
  0.252000004      -3.25873078E-26
  0.254000008      -4.63141562E-26
  0.256000012      -6.17378815E-26
  0.257999986      -7.85879627E-26
  0.259999990      -9.64379930E-26
  0.261999995      -1.14678830E-25
  0.263999999      -1.32493109E-25
  0.266000003      -1.48832994E-25
  0.268000007      -1.62403842E-25
  0.270000011      -1.71656503E-25
  0.272000015      -1.74791917E-25
  0.273999989      -1.69781997E-25
  0.275999993      -1.54410611E-25
  0.277999997      -1.26339550E-25
  0.280000001      -8.32031133E-26
  0.282000005      -2.27351839E-26
  0.284000009       5.70681700E-26
  0.286000013       1.57749156E-25
  0.287999988       2.80152660E-25
  0.289999992       4.24156802E-25
  0.291999996       5.88376541E-25
  0.294000000       7.69848569E-25
  0.296000004       9.63713404E-25
  0.298000008       1.16291193E-24
  0.300000012       1.35791982E-24
  0.301999986       1.53654909E-24
  0.303999990       1.68384786E-24
  0.305999994       1.78213717E-24
  0.307999998       1.81122188E-24
  0.310000002       1.74881647E-24
  0.312000006       1.57122465E-24
  0.314000010       1.25430570E-24
  0.316000015       7.74755974E-25
  0.317999989       1.11718075E-25
  0.319999993      -7.51281297E-25
  0.321999997      -1.82408682E-24
  0.324000001      -3.10740889E-24
  0.326000005      -4.59013272E-24
  0.328000009      -6.24654972E-24
  0.330000013      -8.03364981E-24
  0.331999987      -9.88866017E-24
  0.333999991      -1.17270374E-23
  0.335999995      -1.34411643E-23
  0.338000000      -1.49000174E-23
  0.340000004      -1.59501017E-23
  0.342000008      -1.64179388E-23
  0.344000012      -1.61143930E-23
  0.345999986      -1.48410832E-23
  0.347999990      -1.23990814E-23
  0.349999994      -8.60000461E-24
  0.351999998      -3.27951192E-24
  0.354000002       3.68692682E-24
  0.356000006       1.23662893E-23
  0.358000010       2.27487511E-23
  0.360000014       3.47276765E-23
  0.361999989       4.80797090E-23
  0.363999993       6.24461851E-23
  0.365999997       7.73171850E-23
  0.368000001       9.20198925E-23
  0.370000005       1.05712896E-22
  0.372000009       1.17388422E-22
  0.374000013       1.25884278E-22
  0.375999987       1.29907380E-22
  0.377999991       1.28070495E-22
  0.379999995       1.18943475E-22
  0.381999999       1.01119902E-22
  0.384000003       7.32991883E-23
  0.386000007       3.43836858E-23
  0.388000011      -1.64109369E-23
  0.389999986      -7.94346013E-23
  0.391999990      -1.54475033E-22
  0.393999994      -2.40628526E-22
  0.395999998      -3.36175940E-22
  0.398000002      -4.38471812E-22
  0.400000006      -5.43855450E-22
  0.402000010      -6.47594925E-22
  0.404000014      -7.43873771E-22
  0.405999988      -8.25832254E-22
  0.407999992      -8.85673652E-22
  0.409999996      -9.14845804E-22
  0.412000000      -9.04304703E-22
  0.414000005      -8.44869373E-22
  0.416000009      -7.27665898E-22
  0.418000013      -5.44662184E-22
  0.419999987      -2.89285013E-22
  0.421999991       4.28937248E-23
  0.423999995       4.53420335E-22
  0.425999999       9.40199616E-22
  0.428000003       1.49674606E-21
  0.430000007       2.11148797E-21
  0.432000011       2.76717057E-21
  0.433999985       3.44041461E-21
  0.435999990       4.10148581E-21
  0.437999994       4.71433657E-21
  0.439999998       5.23697941E-21
  0.442000002       5.62224888E-21
  0.444000006       5.81899791E-21
  0.446000010       5.77376510E-21
  0.448000014       5.43294084E-21
  0.449999988       4.74542128E-21
  0.451999992       3.66573651E-21
  0.453999996       2.15758935E-21
  0.456000000       1.97725462E-22
  0.458000004      -2.21999363E-21
  0.460000008      -5.08046981E-21
  0.462000012      -8.34339925E-21
  0.463999987      -1.19396873E-20
  0.465999991      -1.57685085E-20
  0.467999995      -1.96952932E-20
  0.469999999      -2.35509581E-20
  0.472000003      -2.71326582E-20
  0.474000007      -3.02063806E-20
  0.476000011      -3.25116231E-20
  0.477999985      -3.37683948E-20
  0.479999989      -3.36866332E-20
  0.481999993      -3.19781627E-20
  0.483999997      -2.83711092E-20
  0.486000001      -2.26265256E-20
  0.488000005      -1.45569910E-20
  0.490000010      -4.04658654E-21
  0.492000014       8.92837751E-21
  0.493999988       2.42787785E-20
  0.495999992       4.17832321E-20
  0.497999996       6.10709967E-20
  0.500000000       8.16084695E-20
  0.501999974       1.02690809E-19
  0.504000008       1.23439943E-19
  0.505999982       1.42810536E-19
  0.508000016       1.59605120E-19
  0.509999990       1.72499586E-19
  0.512000024       1.80079882E-19
  0.513999999       1.80890493E-19
  0.515999973       1.73494581E-19
  0.518000007       1.56545443E-19
  0.519999981       1.28868019E-19
  0.522000015       8.95486344E-20
  0.523999989       3.80303234E-20
  0.526000023      -2.57895948E-20
  0.527999997      -1.01463971E-19
  0.529999971      -1.87907130E-19
  0.532000005      -2.83318588E-19
  0.533999979      -3.85125005E-19
  0.536000013      -4.89947090E-19
  0.537999988      -5.93597164E-19
  0.540000021      -6.91114055E-19
  0.541999996      -7.76840572E-19
  0.544000030      -8.44547890E-19
  0.546000004      -8.87610809E-19
  0.547999978      -8.99234661E-19
  0.550000012      -8.72732932E-19
  0.551999986      -8.01854152E-19
  0.554000020      -6.81150147E-19
  0.555999994      -5.06377120E-19
  0.558000028      -2.74918569E-19
  0.560000002       1.37873673E-20
  0.561999977       3.57833163E-19
  0.564000010       7.52462060E-19
  0.565999985       1.18974628E-18
  0.568000019       1.65834927E-18
  0.569999993       2.14339764E-18
  0.572000027       2.62648952E-18
  0.574000001       3.08586304E-18
  0.575999975       3.49674557E-18
  0.578000009       3.83190509E-18
  0.579999983       4.06241055E-18
  0.582000017       4.15860503E-18
  0.583999991       4.09129032E-18
  0.586000025       3.83310574E-18
  0.588000000       3.36007010E-18
  0.589999974       2.65325378E-18
  0.592000008       1.70052586E-18
  0.593999982       4.98312523E-19
  0.596000016      -9.46710899E-19
  0.597999990      -2.61607821E-18
  0.600000024      -4.47823755E-18
  0.601999998      -6.48760112E-18
  0.603999972      -8.58404778E-18
  0.606000006      -1.06929679E-17
  0.607999980      -1.27259570E-17
  0.610000014      -1.45822247E-17
  0.611999989      -1.61507875E-17
  0.614000022      -1.73134924E-17
  0.615999997      -1.79488565E-17
  0.617999971      -1.79367333E-17
  0.620000005      -1.71636883E-17
  0.621999979      -1.55290388E-17
  0.624000013      -1.29513472E-17
  0.625999987      -9.37519475E-18
  0.628000021      -4.77799043E-18
  0.629999995       8.23483425E-19
  0.632000029       7.36710628E-18
  0.634000003       1.47403966E-17
  0.635999978       2.27767772E-17
  0.638000011       3.12535438E-17
  0.639999986       3.98918471E-17
  0.642000020       4.83590929E-17
  0.643999994       5.62739375E-17
  0.646000028       6.32142541E-17
  0.648000002       6.87280350E-17
  0.649999976       7.23473670E-17
  0.652000010       7.36053830E-17
  0.653999984       7.20558157E-17
  0.656000018       6.72949611E-17
  0.657999992       5.89853363E-17
  0.660000026       4.68804050E-17
  0.662000000       3.08494693E-17
  0.663999975       1.09017359E-17
  0.666000009      -1.27916095E-17
  0.667999983      -3.98784766E-17
  0.670000017      -6.98114761E-17
  0.671999991      -1.01839241E-16
  0.674000025      -1.35004823E-16
  0.675999999      -1.68152226E-16
  0.677999973      -1.99942167E-16
  0.680000007      -2.28877646E-16
  0.681999981      -2.53340090E-16
  0.684000015      -2.71635896E-16
  0.685999990      -2.82053236E-16
  0.688000023      -2.82928169E-16
  0.689999998      -2.72719251E-16
  0.691999972      -2.50088172E-16
  0.694000006      -2.13984663E-16
  0.695999980      -1.63732686E-16
  0.698000014      -9.91143692E-17
  0.699999988      -2.04484011E-17
  0.702000022       7.13413500E-17
  0.703999996       1.74671243E-16
  0.705999970       2.87261324E-16
  0.708000004       4.06121223E-16
  0.709999979       5.27562083E-16
  0.712000012       6.47237833E-16
  0.713999987       7.60218635E-16
  0.716000021       8.61098406E-16
  0.717999995       9.44136169E-16
  0.720000029       1.00343144E-15
  0.722000003       1.03313159E-15
  0.723999977       1.02766664E-15
  0.726000011       9.82006906E-16
  0.727999985       8.91937023E-16
  0.730000019       7.54336838E-16
  0.731999993       5.67459612E-16
  0.734000027       3.31196553E-16
  0.736000001       4.73157733E-17
  0.737999976      -2.80338524E-16
  0.740000010      -6.45698510E-16
  0.741999984      -1.04039045E-15
  0.744000018      -1.45372887E-15
  0.745999992      -1.87279980E-15
  0.748000026      -2.28263987E-15
  0.750000000      -2.66651859E-15
  0.751999974      -3.00632703E-15
  0.754000008      -3.28307239E-15
  0.755999982      -3.47747280E-15
  0.758000016      -3.57064494E-15
  0.759999990      -3.54486867E-15
  0.762000024      -3.38441247E-15
  0.763999999      -3.07639359E-15
  0.765999973      -2.61164525E-15
  0.768000007      -1.98556360E-15
  0.769999981      -1.19889308E-15
  0.772000015      -2.58417761E-16
  0.773999989       8.22483180E-16
  0.776000023       2.02345054E-15
  0.777999997       3.31697086E-15
  0.779999971       4.66844326E-15
  0.782000005       6.03651964E-15
  0.783999979       7.37373775E-15
  0.786000013       8.62745832E-15
  0.787999988       9.74112030E-15
  0.790000021       1.06557914E-14
  0.791999996       1.13120149E-14
  0.794000030       1.16519013E-14
  0.796000004       1.16214326E-14
  0.797999978       1.11729143E-14
  0.800000012       1.02675098E-14
  0.801999986       8.87776503E-15
  0.804000020       6.99003818E-15
  0.805999994       4.60673691E-15
  0.808000028       1.74824519E-15
  0.810000002      -1.54555476E-15
  0.811999977      -5.21427723E-15
  0.814000010      -9.17663298E-15
  0.815999985      -1.33307400E-14
  0.818000019      -1.75552000E-14
  0.819999993      -2.17110045E-14
  0.822000027      -2.56442986E-14
  0.824000001      -2.91899988E-14
  0.825999975      -3.21762440E-14
  0.828000009      -3.44296193E-14
  0.829999983      -3.57810637E-14
  0.832000017      -3.60722872E-14
  0.833999991      -3.51626111E-14
  0.836000025      -3.29359580E-14
  0.838000000      -2.93078075E-14
  0.839999974      -2.42318694E-14
  0.842000008      -1.77061565E-14
  0.843999982      -9.77826947E-15
  0.846000016      -5.49521995E-16
  0.847999990       9.82230248E-15
  0.850000024       2.11218541E-14
  0.851999998       3.30769415E-14
  0.853999972       4.53613553E-14
  0.856000006       5.75998599E-14
  0.857999980       6.93753391E-14
  0.860000014       8.02383062E-14
  0.861999989       8.97184752E-14
  0.864000022       9.73383903E-14
  0.865999997       1.02628707E-13
  0.867999971       1.05145012E-13
  0.870000005       1.04485478E-13
  0.871999979       1.00309111E-13
  0.874000013       9.23538589E-14
  0.875999987       8.04540083E-14
  0.878000021       6.45562569E-14
  0.879999995       4.47336531E-14
  0.882000029       2.11968386E-14
  0.884000003      -5.69813421E-15
  0.885999978      -3.54460385E-14
  0.888000011      -6.73932549E-14
  0.889999986      -1.00743571E-13
  0.892000020      -1.34569276E-13
  0.893999994      -1.67827856E-13
  0.896000028      -1.99384061E-13
  0.898000002      -2.28037424E-13
  0.899999976      -2.52554515E-13
  0.902000010      -2.71705916E-13
  0.903999984      -2.84306324E-13
  0.906000018      -2.89257713E-13
  0.907999992      -2.85593543E-13
  0.910000026      -2.72523350E-13
  0.912000000      -2.49475977E-13
  0.913999975      -2.16139931E-13
  0.916000009      -1.72499330E-13
  0.917999983      -1.18863673E-13
  0.920000017      -5.58903272E-14
  0.921999991       1.54023658E-14
  0.924000025       9.36320045E-14
  0.925999999       1.77060515E-13
  0.927999973       2.63614705E-13
  0.930000007       3.50919299E-13
  0.931999981       4.36342938E-13
  0.934000015       5.17056396E-13
  0.935999990       5.90102565E-13
  0.938000023       6.52476933E-13
  0.939999998       7.01216808E-13
  0.941999972       7.33497789E-13
  0.944000006       7.46734326E-13
  0.945999980       7.38682065E-13
  0.948000014       7.07538628E-13
  0.949999988       6.52040000E-13
  0.952000022       5.71548126E-13
  0.953999996       4.66127408E-13
  0.955999970       3.36606150E-13
  0.958000004       1.84619274E-13
  0.959999979       1.26303099E-14
  0.962000012      -1.76069893E-13
  0.963999987      -3.77390962E-13
  0.966000021      -5.86496400E-13
  0.967999995      -7.97885629E-13
  0.970000029      -1.00550211E-12
  0.972000003      -1.20286788E-12
  0.973999977      -1.38324226E-12
  0.976000011      -1.53980149E-12
  0.977999985      -1.66583566E-12
  0.980000019      -1.75495892E-12
  0.981999993      -1.80132591E-12
  0.984000027      -1.79985052E-12
  0.986000001      -1.74641866E-12
  0.987999976      -1.63809016E-12
  0.990000010      -1.47328016E-12
  0.991999984      -1.25191643E-12
  0.994000018      -9.75561971E-13
  0.995999992      -6.47500499E-13
  0.998000026      -2.72777000E-13
   1.00000000       1.41810622E-13
   1.00199997       5.87771422E-13
   1.00399995       1.05503572E-12
   1.00600004       1.53212447E-12
   1.00800002       2.00637141E-12
   1.00999999       2.46419768E-12
   1.01199996       2.89143102E-12
   1.01400006       3.27366780E-12
   1.01600003       3.59666528E-12
   1.01800001       3.84675972E-12
   1.01999998       4.01129694E-12
   1.02199996       4.07906217E-12
   1.02400005       4.04070397E-12
   1.02600002       3.88912817E-12
   1.02800000       3.61985897E-12
   1.02999997       3.23135095E-12
   1.03199995       2.72523540E-12
   1.03400004       2.10649814E-12
   1.03600001       1.38356980E-12
   1.03799999       5.68331406E-13
   1.03999996      -3.23980480E-13
   1.04200006      -1.27496744E-12
   1.04400003      -2.26336289E-12
   1.04600000      -3.26542569E-12
   1.04799998      -4.25542414E-12
   1.04999995      -5.20620656E-12
   1.05200005      -6.08984998E-12
   1.05400002      -6.87836116E-12
   1.05599999      -7.54443036E-12
   1.05799997      -8.06220889E-12
   1.05999994      -8.40809020E-12
   1.06200004      -8.56148225E-12
   1.06400001      -8.50553655E-12
   1.06599998      -8.22782380E-12
   1.06799996      -7.72092459E-12
   1.07000005      -6.98292379E-12
   1.07200003      -6.01778176E-12
   1.07400000      -4.83556988E-12
   1.07599998      -3.45255725E-12
   1.07799995      -1.89114197E-12
   1.08000004      -1.79609149E-13
   1.08200002       1.64827212E-12
   1.08399999       3.55381848E-12
   1.08599997       5.49415895E-12
   1.08800006       7.42310727E-12
   1.09000003       9.29216513E-12
   1.09200001       1.10516301E-11
   1.09399998       1.26517911E-11
   1.09599996       1.40441790E-11
   1.09800005       1.51828480E-11
   1.10000002       1.60256409E-11
   1.10200000       1.65354362E-11
   1.10399997       1.66812970E-11
   1.10599995       1.64395355E-11
   1.10800004       1.57946364E-11
   1.11000001       1.47400078E-11
   1.11199999       1.32785510E-11
   1.11399996       1.14230170E-11
   1.11600006       9.19613084E-12
   1.11800003       6.63048089E-12
   1.12000000       3.76815940E-12
   1.12199998       6.60162409E-13
   1.12399995      -2.63444800E-12
   1.12600005      -6.04960569E-12
   1.12800002      -9.51350457E-12
   1.13000000      -1.29500508E-11
   1.13199997      -1.62804561E-11
   1.13399994      -1.94249391E-11
   1.13600004      -2.23045298E-11
   1.13800001      -2.48428778E-11
   1.13999999      -2.69680788E-11
   1.14199996      -2.86144355E-11
   1.14400005      -2.97241398E-11
   1.14600003      -3.02488104E-11
   1.14800000      -3.01508679E-11
   1.14999998      -2.94046974E-11
   1.15199995      -2.79975782E-11
   1.15400004      -2.59303481E-11
   1.15600002      -2.32177923E-11
   1.15799999      -1.98887417E-11
   1.15999997      -1.59858585E-11
   1.16199994      -1.15651533E-11
   1.16400003      -6.69518043E-12
   1.16600001      -1.45598518E-12
   1.16799998       4.06221671E-12
   1.16999996       9.76058297E-12
   1.17200005       1.55333819E-11
   1.17400002       2.12698956E-11
   1.17600000       2.68564285E-11
   1.17799997       3.21784266E-11
   1.17999995       3.71226001E-11
   1.18200004       4.15790874E-11
   1.18400002       4.54435517E-11
   1.18599999       4.86191712E-11
   1.18799996       5.10185887E-11
   1.19000006       5.25656255E-11
   1.19200003       5.31968948E-11
   1.19400001       5.28631548E-11
   1.19599998       5.15304847E-11
   1.19799995       4.91811834E-11
   1.20000005       4.58144529E-11
   1.20200002       4.14468321E-11
   1.20400000       3.61123458E-11
   1.20599997       2.98624597E-11
   1.20799994       2.27657164E-11
   1.21000004       1.49071883E-11
   1.21200001       6.38767945E-12
   1.21399999      -2.67728157E-12
   1.21599996      -1.21586534E-11
   1.21800005      -2.19153150E-11
   1.22000003      -3.17956494E-11
   1.22200000      -4.16393066E-11
   1.22399998      -5.12791407E-11
   1.22599995      -6.05432579E-11
   1.22800004      -6.92572874E-11
   1.23000002      -7.72467021E-11
   1.23199999      -8.43392717E-11
   1.23399997      -9.03676439E-11
   1.23599994      -9.51719953E-11
   1.23800004      -9.86028065E-11
   1.24000001      -1.00523624E-10
   1.24199998      -1.00813899E-10
   1.24399996      -9.93717816E-11
   1.24600005      -9.61169477E-11
   1.24800003      -9.09932893E-11
   1.25000000      -8.39714825E-11
   1.25199997      -7.50514095E-11
   1.25399995      -6.42643716E-11
   1.25600004      -5.16748935E-11
   1.25800002      -3.73822535E-11
   1.25999999      -2.15215606E-11
   1.26199996      -4.26428988E-12
   1.26400006       1.41817608E-11
   1.26600003       3.35731339E-11
   1.26800001       5.36321126E-11
   1.26999998       7.40488573E-11
   1.27199996       9.44843787E-11
   1.27400005       1.14574322E-10
   1.27600002       1.33933600E-10
   1.27800000       1.52161839E-10
   1.27999997       1.68849684E-10
   1.28199995       1.83585744E-10
   1.28400004       1.95964397E-10
   1.28600001       2.05593972E-10
   1.28799999       2.12105514E-10
   1.28999996       2.15161763E-10
   1.29200006       2.14466375E-10
   1.29400003       2.09772921E-10
   1.29600000       2.00893760E-10
   1.29799998       1.87708363E-10
   1.29999995       1.70170780E-10
   1.30200005       1.48316429E-10
   1.30400002       1.22267460E-10
   1.30599999       9.22366697E-11
   1.30799997       5.85300211E-11
   1.30999994       2.15471894E-11
   1.31200004      -1.82198701E-11
   1.31400001      -6.01903805E-11
   1.31599998      -1.03700395E-10
   1.31799996      -1.48010659E-10
   1.32000005      -1.92316746E-10
   1.32200003      -2.35761161E-10
   1.32400000      -2.77447648E-10
   1.32599998      -3.16457055E-10
   1.32799995      -3.51865148E-10
   1.33000004      -3.82761323E-10
   1.33200002      -4.08268641E-10
   1.33399999      -4.27564151E-10
   1.33599997      -4.39899395E-10
   1.33800006      -4.44620757E-10
   1.34000003      -4.41188863E-10
   1.34200001      -4.29196734E-10
   1.34399998      -4.08386075E-10
   1.34599996      -3.78661491E-10
   1.34800005      -3.40101697E-10
   1.35000002      -2.92967872E-10
   1.35200000      -2.37708409E-10
   1.35399997      -1.74959838E-10
   1.35599995      -1.05543768E-10
   1.35800004      -3.04594856E-11
   1.36000001       4.91274035E-11
   1.36199999       1.31900754E-10
   1.36399996       2.16413637E-10
   1.36600006       3.01111941E-10
   1.36800003       3.84361515E-10
   1.37000000       4.64478372E-10
   1.37199998       5.39761125E-10
   1.37399995       6.08525785E-10
   1.37600005       6.69141353E-10
   1.37800002       7.20066229E-10
   1.38000000       7.59883878E-10
   1.38199997       7.87337917E-10
   1.38399994       8.01364530E-10
   1.38600004       8.01122779E-10
   1.38800001       7.86021082E-10
   1.38999999       7.55739082E-10
   1.39199996       7.10245085E-10
   1.39400005       6.49807597E-10
   1.39600003       5.75001158E-10
   1.39800000       4.86705509E-10
   1.39999998       3.86098181E-10
   1.40199995       2.74641115E-10
   1.40400004       1.54059793E-10
   1.40600002       2.63168654E-11
   1.40799999      -1.06420518E-10
   1.40999997      -2.41818732E-10
   1.41199994      -3.77420345E-10
   1.41400003      -5.10690601E-10
   1.41600001      -6.39067022E-10
   1.41799998      -7.60010554E-10
   1.41999996      -8.71058337E-10
   1.42200005      -9.69875402E-10
   1.42400002      -1.05430553E-09
   1.42600000      -1.12241882E-09
   1.42799997      -1.17255672E-09
   1.42999995      -1.20337096E-09
   1.43200004      -1.21385735E-09
   1.43400002      -1.20338317E-09
   1.43599999      -1.17170706E-09
   1.43799996      -1.11899046E-09
   1.44000006      -1.04580111E-09
   1.44200003      -9.53108370E-10
   1.44400001      -8.42268921E-10
   1.44599998      -7.15005333E-10
   1.44799995      -5.73375236E-10
   1.45000005      -4.19733664E-10
   1.45200002      -2.56688726E-10
   1.45400000      -8.70512204E-11
   1.45599997       8.62207181E-11
   1.45799994       2.60080291E-10
   1.46000004       4.31453456E-10
   1.46200001       5.97300764E-10
   1.46399999       7.54679319E-10
   1.46599996       9.00802710E-10
   1.46800005       1.03309816E-09
   1.47000003       1.14925836E-09
   1.47200000       1.24728883E-09
   1.47399998       1.32554734E-09
   1.47599995       1.38277667E-09
   1.47800004       1.41812784E-09
   1.48000002       1.43117573E-09
   1.48199999       1.42192402E-09
   1.48399997       1.39080092E-09
   1.48599994       1.33864597E-09
   1.48800004       1.26668775E-09
   1.49000001       1.17651189E-09
   1.49199998       1.07002307E-09
   1.49399996       9.49397894E-10
   1.49600005       8.17034274E-10
   1.49800003       6.75494383E-10
   1.50000000       5.27445365E-10
   1.50199997       3.75597969E-10
   1.50399995       2.22645014E-10
   1.50600004       7.12009757E-11
   1.50800002      -7.62560640E-11
   1.50999999      -2.17438151E-10
   1.51199996      -3.50295598E-10
   1.51400006      -4.73059092E-10
   1.51600003      -5.84273852E-10
   1.51800001      -6.82825740E-10
   1.51999998      -7.67958364E-10
   1.52199996      -8.39280312E-10
   1.52400005      -8.96763386E-10
   1.52600002      -9.40731049E-10
   1.52800000      -9.71837277E-10
   1.52999997      -9.91037807E-10
   1.53199995      -9.99551997E-10
   1.53400004      -9.98819027E-10
   1.53600001      -9.90446947E-10
   1.53799999      -9.76158265E-10
   1.53999996      -9.57731672E-10
   1.54200006      -9.36941857E-10
   1.54400003      -9.15500065E-10
   1.54600000      -8.94994689E-10
   1.54799998      -8.76835937E-10
   1.54999995      -8.62204419E-10
   1.55200005      -8.52005300E-10
   1.55400002      -8.46829828E-10
   1.55599999      -8.46924642E-10
   1.55799997      -8.52170778E-10
   1.55999994      -8.62071692E-10
   1.56200004      -8.75752360E-10
   1.56400001      -8.91968055E-10
   1.56599998      -9.09124276E-10
   1.56799996      -9.25307220E-10
   1.57000005      -9.38323308E-10
   1.57200003      -9.45748591E-10
   1.57400000      -9.44986533E-10
   1.57599998      -9.33332078E-10
   1.57799995      -9.08042197E-10
   1.58000004      -8.66410832E-10
   1.58200002      -8.05846057E-10
   1.58399999      -7.23949067E-10
   1.58599997      -6.18591955E-10
   1.58800006      -4.87993479E-10
   1.59000003      -3.30790756E-10
   1.59200001      -1.46105072E-10
   1.59399998       6.63996427E-11
   1.59599996       3.06466935E-10
   1.59800005       5.73208259E-10
   1.60000002       8.65074457E-10
   1.60200000       1.17983934E-09
   1.60399997       1.51459623E-09
   1.60599995       1.86576843E-09
   1.60800004       2.22913177E-09
   1.61000001       2.59985167E-09
   1.61199999       2.97253400E-09
   1.61399996       3.34128636E-09
   1.61600006       3.69979491E-09
   1.61800003       4.04140765E-09
   1.62000000       4.35923075E-09
   1.62199998       4.64623229E-09
   1.62399995       4.89535212E-09
   1.62600005       5.09961717E-09
   1.62800002       5.25225818E-09
   1.63000000       5.34683231E-09
   1.63199997       5.37733946E-09
   1.63399994       5.33834044E-09
   1.63600004       5.22506882E-09
   1.63800001       5.03353670E-09
   1.63999999       4.76063322E-09
   1.64199996       4.40421211E-09
   1.64400005       3.96317201E-09
   1.64600003       3.43751894E-09
   1.64800000       2.82841994E-09
   1.64999998       2.13823981E-09
   1.65199995       1.37056566E-09
   1.65400004       5.30212763E-10
   1.65600002      -3.76782411E-10
   1.65799999      -1.34318667E-09
   1.65999997      -2.36060926E-09
   1.66199994      -3.41955664E-09
   1.66400003      -4.50950211E-09
   1.66600001      -5.61896840E-09
   1.66799998      -6.73562406E-09
   1.66999996      -7.84639287E-09
   1.67200005      -8.93757512E-09
   1.67400002      -9.99497196E-09
   1.67600000      -1.10040306E-08
   1.67799997      -1.19499886E-08
   1.67999995      -1.28180258E-08
   1.68200004      -1.35934233E-08
   1.68400002      -1.42617242E-08
   1.68599999      -1.48088990E-08
   1.68799996      -1.52215129E-08
   1.69000006      -1.54868900E-08
   1.69200003      -1.55932831E-08