  -1.99999996E-02   0.00000000    
  -1.79999992E-02   0.00000000    
  -1.60000008E-02   0.00000000    
  -1.40000004E-02   0.00000000    
  -1.20000001E-02   0.00000000    
  -9.99999978E-03   0.00000000    
  -8.00000038E-03   0.00000000    
  -6.00000005E-03   0.00000000    
  -4.00000019E-03   0.00000000    
  -2.00000009E-03   0.00000000    
   0.00000000       0.00000000    
   2.00000009E-03   0.00000000    
   4.00000019E-03   0.00000000    
   6.00000005E-03   0.00000000    
   8.00000038E-03   0.00000000    
   9.99999978E-03   3.16706597E-38
   1.20000001E-02   1.86303034E-37
   1.40000004E-02   1.30981614E-36
   1.60000008E-02   5.88848305E-36
   1.79999992E-02   2.10468949E-35
   1.99999996E-02   6.88000313E-35
   2.19999999E-02   2.06353947E-34
   2.40000002E-02   5.71212194E-34
   2.60000005E-02   1.49197444E-33
   2.80000009E-02   3.71958114E-33
   2.99999993E-02   8.87725546E-33
   3.20000015E-02   2.03619793E-32
   3.40000018E-02   4.50241872E-32
   3.59999985E-02   9.61967683E-32
   3.79999988E-02   1.99029367E-31
   3.99999991E-02   3.99542348E-31
   4.19999994E-02   7.79550332E-31
   4.39999998E-02   1.48056419E-30
   4.60000001E-02   2.74095303E-30
   4.80000004E-02   4.95207483E-30
   5.00000007E-02   8.74061939E-30
   5.20000011E-02   1.50858032E-29
   5.40000014E-02   2.54809379E-29
   5.60000017E-02   4.21485646E-29
   5.79999983E-02   6.83158527E-29
   5.99999987E-02   1.08550828E-28
   6.19999990E-02   1.69148517E-28
   6.40000030E-02   2.58536210E-28
   6.59999996E-02   3.87636879E-28
   6.80000037E-02   5.70083738E-28
   7.00000003E-02   8.22115167E-28
   7.19999969E-02   1.16189129E-27
   7.40000010E-02   1.60785905E-27
   7.59999976E-02   2.17564390E-27
   7.80000016E-02   2.87277122E-27
   7.99999982E-02   3.69030210E-27
   8.20000023E-02   4.59023524E-27
   8.39999989E-02   5.48725906E-27
   8.60000029E-02   6.22318810E-27
   8.79999995E-02   6.53217967E-27
   9.00000036E-02   5.99464415E-27
   9.20000002E-02   3.97772172E-27
   9.39999968E-02  -4.39681621E-28
   9.60000008E-02  -8.55896364E-27
   9.79999974E-02  -2.21718987E-26
  0.100000001      -4.36884050E-26
  0.101999998      -7.62801378E-26
  0.104000002      -1.24035361E-25
  0.105999999      -1.92117447E-25
  0.108000003      -2.86915540E-25
  0.109999999      -4.16170325E-25
  0.112000003      -5.89052742E-25
  0.114000000      -8.16166586E-25
  0.115999997      -1.10943741E-24
  0.118000001      -1.48184563E-24
  0.119999997      -1.94694993E-24
  0.122000001      -2.51814301E-24
  0.123999998      -3.20757825E-24
  0.126000002      -4.02469734E-24
  0.128000006      -4.97429694E-24
  0.129999995      -6.05407081E-24
  0.131999999      -7.25158178E-24
  0.134000003      -8.54064124E-24
  0.136000007      -9.87708048E-24
  0.137999997      -1.11939781E-23
  0.140000001      -1.23964127E-23
  0.142000005      -1.33559074E-23
  0.143999994      -1.39047873E-23
  0.145999998      -1.38307701E-23
  0.148000002      -1.28721810E-23
  0.150000006      -1.07143143E-23
  0.151999995      -6.98753742E-24
  0.153999999      -1.26784650E-24
  0.156000003       6.91934039E-24
  0.158000007       1.80912674E-23
  0.159999996       3.27949326E-23
  0.162000000       5.15883036E-23
  0.164000005       7.50147714E-23
  0.165999994       1.03570078E-22
  0.167999998       1.37661289E-22
  0.170000002       1.77557431E-22
  0.172000006       2.23331823E-22
  0.173999995       2.74796730E-22
  0.175999999       3.31431415E-22
  0.178000003       3.92305148E-22
  0.180000007       4.55997701E-22
  0.181999996       5.20520566E-22
  0.184000000       5.83242808E-22
  0.186000004       6.40826423E-22
  0.187999994       6.89176958E-22
  0.189999998       7.23415439E-22
  0.192000002       7.37879084E-22
  0.194000006       7.26157646E-22
  0.195999995       6.81173440E-22
  0.197999999       5.95311699E-22
  0.200000003       4.60608587E-22
  0.202000007       2.69003260E-22
  0.203999996       1.26580960E-23
  0.206000000      -3.15652152E-22
  0.208000004      -7.22079702E-22
  0.209999993      -1.21117437E-21
  0.211999997      -1.78530032E-21
  0.214000002      -2.44399438E-21
  0.216000006      -3.18329796E-21
  0.217999995      -3.99507799E-21
  0.219999999      -4.86635403E-21
  0.222000003      -5.77868053E-21
  0.224000007      -6.70761001E-21
  0.225999996      -7.62228274E-21
  0.228000000      -8.48519126E-21
  0.230000004      -9.25217752E-21
  0.231999993      -9.87270434E-21
  0.233999997      -1.02904717E-20
  0.236000001      -1.04444186E-20
  0.238000005      -1.02702002E-20
  0.239999995      -9.70212742E-21
  0.241999999      -8.67567302E-21
  0.244000003      -7.13052145E-21
  0.246000007      -5.01421782E-21
  0.247999996      -2.28638578E-21
  0.250000000       1.07655446E-21
  0.252000004       5.07616993E-21
  0.254000008       9.68645138E-21
  0.256000012       1.48480665E-20
  0.257999986       2.04625630E-20
  0.259999990       2.63868677E-20
  0.261999995       3.24283138E-20
  0.263999999       3.83406066E-20
  0.266000003       4.38212242E-20
  0.268000007       4.85107050E-20
  0.270000011       5.19943696E-20
  0.272000015       5.38071133E-20
  0.273999989       5.34419357E-20
  0.275999993       5.03627850E-20
  0.277999997       4.40225490E-20
  0.280000001       3.38866849E-20
  0.282000005       1.94627666E-20
  0.284000009       3.36608513E-22
  0.286000013      -2.37848757E-20
  0.287999988      -5.30245552E-20
  0.289999992      -8.72798008E-20
  0.291999996      -1.26162324E-19
  0.294000000      -1.68934528E-19
  0.296000004      -2.14443821E-19
  0.298000008      -2.61058822E-19
  0.300000012      -3.06609616E-19
  0.301999986      -3.48337259E-19
  0.303999990      -3.82857005E-19
  0.305999994      -4.06141209E-19
  0.307999998      -4.13528190E-19
  0.310000002      -3.99763982E-19
  0.312000006      -3.59084325E-19
  0.314000010      -2.85345000E-19
  0.316000015      -1.72206596E-19
  0.317999989      -1.33802571E-20
  0.319999993       1.97059664E-19
  0.321999997       4.64292549E-19
  0.324000001       7.92297889E-19
  0.326000005       1.18333160E-18
  0.328000009       1.63733837E-18
  0.330000013       2.15131273E-18
  0.331999987       2.71862317E-18
  0.333999991       3.32831526E-18
  0.335999995       3.96443224E-18
  0.338000000       4.60538141E-18
  0.340000004       5.22338377E-18
  0.342000008       5.78406167E-18
  0.344000012       6.24621865E-18
  0.345999986       6.56186250E-18
  0.347999990       6.67653620E-18
  0.349999994       6.53002597E-18
  0.351999998       6.05749987E-18
  0.354000002       5.19113282E-18
  0.356000006       3.86228371E-18
  0.358000010       2.00423836E-18
  0.360000014      -4.44447659E-19
  0.361999989      -3.53601307E-18
  0.363999993      -7.30898692E-18
  0.365999997      -1.17831746E-17
  0.368000001      -1.69542495E-17
  0.370000005      -2.27880483E-17
  0.372000009      -2.92147884E-17
  0.374000013      -3.61234141E-17
  0.375999987      -4.33563310E-17
  0.377999991      -5.07048944E-17
  0.379999995      -5.79058920E-17
  0.381999999      -6.46395459E-17
  0.384000003      -7.05293299E-17
  0.386000007      -7.51440912E-17
  0.388000011      -7.80028604E-17
  0.389999986      -7.85827074E-17
  0.391999990      -7.63301292E-17
  0.393999994      -7.06760122E-17
  0.395999998      -6.10545981E-17
  0.398000002      -4.69263697E-17
  0.400000006      -2.78047730E-17
  0.402000010      -3.28660716E-18
  0.404000014       2.69144736E-17
  0.405999988       6.29320135E-17
  0.407999992       1.04709214E-16
  0.409999996       1.51961112E-16
  0.412000000       2.04137680E-16
  0.414000005       2.60389813E-16
  0.416000009       3.19539553E-16
  0.418000013       3.80057384E-16
  0.419999987       4.40048042E-16
  0.421999991       4.97247462E-16
  0.423999995       5.49033257E-16
  0.425999999       5.92450260E-16
  0.428000003       6.24254388E-16
  0.430000007       6.40974925E-16
  0.432000011       6.38997632E-16
  0.433999985       6.14669046E-16
  0.435999990       5.64421834E-16
  0.437999994       4.84920221E-16
  0.439999998       3.73224607E-16
  0.442000002       2.26971425E-16
  0.444000006       4.45654738E-17
  0.446000010      -1.74620911E-16
  0.448000014      -4.30047706E-16
  0.449999988      -7.19813204E-16
  0.451999992      -1.04047452E-15
  0.453999996      -1.38689194E-15
  0.456000000      -1.75210703E-15
  0.458000004      -2.12726311E-15
  0.460000008      -2.50158158E-15
  0.462000012      -2.86240110E-15
  0.463999987      -3.19529076E-15
  0.465999991      -3.48424462E-15
  0.467999995      -3.71196646E-15
  0.469999999      -3.86024466E-15
  0.472000003      -3.91042459E-15
  0.474000007      -3.84397231E-15
  0.476000011      -3.64313148E-15
  0.477999985      -3.29165177E-15
  0.479999989      -2.77559293E-15
  0.481999993      -2.08417158E-15
  0.483999997      -1.21063740E-15
  0.486000001      -1.53148943E-16
  0.488000005       1.08438068E-15
  0.490000010       2.49150358E-15
  0.492000014       4.05055856E-15
  0.493999988       5.73613338E-15
  0.495999992       7.51471114E-15
  0.497999996       9.34453100E-15
  0.500000000       1.11757171E-14
  0.501999974       1.29506933E-14
  0.504000008       1.46049215E-14
  0.505999982       1.60679880E-14
  0.508000016       1.72650421E-14
  0.509999990       1.81185955E-14
  0.512000024       1.85506738E-14
  0.513999999       1.84852913E-14
  0.515999973       1.78512075E-14
  0.518000007       1.65849339E-14
  0.519999981       1.46338969E-14
  0.522000015       1.19596758E-14
  0.523999989       8.54124138E-15
  0.526000023       4.37804818E-15
  0.527999997      -5.07114867E-16
  0.529999971      -6.06565206E-15
  0.532000005      -1.22212116E-14
  0.533999979      -1.88683772E-14
  0.536000013      -2.58721436E-14
  0.537999988      -3.30682950E-14
  0.540000021      -4.02647716E-14
  0.541999996      -4.72441639E-14
  0.544000030      -5.37673001E-14
  0.546000004      -5.95780681E-14
  0.547999978      -6.44093543E-14
  0.550000012      -6.79901285E-14
  0.551999986      -7.00535346E-14
  0.554000020      -7.03458830E-14
  0.555999994      -6.86362994E-14
  0.558000028      -6.47268426E-14
  0.560000002      -5.84628239E-14
  0.561999977      -4.97429721E-14
  0.564000010      -3.85290690E-14
  0.565999985      -2.48547520E-14
  0.568000019      -8.83302644E-15
  0.569999993       9.33789280E-15
  0.572000027       2.93707963E-14
  0.574000001       5.08881064E-14
  0.575999975       7.34233095E-14
  0.578000009       9.64253769E-14
  0.579999983       1.19266427E-13
  0.582000017       1.41252773E-13
  0.583999991       1.61639352E-13
  0.586000025       1.79647299E-13
  0.588000000       1.94484850E-13
  0.589999974       2.05370795E-13
  0.592000008       2.11560194E-13
  0.593999982       2.12371855E-13
  0.596000016       2.07216744E-13
  0.597999990       1.95626433E-13
  0.600000024       1.77280784E-13
  0.601999998       1.52033889E-13
  0.603999972       1.19937087E-13
  0.606000006       8.12580187E-14
  0.607999980       3.64947330E-14
  0.610000014      -1.36161376E-14
  0.611999989      -6.80981828E-14
  0.614000022      -1.25741662E-13
  0.615999997      -1.85118129E-13
  0.617999971      -2.44603871E-13
  0.620000005      -3.02411958E-13
  0.621999979      -3.56633072E-13
  0.624000013      -4.05284421E-13
  0.625999987      -4.46366170E-13
  0.628000021      -4.77924178E-13
  0.629999995      -4.98117606E-13
  0.632000029      -5.05289658E-13
  0.634000003      -4.98039489E-13
  0.635999978      -4.75293036E-13
  0.638000011      -4.36370314E-13
  0.639999986      -3.81046215E-13
  0.642000020      -3.09602658E-13
  0.643999994      -2.22869344E-13
  0.646000028      -1.22250246E-13
  0.648000002      -9.73387139E-15
  0.649999976       1.12114717E-13
  0.652000010       2.40181844E-13
  0.653999984       3.70854253E-13
  0.656000018       5.00089445E-13
  0.657999992       6.23507431E-13
  0.660000026       7.36503089E-13
  0.662000000       8.34376622E-13
  0.663999975       9.12481353E-13
  0.666000009       9.66383223E-13
  0.667999983       9.92030568E-13
  0.670000017       9.85927269E-13
  0.671999991       9.45305574E-13
  0.674000025       8.68291333E-13
  0.675999999       7.54057407E-13
  0.677999973       6.02956270E-13
  0.680000007       4.16628266E-13
  0.681999981       1.98077842E-13
  0.684000015      -4.82883082E-14
  0.685999990      -3.16664907E-13
  0.688000023      -5.99898332E-13
  0.689999998      -8.89586636E-13
  0.691999972      -1.17623023E-12
  0.694000006      -1.44943443E-12
  0.695999980      -1.69816179E-12
  0.698000014      -1.91102971E-12
  0.699999988      -2.07665200E-12
  0.702000022      -2.18401252E-12
  0.703999996      -2.22286577E-12
  0.705999970      -2.18415390E-12
  0.708000004      -2.06042583E-12
  0.709999979      -1.84624907E-12
  0.712000012      -1.53859575E-12
  0.713999987      -1.13719342E-12
  0.716000021      -6.44821924E-13
  0.717999995      -6.75439996E-14
  0.720000029       5.85146298E-13
  0.722000003       1.30026643E-12
  0.723999977       2.06139251E-12
  0.726000011       2.84881992E-12
  0.727999985       3.63983930E-12
  0.730000019       4.40913582E-12
  0.731999993       5.12930583E-12
  0.734000027       5.77148789E-12
  0.736000001       6.30610364E-12
  0.737999976       6.70368795E-12
  0.740000010       6.93579699E-12
  0.741999984       6.97597665E-12
  0.744000018       6.80075787E-12
  0.745999992       6.39066100E-12
  0.748000026       5.73117638E-12
  0.750000000       4.81369111E-12
  0.751999974       3.63632106E-12
  0.754000008       2.20463578E-12
  0.755999982       5.32221836E-13
  0.758000016      -1.35893293E-12
  0.759999990      -3.43825988E-12
  0.762000024      -5.66666375E-12
  0.763999999      -7.99682542E-12
  0.765999973      -1.03737678E-11
  0.768000007      -1.27356849E-11
  0.769999981      -1.50150430E-11
  0.772000015      -1.71399336E-11
  0.773999989      -1.90356671E-11
  0.776000023      -2.06265872E-11
  0.777999997      -2.18380487E-11
  0.779999971      -2.25985515E-11
  0.782000005      -2.28419679E-11
  0.783999979      -2.25097840E-11
  0.786000013      -2.15533442E-11
  0.787999988      -1.99359921E-11
  0.790000021      -1.76350774E-11
  0.791999996      -1.46437255E-11
  0.794000030      -1.09723463E-11
  0.796000004      -6.64978923E-12
  0.797999978      -1.72410350E-12
  0.800000012       3.73714471E-12
  0.801999986       9.64704618E-12
  0.804000020       1.59000365E-11
  0.805999994       2.23731172E-11
  0.808000028       2.89276155E-11
  0.810000002       3.54114620E-11
  0.811999977       4.16619864E-11
  0.814000010       4.75091702E-11
  0.815999985       5.27792914E-11
  0.818000019       5.72989330E-11
  0.819999993       6.08992370E-11
  0.822000027       6.34203384E-11
  0.824000001       6.47158230E-11
  0.825999975       6.46572032E-11
  0.828000009       6.31381683E-11
  0.829999983       6.00786018E-11
  0.832000017       5.54281898E-11
  0.833999991       4.91695018E-11
  0.836000025       4.13205234E-11
  0.838000000       3.19364257E-11
  0.839999974       2.11105872E-11
  0.842000008       8.97474976E-12
  0.843999982      -4.30168488E-12
  0.846000016      -1.85133072E-11
  0.847999990      -3.34212658E-11
  0.850000024      -4.87567105E-11
  0.851999998      -6.42251252E-11
  0.853999972      -7.95114252E-11
  0.856000006      -9.42857528E-11
  0.857999980      -1.08209913E-10
  0.860000014      -1.20944199E-10
  0.861999989      -1.32154648E-10
  0.864000022      -1.41520323E-10
  0.865999997      -1.48740742E-10
  0.867999971      -1.53543095E-10
  0.870000005      -1.55689045E-10
  0.871999979      -1.54981167E-10
  0.874000013      -1.51268637E-10
  0.875999987      -1.44452131E-10
  0.878000021      -1.34487851E-10
  0.879999995      -1.21390412E-10
  0.882000029      -1.05234717E-10
  0.884000003      -8.61565819E-11
  0.885999978      -6.43521347E-11
  0.888000011      -4.00760397E-11
  0.889999986      -1.36385018E-11
  0.892000020       1.45988811E-11
  0.893999994       4.42282946E-11
  0.896000028       7.48018730E-11
  0.898000002       1.05838671E-10
  0.899999976       1.36832323E-10
  0.902000010       1.67259193E-10
  0.903999984       1.96586969E-10
  0.906000018       2.24283300E-10
  0.907999992       2.49824522E-10
  0.910000026       2.72704220E-10
  0.912000000       2.92441349E-10
  0.913999975       3.08588044E-10
  0.916000009       3.20736659E-10
  0.917999983       3.28526178E-10
  0.920000017       3.31647876E-10
  0.921999991       3.29850036E-10
  0.924000025       3.22941757E-10
  0.925999999       3.10795889E-10
  0.927999973       2.93351371E-10
  0.930000007       2.70614225E-10
  0.931999981       2.42658338E-10
  0.934000015       2.09625067E-10
  0.935999990       1.71722664E-10
  0.938000023       1.29224950E-10
  0.939999998       8.24696769E-11
  0.941999972       3.18566562E-11
  0.944000006      -2.21544918E-11
  0.945999980      -7.90465957E-11
  0.948000014      -1.38247414E-10
  0.949999988      -1.99132141E-10
  0.952000022      -2.61026062E-10
  0.953999996      -3.23207239E-10
  0.955999970      -3.84909632E-10
  0.958000004      -4.45326304E-10
  0.959999979      -5.03613151E-10
  0.962000012      -5.58893154E-10
  0.963999987      -6.10261397E-10
  0.966000021      -6.56791177E-10
  0.967999995      -6.97540803E-10
  0.970000029      -7.31562033E-10
  0.972000003      -7.57909902E-10
  0.973999977      -7.75653930E-10
  0.976000011      -7.83890952E-10
  0.977999985      -7.81759990E-10
  0.980000019      -7.68458353E-10
  0.981999993      -7.43259954E-10
  0.984000027      -7.05534353E-10
  0.986000001      -6.54767685E-10
  0.987999976      -5.90584026E-10
  0.990000010      -5.12767995E-10
  0.991999984      -4.21286644E-10
  0.994000018      -3.16311449E-10
  0.995999992      -1.98239314E-10
  0.998000026      -6.77111561E-11
   1.00000000       7.43713216E-11
   1.00199997       2.26831998E-10
   1.00399995       3.88211047E-10
   1.00600004       5.56759971E-10
   1.00800002       7.30442318E-10
   1.00999999       9.06940023E-10
   1.01199996       1.08366660E-09
   1.01400006       1.25778754E-09
   1.01600003       1.42624745E-09
   1.01800001       1.58580549E-09
   1.01999998       1.73307790E-09
   1.02199996       1.86458760E-09
   1.02400005       1.97682160E-09
   1.02600002       2.06629447E-09
   1.02800000       2.12961648E-09
   1.02999997       2.16356821E-09
   1.03199995       2.16517604E-09
   1.03400004       2.13179252E-09
   1.03600001       2.06117434E-09
   1.03799999       1.95156047E-09
   1.03999996       1.80174686E-09
   1.04200006       1.61115610E-09
   1.04400003       1.37989997E-09
   1.04600000       1.10883269E-09
   1.04799998       7.99594169E-10
   1.04999995       4.54639298E-10
   1.05200005       7.72548692E-11
   1.05400002      -3.28440691E-10
   1.05599999      -7.57514440E-10
   1.05799997      -1.20425248E-09
   1.05999994      -1.66221248E-09
   1.06200004      -2.12429407E-09
   1.06400001      -2.58282928E-09
   1.06599998      -3.02968695E-09
   1.06799996      -3.45639584E-09
   1.07000005      -3.85428356E-09
   1.07200003      -4.21462509E-09
   1.07400000      -4.52880444E-09
   1.07599998      -4.78848516E-09
   1.07799995      -4.98578023E-09
   1.08000004      -5.11343012E-09
   1.08200002      -5.16497600E-09
   1.08399999      -5.13492626E-09
   1.08599997      -5.01891373E-09
   1.08800006      -4.81384399E-09
   1.09000003      -4.51802107E-09
   1.09200001      -4.13125534E-09
   1.09399998      -3.65494923E-09
   1.09599996      -3.09215520E-09
   1.09800005      -2.44760545E-09
   1.10000002      -1.72771097E-09
   1.10200000      -9.40527656E-10
   1.10399997      -9.56919405E-11
   1.10599995       7.95678801E-10
   1.10800004       1.72111703E-09
   1.11000001       2.66696798E-09
   1.11199999       3.61858055E-09
   1.11399996       4.56052529E-09
   1.11600006       5.47683499E-09
   1.11800003       6.35126707E-09
   1.12000000       7.16757631E-09
   1.12199998       7.90980526E-09
   1.12399995       8.56257198E-09
   1.12600005       9.11136055E-09
   1.12800002       9.54281099E-09
   1.13000000       9.84498705E-09
   1.13199997       1.00076329E-08
   1.13399994       1.00224122E-08
   1.13600004       9.88311211E-09
   1.13800001       9.58581836E-09
   1.13999999       9.12905129E-09
   1.14199996       8.51387227E-09
   1.14400005       7.74393616E-09
   1.14600003       6.82550905E-09
   1.14800000       5.76743231E-09
   1.14999998       4.58105287E-09
   1.15199995       3.28009730E-09
   1.15400004       1.88051130E-09
   1.15600002       4.00255079E-10
   1.15799999      -1.14093979E-09
   1.15999997      -2.72184297E-09
   1.16199994      -4.32003144E-09
   1.16400003      -5.91221738E-09
   1.16600001      -7.47459161E-09
   1.16799998      -8.98318930E-09
   1.16999996      -1.04142499E-08
   1.17200005      -1.17445840E-08
   1.17400002      -1.29519346E-08
   1.17600000      -1.40153249E-08
   1.17799997      -1.49153880E-08
   1.17999995      -1.56346740E-08
   1.18200004      -1.61579337E-08
   1.18400002      -1.64723630E-08
   1.18599999      -1.65678209E-08
   1.18799996      -1.64369993E-08
   1.19000006      -1.60755622E-08
   1.19200003      -1.54822413E-08
   1.19400001      -1.46588803E-08
   1.19599998      -1.36104443E-08
   1.19799995      -1.23449961E-08
   1.20000005      -1.08736176E-08
   1.20200002      -9.21029919E-09
   1.20400000      -7.37179784E-09
   1.20599997      -5.37745670E-09
   1.20799994      -3.24899729E-09
   1.21000004      -1.01028463E-09
   1.21200001       1.31292821E-09
   1.21399999       3.69327413E-09
   1.21599996       6.10206907E-09
   1.21800005       8.50961346E-09
   1.22000003       1.08855058E-08
   1.22200000       1.31989690E-08
   1.22399998       1.54191717E-08
   1.22599995       1.75155570E-08
   1.22800004       1.94581666E-08
   1.23000002       2.12179732E-08
   1.23199999       2.27671979E-08
   1.23399997       2.40796325E-08
   1.23599994       2.51309480E-08
   1.23800004       2.58990003E-08
   1.24000001       2.63641287E-08
   1.24199998       2.65094364E-08
   1.24399996       2.63210751E-08
   1.24600005       2.57885002E-08
   1.24800003       2.49047218E-08
   1.25000000       2.36665230E-08
   1.25199997       2.20746834E-08
   1.25399995       2.01341521E-08
   1.25600004       1.78542017E-08
   1.25800002       1.52485597E-08
   1.25999999       1.23354846E-08
   1.26199996       9.13780962E-09
   1.26400006       5.68295633E-09
   1.26600003       2.00286232E-09
   1.26800001      -1.86611726E-09
   1.26999998      -5.88338445E-09
   1.27199996      -1.00043360E-08
   1.27400005      -1.41806646E-08
   1.27600002      -1.83607280E-08
   1.27800000      -2.24900045E-08
   1.27999997      -2.65116107E-08
   1.28199995      -3.03668877E-08
   1.28400004      -3.39960700E-08
   1.28600001      -3.73390066E-08
   1.28799999      -4.03359586E-08
   1.28999996      -4.29284235E-08
   1.29200006      -4.50600339E-08
   1.29400003      -4.66774672E-08
   1.29600000      -4.77313975E-08
   1.29799998      -4.81774194E-08
   1.29999995      -4.79770215E-08
   1.30200005      -4.70984460E-08
   1.30400002      -4.55176306E-08
   1.30599999      -4.32189822E-08
   1.30799997      -4.01961238E-08
   1.30999994      -3.64525512E-08
   1.31200004      -3.20021769E-08
   1.31400001      -2.68697278E-08
   1.31599998      -2.10910311E-08
   1.31799996      -1.47131187E-08
   1.32000005      -7.79418663E-09
   1.32200003      -4.03372086E-10
   1.32400000       7.37966355E-09
   1.32599998       1.54653037E-08
   1.32799995       2.37547617E-08
   1.33000004       3.21410312E-08
   1.33200002       4.05100309E-08
   1.33399999       4.87418959E-08
   1.33599997       5.67124303E-08
   1.33800006       6.42946958E-08
   1.34000003       7.13607378E-08
   1.34200001       7.77833833E-08
   1.34399998       8.34381240E-08
   1.34599996       8.82050415E-08
   1.34800005       9.19707688E-08
   1.35000002       9.46304084E-08
   1.35200000       9.60894653E-08
   1.35399997       9.62656017E-08
   1.35599995       9.50904280E-08
   1.35800004       9.25110228E-08
   1.36000001       8.84914257E-08
   1.36199999       8.30138234E-08
   1.36399996       7.60795942E-08
   1.36600006       6.77100900E-08
   1.36800003       5.79471831E-08
   1.37000000       4.68535291E-08
   1.37199998       3.45125457E-08
   1.37399995       2.10281161E-08
   1.37600005       6.52400711E-09
   1.37800002      -8.85702978E-09
   1.38000000      -2.49544048E-08
   1.38199997      -4.15911359E-08
   1.38399994      -5.85755622E-08
   1.38600004      -7.57032836E-08
   1.38800001      -9.27593220E-08
   1.38999999      -1.09520492E-07
   1.39199996      -1.25757936E-07
   1.39400005      -1.41239809E-07
   1.39600003      -1.55734028E-07
   1.39800000      -1.69011159E-07
   1.39999998      -1.80847294E-07
   1.40199995      -1.91026956E-07
   1.40400004      -1.99345948E-07
   1.40600002      -2.05614128E-07
   1.40799999      -2.09658111E-07
   1.40999997      -2.11323794E-07
   1.41199994      -2.10478774E-07
   1.41400003      -2.07014466E-07
   1.41600001      -2.00848120E-07
   1.41799998      -1.91924457E-07
   1.41999996      -1.80217100E-07
   1.42200005      -1.65729787E-07
   1.42400002      -1.48497151E-07
   1.42600000      -1.28585228E-07
   1.42799997      -1.06091697E-07
   1.42999995      -8.11457923E-08
   1.43200004      -5.39078222E-08
   1.43400002      -2.45684308E-08
   1.43599999       6.65248212E-09
   1.43799996       3.95071140E-08
   1.44000006       7.37213526E-08
   1.44200003       1.08996744E-07
   1.44400001       1.45012720E-07
   1.44599998       1.81428874E-07
   1.44799995       2.17887688E-07
   1.45000005       2.54017266E-07
   1.45200002       2.89434354E-07
   1.45400000       3.23747344E-07
   1.45599997       3.56559582E-07
   1.45799994       3.87472710E-07
   1.46000004       4.16089961E-07
   1.46200001       4.42019541E-07
   1.46399999       4.64878212E-07
   1.46599996       4.84294503E-07
   1.46800005       4.99912346E-07
   1.47000003       5.11394148E-07
   1.47200000       5.18424429E-07
   1.47399998       5.20712774E-07
   1.47599995       5.17997023E-07
   1.47800004       5.10046164E-07
   1.48000002       4.96663290E-07
   1.48199999       4.77688388E-07
   1.48399997       4.53000808E-07
   1.48599994       4.22521509E-07
   1.48800004       3.86215504E-07
   1.49000001       3.44093820E-07
   1.49199998       2.96215234E-07
   1.49399996       2.42687861E-07
   1.49600005       1.83670650E-07
   1.49800003       1.19374363E-07
   1.50000000       5.00625958E-08
   1.50199997      -2.39477504E-08
   1.50399995      -1.02286165E-07
   1.50600004      -1.84528460E-07
   1.50800002      -2.70197091E-07
   1.50999999      -3.58761866E-07
   1.51199996      -4.49641078E-07
   1.51400006      -5.42202599E-07
   1.51600003      -6.35766014E-07
   1.51800001      -7.29604665E-07
   1.51999998      -8.22948437E-07
   1.52199996      -9.14986913E-07
   1.52400005      -1.00487296E-06
   1.52600002      -1.09172674E-06
   1.52800000      -1.17464083E-06
   1.52999997      -1.25268446E-06
   1.53199995      -1.32491004E-06
   1.53400004      -1.39035922E-06
   1.53600001      -1.44806916E-06
   1.53799999      -1.49708023E-06
   1.53999996      -1.53644351E-06
   1.54200006      -1.56522901E-06
   1.54400003      -1.58253420E-06
   1.54600000      -1.58749322E-06
   1.54799998      -1.57928582E-06
   1.54999995      -1.55714758E-06
   1.55200005      -1.52037956E-06
   1.55400002      -1.46835771E-06
   1.55599999      -1.40054362E-06
   1.55799997      -1.31649426E-06
   1.55999994      -1.21587220E-06
   1.56200004      -1.09845496E-06
   1.56400001      -9.64144192E-07
   1.56599998      -8.12975145E-07
   1.56799996      -6.45124601E-07
   1.57000005      -4.60918415E-07
   1.57200003      -2.60838846E-07
   1.57400000      -4.55302036E-08
   1.57599998       1.84196224E-07
   1.57799995       4.27358458E-07
   1.58000004       6.82800987E-07
   1.58200002       9.49194032E-07
   1.58399999       1.22503332E-06
   1.58599997       1.50864275E-06
   1.58800006       1.79817641E-06
   1.59000003       2.09162476E-06
   1.59200001       2.38682082E-06
   1.59399998       2.68144913E-06
   1.59599996       2.97305496E-06
   1.59800005       3.25905717E-06
   1.60000002       3.53676137E-06
   1.60200000       3.80337519E-06
   1.60399997       4.05602532E-06
   1.60599995       4.29177635E-06
   1.60800004       4.50765037E-06
   1.61000001       4.70064833E-06
   1.61199999       4.86777299E-06
   1.61399996       5.00605256E-06
   1.61600006       5.11256530E-06
   1.61800003       5.18446677E-06
   1.62000000       5.21901347E-06
   1.62199998       5.21359289E-06
   1.62399995       5.16574892E-06
   1.62600005       5.07321010E-06
   1.62800002       4.93391781E-06
   1.63000000       4.74605258E-06
   1.63199997       4.50806328E-06
   1.63399994       4.21869254E-06
   1.63600004       3.87700265E-06
   1.63800001       3.48240042E-06
   1.63999999       3.03466322E-06
   1.64199996       2.53396092E-06
   1.64400005       1.98087810E-06
   1.64600003       1.37643303E-06
   1.64800000       7.22096559E-07
   1.64999998       1.98094838E-08
   1.65199995      -7.28002703E-07
   1.65400004      -1.51841755E-06
   1.65600002      -2.34800473E-06
   1.65799999      -3.21281868E-06
   1.65999997      -4.10839311E-06
   1.66199994      -5.02973671E-06
   1.66400003      -5.97133521E-06
   1.66600001      -6.92714912E-06
   1.66799998      -7.89062415E-06
   1.66999996      -8.85469490E-06
   1.67200005      -9.81180256E-06
   1.67400002      -1.07539054E-05
   1.67600000      -1.16724923E-05
   1.67799997      -1.25586121E-05
   1.67999995      -1.34028933E-05
   1.68200004      -1.41955688E-05
   1.68400002      -1.49265134E-05
   1.68599999      -1.55852722E-05
   1.68799996      -1.61611024E-05
   1.69000006      -1.66430127E-05
   1.69200003      -1.70197982E-05