# Aki and Richards - double-couple solution eq.(4.32) and (4.33)
#
# homogeneous elastic medium: rho/vp/vs   = 2300.0 / 2800.0 / 1500.0
# receiver station          : x/y/z       = 6000.0 / 1000.0 / 2000.0
#                           : r/theta/phi = 6403.1242374328485 / 1.253133133812636 / 0.16514867741462683
#
# solution component        : cartesian Y / spherical THETA
#
# format:
#time 	#u_cartesian 	#u_spherical
-4.0 	5.905936816935373e-16 	4.545686196978817e-16 	6.311320426904239e-17 3.914554154288393e-16 0.0
-3.999 	5.918656388857035e-16 	4.583419946590416e-16 	6.366081962657156e-17 3.9468117503247003e-16 0.0
-3.998 	6.056959236118108e-16 	4.623098272735143e-16 	6.421314207249408e-17 3.9809668520102025e-16 0.0
-3.997 	6.070361393989902e-16 	4.66282368935717e-16 	6.477017356614653e-17 4.015121953695705e-16 0.0
-3.996 	6.083777113393581e-16 	4.70259621604986e-16 	6.53319160668653e-17 4.049277055381207e-16 0.0
-3.995 	6.159663522609894e-16 	4.742415872406579e-16 	6.589837153398704e-17 4.0834321570667093e-16 0.0
-3.994 	6.235891960863529e-16 	4.783233919202731e-16 	6.64697907625922e-17 4.1185360115768086e-16 0.0
-3.993 	6.249676855242953e-16 	4.824099135938164e-16 	6.70459269851256e-17 4.153639866086908e-16 0.0
-3.992 	6.263476050350033e-16 	4.865014030563681e-16 	6.762703099666733e-17 4.188743720597008e-16 0.0
-3.991 	6.339746674778868e-16 	4.905978623761169e-16 	6.821310486540615e-17 4.223847575107107e-16 0.0
-3.99 	6.416359351746376e-16 	4.947941689037113e-16 	6.880415065953082e-17 4.259900182441804e-16 0.0
-3.989 	6.492986347302563e-16 	4.989954494248796e-16 	6.940017044722958e-17 4.2959527897765005e-16 0.0
-3.988 	6.569956123625897e-16 	5.032968301260146e-16 	7.000141513243515e-17 4.3329541499357946e-16 0.0
-3.987 	6.584483108118194e-16 	5.076031890659529e-16 	7.060763805644409e-17 4.3699555100950886e-16 0.0
-3.986 	6.599025145694672e-16 	5.119147771486272e-16 	7.121909012318888e-17 4.4069568702543827e-16 0.0
-3.985 	6.676039365262782e-16 	5.162315965510778e-16 	7.183577350971007e-17 4.443958230413677e-16 0.0
-3.984 	6.75339639035279e-16 	5.206485247328053e-16 	7.245769039304845e-17 4.481908343397568e-16 0.0
-3.983 	6.830768487328061e-16 	5.250706885883905e-16 	7.308484295024454e-17 4.51985845638146e-16 0.0
-3.982 	6.908483760519844e-16 	5.295930899952056e-16 	7.371735777621077e-17 4.558757322189948e-16 0.0
-3.981 	6.923757353807759e-16 	5.341208559022575e-16 	7.435523710241383e-17 4.597656187998437e-16 0.0
-3.98 	6.93904675441649e-16 	5.386541129588852e-16 	7.499860757819255e-17 4.636555053806926e-16 0.0
-3.979 	7.016809091566835e-16 	5.431928634509805e-16 	7.564747148943912e-17 4.675453919615414e-16 0.0
-3.978 	7.094914989102419e-16 	5.478319849468966e-16 	7.630183112204653e-17 4.7153015382485e-16 0.0
-3.977 	7.173036713699948e-16 	5.524766044500659e-16 	7.696168876190736e-17 4.755149156881586e-16 0.0
-3.976 	7.251502370004029e-16 	5.572217239467126e-16 	7.762717111278573e-17 4.795945528339269e-16 0.0
-3.975 	7.329984224848054e-16 	5.619724704946963e-16 	7.829828051500109e-17 4.836741899796953e-16 0.0
-3.974 	7.3463532603928795e-16 	5.668238461346668e-16 	7.897514372674343e-17 4.878487024079233e-16 0.0
-3.973 	7.362411126365326e-16 	5.715861026964493e-16 	7.965776314275772e-17 4.919283395536916e-16 0.0
-3.972 	7.503727554747294e-16 	5.764489931397081e-16 	8.034614115778845e-17 4.961028519819196e-16 0.0
-3.971 	7.520474061870827e-16 	5.814125198591879e-16 	8.104028016658048e-17 5.003722396926074e-16 0.0
-3.97 	7.536910136424295e-16 	5.862871835204574e-16 	8.174043139962189e-17 5.045467521208355e-16 0.0
-3.969 	7.616148029901963e-16 	5.912626127741612e-16 	8.244647294263797e-17 5.088161398315232e-16 0.0
-3.968 	7.695402886810152e-16 	5.962439347870104e-16 	8.315840724479935e-17 5.13085527542211e-16 0.0
-3.967 	7.837460293064475e-16 	6.013262761263787e-16 	8.38764855910202e-17 5.174497905353586e-16 0.0
-3.966 	7.917406010747841e-16 	6.065096393502893e-16 	8.460071053932346e-17 5.219089288109658e-16 0.0
-3.9650000000000003 	7.872454826519365e-16 	6.116990273164331e-16 	8.533096022986004e-17 5.263680670865731e-16 0.0
-3.964 	7.952108214565271e-16 	6.167998160816907e-16 	8.606748600197016e-17 5.307323300797205e-16 0.0
-3.963 	8.094892279476562e-16 	6.220966341058905e-16 	8.681029046810308e-17 5.352863436377874e-16 0.0
-3.962 	8.112780181045074e-16 	6.273997334365616e-16 	8.755937624070722e-17 5.398403571958544e-16 0.0
-3.9610000000000003 	8.130686172072083e-16 	6.327091166861525e-16 	8.831474593223101e-17 5.443943707539214e-16 0.0
-3.96 	8.273524863519429e-16 	6.380249108849842e-16 	8.907652657299587e-17 5.489483843119883e-16 0.0
-3.959 	8.354580374950279e-16 	6.435368692648505e-16 	8.984472082987581e-17 5.536921484349747e-16 0.0
-3.958 	8.310412729850889e-16 	6.489604930631195e-16 	9.061945578761804e-17 5.583410372755015e-16 0.0
-3.9570000000000003 	8.453635289160816e-16 	6.543906602835512e-16 	9.140073416752297e-17 5.629899261160282e-16 0.0
-3.956 	8.597532530760463e-16 	6.600172486302376e-16 	9.218868310876331e-17 5.678285655214743e-16 0.0
-3.955 	8.554077614911699e-16 	6.656505103139863e-16 	9.298330538706591e-17 5.726672049269204e-16 0.0
-3.954 	8.635228781063992e-16 	6.711956972459364e-16 	9.378472819602957e-17 5.774109690499068e-16 0.0
-3.9530000000000003 	8.779511776274481e-16 	6.769373136857478e-16 	9.459282994793503e-17 5.823444837378128e-16 0.0
-3.952 	8.798900477126153e-16 	6.826858606799717e-16 	9.54078622542531e-17 5.872779984257186e-16 0.0
-3.951 	8.880765901683527e-16 	6.88441216695315e-16 	9.622970358169056e-17 5.922115131136245e-16 0.0
-3.95 	8.962979391678099e-16 	6.94298508680134e-16 	9.705860559614389e-17 5.972399030839901e-16 0.0
-3.9490000000000003 	9.045212857506133e-16 	7.001627398731019e-16 	9.789444681874617e-17 6.022682930543557e-16 0.0
-3.948 	9.12779440553566e-16 	7.061289128591294e-16 	9.873735455194839e-17 6.07391558307181e-16 0.0
-3.947 	9.147939539843644e-16 	7.12102279712633e-16 	9.958745615262667e-17 6.125148235600064e-16 0.0
-3.946 	9.293019278807948e-16 	7.18082719009172e-16 	1.0044463019634023e-16 6.176380888128317e-16 0.0
-3.9450000000000003 	9.376318459096245e-16 	7.242602330884147e-16 	1.0130912845783819e-16 6.229511046305765e-16 0.0
-3.944 	9.396853869771384e-16 	7.303501991508383e-16 	1.0218095398497662e-16 6.281692451658616e-16 0.0
-3.943 	9.542652367335787e-16 	7.365423708092194e-16 	1.0306010982561306e-16 6.334822609836064e-16 0.0
-3.942 	9.56388547000161e-16 	7.428367511114148e-16 	1.03946599027604e-16 6.388901520838109e-16 0.0
-3.9410000000000003 	9.647269790977752e-16 	7.490438413761057e-16 	1.0484067347454997e-16 6.442031679015557e-16 0.0
-3.94 	9.793788559062386e-16 	7.554482706073801e-16 	1.0574233632316027e-16 6.497059342842199e-16 0.0
-3.939 	9.815414935614119e-16 	7.61860291397028e-16 	1.0665159073014376e-16 6.552087006668842e-16 0.0
-3.938 	9.837063175000969e-16 	7.682799069017573e-16 	1.0756843985220894e-16 6.607114670495484e-16 0.0
-3.9370000000000003 	9.9836482479121e-16 	7.747073691140216e-16 	1.0849313568180898e-16 6.662142334322127e-16 0.0
-3.936 	1.0130911398274533e-15 	7.813324318643007e-16 	1.0942568148450436e-16 6.719067503797963e-16 0.0
-3.935 	1.0153282910400636e-15 	7.879653478532364e-16 	1.1036608052585644e-16 6.7759926732738e-16 0.0
-3.934 	1.0175677038971797e-15 	7.946061203463897e-16 	1.1131433607142596e-16 6.832917842749637e-16 0.0
-3.9330000000000003 	1.0323008754990512e-15 	8.01255001445065e-16 	1.1227070022251754e-16 6.889843012225475e-16 0.0
-3.932 	1.0471018944536606e-15 	8.081016206707231e-16 	1.1323505193567252e-16 6.948665687350506e-16 0.0
-3.931 	1.0494138250239679e-15 	8.149563551963031e-16 	1.1420751894874935e-16 7.007488362475538e-16 0.0
-3.93 	1.0517281285255032e-15 	8.218193328140904e-16 	1.1518822905403353e-16 7.066311037600569e-16 0.0
-3.9290000000000003 	1.0665362304734065e-15 	8.286905569529232e-16 	1.1617718568036318e-16 7.1251337127256e-16 0.0
-3.928 	1.0814122553073837e-15 	8.357597816065606e-16 	1.1717439225657792e-16 7.185853893499827e-16 0.0
-3.927 	1.0837993031377867e-15 	8.428375084746656e-16 	1.1818010104726037e-16 7.246574074274053e-16 0.0
-3.926 	1.0924345117751335e-15 	8.499237410949294e-16 	1.1919431559010142e-16 7.307294255048279e-16 0.0
-3.9250000000000003 	1.1011049439641402e-15 	8.571133582875021e-16 	1.2021703942279186e-16 7.368963188647103e-16 0.0
-3.924 	1.1097778625488885e-15 	8.643116127254879e-16 	1.2124840050089536e-16 7.430632122245926e-16 0.0
-3.923 	1.11848607836986e-15 	8.716135077013348e-16 	1.2228852683440017e-16 7.493249808669347e-16 0.0
-3.922 	1.1334424949344018e-15 	8.789240471612542e-16 	1.2333729765197745e-16 7.555867495092768e-16 0.0
-3.9210000000000003 	1.1484670206253754e-15 	8.864332340980267e-16 	1.2439496538148845e-16 7.620382687165383e-16 0.0
-3.92 	1.1510026839993592e-15 	8.939513216477017e-16 	1.254615337239019e-16 7.684897879237998e-16 0.0
-3.919 	1.1535409106498311e-15 	9.014783135112484e-16 	1.2653700638018712e-16 7.749413071310614e-16 0.0
-3.918 	1.168573197802383e-15 	9.090144622253795e-16 	1.2762163588705653e-16 7.813928263383229e-16 0.0
-3.9170000000000003 	1.1836736700063922e-15 	9.167495221648357e-16 	1.2871542605433196e-16 7.880340961105038e-16 0.0
-3.916 	1.1862853558497715e-15 	9.244937465745177e-16 	1.2981838069183292e-16 7.946753658826848e-16 0.0
-3.915 	1.1951453932213775e-15 	9.322471392642484e-16 	1.3093050360938248e-16 8.013166356548659e-16 0.0
-3.914 	1.2040409165763762e-15 	9.40104828162051e-16 	1.3205204745254454e-16 8.080527807095065e-16 0.0
-3.9130000000000003 	1.2129391530524656e-15 	9.479719419041394e-16 	1.331830161399921e-16 8.147889257641472e-16 0.0
-3.912 	1.2343643381122176e-15 	9.559434841095183e-16 	1.3432353800827064e-16 8.216199461012477e-16 0.0
-3.911 	1.23712068556952e-15 	9.641143340337464e-16 	1.3547361703047884e-16 8.286407170032676e-16 0.0
-3.91 	1.2398142732148223e-15 	9.721051189379558e-16 	1.3663338159758781e-16 8.35471737340368e-16 0.0
-3.9090000000000003 	1.2675590472251587e-15 	9.802953439795106e-16 	1.378028357371227e-16 8.42492508242388e-16 0.0
-3.908 	1.2703893822797035e-15 	9.886852620216799e-16 	1.3898223231235256e-16 8.497030297093273e-16 0.0
-3.907 	1.2731570326638956e-15 	9.968953760710017e-16 	1.4017157545965451e-16 8.567238006113472e-16 0.0
-3.906 	1.294730232322062e-15 	1.0053051913936926e-15 	1.413708693154061e-16 8.639343220782865e-16 0.0
-3.9050000000000002 	1.3038476829504162e-15 	1.0138199612615412e-15 	1.4258024243385564e-16 8.712397188276856e-16 0.0
-3.904 	1.312968036293079e-15 	1.0223448145828919e-15 	1.4379969900580713e-16 8.785451155770847e-16 0.0
-3.903 	1.3221241033628757e-15 	1.0309747552488787e-15 	1.450293676399352e-16 8.859453876089435e-16 0.0
-3.902 	1.3312831830236222e-15 	1.0396151610580157e-15 	1.4626950141721322e-16 8.933456596408024e-16 0.0
-3.9010000000000002 	1.3404780147030343e-15 	1.0483607872289709e-15 	1.4751998027385001e-16 9.008408069551209e-16 0.0
-3.9 	1.355921609544637e-15 	1.0571170116146841e-15 	1.4878105734524472e-16 9.083359542694395e-16 0.0
-3.899 	1.3714337687181385e-15 	1.0660734647707104e-15 	1.5005261262203295e-16 9.160208521486775e-16 0.0
-3.898 	1.380703304864281e-15 	1.075040649321955e-15 	1.5133489929403957e-16 9.237057500279154e-16 0.0
-3.8970000000000002 	1.390008705522214e-15 	1.0841134450138117e-15 	1.526279218241984e-16 9.314855231896132e-16 0.0
-3.896 	1.3993172338023673e-15 	1.0931971054446245e-15 	1.5393180909331363e-16 9.392652963513109e-16 0.0
-3.895 	1.4086616649955151e-15 	1.102386510414214e-15 	1.5524656561874567e-16 9.471399447954683e-16 0.0
-3.894 	1.4242549744917978e-15 	1.1115869135753503e-15 	1.5657232033572456e-16 9.550145932396258e-16 0.0
-3.8930000000000002 	1.4399170709560932e-15 	1.1209883189004825e-15 	1.5790932665177983e-16 9.630789922487027e-16 0.0
-3.892 	1.449336695491038e-15 	1.1304009805053287e-15 	1.5925758924754916e-16 9.711433912577796e-16 0.0
-3.891 	1.4587923356984505e-15 	1.139919778352986e-15 	1.6061711280366972e-16 9.793026655493163e-16 0.0
-3.89 	1.4744969311994178e-15 	1.149449841841631e-15 	1.619879020007782e-16 9.87461939840853e-16 0.0
-3.8890000000000002 	1.490270390690153e-15 	1.1591811750525658e-15 	1.6337021035525665e-16 9.95810964697309e-16 0.0
-3.888 	1.4935557788566417e-15 	1.1689241566282313e-15 	1.6476416707446617e-16 1.0041599895537652e-15 0.0
-3.887 	1.5093359461494655e-15 	1.1786787914125429e-15 	1.661697770023218e-16 1.0125090144102211e-15 0.0
-3.886 	1.5251850532317426e-15 	1.1886349592322074e-15 	1.6758716940061064e-16 1.0210477898315968e-15 0.0
-3.8850000000000002 	1.5285461648207924e-15 	1.198603038838519e-15 	1.6901647358554656e-16 1.0295865652529724e-15 0.0
-3.884 	1.5444021313985327e-15 	1.2085830351842446e-15 	1.7045769450989663e-16 1.038125340674348e-15 0.0
-3.883 	1.5603271136594165e-15 	1.2187648282049433e-15 	1.7191096154430035e-16 1.0468538666606429e-15 0.0
-3.882 	1.5700099244321971e-15 	1.2289589211786329e-15 	1.73376528531695e-16 1.0555823926469378e-15 0.0
-3.8810000000000002 	1.5859747278920204e-15 	1.2392600700859461e-15 	1.748542761702536e-16 1.0644057939156926e-15 0.0
-3.88 	1.60197588486404e-15 	1.2496685288242463e-15 	1.7634445835733912e-16 1.0733240704669072e-15 0.0
-3.879 	1.6117676845726334e-15 	1.2601843025640061e-15 	1.7784708026342487e-16 1.0823372223005813e-15 0.0
-3.878 	1.6215631025959496e-15 	1.270712645611108e-15 	1.7936227147685259e-16 1.0913503741342555e-15 0.0
-3.8770000000000002 	1.6376406625085418e-15 	1.2813485628907816e-15 	1.808901616403924e-16 1.1004584012503893e-15 0.0
-3.876 	1.653754689382176e-15 	1.292092184100222e-15 	1.8243088045123877e-16 1.1096613036489831e-15 0.0
-3.875 	1.6636594724882333e-15 	1.3029435145731787e-15 	1.8398443324314242e-16 1.1189590813300364e-15 0.0
-3.874 	1.6798136997159076e-15 	1.3138078087788145e-15 	1.855509497677246e-16 1.1282568590110898e-15 0.0
-3.873 	1.6960372441490352e-15 	1.3248749470880944e-15 	1.871305598310317e-16 1.1377443872570626e-15 0.0
-3.872 	1.7060188829256548e-15 	1.3359553087965737e-15 	1.8872339329353825e-16 1.1472319155030355e-15 0.0
-3.871 	1.7222828519626965e-15 	1.3471438991016108e-15 	1.9032958007014263e-16 1.1568143190314681e-15 0.0
-3.87 	1.7385834405942102e-15 	1.3584407235546596e-15 	1.9194912571229922e-16 1.1664915978423604e-15 0.0
-3.869 	1.7486750097863575e-15 	1.369846036542918e-15 	1.9358228460720554e-16 1.1762637519357124e-15 0.0
-3.868 	1.7650162117062842e-15 	1.3812649684442314e-15 	1.95229062415167e-16 1.1860359060290643e-15 0.0
-3.867 	1.7751811714360648e-15 	1.3928872754838249e-15 	1.9688946479648915e-16 1.1959978106873358e-15 0.0
-3.866 	1.7853173525301815e-15 	1.4044285863103688e-15 	1.9856374624722115e-16 1.2058648400631477e-15 0.0
-3.865 	1.8142602870447353e-15 	1.4161737813761438e-15 	2.0025216137226497e-16 1.2159216200038788e-15 0.0
-3.864 	1.8307813795355545e-15 	1.4281227421412871e-15 	2.0195459163175772e-16 1.2261681505095295e-15 0.0
-3.863 	1.834815155330449e-15 	1.4400859727002072e-15 	2.03671291685027e-16 1.2364146810151802e-15 0.0
-3.862 	1.851344465193353e-15 	1.4520634789853406e-15 	2.0540226746450982e-16 1.2466612115208307e-15 0.0
-3.861 	1.867943470100735e-15 	1.4642451419119126e-15 	2.0714764932051168e-16 1.2570974925914009e-15 0.0
-3.86 	1.8845466596113515e-15 	1.4764413413197386e-15 	2.0890756765776752e-16 1.267533773661971e-15 0.0
-3.859 	1.9012196192610904e-15 	1.4888419582328973e-15 	2.1068215293543666e-16 1.2781598052974606e-15 0.0
-3.858 	1.9116511621920567e-15 	1.5012574970179266e-15 	2.1247166008497657e-16 1.2887858369329502e-15 0.0
-3.857 	1.928365488708803e-15 	1.5137828391618524e-15 	2.1427609531095294e-16 1.2995067438508995e-15 0.0
-3.856 	1.9451168883333914e-15 	1.526417990869241e-15 	2.1609546481793239e-16 1.3103225260513085e-15 0.0
-3.855 	1.961905434484035e-15 	1.5391632071803999e-15 	2.1793002364622263e-16 1.3212331835341773e-15 0.0
-3.854 	1.978731164794229e-15 	1.5520186188266209e-15 	2.1977990252711523e-16 1.3322387162995057e-15 0.0
-3.853 	1.9955941169131346e-15 	1.5649843565936188e-15 	2.216452322463248e-16 1.343339124347294e-15 0.0
-3.852 	2.0124943285055792e-15 	1.5780605513215352e-15 	2.235261436439933e-16 1.354534407677542e-15 0.0
-3.851 	2.0294318014360057e-15 	1.5912472094870673e-15 	2.2542264319681784e-16 1.3658245662902496e-15 0.0
-3.85 	2.0401608969369224e-15 	1.6045445864026529e-15 	2.2733498621723587e-16 1.377209600185417e-15 0.0
-3.849 	2.05714030325788e-15 	1.6178579377892526e-15 	2.292633037086682e-16 1.3885946340805845e-15 0.0
-3.848 	2.0804355702910533e-15 	1.6313770208517598e-15 	2.312076023110884e-16 1.4001694185406714e-15 0.0
-3.847 	2.0975225730615492e-15 	1.6450072157834331e-15 	2.3316813750021525e-16 1.4118390782832178e-15 0.0
-3.846 	2.114647025776186e-15 	1.658748529333098e-15 	2.3514491602487375e-16 1.4236036133082243e-15 0.0
-3.845 	2.1318090020098547e-15 	1.6726012170853238e-15 	2.3713819346963363e-16 1.4354630236156902e-15 0.0
-3.844 	2.1427628272886827e-15 	1.686565410315661e-15 	2.3914810111004493e-16 1.4474173092056161e-15 0.0
-3.843 	2.1599671541401696e-15 	1.7005462406537538e-15 	2.411746458582118e-16 1.4593715947955418e-15 0.0
-3.842 	2.18348760416694e-15 	1.7147337144123681e-15 	2.4321808346198115e-16 1.471515630950387e-15 0.0
-3.841 	2.2008000166877164e-15 	1.7290330877478743e-15 	2.452785453601822e-16 1.4837545423876921e-15 0.0
-3.84 	2.218150141819381e-15 	1.7434444921535246e-15 	2.473561630460679e-16 1.4960883291074567e-15 0.0
-3.839 	2.235538017430441e-15 	1.757968059177e-15 	2.49451068067319e-16 1.508516991109681e-15 0.0
-3.838 	2.2592093936691116e-15 	1.7726039204204048e-15 	2.5156339202603967e-16 1.5210405283943652e-15 0.0
-3.837 	2.2767056578975203e-15 	1.787447082822734e-15 	2.536932665787654e-16 1.5337538162439688e-15 0.0
-3.8360000000000003 	2.2879613000504413e-15 	1.802307927530022e-15 	2.5584082343644966e-16 1.5464671040935724e-15 0.0
-3.835 	2.3117462688415475e-15 	1.817281461590116e-15 	2.5800619436448017e-16 1.5592752672256358e-15 0.0
-3.834 	2.329356275231979e-15 	1.832462816523155e-15 	2.6018963560053605e-16 1.5722731809226186e-15 0.0
-3.833 	2.3469714856671697e-15 	1.8476622492750113e-15 	2.6239115465540973e-16 1.5852710946196014e-15 0.0
-3.8320000000000003 	2.3709032341861304e-15 	1.8630697667571373e-15 	2.6461100787563366e-16 1.5984587588815037e-15 0.0
-3.831 	2.3823816121998278e-15 	1.878590501306716e-15 	2.6684920288085044e-16 1.6117412984258655e-15 0.0
-3.83 	2.4063567685996363e-15 	1.894129834096673e-15 	2.691059961264455e-16 1.6250238379702276e-15 0.0
-3.829 	2.430435674685477e-15 	1.9099726475386282e-15 	2.7138164417665945e-16 1.6385910033619687e-15 0.0
-3.8280000000000003 	2.4420285862142954e-15 	1.9258343236225447e-15 	2.7367615486883496e-16 1.65215816875371e-15 0.0
-3.827 	2.46615120012087e-15 	1.941809994303974e-15 	2.759897848760632e-16 1.6658202094279109e-15 0.0
-3.826 	2.490344868154945e-15 	1.9579945428115745e-15 	2.7832254214454326e-16 1.6796720006670312e-15 0.0
-3.825 	2.5083311779816915e-15 	1.974293350644829e-15 	2.8067468345621763e-16 1.6936186671886111e-15 0.0
-3.8240000000000003 	2.5263558441839497e-15 	1.9907064258587865e-15 	2.830462168661356e-16 1.707660208992651e-15 0.0
-3.823 	2.544418976528688e-15 	2.007234149762113e-15 	2.8543752368296276e-16 1.7217966260791506e-15 0.0
-3.822 	2.568766289645752e-15 	2.0238765305731373e-15 	2.8784861212502753e-16 1.7360279184481097e-15 0.0
-3.821 	2.5931849192593807e-15 	2.0407287006283918e-15 	2.902797392464032e-16 1.7504489613819885e-15 0.0
-3.8200000000000003 	2.611396417328358e-15 	2.057695917390469e-15 	2.9273103779214195e-16 1.764964879598327e-15 0.0
-3.819 	2.6296465343455885e-15 	2.0747783136588462e-15 	2.9520264056172104e-16 1.779575673097125e-15 0.0
-3.818 	2.6541810208196433e-15 	2.091976022287428e-15 	2.9769468040904504e-16 1.794281341878383e-15 0.0
-3.817 	2.678787012553098e-15 	2.1093841758848775e-15 	3.0020741466031726e-16 1.8091767612245604e-15 0.0
-3.8160000000000003 	2.6971860615830777e-15 	2.1269080321859163e-15 	3.0274097633271846e-16 1.8241670558531976e-15 0.0
-3.815 	2.7156239542968782e-15 	2.1445478486800236e-15 	3.0529562291572955e-16 1.8392522257642943e-15 0.0
-3.814 	2.740346405481021e-15 	2.1623036341297896e-15 	3.07871363171939e-16 1.8544322709578507e-15 0.0
-3.813 	2.7713862632804616e-15 	2.1802705214160062e-15 	3.1046845469967964e-16 1.8698020667163268e-15 0.0
-3.8120000000000003 	2.7900064292729444e-15 	2.198448643827985e-15 	3.130870307882629e-16 1.885361613039722e-15 0.0
-3.811 	2.808632854207413e-15 	2.216648508562418e-15 	3.157273491992999e-16 1.900921159363118e-15 0.0
-3.81 	2.8335768009294596e-15 	2.235059875218942e-15 	3.183894189675094e-16 1.9166704562514327e-15 0.0
-3.809 	2.8523141451535605e-15 	2.25358812638556e-15 	3.210734979633529e-16 1.932514628422207e-15 0.0
-3.8080000000000003 	2.8773363856720635e-15 	2.2722335200415868e-15 	3.2377984416614507e-16 1.9484536758754416e-15 0.0
-3.807 	2.902430622690836e-15 	2.291091065139776e-15 	3.265085912461806e-16 1.9645824738935954e-15 0.0
-3.806 	2.9275641565307777e-15 	2.310066144540261e-15 	3.292599973460521e-16 1.980806147194209e-15 0.0
-3.805 	2.946524051628701e-15 	2.3292536429412023e-15 	3.320340718814601e-16 1.997219571059742e-15 0.0
-3.8040000000000003 	2.97173625887456e-15 	2.348464068029124e-15 	3.3483107310384903e-16 2.013632994925275e-15 0.0
-3.803 	3.0032991746133894e-15 	2.367982304011703e-15 	3.3765125937351585e-16 2.030331044638187e-15 0.0
-3.802 	3.022410152661545e-15 	2.3876187343752953e-15 	3.4049476474173593e-16 2.0471239696335592e-15 0.0
-3.801 	3.0478063684160363e-15 	2.4073734932256046e-15 	3.4336172331421406e-16 2.0640117699113907e-15 0.0
-3.8000000000000003 	3.0732749580397953e-15 	2.4273417144230912e-15 	3.462523936689493e-16 2.0810893207541417e-15 0.0
-3.799 	3.0925375097463536e-15 	2.4474287813721465e-15 	3.491670344927939e-16 2.0982617468793526e-15 0.0
-3.798 	3.1180854509309614e-15 	2.4676347040327336e-15 	3.521056557457101e-16 2.1155290482870233e-15 0.0
-3.797 	3.1499516300832614e-15 	2.488054616483015e-15 	3.5506851622340167e-16 2.1329861002596132e-15 0.0
-3.7960000000000003 	3.1818904452858805e-15 	2.5086889020454192e-15 	3.5805599924829654e-16 2.1506329027971228e-15 0.0
-3.795 	3.2014104749562348e-15 	2.5295375709520385e-15 	3.6106811505248687e-16 2.1684694558995515e-15 0.0
-3.794 	3.220937670219294e-15 	2.5504111317057876e-15 	3.6410512270380695e-16 2.1863060090019807e-15 0.0
-3.793 	3.2530290423767654e-15 	2.5714994696304007e-15 	3.6716715696107146e-16 2.204332312669329e-15 0.0
-3.7920000000000003 	3.278947529261142e-15 	2.5928028439569903e-15 	3.7025447705539344e-16 2.222548366901597e-15 0.0
-3.791 	3.3049061079859945e-15 	2.614226514325189e-15 	3.7336721790886483e-16 2.2408592964163244e-15 0.0
-3.79 	3.3309376272133115e-15 	2.6358656154118497e-15 	3.765056389158782e-16 2.2593599764959715e-15 0.0
-3.789 	3.3570093876556807e-15 	2.6576255314377532e-15 	3.7966999957967476e-16 2.2779555318580783e-15 0.0
-3.7880000000000003 	3.389399950301801e-15 	2.679601397297455e-15 	3.8286055951235047e-16 2.2967408377851044e-15 0.0
-3.787 	3.4093721814930593e-15 	2.701793223876157e-15 	3.8607732959910704e-16 2.31571589427705e-15 0.0
-3.786 	3.4355977448064747e-15 	2.7240115203298886e-15 	3.893205695608929e-16 2.3346909507689957e-15 0.0
-3.785 	3.47442074927415e-15 	2.746541172335827e-15 	3.9259053922750617e-16 2.353950633108321e-15 0.0
-3.7840000000000003 	3.5008256466778446e-15 	2.769287564550164e-15 	3.958874985375989e-16 2.373400066012565e-15 0.0
-3.783 	3.5272711624149087e-15 	2.792156081737941e-15 	3.992117075386721e-16 2.392944374199269e-15 0.0
-3.782 	3.5475443972865753e-15 	2.8152417349201022e-15 	4.0256330196920964e-16 2.4126784329508927e-15 0.0
-3.781 	3.580317015010873e-15 	2.8383550337425103e-15 	4.0594254203999413e-16 2.432412491702516e-15 0.0
-3.7800000000000002 	3.613228726143095e-15 	2.8618756152367642e-15 	4.0934956365278563e-16 2.4525260515839786e-15 0.0
-3.779 	3.63990279741137e-15 	2.8854242386470833e-15 	4.127846271816426e-16 2.472639611465441e-15 0.0
-3.778 	3.679174762563894e-15 	2.909285790303759e-15 	4.162479931094768e-16 2.4930377971942825e-15 0.0
-3.777 	3.7060290735704414e-15 	2.9333656555160947e-15 	4.1973992202805145e-16 2.5136257334880433e-15 0.0
-3.7760000000000002 	3.726678743752326e-15 	2.9575692197022454e-15 	4.23260674637981e-16 2.5343085450642644e-15 0.0
-3.775 	3.753615236900556e-15 	2.9818966192538062e-15 	4.2681038733086138e-16 2.555086231922945e-15 0.0
-3.774 	3.793117114364184e-15 	3.006442990317131e-15 	4.303893209705859e-16 2.576053669346545e-15 0.0
-3.773 	3.826480052651372e-15 	3.031303344729553e-15 	4.339976121120286e-16 2.597305732617524e-15 0.0
-3.7720000000000002 	3.85363861473909e-15 	3.0562883173711933e-15 	4.376356462002307e-16 2.6186526711709626e-15 0.0
-3.771 	3.880871362070398e-15 	3.0814930447149646e-15 	4.413036844256432e-16 2.640189360289321e-15 0.0
-3.77 	3.9143912723229e-15 	3.106822788359834e-15 	4.450018636696947e-16 2.661820924690139e-15 0.0
-3.769 	3.954263968712981e-15 	3.1324675602244493e-15 	4.487304452861128e-16 2.6837371149383365e-15 0.0
-3.7680000000000002 	3.981719615725136e-15 	3.158332746488931e-15 	4.524896907374777e-16 2.705843055751453e-15 0.0
-3.767 	4.009216939195408e-15 	3.1843237334422488e-15 	4.562798615952192e-16 2.7280438718470296e-15 0.0
-3.766 	4.043034500707859e-15 	3.210535658047148e-15 	4.601012195396224e-16 2.7504344385075256e-15 0.0
-3.765 	4.076926663359443e-15 	3.2369687820927612e-15 	4.639540263598203e-16 2.773014755732941e-15 0.0
-3.7640000000000002 	4.11089346672643e-15 	3.2636232430592075e-15 	4.678384195359315e-16 2.795784823523276e-15 0.0
-3.763 	4.14493498621682e-15 	3.2904993028988984e-15 	4.717546610203684e-16 2.81874464187853e-15 0.0
-3.762 	4.179051333085995e-15 	3.317597348090972e-15 	4.757031372922683e-16 2.8418942107987037e-15 0.0
-3.761 	4.2132425828202915e-15 	3.3449176408599723e-15 	4.796841105761752e-16 2.865233530283797e-15 0.0
-3.7600000000000002 	4.247508775121321e-15 	3.3724603191214223e-15 	4.836977187876128e-16 2.8887626003338096e-15 0.0
-3.759 	4.281849985522419e-15 	3.4002256452631435e-15 	4.877442243144022e-16 2.9124814209487414e-15 0.0
-3.758 	4.310020613140274e-15 	3.4282140061996813e-15 	4.918240140710881e-16 2.9363899921285932e-15 0.0
-3.757 	4.3444793841242745e-15 	3.4563307893085277e-15 	4.959373507176234e-16 2.9603934385909044e-15 0.0
-3.7560000000000002 	4.3852918862821076e-15 	3.4847658835055353e-15 	5.000843726049408e-16 2.9846815109005947e-15 0.0
-3.755 	4.419934032570057e-15 	3.5134248007493462e-15 	5.042654669741414e-16 3.009159333775205e-15 0.0
-3.754 	4.460897287405828e-15 	3.5423076796085934e-15 	5.084807723938594e-16 3.033826907214734e-15 0.0
-3.753 	4.495723111789109e-15 	3.571509782824546e-15 	5.127306763229034e-16 3.0587791065016426e-15 0.0
-3.7520000000000002 	4.524346033507514e-15 	3.600841623036494e-15 	5.170154419654827e-16 3.083826181071011e-15 0.0
-3.751 	4.5592903268791794e-15 	3.630398338839961e-15 	5.213353326346626e-16 3.109063006205299e-15 0.0
-3.75 	4.600556103551183e-15 	3.660180318074738e-15 	5.256907361702319e-16 3.134489581904506e-15 0.0
-3.749 	4.64193050112787e-15 	3.690282699608476e-15 	5.300819161573833e-16 3.1602007834510923e-15 0.0
-3.748 	4.677135073448134e-15 	3.720610747434889e-15 	5.345090118722904e-16 3.186101735562598e-15 0.0
-3.747 	4.7124156445171e-15 	3.751164849720323e-15 	5.389724114812993e-16 3.2121924382390236e-15 0.0
-3.746 	4.754018002570836e-15 	3.781945270376526e-15 	5.434723788961578e-16 3.2384728914803683e-15 0.0
-3.745 	4.789483573074989e-15 	3.813047148706561e-15 	5.480091781374694e-16 3.265037970569092e-15 0.0
-3.744 	4.824992632163622e-15 	3.844281122692834e-15 	5.525831977525587e-16 3.291697924940276e-15 0.0
-3.743 	4.8731021926112e-15 	3.875837082775127e-15 	5.57194577616288e-16 3.318642505158839e-15 0.0
-3.742 	4.9088295530910306e-15 	3.907715542136338e-15 	5.618438309115574e-16 3.345871711224781e-15 0.0
-3.741 	4.944600630494452e-15 	3.939726890358543e-15 	5.665310977853602e-16 3.3731957925731827e-15 0.0
-3.74 	4.986726797057997e-15 	3.9720612670438154e-15 	5.712567672748523e-16 3.4008044997689635e-15 0.0
-3.739 	5.028929642749973e-15 	4.004624061692267e-15 	5.76021104162603e-16 3.428602957529664e-15 0.0
-3.738 	5.0712420178147855e-15 	4.037510414477774e-15 	5.808243733400303e-16 3.4566860411377434e-15 0.0
-3.737 	5.107385548099466e-15 	4.0706258395360184e-15 	5.856669642252755e-16 3.4849588753107425e-15 0.0
-3.736 	5.1436060222004335e-15 	4.1039706020305495e-15 	5.9054914198188785e-16 3.5134214600486612e-15 0.0
-3.735 	5.192395012641605e-15 	4.1375452160695104e-15 	5.954714207180114e-16 3.542073795351499e-15 0.0
-3.734 	5.2350809354058615e-15 	4.171539448872183e-15 	6.004338170880071e-16 3.571105631784176e-15 0.0
-3.733 	5.271565616580606e-15 	4.205669188917037e-15 	6.054368454177242e-16 3.600232343499313e-15 0.0
-3.732 	5.32065181742775e-15 	4.240124452476799e-15 	6.104807714149703e-16 3.6296436810618285e-15 0.0
-3.731 	5.357356801227579e-15 	4.274905629785999e-15 	6.15565985314276e-16 3.6593396444717236e-15 0.0
-3.73 	5.400352233358882e-15 	4.309823236259662e-15 	6.206927530955845e-16 3.689130483164078e-15 0.0
-3.729 	5.449736548207542e-15 	4.3451622882518244e-15 	6.258614652655529e-16 3.719300822986272e-15 0.0
-3.728 	5.492952849910478e-15 	4.380733301449639e-15 	6.31072388076254e-16 3.749660913373385e-15 0.0
-3.727 	5.536279701399168e-15 	4.416631417496486e-15 	6.36325787888609e-16 3.780305629607877e-15 0.0
-3.726 	5.579684477023759e-15 	4.452762276415422e-15 	6.416221800081329e-16 3.811140096407289e-15 0.0
-3.725 	5.623200027545692e-15 	4.4892210201763804e-15 	6.469618311223011e-16 3.84225918905408e-15 0.0
-3.724 	5.6730393680410545e-15 	4.525913040293235e-15 	6.523450080274452e-16 3.87356803226579e-15 0.0
-3.723 	5.716776770428346e-15 	4.563028603071827e-15 	6.577722264644877e-16 3.905256376607339e-15 0.0
-3.722 	5.760559701896931e-15 	4.600283349787664e-15 	6.632437535563155e-16 3.937039596231349e-15 0.0
-3.721 	5.804486561345653e-15 	4.637962173519862e-15 	6.6875985653466595e-16 3.969202316985196e-15 0.0