# Aki and Richards - double-couple solution eq.(4.32) and (4.33)
#
# homogeneous elastic medium: rho/vp/vs   = 2300.0 / 2800.0 / 1500.0
# receiver station          : x/y/z       = 1000.0 / 6000.0 / 4000.0
#                           : r/theta/phi = 7280.1098892805185 / 0.9890997676289591 / 1.4056476493802699
#
# solution component        : cartesian X / spherical R
#
# format:
#time 	#u_cartesian 	#u_spherical
-4.0 	-7.6868280919987e-18 	5.369908335062025e-17 	7.57410871661107e-19 7.590906018991401e-18 4.535076645996774e-17
-3.999 	-9.037952781455479e-18 	4.4691642479530784e-17 	7.643078071314294e-19 7.646721504425162e-18 3.628061316797419e-17
-3.998 	-9.143307846208689e-18 	4.475440574589885e-17 	7.712555880657379e-19 7.702536989858923e-18 3.628061316797419e-17
-3.997 	-8.002946403652554e-18 	5.3887397318503646e-17 	7.782783832432244e-19 7.758352475292682e-18 4.535076645996774e-17
-3.996 	-6.9077926098365514e-18 	6.304837167593411e-17 	7.853762205295059e-19 7.842075703443323e-18 5.442091975196129e-17
-3.995 	-8.30451346849735e-18 	5.406909036914979e-17 	7.925249775880872e-19 7.925798931593964e-18 4.535076645996774e-17
-3.994 	-8.410422183077242e-18 	5.413210554999151e-17 	7.9972467299604755e-19 7.981614417027723e-18 4.535076645996774e-17
-3.993 	-7.315657318006407e-18 	6.329325687267223e-17 	8.069994755325788e-19 8.065337645178364e-18 5.442091975196129e-17
-3.992 	-8.712820324876941e-18 	5.431417674636004e-17 	8.143494130632979e-19 8.149060873329005e-18 4.535076645996774e-17
-3.991 	-1.0065052722268365e-17 	4.5307239889988664e-17 	8.217503632517096e-19 8.204876358762764e-18 3.628061316797419e-17
-3.99 	-8.925634531948206e-18 	5.4440660648839156e-17 	8.292023446748936e-19 8.260691844196525e-18 4.535076645996774e-17
-3.989 	-7.831477413973356e-18 	6.360208850062261e-17 	8.367536763141532e-19 8.344415072347166e-18 5.442091975196129e-17
-3.988 	-9.22919531592847e-18 	5.4623260855384965e-17 	8.443560949194204e-19 8.428138300497805e-18 4.535076645996774e-17
-3.987 	-8.090220069966534e-18 	6.375688315696062e-17 	8.520096190677727e-19 8.483953785931566e-18 5.442091975196129e-17
-3.986 	-8.287430154469686e-18 	6.38762670765009e-17 	8.597625677405153e-19 8.595584756799087e-18 5.442091975196129e-17
-3.985 	-9.640548603890067e-18 	5.4869733379888166e-17 	8.675666776875787e-19 8.651400242232847e-18 4.535076645996774e-17
-3.984 	-8.547112592307968e-18 	6.403148934003293e-17 	8.754461176881555e-19 8.735123470383488e-18 5.442091975196129e-17
-3.983 	-9.945604942604771e-18 	5.505301407410973e-17 	8.834009156078631e-19 8.818846698534129e-18 4.535076645996774e-17
-3.982 	-8.807404430781406e-18 	6.418698888503938e-17 	8.91406949110206e-19 8.874662183967888e-18 5.442091975196129e-17
-3.981 	-9.005389535220037e-18 	6.430672544397319e-17 	8.995125371764878e-19 8.986293154835409e-18 5.442091975196129e-17
-3.98 	-1.0359283290372788e-17 	5.530054451679355e-17 	9.076694165566422e-19 9.04210864026917e-18 4.535076645996774e-17
-3.979 	-9.266622870319955e-18 	6.446265337641095e-17 	9.159017560298592e-19 9.12583186841981e-18 5.442091975196129e-17
-3.978 	-9.420009726653619e-18 	6.455468443199349e-17 	9.242095834617556e-19 9.20955509657045e-18 5.442091975196129e-17
-3.977 	-9.573562549326685e-18 	6.464679100340033e-17 	9.325929267179505e-19 9.293278324721091e-18 5.442091975196129e-17
-3.976 	-9.72728139958135e-18 	6.473897311849708e-17 	9.410518136640612e-19 9.37700155287173e-18 5.442091975196129e-17
-3.975 	-9.881166338659802e-18 	6.483123080514937e-17 	9.495862721657066e-19 9.460724781022372e-18 5.442091975196129e-17
-3.974 	-1.003521742780423e-17 	6.49235640912228e-17 	9.581963300885036e-19 9.544448009173013e-18 5.442091975196129e-17
-3.973 	-1.0189434728256818e-17 	6.501597300458301e-17 	9.66882015298069e-19 9.628171237323652e-18 5.442091975196129e-17
-3.972 	-1.0343818301259778e-17 	6.51084575730956e-17 	9.756433556600226e-19 9.711894465474293e-18 5.442091975196129e-17
-3.971 	-1.0498368208055287e-17 	6.52010178246262e-17 	9.844803790399814e-19 9.795617693624933e-18 5.442091975196129e-17
-3.97 	-9.407203138596245e-18 	7.436380707903397e-17 	9.933931133035626e-19 9.879340921775574e-18 6.349107304395484e-17
-3.969 	-1.0853063068076805e-17 	6.541429738112288e-17 	1.002405736518496e-18 9.990971892643095e-18 5.442091975196129e-17
-3.968 	-1.0963069640599211e-17 	6.547917711547286e-17 	1.011469985434717e-18 1.0046787378076854e-17 5.442091975196129e-17
-3.967 	-9.9174999441957e-18 	7.467012557193274e-17 	1.0206341790335268e-18 1.0158418348944376e-17 6.349107304395484e-17
-3.966 	-1.131881692727037e-17 	6.569293553332327e-17 	1.0298742042669689e-18 1.0242141577095017e-17 5.442091975196129e-17
-3.9650000000000003 	-1.0228537889426224e-17 	7.485612793820116e-17 	1.0391900890006631e-18 1.0325864805245656e-17 6.349107304395484e-17
-3.964 	-1.0429402805857411e-17 	7.497717483137035e-17 	1.0486060113023383e-18 1.0437495776113177e-17 6.349107304395484e-17
-3.963 	-1.1831273234618125e-17 	6.600023661434915e-17 	1.0580978581240397e-18 1.0521219004263817e-17 5.442091975196129e-17
-3.962 	-1.0741547846600662e-17 	7.516368093370067e-17 	1.0676656573313863e-18 1.0604942232414458e-17 6.349107304395484e-17
-3.9610000000000003 	-1.0942966616999167e-17 	7.528497983422892e-17 	1.077333586992106e-18 1.071657320328198e-17 6.349107304395484e-17
-3.96 	-1.2345391103867844e-17 	6.630829371745215e-17 	1.087077534058246e-18 1.0800296431432619e-17 5.442091975196129e-17
-3.959 	-1.125621997809898e-17 	7.547199022993351e-17 	1.0968975263954228e-18 1.088401965958326e-17 6.349107304395484e-17
-3.958 	-1.0212311843597437e-17 	8.466369470847053e-17 	1.1068177420713658e-18 1.099565063045078e-17 7.256122633594838e-17
-3.9570000000000003 	-1.1660386801080067e-17 	7.571519286351337e-17 	1.116838218240233e-18 1.1107281601318301e-17 6.349107304395484e-17
-3.956 	-1.3063586389540476e-17 	6.67388594232843e-17 	1.1269348418540697e-18 1.119100482946894e-17 5.442091975196129e-17
-3.955 	-1.197519065116024e-17 	7.590290874235291e-17 	1.1371076407784933e-18 1.1274728057619581e-17 6.349107304395484e-17
-3.954 	-1.0932058189844214e-17 	8.509496615751672e-17 	1.1473807930812357e-18 1.1386359028487103e-17 7.256122633594838e-17
-3.9530000000000003 	-1.2380909106309261e-17 	7.614681737922591e-17 	1.1577543359164485e-18 1.1497989999354623e-17 6.349107304395484e-17
-3.952 	-1.253905664482579e-17 	7.62410145778984e-17 	1.1682283064382952e-18 1.1581713227505264e-17 6.349107304395484e-17
-3.951 	-1.2742414628809194e-17 	7.636319583392643e-17 	1.1787785915988164e-18 1.1693344198372783e-17 6.349107304395484e-17
-3.95 	-1.2900950749031815e-17 	7.6457569839944e-17 	1.1894293694657445e-18 1.1777067426523425e-17 6.349107304395484e-17
-3.9490000000000003 	-1.1858816086330466e-17 	8.565008126033045e-17 	1.2001565269911226e-18 1.1888698397390944e-17 7.256122633594838e-17
-3.948 	-1.2062783797574044e-17 	8.577253994644953e-17 	1.2109842422426815e-18 1.2000329368258466e-17 7.256122633594838e-17
-3.947 	-1.2266972593129527e-17 	8.589509922744895e-17 	1.2219125523745787e-18 1.2111960339125985e-17 7.256122633594838e-17
-3.946 	-1.2471382554653158e-17 	8.601775914048287e-17 	1.232941494540973e-18 1.2223591309993507e-17 7.256122633594838e-17
-3.9450000000000003 	-1.2676013763801205e-17 	8.614051972270543e-17 	1.2440711058960187e-18 1.2335222280861027e-17 7.256122633594838e-17
-3.944 	-1.2880866302229911e-17 	8.62633810112708e-17 	1.2553014235938732e-18 1.2446853251728548e-17 7.256122633594838e-17
-3.943 	-1.3085940251595539e-17 	8.638634304333315e-17 	1.2666324847886962e-18 1.255848422259607e-17 7.256122633594838e-17
-3.942 	-1.3291235693554336e-17 	8.650940585604662e-17 	1.2780643266346394e-18 1.2670115193463589e-17 7.256122633594838e-17
-3.9410000000000003 	-1.3496752709762569e-17 	8.663256948656536e-17 	1.2895969862858654e-18 1.278174616433111e-17 7.256122633594838e-17
-3.94 	-1.3702491381876493e-17 	8.675583397204354e-17 	1.301230500896529e-18 1.289337713519863e-17 7.256122633594838e-17
-3.939 	-1.3908451791552357e-17 	8.687919934963533e-17 	1.3129649076207892e-18 1.3005008106066152e-17 7.256122633594838e-17
-3.938 	-1.411463402044641e-17 	8.700266565649485e-17 	1.3248002436127998e-18 1.3116639076933672e-17 7.256122633594838e-17
-3.9370000000000003 	-1.4321038150214927e-17 	8.71262329297763e-17 	1.3367365460267198e-18 1.3228270047801193e-17 7.256122633594838e-17
-3.936 	-1.4527664262514148e-17 	8.724990120663381e-17 	1.3487738520167058e-18 1.3339901018668713e-17 7.256122633594838e-17
-3.935 	-1.4734512439000328e-17 	8.737367052422154e-17 	1.3609121987369147e-18 1.3451531989536234e-17 7.256122633594838e-17
-3.934 	-1.3695754466606556e-17 	9.656771836188931e-17 	1.3731757735436183e-18 1.3563162960403754e-17 8.163137962794193e-17
-3.9330000000000003 	-1.2702261465644291e-17 	1.0578977506660103e-16 	1.3855404726773963e-18 1.3702701673988156e-17 9.070153291993548e-17
-3.932 	-1.420080661339651e-17 	9.687165049900901e-17 	1.3980304834945224e-18 1.3842240387572556e-17 8.163137962794193e-17
-3.931 	-1.5654531469270862e-17 	8.792571939662405e-17 	1.4106217022355792e-18 1.3953871358440077e-17 7.256122633594838e-17
-3.93 	-1.58625974671523e-17 	8.80500428313107e-17 	1.423314166054722e-18 1.4065502329307595e-17 7.256122633594838e-17
-3.9290000000000003 	-1.4825057765263177e-17 	9.724464499042527e-17 	1.4361320623082217e-18 1.4177133300175117e-17 8.163137962794193e-17
-3.928 	-1.3832783483914976e-17 	1.0646725622093167e-16 	1.4490512872366637e-18 1.4316672013759517e-17 9.070153291993548e-17
-3.927 	-1.5332547800390657e-17 	9.754968638348217e-17 	1.4620960281963157e-18 1.445621072734392e-17 8.163137962794193e-17
-3.926 	-1.5541610902808598e-17 	9.767446350758112e-17 	1.4752421814277613e-18 1.4567841698211438e-17 8.163137962794193e-17
-3.9250000000000003 	-1.4550111396427106e-17 	1.068974272660186e-16 	1.4885139342872725e-18 1.4707380411795842e-17 9.070153291993548e-17
-3.924 	-1.6050650773666394e-17 	9.798021008653972e-17 	1.501911333217543e-18 1.4846919125380242e-17 8.163137962794193e-17
-3.923 	-1.6260489222644837e-17 	9.810533999864885e-17 	1.515410274459158e-18 1.4958550096247763e-17 8.163137962794193e-17
-3.922 	-1.5269765348620735e-17 	1.0732865667513603e-16 	1.5290349453683855e-18 1.5098088809832163e-17 9.070153291993548e-17
-3.9210000000000003 	-1.677108064401431e-17 	9.841179254374642e-17 	1.5427853923879259e-18 1.5237627523416563e-17 8.163137962794193e-17
-3.92 	-1.573581392565463e-17 	1.0760742892597793e-16 	1.556637511758358e-18 1.5349258494284085e-17 9.070153291993548e-17
-3.919 	-1.6036843712751972e-17 	1.0778887751155891e-16 	1.5706396410380661e-18 1.5516704950585364e-17 9.070153291993548e-17
-3.918 	-1.7493893080586614e-17 	9.884445908494888e-17 	1.5847435355540614e-18 1.5628335921452885e-17 8.163137962794193e-17
-3.9170000000000003 	-1.6504552320633057e-17 	1.080684050878375e-16 	1.598997532864727e-18 1.5767874635037285e-17 9.070153291993548e-17
-3.916 	-1.6761316792593375e-17 	1.0822229965685424e-16 	1.613353388297072e-18 1.5907413348621685e-17 9.070153291993548e-17
-3.915 	-1.7018411359966757e-17 	1.0837634442155104e-16 	1.6278594394094772e-18 1.604695206220609e-17 9.070153291993548e-17
-3.914 	-1.6029848620816056e-17 	1.1760064442924847e-16 	1.6424674415289547e-18 1.618649077579049e-17 9.977168621192903e-17
-3.9130000000000003 	-1.7578421647315614e-17 	1.0871269588424114e-16 	1.6572257322138882e-18 1.635393723209177e-17 9.070153291993548e-17
-3.912 	-1.7791252124395806e-17 	1.0883918718968606e-16 	1.672086066791289e-18 1.646556820295929e-17 9.070153291993548e-17
-3.911 	-1.684861718091698e-17 	1.1809179765400913e-16 	1.6870967828195317e-18 1.663301465926057e-17 9.977168621192903e-17
-3.91 	-1.835297980611137e-17 	1.0917632007860819e-16 	1.702233785827745e-18 1.677255337284497e-17 9.070153291993548e-17
-3.9090000000000003 	-1.73658573404101e-17 	1.1840127542061701e-16 	1.7174971222586245e-18 1.691209208642937e-17 9.977168621192903e-17
-3.908 	-1.7669989799835458e-17 	1.1858413574341667e-16 	1.7329109887569794e-18 1.7079538542730653e-17 9.977168621192903e-17
-3.907 	-1.9175238783269773e-17 	1.0966906146710247e-16 	1.7484512908519384e-18 1.7219077256315054e-17 9.070153291993548e-17
-3.906 	-1.818900300243345e-17 	1.1889442025681467e-16 	1.764118074986189e-18 1.7358615969899454e-17 9.977168621192903e-17
-3.9050000000000002 	-1.724814110205948e-17 	1.2814783746792784e-16 	1.7799355378045435e-18 1.7526062426200736e-17 1.0884183950392258e-16
-3.904 	-1.8799373223692848e-17 	1.192610988294693e-16 	1.7959037350382387e-18 1.7693508882502018e-17 9.977168621192903e-17
-3.903 	-2.0305894023721382e-17 	1.1034660323844041e-16 	1.8120227224185093e-18 1.7833047596086418e-17 9.070153291993548e-17
-3.902 	-1.932093052900277e-17 	1.1957254092707432e-16 	1.8282684054744787e-18 1.7972586309670818e-17 9.977168621192903e-17
-3.9010000000000002 	-1.8381288307703863e-17 	1.2882651310054351e-16 	1.84464083064884e-18 1.81400327659721e-17 1.0884183950392258e-16
-3.9 	-1.8687859186232403e-17 	1.2901048292078236e-16 	1.8611641945864055e-18 1.830747922227338e-17 1.0884183950392258e-16
-3.899 	-1.899476191578351e-17 	1.2919460373551565e-16 	1.8778385530184134e-18 1.847492567857466e-17 1.0884183950392258e-16
-3.898 	-1.9301996618841538e-17 	1.293788756004746e-16 	1.8946639616760944e-18 1.8642372134875943e-17 1.0884183950392258e-16
-3.8970000000000002 	-1.960956341789089e-17 	1.2956329857139048e-16 	1.911640476290686e-18 1.8809818591177222e-17 1.0884183950392258e-16
-3.896 	-1.991746243541593e-17 	1.297478727039945e-16 	1.9287681525934216e-18 1.8977265047478504e-17 1.0884183950392258e-16
-3.895 	-2.0225693793901064e-17 	1.299325980540179e-16 	1.9460470463155414e-18 1.9144711503779783e-17 1.0884183950392258e-16
-3.894 	-2.053425761583066e-17 	1.3011747467719192e-16 	1.9634772131882796e-18 1.9312157960081065e-17 1.0884183950392258e-16
-3.8930000000000002 	-2.0843154023689115e-17 	1.303025026292478e-16 	1.9810587089428697e-18 1.9479604416382347e-17 1.0884183950392258e-16
-3.892 	-2.115238313996078e-17 	1.3048768196591676e-16 	1.9987915893105473e-18 1.9647050872683626e-17 1.0884183950392258e-16
-3.891 	-2.1461945087130078e-17 	1.3067301274293002e-16 	2.01667591002255e-18 1.9814497328984908e-17 1.0884183950392258e-16
-3.89 	-2.1771839987681372e-17 	1.3085849501601888e-16 	2.034711726810115e-18 1.998194378528619e-17 1.0884183950392258e-16
-3.8890000000000002 	-2.083618659280976e-17 	1.4011428213290806e-16 	2.0528990954044752e-18 2.014939024158747e-17 1.179119927959161e-16
-3.888 	-2.1191843567662274e-17 	1.4032799945826071e-16 	2.0712622217389763e-18 2.034474444060563e-17 1.179119927959161e-16
-3.887 	-2.1502844236812145e-17 	1.4051398486365642e-16 	2.0898011708333966e-18 2.0512190896906912e-17 1.179119927959161e-16
-3.886 	-2.1859221113627647e-17 	1.4072802974934658e-16 	2.108491857505402e-18 2.0707545095925073e-17 1.179119927959161e-16
-3.8850000000000002 	-2.3416770244846505e-17 	1.3184416539363516e-16 	2.1273343374862206e-18 2.0874991552226355e-17 1.0884183950392258e-16
-3.884 	-2.123706206788003e-17 	1.5017093691314651e-16 	2.146352816709206e-18 2.1042438008527634e-17 1.2698214608790967e-16
-3.883 	-2.1639589029109067e-17 	1.5041339339836648e-16 	2.1655473601941323e-18 2.1265699950262677e-17 1.2698214608790967e-16
-3.882 	-2.4444127300794054e-17 	1.3245987979324519e-16 	2.1848938827586596e-18 2.143314640656396e-17 1.0884183950392258e-16
-3.8810000000000002 	-2.2265527301285686e-17 	1.5078715554111105e-16 	2.2044165903361377e-18 2.1600592862865238e-17 1.2698214608790967e-16
-3.88 	-2.2669162848254107e-17 	1.5103011644045628e-16 	2.224115547946339e-18 2.182385480460028e-17 1.2698214608790967e-16
-3.879 	-2.2983047371381193e-17 	1.5121741401921815e-16 	2.2439666704069324e-18 2.199130126090156e-17 1.2698214608790967e-16
-3.878 	-2.3387458040355408e-17 	1.5146072760439964e-16 	2.2640183138533738e-18 2.2214563202636602e-17 1.2698214608790967e-16
-3.8770000000000002 	-2.3702117971285177e-17 	1.516483779990373e-16 	2.284222252189752e-18 2.238200965893788e-17 1.2698214608790967e-16
-3.876 	-2.4107304333858975e-17 	1.5189204453013412e-16 	2.3046268415515275e-18 2.2605271600672924e-17 1.2698214608790967e-16
-3.875 	-2.442274024418522e-17 	1.5208004800072666e-16 	2.3251838558427915e-18 2.2772718056974206e-17 1.2698214608790967e-16
-3.874 	-2.3582821500663104e-17 	1.6139422102981144e-16 	2.345941651199002e-18 2.2995979998709245e-17 1.360522993799032e-16
-3.873 	-2.5190011133352987e-17 	1.5254035643736343e-16 	2.3668761517263648e-18 2.3191334197727406e-17 1.2698214608790967e-16
-3.872 	-2.4305826523514134e-17 	1.6182697519909342e-16 	2.3879874224446545e-18 2.3386688396745567e-17 1.360522993799032e-16
-3.871 	-2.4713007727996914e-17 	1.6207154939695958e-16 	2.4092996785757545e-18 2.360995033848061e-17 1.360522993799032e-16
-3.87 	-2.6321416386511815e-17 	1.532182394696343e-16 	2.4307888442258647e-18 2.380530453749877e-17 1.2698214608790967e-16
-3.869 	-2.5438451251607374e-17 	1.625054131008349e-16 	2.452454984414767e-18 2.400065873651693e-17 1.360522993799032e-16
-3.868 	-2.4600971008844703e-17 	1.7182069566451308e-16 	2.4743223143643445e-18 2.422392067825197e-17 1.4512245267189677e-16
-3.867 	-2.6255695840596923e-17 	1.6299587290827313e-16 	2.496390908382913e-18 2.4447182619987014e-17 1.360522993799032e-16
-3.866 	-2.6619939072790688e-17 	1.6321349703968717e-16 	2.5186608407787836e-18 2.4642536819005175e-17 1.360522993799032e-16
-3.865 	-2.702961461049766e-17 	1.634592061763016e-16 	2.5411080356581652e-18 2.4865798760740217e-17 1.360522993799032e-16
-3.864 	-2.7394690226146444e-17 	1.6367720904790453e-16 	2.563756708242943e-18 2.5061152959758378e-17 1.360522993799032e-16
-3.863 	-2.6559370158796187e-17 	1.7299347450623161e-16 	2.5866069328414314e-18 2.5284414901493418e-17 1.4512245267189677e-16
-3.862 	-2.697037459082001e-17 	1.7323978829888715e-16 	2.6096587837619307e-18 2.550767684322846e-17 1.4512245267189677e-16
-3.861 	-2.7381822314241156e-17 	1.7348630379217306e-16 	2.632912335312774e-18 2.57309387849635e-17 1.4512245267189677e-16
-3.86 	-2.779371349237212e-17 	1.737330210603976e-16 	2.6563676618022654e-18 2.5954200726698543e-17 1.4512245267189677e-16
-3.859 	-2.6960166917236114e-17 	1.830500934698626e-16 	2.6800248375387216e-18 2.6177462668433582e-17 1.541926059638903e-16
-3.858 	-2.7417988218242224e-17 	1.8332512225360625e-16 	2.7038839368304577e-18 2.6428632352885504e-17 1.541926059638903e-16
-3.857 	-2.7831263816943816e-17 	1.8357246944269875e-16 	2.7279691841878947e-18 2.6651894294620547e-17 1.541926059638903e-16
-3.856 	-2.82900262675373e-17 	1.8384792645596855e-16 	2.7522565130057776e-18 2.6903063979072468e-17 1.541926059638903e-16
-3.855 	-2.9950071657588564e-17 	1.750255245902967e-16 	2.77674599759243e-18 2.7126325920807508e-17 1.4512245267189677e-16
-3.854 	-2.911885183662628e-17 	1.8434365568889111e-16 	2.8014618624582668e-18 2.734958786254255e-17 1.541926059638903e-16
-3.853 	-2.833317245447362e-17 	1.936899209940785e-16 	2.8264041912001467e-18 2.7600757546994472e-17 1.6326275925588386e-16
-3.852 	-3.0039700637351635e-17 	1.848960821125495e-16 	2.851548917212803e-18 2.785192723144639e-17 1.541926059638903e-16
-3.851 	-3.0455749711187e-17 	1.8514469125187629e-16 	2.8768961148045593e-18 2.8075189173181433e-17 1.541926059638903e-16
-3.85 	-2.9671511439460375e-17 	1.9449161227220516e-16 	2.9024941586879473e-18 2.832635885763336e-17 1.6326275925588386e-16
-3.849 	-3.0133599892240825e-17 	1.947685826393133e-16 	2.9282948413441478e-18 2.8577528542085276e-17 1.6326275925588386e-16
-3.848 	-3.059624001468375e-17 	1.9504580401990674e-16 	2.9543465374856816e-18 2.8828698226537195e-17 1.6326275925588386e-16
-3.847 	-3.105932585779758e-17 	1.953232282064667e-16 	2.98060103959373e-18 2.907986791098912e-17 1.6326275925588386e-16
-3.846 	-3.152296373802704e-17 	1.956009035737057e-16 	3.0071067223808224e-18 2.933103759544104e-17 1.6326275925588386e-16
-3.845 	-3.074116633509128e-17 	2.049489352060985e-16 	3.033815378328135e-18 2.958220727989296e-17 1.723329125478774e-16
-3.844 	-3.1250845431531565e-17 	2.0525497263708736e-16 	3.060775382148207e-18 2.986128470706176e-17 1.723329125478774e-16
-3.843 	-3.29618627078865e-17 	1.9646317632392185e-16 	3.087962676524315e-18 3.011245439151369e-17 1.6326275925588386e-16
-3.842 	-3.218161695753275e-17 	2.0581191396889632e-16 	3.115377345053313e-18 3.0363624075965606e-17 1.723329125478774e-16
-3.841 	-3.144696690685954e-17 	2.1518881096453953e-16 	3.143043621534168e-18 3.0642701503134406e-17 1.8140306583987096e-16
-3.84 	-3.320463277906813e-17 	2.0642565307703287e-16 	3.1709615988522654e-18 3.0921778930303206e-17 1.723329125478774e-16
-3.839 	-3.491780931220258e-17 	1.9763483924053201e-16 	3.1991313698930116e-18 3.117294861475513e-17 1.6326275925588386e-16
-3.838 	-3.413972361477686e-17 	2.0698455972442412e-16 	3.2275288773396766e-18 3.142411829920705e-17 1.723329125478774e-16
-3.837 	-3.340723441318014e-17 	2.1636243992123804e-16 	3.256178354991222e-18 3.1703195726375856e-17 1.8140306583987096e-16
-3.8360000000000003 	-3.3921180559324434e-17 	2.1667041888914866e-16 	3.285079895733056e-18 3.1982273153544656e-17 1.8140306583987096e-16
-3.835 	-3.4435680886061104e-17 	2.1697865001303496e-16 	3.314233592450564e-18 3.2261350580713456e-17 1.8140306583987096e-16
-3.834 	-3.4950735597530714e-17 	2.1728713338578235e-16 	3.343639538029136e-18 3.2540428007882257e-17 1.8140306583987096e-16
-3.833 	-3.4220463526584676e-17 	2.266660223922697e-16 	3.3732978253541626e-18 3.2819505435051057e-17 1.904732191318645e-16
-3.8320000000000003 	-3.353584204873697e-17 	2.3607309572630793e-16 	3.4032326975131527e-18 3.312649060493674e-17 1.9954337242385805e-16
-3.831 	-3.534353833103682e-17 	2.2734011501316485e-16 	3.433420106477935e-18 3.343347577482242e-17 1.904732191318645e-16
-3.83 	-3.7106747111528314e-17 	2.1857947918699607e-16 	3.4638601451338925e-18 3.371255320199122e-17 1.8140306583987096e-16
-3.829 	-3.637874857529143e-17 	2.2795940266739093e-16 	3.494552906366411e-18 3.399163062916003e-17 1.904732191318645e-16
-3.8280000000000003 	-3.5696401469129524e-17 	2.3736751085616677e-16 	3.525522633263009e-18 3.429861579904571e-17 1.9954337242385805e-16
-3.827 	-3.750642603665791e-17 	2.2863558952879347e-16 	3.556769427997616e-18 3.4605600968931386e-17 1.904732191318645e-16
-3.826 	-3.8026082588479275e-17 	2.2894616677050675e-16 	3.588269242542042e-18 3.488467839610019e-17 1.904732191318645e-16
-3.825 	-3.734556292890248e-17 	2.3835510646002986e-16 	3.620070470185913e-18 3.5191663565985875e-17 1.9954337242385805e-16
-3.8240000000000003 	-3.791148116882468e-17 	2.3869414608171707e-16 	3.6521249219874744e-18 3.549864873587155e-17 1.9954337242385805e-16
-3.823 	-3.847806229422942e-17 	2.3903348732085164e-16 	3.684480991236346e-18 3.5805633905757233e-17 1.9954337242385805e-16
-3.822 	-3.779937210223006e-17 	2.4844325943068737e-16 	3.717114639192881e-18 3.6112619075642915e-17 2.086135257158516e-16
-3.821 	-3.8412216283477864e-17 	2.488110636721281e-16 	3.750025968031014e-18 3.644751198824548e-17 2.086135257158516e-16
-3.8200000000000003 	-4.022656269205772e-17 	2.4008110881211604e-16 	3.783239230126794e-18 3.675449715813116e-17 1.9954337242385805e-16
-3.819 	-3.954975710602238e-17 	2.49491738430609e-16 	3.8167303867405825e-18 3.7061482328016844e-17 2.086135257158516e-16
-3.818 	-3.891860521602306e-17 	2.5893055378851086e-16 	3.850499540046293e-18 3.73963752406194e-17 2.1768367900784515e-16
-3.817 	-3.953399897095194e-17 	2.592995181034871e-16 	3.884570942419983e-18 3.7731268153221966e-17 2.1768367900784515e-16
-3.8160000000000003 	-4.1395938615777766e-17 	2.5059863148700026e-16 	3.918944705324123e-18 3.806616106582453e-17 2.086135257158516e-16
-3.815 	-4.196761892937274e-17 	2.5094029289178297e-16 	3.953620940221185e-18 3.837314623571021e-17 2.086135257158516e-16
-3.814 	-4.133912560374158e-17 	2.6038031791473154e-16 	3.988599758573641e-18 3.870803914831277e-17 2.1768367900784515e-16
-3.813 	-4.071129753162436e-17 	2.69820645632598e-16 	4.023881271843954e-18 3.9042932060915334e-17 2.267538322998387e-16
-3.8120000000000003 	-4.1375059052797155e-17 	2.702190306075681e-16 	4.059465591494607e-18 3.9405732716234774e-17 2.267538322998387e-16
-3.811 	-4.3240324965192755e-17 	2.6151965746567057e-16 	4.095352828988067e-18 3.974062562883734e-17 2.1768367900784515e-16
-3.81 	-4.38603754947193e-17 	2.6189074064507184e-16 	4.131543095786798e-18 4.00755185414399e-17 2.1768367900784515e-16
-3.809 	-4.323526396291169e-17 	2.7133230440743657e-16 	4.168060653555395e-18 4.041041145404246e-17 2.267538322998387e-16
-3.8080000000000003 	-4.2655914729959996e-17 	2.80802103324239e-16 	4.20490562304486e-18 4.0773212109361906e-17 2.358239855918322e-16
-3.807 	-4.4568995003741597e-17 	2.7213189903932415e-16 	4.242053974804103e-18 4.1136012764681346e-17 2.267538322998387e-16
-3.806 	-4.394598989711618e-17 	2.815744212396138e-16 	4.279529970497695e-18 4.147090567728391e-17 2.358239855918322e-16
-3.805 	-4.465967195988837e-17 	2.820029333980291e-16 	4.317333730876648e-18 4.186161407532023e-17 2.358239855918322e-16
-3.8040000000000003 	-4.5283989192079866e-17 	2.82375957956447e-16 	4.3554653766919836e-18 4.219650698792279e-17 2.358239855918322e-16
-3.803 	-4.475323138185604e-17 	2.918752792984796e-16 	4.3939250286946955e-18 4.258721538595911e-17 2.448941388838258e-16
-3.802 	-4.6669967814479796e-17 	2.832067385909487e-16 	4.4327369578379176e-18 4.2950016041278557e-17 2.358239855918322e-16
-3.801 	-4.609560986097665e-17 	2.9267880857418077e-16 	4.4718529937569786e-18 4.3312816696597997e-17 2.448941388838258e-16
-3.8000000000000003 	-4.681295075683341e-17 	2.9310898552677866e-16 	4.511321548318563e-18 4.370352509463432e-17 2.448941388838258e-16
-3.799 	-4.748602396952175e-17 	2.9351160738534175e-16 	4.5511427515622265e-18 4.406632574995376e-17 2.448941388838258e-16
-3.798 	-4.820491523187447e-17 	2.939424897653434e-16 	4.591316733527523e-18 4.4457034147990086e-17 2.448941388838258e-16
-3.797 	-4.887948630608647e-17 	2.943457931611872e-16 	4.6318194740518896e-18 4.4819834803309526e-17 2.448941388838258e-16
-3.7960000000000003 	-4.835399460985327e-17 	3.0384751062125365e-16 	4.672675244088437e-18 4.521054320134585e-17 2.5396429217581934e-16
-3.795 	-4.7829279076743154e-17 	3.133495812408718e-16 	4.713884173676727e-18 4.560125159938217e-17 2.630344454678129e-16
-3.794 	-4.859631716392637e-17 	3.138097837510067e-16 	4.7554705430584275e-18 4.601986774013537e-17 2.630344454678129e-16
-3.793 	-4.931908928272251e-17 	3.142424319473441e-16 	4.797410341359493e-18 4.6410576138171694e-17 2.630344454678129e-16
-3.7920000000000003 	-5.008768116596439e-17 	3.147033414453573e-16 	4.83970369861949e-18 4.68291922789249e-17 2.630344454678129e-16
-3.791 	-5.20578890237023e-17 	3.0606654359765853e-16 	4.8823507448779624e-18 4.721990067696122e-17 2.5396429217581934e-16
-3.79 	-5.0291283456660035e-17 	3.2464058359518055e-16 	4.925375760376581e-18 4.761060907499754e-17 2.721045987598064e-16
-3.789 	-5.1107357074530966e-17 	3.2513051060271747e-16 	4.968778884443431e-18 4.805713295846762e-17 2.721045987598064e-16
-3.7880000000000003 	-5.183417654687556e-17 	3.2556500037271695e-16 	5.012560256406597e-18 4.844784135650394e-17 2.721045987598064e-16
-3.787 	-5.265191307397665e-17 	3.260556840153746e-16 	5.056720015594174e-18 4.889436523997403e-17 2.721045987598064e-16
-3.786 	-5.338039606797335e-17 	3.26490930699151e-16 	5.101258301334252e-18 4.928507363801035e-17 2.721045987598064e-16
-3.785 	-5.295391535785919e-17 	3.360525248262353e-16 	5.146175252954907e-18 4.9731597521480435e-17 2.8117475205179997e-16
-3.7840000000000003 	-5.497504026972517e-17 	3.274463075820264e-16 	5.191495159986353e-18 5.015021366223363e-17 2.721045987598064e-16
-3.783 	-5.450528836855715e-17 	3.3698080002583205e-16 	5.237218171045222e-18 5.0568829802986835e-17 2.8117475205179997e-16
-3.782 	-5.4081412370510584e-17 	3.4654357931479646e-16 	5.283320284546005e-18 5.101535368645692e-17 2.9024490534379353e-16
-3.781 	-5.4904304306133895e-17 	3.4703660870373946e-16 	5.3298257900189385e-18 5.1461877569927e-17 2.9024490534379353e-16
-3.7800000000000002 	-5.572808313076275e-17 	3.4753004163327127e-16 	5.376734836080624e-18 5.1908401453397086e-17 2.9024490534379353e-16
-3.779 	-5.655274917102219e-17 	3.480238782520084e-16 	5.424047571347694e-18 5.2354925336867165e-17 2.9024490534379353e-16
-3.778 	-5.6132421382248e-17 	3.575882720005611e-16 	5.4717641444367936e-18 5.280144922033725e-17 2.9931505863578704e-16
-3.777 	-5.575807726243853e-17 	3.671810016284715e-16 	5.519908854166659e-18 5.327588084652421e-17 3.083852119277806e-16
-3.7760000000000002 	-5.787638410112736e-17 	3.5863382881673854e-16 	5.56845770824033e-18 5.375031247271117e-17 2.9931505863578704e-16
-3.775 	-5.995053675884298e-17 	3.500591525552492e-16 	5.6174108552744504e-18 5.419683635618126e-17 2.9024490534379353e-16
-3.774 	-5.828804032499266e-17 	3.686953889117218e-16 	5.666816744289846e-18 5.464336023965134e-17 3.083852119277806e-16
-3.773 	-5.920828131737983e-17 	3.692475387784118e-16 	5.71662724207604e-18 5.514569960855518e-17 3.083852119277806e-16
-3.7720000000000002 	-6.003943257911121e-17 	3.6974432621745976e-16 	5.766890797653867e-18 5.559222349202527e-17 3.083852119277806e-16
-3.771 	-5.971567784729038e-17 	3.7936748735851607e-16 	5.817559277812804e-18 5.60945628609291e-17 3.1745536521977416e-16
-3.77 	-6.183963954498843e-17 	3.7082288754647037e-16 	5.868681131573702e-18 5.656899448711606e-17 3.083852119277806e-16
-3.769 	-6.14728352780194e-17 	3.8041904785920747e-16 	5.9202565261302776e-18 5.704342611330304e-17 3.1745536521977416e-16
-3.7680000000000002 	-6.115201780336691e-17 	3.900435454724487e-16 	5.972261478474132e-18 5.754576548220687e-17 3.2652551851176773e-16
-3.767 	-6.207807919240739e-17 	3.90598343659591e-16 	6.024720296712526e-18 5.804810485111072e-17 3.2652551851176773e-16
-3.766 	-6.300513844130475e-17 	3.911535958798215e-16 	6.0776331480391836e-18 5.855044422001456e-17 3.2652551851176773e-16
-3.765 	-6.393319591751212e-17 	3.917093023003339e-16 	6.131000199647795e-18 5.90527835889184e-17 3.2652551851176773e-16