# Aki and Richards - double-couple solution eq.(4.32) and (4.33)
#
# homogeneous elastic medium: rho/vp/vs   = 2300.0 / 2800.0 / 1500.0
# receiver station          : x/y/z       = 1000.0 / 6000.0 / 2000.0
#                           : r/theta/phi = 6403.1242374328485 / 1.253133133812636 / 1.4056476493802699
#
# solution component        : cartesian Z / spherical PHI
#
# format:
#time 	#u_cartesian 	#u_spherical
-4.0 	1.0744612818812531e-16 	1.7640359674932744e-16 	2.449222351255491e-17 1.5191137323677253e-16 0.0
-3.999 	1.0712785134467435e-16 	1.77867923335432e-16 	2.4704735583378272e-17 1.5316318775205373e-16 0.0
-3.998 	1.1095743181189628e-16 	1.7940771274051122e-16 	2.4919074325218554e-17 1.5448863841529267e-16 0.0
-3.997 	1.1062272964688531e-16 	1.8094932957696344e-16 	2.5135240498431854e-17 1.558140890785316e-16 0.0
-3.996 	1.1028755282825832e-16 	1.8249277460514472e-16 	2.535323486337419e-17 1.5713953974177053e-16 0.0
-3.995 	1.12033805246618e-16 	1.840380485854111e-16 	2.557305818040167e-17 1.5846499040500945e-16 0.0
-3.994 	1.1377181924201865e-16 	1.8562206691732085e-16 	2.5794807775093608e-17 1.5982725914222724e-16 0.0
-3.993 	1.134274538925879e-16 	1.8720791576426994e-16 	2.6018387884824918e-17 1.6118952787944503e-16 0.0
-3.992 	1.130825880176892e-16 	1.8879569245183757e-16 	2.6243895835174757e-17 1.6255179661666282e-16 0.0
-3.991 	1.1481912549695784e-16 	1.9038539778262186e-16 	2.6471332428741275e-17 1.6391406535388058e-16 0.0
-3.99 	1.165474237307203e-16 	1.9201385063319987e-16 	2.670069846812263e-17 1.6531315216507724e-16 0.0
-3.989 	1.1827522081387886e-16 	1.9364423373219066e-16 	2.6931994755916784e-17 1.6671223897627387e-16 0.0
-3.988 	1.1999475316353458e-16 	1.9531346252139448e-16 	2.7165318659945116e-17 1.6814814386144938e-16 0.0
-3.987 	1.1963187984684787e-16 	1.9698462320644933e-16 	2.7400574459824454e-17 1.6958404874662488e-16 0.0
-3.986 	1.1926847967221475e-16 	1.9865781315517648e-16 	2.763785952337609e-17 1.7101995363180038e-16 0.0
-3.985 	1.209864565083034e-16 	2.0033303321241598e-16 	2.787717469544009e-17 1.724558585169759e-16 0.0
-3.984 	1.2269616774447278e-16 	2.0204710229698687e-16 	2.8118520820856613e-17 1.7392858147613026e-16 0.0
-3.983 	1.2440535146465806e-16 	2.0376320317975035e-16 	2.8361898744465725e-17 1.7540130443528461e-16 0.0
-3.982 	1.261062566106126e-16 	2.055182030621369e-16 	2.8607357593719054e-17 1.7691084546841784e-16 0.0
-3.981 	1.2572471717277378e-16 	2.0727528473612879e-16 	2.885489823457773e-17 1.7842038650155106e-16 0.0
-3.98 	1.2534262447870637e-16 	2.0903449735029882e-16 	2.910456981561454e-17 1.7992992753468428e-16 0.0
-3.979 	1.270418823861112e-16 	2.1079584179172893e-16 	2.935637322391142e-17 1.814394685678175e-16 0.0
-3.978 	1.2873284827338015e-16 	2.1259613702148018e-16 	2.9610309346550584e-17 1.829858276749296e-16 0.0
-3.977 	1.304232602134808e-16 	2.143985658526558e-16 	2.9866379070614104e-17 1.8453218678204168e-16 0.0
-3.976 	1.321053671371995e-16 	2.1623999552892812e-16 	3.01246315657955e-17 1.8611536396313262e-16 0.0
-3.975 	1.3378690711202013e-16 	2.1808360888452174e-16 	3.038506774029818e-17 1.8769854114422355e-16 0.0
-3.974 	1.3337822497523133e-16 	2.1996627318422998e-16 	3.064773678493661e-17 1.8931853639929336e-16 0.0
-3.973 	1.3297670118012837e-16 	2.218143532094193e-16 	3.091263962903499e-17 1.909017135803843e-16 0.0
-3.972 	1.367306670548971e-16 	2.2370148603737146e-16 	3.117977720191737e-17 1.9252170883545408e-16 0.0
-3.971 	1.3631250600620065e-16 	2.2562767259741067e-16 	3.1449150432907905e-17 1.9417852216450276e-16 0.0
-3.97 	1.359014775041093e-16 	2.2751937423612628e-16 	3.172085681655372e-17 1.9579851741957254e-16 0.0
-3.969 	1.37564021313447e-16 	2.294501797904307e-16 	3.199484904180953e-17 1.974553307486212e-16 0.0
-3.968 	1.3922597140271645e-16 	2.3138327213679027e-16 	3.2271128059120394e-17 1.9911214407766987e-16 0.0
-3.967 	1.4296146823864734e-16 	2.3335556686485187e-16 	3.254979138415448e-17 2.0080577548069737e-16 0.0
-3.966 	1.4460670338748008e-16 	2.3536706496730275e-16 	3.2830840009598975e-17 2.0253622495770377e-16 0.0
-3.9650000000000003 	1.4208752334236982e-16 	2.3738090108023956e-16 	3.3114226645529435e-17 2.0426667443471014e-16 0.0
-3.964 	1.4373925743516636e-16 	2.393603546664727e-16 	3.3400048828735025e-17 2.0596030583773766e-16 0.0
-3.963 	1.4745678640479797e-16 	2.4141588096174696e-16 	3.3688307573024067e-17 2.077275733887229e-16 0.0
-3.962 	1.470098743305691e-16 	2.4347384483191266e-16 	3.397900389220453e-17 2.0949484093970811e-16 0.0
-3.9610000000000003 	1.4656232912529282e-16 	2.4553424729077776e-16 	3.427213880008442e-17 2.1126210849069335e-16 0.0
-3.96 	1.5027794616616245e-16 	2.4759713763476233e-16 	3.456776159308373e-17 2.130293760416786e-16 0.0
-3.959 	1.5189553631387518e-16 	2.4973615304675283e-16 	3.4865873306131287e-17 2.1487027974062155e-16 0.0
-3.958 	1.4935639758594135e-16 	2.5184088862235363e-16 	3.5166523256767995e-17 2.1667436536558564e-16 0.0
-3.9570000000000003 	1.5306231184496796e-16 	2.5394816349159357e-16 	3.5469712501043844e-17 2.1847845099054975e-16 0.0
-3.956 	1.5675207741054875e-16 	2.561316631410921e-16 	3.577549037762055e-17 2.2035617276347155e-16 0.0
-3.955 	1.5419545834553755e-16 	2.583177525000626e-16 	3.608385796366925e-17 2.2223389453639335e-16 0.0
-3.954 	1.5580970057799973e-16 	2.60469662854309e-16 	3.6394864618972686e-17 2.2407479823533633e-16 0.0
-3.9530000000000003 	1.5948969736054848e-16 	2.6269780124144836e-16 	3.6708463159211334e-17 2.25989338082237e-16 0.0
-3.952 	1.5900518768479804e-16 	2.6492862915591725e-16 	3.702475122677958e-17 2.279038779291377e-16 0.0
-3.951 	1.60601896059777e-16 	2.6716209943451724e-16 	3.7343681658478903e-17 2.2981841777603835e-16 0.0
-3.95 	1.6219015473780117e-16 	2.6943512781474237e-16 	3.7665352117824535e-17 2.3176977569691784e-16 0.0
-3.9490000000000003 	1.6377771426165436e-16 	2.717108490805365e-16 	3.7989715462739093e-17 2.337211336177974e-16 0.0
-3.948 	1.6535682350180244e-16 	2.740261307079032e-16 	3.8316821095247386e-17 2.357093096126558e-16 0.0
-3.947 	1.6485330384177574e-16 	2.76344204046009e-16 	3.8646718438494867e-17 2.3769748560751416e-16 0.0
-3.946 	1.6851287977963535e-16 	2.7866502197389777e-16 	3.8979360371525216e-17 2.396856616023726e-16 0.0
-3.9450000000000003 	1.7007433707742105e-16 	2.810623183452846e-16 	3.931484460009589e-17 2.417474737451887e-16 0.0
-3.944 	1.6956089033789124e-16 	2.8342564012100865e-16 	3.9653172306982725e-17 2.437724678140259e-16 0.0
-3.943 	1.7320277491144193e-16 	2.858286246318041e-16 	3.999434467496211e-17 2.45834279956842e-16 0.0
-3.942 	1.726723741389326e-16 	2.8827127306044703e-16 	4.0338362886810024e-17 2.47932910173637e-16 0.0
-3.9410000000000003 	1.7423085151264384e-16 	2.906800470069788e-16 	4.068532469052573e-17 2.499947223164531e-16 0.0
-3.94 	1.7785499180468102e-16 	2.9316540191835444e-16 	4.103523131112751e-17 2.5213017060722695e-16 0.0
-3.939 	1.7731455903951228e-16 	2.9565370287163425e-16 	4.138808397363349e-17 2.5426561889800075e-16 0.0
-3.938 	1.7677336107511427e-16 	2.9814495109183624e-16 	4.1743883903061645e-17 2.564010671887746e-16 0.0
-3.9370000000000003 	1.8039518069822418e-16 	3.0063924436920185e-16 	4.210272888965347e-17 2.585365154795484e-16 0.0
-3.936 	1.8400073279723295e-16 	3.0321022011894885e-16 	4.2464620200668925e-17 2.6074559991827993e-16 0.0
-3.935 	1.834416854736556e-16 	3.0578424346037986e-16 	4.282955910336833e-17 2.629546843570115e-16 0.0
-3.934 	1.8288184657450147e-16 	3.083613156607548e-16 	4.319754686501174e-17 2.6516376879574305e-16 0.0
-3.9330000000000003 	1.8648499887554025e-16 	3.10941534552557e-16 	4.356868131808243e-17 2.673728532344746e-16 0.0
-3.932 	1.9007186978981556e-16 	3.1359848931063495e-16 	4.394291548947107e-17 2.6965557382116387e-16 0.0
-3.931 	1.8949411487773886e-16 	3.1625859335802334e-16 	4.432029895017023e-17 2.719382944078531e-16 0.0
-3.93 	1.8891552943973256e-16 	3.1892189628683627e-16 	4.4700881292293896e-17 2.742210149945424e-16 0.0
-3.9290000000000003 	1.9249992130635483e-16 	3.2158839942769656e-16 	4.508466384646488e-17 2.7650373558123165e-16 0.0
-3.928 	1.960680053495458e-16 	3.243317402591852e-16 	4.547164794330658e-17 2.788600923158786e-16 0.0
-3.927 	1.9547142458313024e-16 	3.2707838052919085e-16 	4.586193147866524e-17 2.812164490505256e-16 0.0
-3.926 	1.969558909147131e-16 	3.2982832161057854e-16 	4.6255515825405995e-17 2.8357280578517257e-16 0.0
-3.9250000000000003 	1.9843176159656235e-16 	3.3261838295019233e-16 	4.66524023563939e-17 2.859659805937984e-16 0.0
-3.924 	1.9990676203990195e-16 	3.354117961295302e-16 	4.705264072710599e-17 2.8835915540242425e-16 0.0
-3.923 	2.0137314104391066e-16 	3.3824542889916868e-16 	4.7456280614139736e-17 2.9078914828502896e-16 0.0
-3.922 	2.049205531680987e-16 	3.410824163176244e-16 	4.7863275149990726e-17 2.9321914116763367e-16 0.0
-3.9210000000000003 	2.0845159228473004e-16 	3.439964924920645e-16 	4.827372229386845e-17 2.9572277019819607e-16 0.0
-3.92 	2.0781792645145032e-16 	3.469140227107594e-16 	4.868762348200094e-17 2.9822639922875847e-16 0.0
-3.919 	2.0718336347139968e-16 	3.498350084099374e-16 	4.910498015061647e-17 3.0073002825932093e-16 0.0
-3.918 	2.1071168607647875e-16 	3.527595475910495e-16 	4.952589030116619e-17 3.0323365728988333e-16 0.0
-3.9170000000000003 	2.1422360910024211e-16 	3.55761277880524e-16 	4.9950355412120554e-17 3.0581092246840347e-16 0.0
-3.916 	2.1357080058936838e-16 	3.587665646088727e-16 	5.037837696194912e-17 3.0838818764692357e-16 0.0
-3.915 	2.1499897242404421e-16 	3.6177540925456655e-16 	5.080995642912283e-17 3.109654528254437e-16 0.0
-3.914 	2.1641845675787985e-16 	3.6482472793527734e-16 	5.124519185733462e-17 3.1357953607794273e-16 0.0
-3.9130000000000003 	2.1783699149933374e-16 	3.678777040977383e-16 	5.168408476729663e-17 3.161936193304417e-16 0.0
-3.912 	2.2341063359071064e-16 	3.7097120561925233e-16 	5.2126684962332774e-17 3.1884452065691957e-16 0.0
-3.911 	2.22722123888353e-16 	3.7414205211563125e-16 	5.257299398427608e-17 3.2156905813135515e-16 0.0
-3.91 	2.2204811493350077e-16 	3.772430211154043e-16 	5.3023061657571304e-17 3.24219959457833e-16 0.0
-3.9090000000000003 	2.2968526945929645e-16 	3.804213864774412e-16 	5.347688954517264e-17 3.2694449693226856e-16 0.0
-3.908 	2.2897832928459844e-16 	3.836772463299193e-16 	5.3934575775257465e-17 3.2974267055466183e-16 0.0
-3.907 	2.282858635578294e-16 	3.8686332998211936e-16 	5.439612195302194e-17 3.324672080290974e-16 0.0
-3.906 	2.338226309131503e-16 	3.901269113351531e-16 	5.486152968366238e-17 3.352653816514907e-16 0.0
-3.9050000000000002 	2.351868362613952e-16 	3.934312222028491e-16 	5.5330848854986255e-17 3.3810037334786286e-16 0.0
-3.904 	2.3655002565963194e-16 	3.9673944613754607e-16 	5.580408109331107e-17 3.40935365044235e-16 0.0
-3.903 	2.379044478467192e-16 	4.0008845112215143e-16 	5.628127630756539e-17 3.43807174814586e-16 0.0
-3.902 	2.3925781562697394e-16 	4.0344151729534776e-16 	5.676253271041073e-17 3.46678984584937e-16 0.0
-3.9010000000000002 	2.4060240279404314e-16 	4.068354161381824e-16 	5.724780370891548e-17 3.495876124292669e-16 0.0
-3.9 	2.4402782623477433e-16 	4.102334278104588e-16 	5.773718753686204e-17 3.524962402735968e-16 0.0
-3.899 	2.4743671734603544e-16 	4.137091418883245e-16 	5.823063762244013e-17 3.5547850426588435e-16 0.0
-3.898 	2.4876262313644346e-16 	4.1718902047872493e-16 	5.872825222055301e-17 3.584607682581719e-16 0.0
-3.8970000000000002 	2.5007970894107214e-16 	4.207098833875615e-16 	5.923003306312313e-17 3.6147985032443836e-16 0.0
-3.896 	2.5139570007792367e-16 	4.2423496255538867e-16 	5.973603016468385e-17 3.644989323907048e-16 0.0
-3.895 	2.5270285778857427e-16 	4.278010778092289e-16 	6.024624527827881e-17 3.675548325309501e-16 0.0
-3.894 	2.560908114735566e-16 	4.313714611107578e-16 	6.076072843956236e-17 3.7061073267119543e-16 0.0
-3.8930000000000002 	2.5946215490642895e-16 	4.3501984694732045e-16 	6.1279577987922e-17 3.7374026895939843e-16 0.0
-3.892 	2.6075046013414537e-16 	4.386726009873656e-16 	6.18027957397641e-17 3.768698052476015e-16 0.0
-3.891 	2.6202989246984506e-16 	4.4236654312127816e-16 	6.233038351149481e-17 3.8003615960978336e-16 0.0
-3.89 	2.653900938332297e-16 	4.460648570914852e-16 	6.286234311952004e-17 3.8320251397196523e-16 0.0
-3.8890000000000002 	2.687336579868899e-16 	4.498412774275744e-16 	6.339877294546955e-17 3.8644250448210484e-16 0.0
-3.888 	2.679122403431788e-16 	4.536222181228475e-16 	6.393972313060305e-17 3.896824949922444e-16 0.0
-3.887 	2.712534567661082e-16 	4.574076810570737e-16 	6.448519555468963e-17 3.9292248550238403e-16 0.0
-3.886 	2.7457800944942344e-16 	4.612713525405914e-16 	6.503524038011003e-17 3.9623611216048133e-16 0.0
-3.8850000000000002 	2.737375537945105e-16 	4.651396466089449e-16 	6.558990779036623e-17 3.9954973881857864e-16 0.0
-3.884 	2.7705970565441343e-16 	4.690125651841453e-16 	6.614919970746934e-17 4.02863365476676e-16 0.0
-3.883 	2.803651672119109e-16 	4.729637946187732e-16 	6.671316633604223e-17 4.06250628282731e-16 0.0
-3.882 	2.8158748540981547e-16 	4.769197972732264e-16 	6.728190618444029e-17 4.0963789108878604e-16 0.0
-3.8810000000000002 	2.848827421410313e-16 	4.809173449242459e-16 	6.785537295542598e-17 4.1306197196881996e-16 0.0
-3.88 	2.8816900773632566e-16 	4.849565361013082e-16 	6.843366517847555e-17 4.165228709228327e-16 0.0
-3.879 	2.8936437758673785e-16 	4.890373728109092e-16 	6.901678486008496e-17 4.200205879508243e-16 0.0
-3.878 	2.9055848102699667e-16 	4.931230872681763e-16 	6.960478228936037e-17 4.235183049788159e-16 0.0
-3.8770000000000002 	2.9382547077978527e-16 	4.972505478573163e-16 	7.01977077765299e-17 4.270528400807864e-16 0.0
-3.876 	2.970834296895563e-16 	5.014198049096776e-16 	7.079561165294195e-17 4.306241932567357e-16 0.0
-3.875 	2.98250453130898e-16 	5.056308604951192e-16 	7.139849598845527e-17 4.342323645066639e-16 0.0
-3.874 	3.014980745101022e-16 	5.098469468921316e-16 	7.200641113553959e-17 4.378405357565921e-16 0.0
-3.873 	3.047289000540923e-16 	5.141417506222633e-16 	7.261940746778533e-17 4.41522343154478e-16 0.0
-3.872 	3.0587648919743155e-16 	5.184416859322686e-16 	7.323753537990471e-17 4.452041505523639e-16 0.0
-3.871 	3.090968987233992e-16 	5.227836213119588e-16 	7.386084528773014e-17 4.489227760242287e-16 0.0
-3.87 	3.123082239846488e-16 	5.271675589156765e-16 	7.448933934560417e-17 4.526782195700723e-16 0.0
-3.869 	3.1342853526259505e-16 	5.315935974629871e-16 	7.512311627309227e-17 4.564704811898948e-16 0.0
-3.868 	3.166293784662474e-16 	5.360249210764958e-16 	7.576217826677862e-17 4.602627428097173e-16 0.0
-3.867 	3.177314682427167e-16 	5.405351681007449e-16 	7.64065275232474e-17 4.641286405774975e-16 0.0
-3.866 	3.1883989794832093e-16 	5.450139830756047e-16 	7.705626280430596e-17 4.679577202712988e-16 0.0
-3.865 	3.261771392847535e-16 	5.495719190270618e-16 	7.771148291400393e-17 4.718604361130578e-16 0.0
-3.864 	3.293336837553298e-16 	5.542089299535724e-16 	7.83721418507977e-17 4.758367881027747e-16 0.0
-3.863 	3.2832498230862207e-16 	5.588514785323492e-16 	7.903833843985775e-17 4.798131400924914e-16 0.0
-3.862 	3.314786506989686e-16 	5.634995670655821e-16 	7.971007498337385e-17 4.837894920822082e-16 0.0
-3.861 	3.3461539101044246e-16 	5.682268822860287e-16 	8.038740206614602e-17 4.878394802198827e-16 0.0
-3.86 	3.377506667107844e-16 	5.729598386516539e-16 	8.107037029409665e-17 4.918894683575572e-16 0.0
-3.859 	3.408689880491281e-16 	5.777721229374578e-16 	8.175903029426846e-17 4.960130926431894e-16 0.0
-3.858 	3.419039018586132e-16 	5.825901979262586e-16 	8.245348099743685e-17 5.001367169288217e-16 0.0
-3.857 	3.450114773868511e-16 	5.874508840998288e-16 	8.315372481139605e-17 5.042971592884327e-16 0.0
-3.856 	3.4810980992069195e-16 	5.923541838659633e-16 	8.385976414394068e-17 5.084944197220227e-16 0.0
-3.855 	3.5119887376376057e-16 	5.973001961976789e-16 	8.457169796808746e-17 5.127284982295914e-16 0.0
-3.854 	3.542786557443339e-16 	6.02288971827624e-16 	8.528957701648494e-17 5.169993948111391e-16 0.0
-3.853 	3.573491426852057e-16 	6.073205615095673e-16 	8.601345204290159e-17 5.2130710946666565e-16 0.0
-3.852 	3.604103214036857e-16 	6.123950160183983e-16 	8.674337382222733e-17 5.25651642196171e-16 0.0
-3.851 	3.6346219124721965e-16 	6.175123378675172e-16 	8.747934486786197e-17 5.300329929996552e-16 0.0
-3.85 	3.644228224040002e-16 	6.226726261355454e-16 	8.822146425842707e-17 5.344511618771183e-16 0.0
-3.849 	3.6746374815419547e-16 	6.278391135867573e-16 	8.896978283217593e-17 5.388693307545814e-16 0.0
-3.848 	3.725694912222383e-16 	6.330854389458729e-16 	8.97243031658707e-17 5.433611357800022e-16 0.0
-3.847 	3.7558395599513705e-16 	6.383748832808991e-16 	9.048512440149725e-17 5.478897588794018e-16 0.0
-3.846 	3.7858904588093367e-16 	6.437074492108399e-16 	9.125224915805951e-17 5.524552000527804e-16 0.0
-3.845 	3.815847351284162e-16 	6.490832359199227e-16 	9.202577661978498e-17 5.570574593001378e-16 0.0
-3.844 	3.8248910642301144e-16 	6.545022943520056e-16 	9.28057577305316e-17 5.61696536621474e-16 0.0
-3.843 	3.854737055476052e-16 	6.59927809115477e-16 	9.359219517266673e-17 5.663356139428103e-16 0.0
-3.842 	3.9052303012797264e-16 	6.654335156058847e-16 	9.43851881937805e-17 5.710483274121042e-16 0.0
-3.841 	3.9348099704835667e-16 	6.709826467564714e-16 	9.51847878010943e-17 5.757978589553771e-16 0.0
-3.84 	3.9642949714827725e-16 	6.765752535955784e-16 	9.599104502294969e-17 5.805842085726288e-16 0.0
-3.839 	3.9936851717375685e-16 	6.822113871726691e-16 	9.680401090880985e-17 5.854073762638593e-16 0.0
-3.838 	4.0437994795334824e-16 	6.878910985583267e-16 	9.762373652925801e-17 5.902673620290687e-16 0.0
-3.837 	4.0729222974279757e-16 	6.936512569182362e-16 	9.845027297600042e-17 5.952009839422357e-16 0.0
-3.8360000000000003 	4.0812082587823837e-16 	6.994182772172641e-16 	9.928367136186122e-17 6.001346058554029e-16 0.0
-3.835 	4.1310369704451943e-16 	7.052290286633377e-16 	1.0012398282078877e-16 6.051050458425489e-16 0.0
-3.834 	4.159873668573025e-16 	7.1112042876811395e-16 	1.0097130679046147e-16 6.101491219776525e-16 0.0
-3.833 	4.1886921525441966e-16 	7.170188442983348e-16 	1.0182564618557856e-16 6.151931981127562e-16 0.0
-3.8320000000000003 	4.238156438893408e-16 	7.229980108818785e-16 	1.0268710048606094e-16 6.203109103958176e-16 0.0
-3.831 	4.2458867803359346e-16 	7.29021113401707e-16 	1.0355567264884911e-16 6.254654407528579e-16 0.0
-3.83 	4.2952364650356525e-16 	7.3505143330600455e-16 	1.0443146219610635e-16 6.306199711098982e-16 0.0
-3.829 	4.3443350036346717e-16 	7.411995243811142e-16 	1.0531456869223918e-16 6.35884955688875e-16 0.0
-3.8280000000000003 	4.351776455574695e-16 	7.473549354465225e-16 	1.0620499517867057e-16 6.411499402678519e-16 0.0
-3.827 	4.4007593427346245e-16 	7.53554584182856e-16 	1.0710284126204846e-16 6.464517429208076e-16 0.0
-3.826 	4.449568192315241e-16 	7.598352917477605e-16 	1.080081100260395e-16 6.51827181721721e-16 0.0
-3.825 	4.477461087750696e-16 	7.661603397161467e-16 	1.0892090111953339e-16 6.572394385966133e-16 0.0
-3.8240000000000003 	4.505257061805332e-16 	7.725297312139225e-16 	1.0984121766843809e-16 6.626885135454845e-16 0.0
-3.823 	4.532955730294758e-16 	7.78943614214831e-16 	1.1076920764649655e-16 6.681744065683344e-16 0.0
-3.822 	4.581376125818808e-16 	7.854019919081434e-16 	1.1170487424298011e-16 6.736971176651633e-16 0.0
-3.821 	4.629621565471832e-16 	7.919417821223337e-16 	1.1264831721238383e-16 6.792934649099499e-16 0.0
-3.8200000000000003 	4.65695025766031e-16 	7.985262182975479e-16 	1.1359958806883255e-16 6.849266302287153e-16 0.0
-3.819 	4.68418110946338e-16 	8.051553519690314e-16 	1.145587383475718e-16 6.905966136214596e-16 0.0
-3.818 	4.732133027905326e-16 	8.118292346931515e-16 	1.155258196049687e-16 6.963034150881828e-16 0.0
-3.817 	4.779909329806316e-16 	8.185847844039868e-16 	1.1650093170112317e-16 7.020838527028636e-16 0.0
-3.8160000000000003 	4.806768223298654e-16 	8.253852346472879e-16 	1.1748412625576456e-16 7.079011083915234e-16 0.0
-3.815 	4.833528489831091e-16 	8.322306853465176e-16 	1.1847550319235568e-16 7.13755182154162e-16 0.0
-3.814 	4.881009161455095e-16 	8.391211399021573e-16 	1.1947506591137788e-16 7.196460739907795e-16 0.0
-3.813 	4.949132595596783e-16 	8.460935163538905e-16 	1.204829143785359e-16 7.256106019753546e-16 0.0
-3.8120000000000003 	4.975441535321198e-16 	8.531478664270518e-16 	1.2149910031916436e-16 7.316487661078875e-16 0.0
-3.811 	5.001728568748661e-16 	8.602106540027515e-16 	1.2252372376233112e-16 7.376869302404204e-16 0.0
-3.81 	5.048657961590835e-16 	8.673555187350336e-16 	1.235567882141226e-16 7.43798730520911e-16 0.0
-3.809 	5.074668755305004e-16 	8.745457426212286e-16 	1.2459839374584806e-16 7.499473488753804e-16 0.0
-3.8080000000000003 	5.121398771726522e-16 	8.81781425774888e-16 	1.2564864047105915e-16 7.561327853038288e-16 0.0
-3.807 	5.167951452264048e-16 	8.890994381431728e-16 	1.267075802629379e-16 7.623918578802348e-16 0.0
-3.806 	5.214403919860952e-16 	8.964630618290188e-16 	1.2777531329839898e-16 7.686877485306197e-16 0.0
-3.805 	5.239859741117576e-16 	9.03909118560338e-16 	1.288518432313757e-16 7.750572753289623e-16 0.0
-3.8040000000000003 	5.28611150366072e-16 	9.113640724083296e-16 	1.299372702810247e-16 7.81426802127305e-16 0.0
-3.803 	5.352926798083168e-16 	9.189384778563286e-16 	1.3103169470874464e-16 7.879067831475841e-16 0.0
-3.802 	5.378003132747874e-16 	9.265587507774063e-16 	1.3213516853556406e-16 7.944235822418423e-16 0.0
-3.801 	5.423797495178161e-16 	9.34224943213713e-16 	1.3324774380363377e-16 8.009771994100791e-16 0.0
-3.8000000000000003 	5.469413200932961e-16 	9.419739735851096e-16 	1.3436952085883584e-16 8.076044527262737e-16 0.0
-3.799 	5.494108331527144e-16 	9.49769124205742e-16 	1.3550060008929464e-16 8.142685241164473e-16 0.0
-3.798 	5.539520958685917e-16 	9.57610398940754e-16 	1.3664098536015426e-16 8.209694135805996e-16 0.0
-3.797 	5.605573438629001e-16 	9.655347162944904e-16 	1.3779077710178082e-16 8.277439391927096e-16 0.0
-3.7960000000000003 	5.671446344262918e-16 	9.735422250221718e-16 	1.3895012406939437e-16 8.345921009527775e-16 0.0
-3.795 	5.69550158351812e-16 	9.816329290945468e-16 	1.4011903023374382e-16 8.415138988608029e-16 0.0
-3.794 	5.719531743198867e-16 	9.89733292899629e-16 	1.4129759613080057e-16 8.484356967688285e-16 0.0
-3.793 	5.785020003224687e-16 	9.979170048809784e-16 	1.4248587405616663e-16 8.554311308248117e-16 0.0
-3.7920000000000003 	5.829508979768995e-16 	1.0061841656379293e-15 	1.4368396460917671e-16 8.625002010287526e-16 0.0
-3.791 	5.873894960805112e-16 	1.014498009455468e-15 	1.448919201487955e-16 8.696060893066725e-16 0.0
-3.79 	5.918100301949548e-16 	1.0228954550702713e-15 	1.4610984133772133e-16 8.7678561373255e-16 0.0
-3.789 	5.962202124774775e-16 	1.0313397851132995e-15 	1.4733782888089312e-16 8.840019562324063e-16 0.0
-3.7880000000000003 	6.026941825558105e-16 	1.0398679184057135e-15 	1.4857598352549302e-16 8.912919348802205e-16 0.0
-3.787 	6.049862270691823e-16 	1.048479859171713e-15 	1.498243094957209e-16 8.986555496759923e-16 0.0
-3.786 	6.093575087202278e-16 	1.057102072052765e-15 	1.51082907581001e-16 9.06019164471764e-16 0.0
-3.785 	6.178666905081819e-16 	1.0658451121024711e-15 	1.5235187861299868e-16 9.134932334894724e-16 0.0
-3.7840000000000003 	6.221938681943661e-16 	1.0746722621207606e-15 	1.53631323465622e-16 9.210409386551386e-16 0.0
-3.783 	6.265105620572184e-16 	1.0835468049498032e-15 	1.5492134305501982e-16 9.286254618947834e-16 0.0
-3.782 	6.287271160292251e-16 	1.0925056113393587e-15 	1.5622199005697253e-16 9.362836212823861e-16 0.0
-3.781 	6.351046927636689e-16 	1.1014751461209822e-15 	1.5753336545099343e-16 9.439417806699888e-16 0.0
-3.7800000000000002 	6.414485171787284e-16 	1.1106027343297321e-15 	1.588555219762251e-16 9.51747212353507e-16 0.0
-3.779 	6.457076121657402e-16 	1.1197412047125682e-15 	1.6018856067554302e-16 9.595526440370252e-16 0.0
-3.778 	6.541044488341644e-16 	1.129001112576545e-15 	1.6153258263406512e-16 9.674685299424798e-16 0.0
-3.777 	6.583191228795174e-16 	1.1383457409750433e-15 	1.6288768897915104e-16 9.754580519958923e-16 0.0
-3.7760000000000002 	6.604412504264206e-16 	1.1477383730036858e-15 	1.6425398088040225e-16 9.834843921232836e-16 0.0
-3.775 	6.646346259088797e-16 	1.1571790615917047e-15 	1.6563151126705107e-16 9.915475503246537e-16 0.0
-3.774 	6.729733888285012e-16 	1.1667047260460437e-15 	1.670203813720622e-16 9.996843446739815e-16 0.0
-3.773 	6.792040748594896e-16 	1.1763522374332768e-15 	1.6842064418803103e-16 1.0079315932452459e-15 0.0
-3.7720000000000002 	6.83342121773211e-16 	1.1860481091843854e-15 	1.6983244929389614e-16 1.0162156598904893e-15 0.0
-3.771 	6.874616690383705e-16 	1.195829260733039e-15 	1.712558980493488e-16 1.0245733626836902e-15 0.0
-3.77 	6.93652345254888e-16 	1.20565892712458e-15 	1.7269104357370986e-16 1.03296788355087e-15 0.0
-3.769 	7.018986474837236e-16 	1.2156108459300198e-15 	1.7413798729003306e-16 1.0414728586399867e-15 0.0
-3.7680000000000002 	7.059625754206703e-16 	1.2256483005406752e-15 	1.7559683066361453e-16 1.0500514698770607e-15 0.0
-3.767 	7.100156491906237e-16 	1.2357345743901048e-15 	1.7706767520199122e-16 1.0586668991881137e-15 0.0
-3.766 	7.161320082129371e-16 	1.2459065871020682e-15 	1.7855062245494364e-16 1.0673559646471246e-15 0.0
-3.765 	7.222297220232489e-16 	1.2561644402685855e-15 	1.800457740144925e-16 1.076118666254093e-15 0.0
-3.7640000000000002 	7.283087767698638e-16 	1.2665081872413103e-15 	1.8155318323229105e-16 1.0849550040090192e-15 0.0
-3.763 	7.34369146059983e-16 	1.2769379296756267e-15 	1.8307295176372367e-16 1.093864977911903e-15 0.0
-3.762 	7.404107909542212e-16 	1.2874538175517733e-15 	1.846052295890286e-16 1.1028485879627446e-15 0.0
-3.761 	7.464336850323619e-16 	1.2980559526307395e-15 	1.8615011846919565e-16 1.111905834161544e-15 0.0
-3.7600000000000002 	7.524378143988403e-16 	1.3087443884331462e-15 	1.8770767192484506e-16 1.121036716508301e-15 0.0
-3.759 	7.584231526169893e-16 	1.3195192267833452e-15 	1.892779917803294e-16 1.1302412350030158e-15 0.0
-3.758 	7.623077566155395e-16 	1.330380617830543e-15 	1.9086122818485463e-16 1.1395193896456884e-15 0.0
-3.757 	7.682631464097146e-16 	1.3412918454307185e-15 	1.924574830683789e-16 1.1488343623623396e-15 0.0
-3.7560000000000002 	7.762738314535184e-16 	1.3523265994214183e-15 	1.9406681012049084e-16 1.1582597893009275e-15 0.0
-3.755 	7.821837028580479e-16 	1.3634482120045958e-15 	1.9568935961712249e-16 1.1677588523874732e-15 0.0
-3.754 	7.901565548379629e-16 	1.374656736954322e-15 	1.9732518533234545e-16 1.1773315516219766e-15 0.0
-3.753 	7.960208018758628e-16 	1.3859891427049936e-15 	1.989744376265771e-16 1.1870147050784166e-15 0.0
-3.7520000000000002 	7.997918940593872e-16 	1.3973718952498195e-15 	2.0063721864098435e-16 1.1967346766088352e-15 0.0
-3.751 	8.056258747313937e-16 	1.4088419148461892e-15 	2.0231363055897739e-16 1.2065282842872117e-15 0.0
-3.75 	8.13522704815406e-16 	1.4203993520023661e-15 	2.0400382388882008e-16 1.216395528113546e-15 0.0
-3.749 	8.213927153628205e-16 	1.4320811270813436e-15 	2.0570790091952672e-16 1.2263732261618168e-15 0.0
-3.748 	8.271617265562485e-16 	1.4438504760577876e-15 	2.0742591569974227e-16 1.2364245603580453e-15 0.0
-3.747 	8.32911603374326e-16 	1.4557075495666886e-15 	2.0915801886445698e-16 1.2465495307022316e-15 0.0
-3.746 	8.407242233148564e-16 	1.4676524500237866e-15 	2.1090431282941086e-16 1.2567481371943757e-15 0.0
-3.745 	8.464280132973548e-16 	1.4797220979610432e-15 	2.1266490005258716e-16 1.267057197908456e-15 0.0
-3.744 	8.521203148686318e-16 	1.4918430080133373e-15 	2.1443993131682182e-16 1.2774030766965154e-15 0.0
-3.743 	8.619494455051781e-16 	1.5040888706096033e-15 	2.1622946090309182e-16 1.2878594097065115e-15 0.0
-3.742 	8.675877371496199e-16 	1.5164598848997725e-15 	2.1803368796132844e-16 1.298426196938444e-15 0.0
-3.741 	8.732144604641522e-16 	1.5288824691224696e-15 	2.1985266687811408e-16 1.3090298022443556e-15 0.0
-3.74 	8.808960037331112e-16 	1.5414304103985757e-15 	2.2168654862637247e-16 1.3197438617722034e-15 0.0
-3.739 	8.885581744938147e-16 	1.554066993407791e-15 	2.235354359597817e-16 1.3305315574480092e-15 0.0
-3.738 	8.961932077540667e-16 	1.566829139020012e-15 	2.2539943167426037e-16 1.3414297073457515e-15 0.0
-3.737 	9.017268984936318e-16 	1.5796801802820322e-15 	2.272786868905807e-16 1.3524014933914515e-15 0.0
-3.736 	9.0724112408419e-16 	1.592620220095376e-15 	2.2917330451026675e-16 1.3634469155851092e-15 0.0
-3.735 	9.168996409032294e-16 	1.6056494579690323e-15 	2.3108348404230754e-16 1.3745659739267247e-15 0.0
-3.734 	9.244412584021487e-16 	1.6188415365139854e-15 	2.330092319497299e-16 1.3858323045642556e-15 0.0
-3.733 	9.298891396703165e-16 	1.6320862011017724e-15 	2.3495074782600714e-16 1.3971354532757653e-15 0.0
-3.732 	9.394734935940428e-16 	1.6454571909930844e-15 	2.3690813478387285e-16 1.4085490562092115e-15 0.0
-3.731 	9.448666645035143e-16 	1.658954657625508e-15 	2.388815442609137e-16 1.4200731133645944e-15 0.0
-3.73 	9.52329814470746e-16 	1.6725050680694268e-15 	2.4087107947547047e-16 1.4316339885939562e-15 0.0
-3.729 	9.618396892407201e-16 	1.6862190280899668e-15 	2.4287689197073343e-16 1.4433421361192334e-15 0.0
-3.728 	9.692479304179638e-16 	1.7000230048631163e-15 	2.448990850706481e-16 1.4551239197924682e-15 0.0
-3.727 	9.766286769502362e-16 	1.7139539198290403e-15 	2.4693776214140053e-16 1.4670161576876397e-15 0.0
-3.726 	9.839896152216367e-16 	1.7279751548874102e-15 	2.4899312315664127e-16 1.478982031730769e-15 0.0
-3.725 	9.913229800590095e-16 	1.7421236316051163e-15 	2.510652716092816e-16 1.4910583599958347e-15 0.0
-3.724 	1.0007183869728056e-15 	1.7563626354433346e-15 	2.531543110344766e-16 1.5032083244088581e-15 0.0
-3.723 	1.0079964992173861e-15 	1.7707660026926417e-15 	2.5526044157484444e-16 1.5155055611177972e-15 0.0
-3.722 	1.0152624088768623e-15 	1.7852233827929806e-15 	2.573837668922658e-16 1.527839615900715e-15 0.0
-3.721 	1.0224928741166786e-15 	1.799845333670411e-15 	2.5952439069086286e-16 1.5403209429795481e-15 0.0