  -4.80000019         1.00000002E-24
  -4.75000000         1.00000002E-24
  -4.69999981         1.00000002E-24
  -4.65000010         1.00000002E-24
  -4.59999990         1.00000002E-24
  -4.55000019         1.00000002E-24
  -4.50000000         1.00000002E-24
  -4.44999981         1.00000022E-24
  -4.40000010         9.99993511E-25
  -4.34999990         9.99924092E-25
  -4.30000019         9.99617521E-25
  -4.25000000         9.98891177E-25
  -4.19999981         9.98250720E-25
  -4.15000010         9.99986017E-25
  -4.09999990         1.00739618E-24
  -4.05000019         1.01801750E-24
  -4.00000000         1.01038715E-24
  -3.95000005         9.37162417E-25
  -3.90000010         7.52188586E-25
  -3.84999990         4.89484593E-25
  -3.79999995         3.51983622E-25
  -3.75000000         6.72668843E-25
  -3.70000005         1.56876015E-24
  -3.65000010         2.24924183E-24
  -3.59999990         3.10652241E-25
  -3.54999995        -8.18963601E-24
  -3.50000000        -2.69506661E-23
  -3.45000005        -5.56265330E-23
  -3.40000010        -8.52563821E-23
  -3.34999990        -9.62032156E-23
  -3.29999995        -6.31343053E-23
  -3.25000000         2.96539819E-23
  -3.20000005         1.64312747E-22
  -3.15000010         2.67191202E-22
  -3.09999990         2.07313264E-22
  -3.04999995        -1.62576824E-22
  -3.00000000        -9.10978189E-22
  -2.95000005        -1.89462973E-21
  -2.90000010        -2.64312317E-21
  -2.84999990        -2.35181019E-21
  -2.79999995        -7.88802025E-23
  -2.75000000         4.80635032E-21
  -2.70000005         1.19874869E-20
  -2.65000010         1.95908697E-20
  -2.59999990         2.39467592E-20
  -2.54999995         2.01022838E-20
  -2.50000000         3.33156968E-21
  -2.45000005        -2.84418008E-20
  -2.40000010        -7.18630476E-20
  -2.34999990        -1.16015997E-19
  -2.29999995        -1.42193549E-19
  -2.25000000        -1.26642605E-19
  -2.20000005        -4.66802738E-20
  -2.15000010         1.10508189E-19
  -2.09999990         3.38289599E-19
  -2.04999995         6.03046668E-19
  -2.00000000         8.41757344E-19
  -1.95000005         9.67107933E-19
  -1.89999998         8.81064088E-19
  -1.85000002         4.95847680E-19
  -1.79999995        -2.40671766E-19
  -1.75000000        -1.31955801E-18
  -1.70000005        -2.65033859E-18
  -1.64999998        -4.05028325E-18
  -1.60000002        -5.24757590E-18
  -1.54999995        -5.90164871E-18
  -1.50000000        -5.64285615E-18
  -1.45000005        -4.13196527E-18
  -1.39999998        -1.13692387E-18
  -1.35000002         3.38036891E-18
  -1.29999995         9.18078828E-18
  -1.25000000         1.56879584E-17
  -1.20000005         2.19750241E-17
  -1.14999998         2.68201832E-17
  -1.10000002         2.88439468E-17
  -1.04999995         2.67245893E-17
  -1.00000000         1.94672590E-17
 -0.949999988         6.68191122E-18
 -0.899999976        -1.11874317E-17
 -0.850000024        -3.27395936E-17
 -0.800000012        -5.56419583E-17
 -0.750000000        -7.68206208E-17
 -0.699999988        -9.27990106E-17
 -0.649999976        -1.00140715E-16
 -0.600000024        -9.59359178E-17
 -0.550000012        -7.82680347E-17
 -0.500000000        -4.66062773E-17
 -0.449999988        -2.08275765E-18
 -0.400000006         5.23772319E-17
 -0.349999994         1.12100271E-16
 -0.300000012         1.70915261E-16
 -0.250000000         2.21635157E-16
 -0.200000003         2.56775841E-16
 -0.150000006         2.69475353E-16
 -0.100000001         2.54516248E-16
  -5.00000007E-02     2.09292908E-16
   8.88178420E-16     1.34529783E-16
   5.00000007E-02     3.45698035E-17
  0.100000001        -8.28756623E-17
  0.150000006        -2.07504398E-16
  0.200000003        -3.27587372E-16
  0.250000000        -4.31280431E-16
  0.300000012        -5.07823992E-16
  0.349999994        -5.48437951E-16
  0.400000006        -5.46853365E-16
  0.449999988        -4.99570662E-16
  0.500000000        -4.06026011E-16
  0.550000012        -2.68838014E-16
  0.600000024        -9.41855308E-17
  0.649999976         1.07816581E-16
  0.699999988         3.23036317E-16
  0.750000000         5.33875814E-16
  0.800000012         7.20670560E-16
  0.850000024         8.63883874E-16
  0.899999976         9.46725655E-16
  0.949999988         9.57591393E-16
   1.00000000         8.91697312E-16
   1.04999995         7.51509601E-16
   1.10000002         5.45982615E-16
   1.14999998         2.89038982E-16
   1.20000005        -2.02644299E-18
   1.25000000        -3.07620211E-16
   1.29999995        -6.06197128E-16
   1.35000002        -8.74235199E-16
   1.39999998        -1.08663856E-15
   1.45000005        -1.21843572E-15
   1.50000000        -1.24820893E-15
   1.54999995        -1.16286506E-15
   1.60000002        -9.62462574E-16
   1.64999998        -6.63280055E-16
   1.70000005        -2.97480750E-16
   1.75000000         9.13200448E-17
   1.79999995         4.55833428E-16
   1.85000002         7.54094851E-16
   1.89999998         9.56871945E-16
   1.95000005         1.05108731E-15
   2.00000000         1.03833322E-15
   2.04999995         9.29538297E-16
   2.09999990         7.38497692E-16
   2.15000010         4.77494072E-16
   2.20000005         1.57247789E-16
   2.25000000        -2.08748954E-16
   2.29999995        -5.97921563E-16
   2.34999990        -9.74284719E-16
   2.40000010        -1.28979348E-15
   2.45000005        -1.49284602E-15
   2.50000000        -1.54202465E-15
   2.54999995        -1.42008494E-15
   2.59999990        -1.14201630E-15
   2.65000010        -7.52564263E-16
   2.70000005        -3.12635202E-16
   2.75000000         1.21065281E-16
   2.79999995         5.15162792E-16
   2.84999990         8.69066974E-16
   2.90000010         1.20970355E-15
   2.95000005         1.57264933E-15
   3.00000000         1.97719343E-15
   3.04999995         2.40650806E-15
   3.09999990         2.80297877E-15
   3.15000010         3.08277239E-15
   3.20000005         3.16516540E-15
   3.25000000         3.00473736E-15
   3.29999995         2.61191355E-15
   3.34999990         2.05128468E-15
   3.40000010         1.41651257E-15
   3.45000005         7.91597870E-16
   3.50000000         2.15763909E-16
   3.54999995        -3.30769410E-16
   3.59999990        -9.11154612E-16
   3.65000010        -1.59105790E-15
   3.70000005        -2.39017769E-15
   3.75000000        -3.24975858E-15
   3.79999995        -4.03505913E-15
   3.84999990        -4.57733640E-15
   3.90000010        -4.74148461E-15
   3.95000005        -4.49131428E-15
   4.00000000        -3.92180617E-15
   4.05000019        -3.23911286E-15
   4.09999990        -2.69083330E-15
   4.15000010        -2.47210695E-15
   4.19999981        -2.64670119E-15
   4.25000000        -3.11923059E-15
   4.30000019        -3.67460638E-15
   4.34999990        -4.07152390E-15
   4.40000010        -4.15094129E-15
   4.44999981        -3.91047626E-15
   4.50000000        -3.50752024E-15
   4.55000019        -3.18403285E-15
   4.59999990        -3.14195225E-15
   4.65000010        -3.42363285E-15
   4.69999981        -3.85391224E-15
   4.75000000        -4.07639180E-15
   4.80000019        -3.67540725E-15
   4.84999990        -2.33485733E-15
   4.90000010         3.54049846E-17
   4.94999981         3.26442432E-15
   5.00000000         6.99608980E-15
   5.05000019         1.08448364E-14
   5.09999990         1.45596358E-14
   5.15000010         1.81157444E-14
   5.19999981         2.16825679E-14
   5.25000000         2.54723085E-14
   5.30000019         2.95334097E-14
   5.34999990         3.35872077E-14
   5.40000010         3.69971896E-14
   5.44999981         3.89079197E-14
   5.50000000         3.85159569E-14
   5.55000019         3.53701070E-14
   5.59999990         2.95746670E-14
   5.65000010         2.18000260E-14
   5.69999981         1.30812050E-14
   5.75000000         4.47423386E-15
   5.80000019        -3.29609997E-15
   5.84999990        -1.00558481E-14
   5.90000010        -1.61817699E-14
   5.94999981        -2.23884411E-14
   6.00000000        -2.94021839E-14
   6.05000019        -3.76699675E-14
   6.09999990        -4.72320411E-14
   6.15000010        -5.78062175E-14
   6.19999981        -6.90256161E-14
   6.25000000        -8.06897206E-14
   6.30000019        -9.28718772E-14
   6.34999990        -1.05787537E-13
   6.40000010        -1.19442447E-13
   6.44999981        -1.33198479E-13
   6.50000000        -1.45460575E-13
   6.55000019        -1.53666034E-13
   6.59999990        -1.54651167E-13
   6.65000010        -1.45320686E-13
   6.69999981        -1.23416468E-13
   6.75000000        -8.81325923E-14
   6.80000019        -4.03756754E-14
   6.84999990         1.73940875E-14
   6.90000010         8.16463528E-14
   6.94999981         1.48377946E-13
   7.00000000         2.13594821E-13
   7.05000019         2.73534532E-13
   7.09999990         3.24634471E-13
   7.15000010         3.63393479E-13
   7.19999981         3.86342976E-13
   7.25000000         3.90299040E-13
   7.30000019         3.72929335E-13
   7.34999990         3.33495005E-13
   7.40000010         2.73500976E-13
   7.44999981         1.96970858E-13
   7.50000000         1.10168188E-13
   7.55000019         2.07776487E-14
   7.59999990        -6.32437760E-14
   7.65000010        -1.34818900E-13
   7.69999981        -1.88591425E-13
   7.75000000        -2.21279050E-13
   7.80000019        -2.31562870E-13
   7.84999990        -2.19713950E-13
   7.90000010        -1.87232527E-13
   7.94999981        -1.36716796E-13
   8.00000000        -7.20172010E-14
   8.05000019         1.45856479E-15
   8.10000038         7.65492338E-14
   8.14999962         1.44516479E-13
   8.19999981         1.95730964E-13
   8.25000000         2.20803681E-13
   8.30000019         2.11909090E-13
   8.35000038         1.63953269E-13
   8.39999962         7.52866329E-14
   8.44999981        -5.21777750E-14
   8.50000000        -2.13367247E-13
   8.55000019        -4.00736275E-13
   8.60000038        -6.04946323E-13
   8.64999962        -8.15327732E-13
   8.69999981        -1.02008636E-12
   8.75000000        -1.20639599E-12
   8.80000019        -1.36062591E-12
   8.85000038        -1.46893565E-12
   8.89999962        -1.51833038E-12
   8.94999981        -1.49807163E-12
   9.00000000        -1.40116803E-12
   9.05000019        -1.22559016E-12
   9.10000038        -9.74909389E-13
   9.14999962        -6.58214856E-13
   9.19999981        -2.89362636E-13
   9.25000000         1.14232910E-13
   9.30000019         5.32989397E-13
   9.35000038         9.46499498E-13
   9.39999962         1.33471738E-12
   9.44999981         1.67900871E-12
   9.50000000         1.96316704E-12
   9.55000019         2.17449279E-12
   9.60000038         2.30494595E-12
   9.64999962         2.35225619E-12
   9.69999981         2.32077140E-12
   9.75000000         2.22178656E-12
   9.80000019         2.07315263E-12
   9.85000038         1.89808976E-12
   9.89999962         1.72330076E-12
   9.94999981         1.57661579E-12
   10.0000000         1.48448712E-12
   10.0500002         1.46964591E-12
   10.1000004         1.54916217E-12
   10.1499996         1.73303006E-12
   10.1999998         2.02327673E-12
   10.2500000         2.41351687E-12
   10.3000002         2.88883522E-12
   10.3500004         3.42590995E-12
   10.3999996         3.99336033E-12
   10.4499998         4.55238972E-12
   10.5000000         5.05784564E-12
   10.5500002         5.45983701E-12
   10.6000004         5.70596652E-12
   10.6499996         5.74411178E-12
   10.6999998         5.52550974E-12
   10.7500000         5.00770432E-12
   10.8000002         4.15686062E-12
   10.8500004         2.94894946E-12
   10.8999996         1.36954326E-12
   10.9499998        -5.87682030E-13
   11.0000000        -2.92319142E-12
   11.0500002        -5.63361554E-12
   11.1000004        -8.71239712E-12
   11.1499996        -1.21480256E-11
   11.1999998        -1.59193526E-11
   11.2500000        -1.99884501E-11
   11.3000002        -2.42925541E-11
   11.3500004        -2.87376720E-11
   11.3999996        -3.31968550E-11
   11.4499998        -3.75156954E-11
   11.5000000        -4.15260985E-11
   11.5500002        -4.50667038E-11
   11.6000004        -4.80054781E-11
   11.6499996        -5.02571040E-11
   11.6999998        -5.17869289E-11
   11.7500000        -5.25946856E-11
   11.8000002        -5.26755688E-11
   11.8500004        -5.19637076E-11
   11.8999996        -5.02713565E-11
   11.9499998        -4.72443890E-11
   12.0000000        -4.23574890E-11
   12.0500002        -3.49685975E-11
   12.1000004        -2.44400455E-11
   12.1499996        -1.03149937E-11
   12.1999998         7.48437163E-12
   12.2500000         2.84895597E-11
   12.3000002         5.16110453E-11
   12.3500004         7.52108445E-11
   12.3999996         9.73510994E-11
   12.4499998         1.16204782E-10
   12.5000000         1.30563255E-10
   12.5500002         1.40328402E-10
   12.6000004         1.46848866E-10
   12.6499996         1.52962920E-10
   12.6999998         1.62652877E-10
   12.7500000         1.80292892E-10
   12.8000002         2.09570666E-10
   12.8500004         2.52262600E-10
   12.8999996         3.07112807E-10
   12.9499998         3.69087899E-10
   13.0000000         4.29236813E-10
   13.0500002         4.75279649E-10
   13.1000004         4.92899999E-10
   13.1499996         4.67554662E-10
   13.1999998         3.86482096E-10
   13.2500000         2.40520381E-10
   13.3000002         2.53619504E-11
   13.3500004        -2.58022437E-10
   13.3999996        -6.03889272E-10
   13.4499998        -1.00305186E-09
   13.5000000        -1.44475343E-09
   13.5500002        -1.91868299E-09
   13.6000004        -2.41671549E-09
   13.6499996        -2.93402658E-09
   13.6999998        -3.46939300E-09
   13.7500000        -4.02467659E-09
   13.8000002        -4.60367167E-09
   13.8500004        -5.21061638E-09
   13.8999996        -5.84873128E-09
   13.9499998        -6.51907461E-09
   14.0000000        -7.21994464E-09
   14.0500002        -7.94687161E-09
   14.1000004        -8.69314487E-09
   14.1499996        -9.45071399E-09
   14.1999998        -1.02112496E-08
   14.2500000        -1.09671774E-08
   14.3000002        -1.17125127E-08
   14.3500004        -1.24434099E-08
   14.3999996        -1.31583464E-08
   14.4499998        -1.38579592E-08
   14.5000000        -1.45445220E-08
   14.5500002        -1.52211399E-08
   14.6000004        -1.58907447E-08
   14.6499996        -1.65550471E-08
   14.6999998        -1.72136492E-08
   14.7500000        -1.78635293E-08
   14.8000002        -1.84990494E-08
   14.8500004        -1.91126102E-08
   14.8999996        -1.96958450E-08
   14.9499998        -2.02411332E-08
   15.0000000        -2.07430642E-08
   15.0500002        -2.11994351E-08
   15.1000004        -2.16114557E-08
   15.1499996        -2.19829914E-08
   15.1999998        -2.23190071E-08
   15.2500000        -2.26235422E-08
   15.3000002        -2.28978205E-08
   15.3500004        -2.31390374E-08
   15.3999996        -2.33402897E-08
   15.4499998        -2.34917259E-08
   15.5000000        -2.35826789E-08
   15.5500002        -2.36041906E-08
   15.6000004        -2.35511806E-08
   15.6499996        -2.34235760E-08
   15.6999998        -2.32259687E-08
   15.7500000        -2.29658479E-08
   15.8000002        -2.26508234E-08
   15.8500004        -2.22856329E-08
   15.8999996        -2.18697931E-08
   15.9499998        -2.13965663E-08
   16.0000000        -2.08535553E-08
   16.0499992        -2.02247232E-08
   16.1000004        -1.94931964E-08
   16.1499996        -1.86440356E-08
   16.2000008        -1.76660802E-08
   16.2500000        -1.65524110E-08
   16.2999992        -1.52992765E-08
   16.3500004        -1.39039642E-08
   16.3999996        -1.23622179E-08
   16.4500008        -1.06661009E-08
   16.5000000        -8.80284379E-09
   16.5499992        -6.75495526E-09
   16.6000004        -4.50141791E-09
   16.6499996        -2.01945327E-09
   16.7000008         7.13801795E-10
   16.7500000         3.72028919E-09
   16.7999992         7.02099578E-09
   16.8500004         1.06368567E-08
   16.8999996         1.45902623E-08
   16.9500008         1.89067251E-08
   17.0000000         2.36162716E-08
   17.0499992         2.87543465E-08
   17.1000004         3.43622588E-08
   17.1499996         4.04873042E-08
   17.2000008         4.71829473E-08
   17.2500000         5.45090799E-08
   17.2999992         6.25325640E-08
   17.3500004         7.13276762E-08
   17.3999996         8.09763634E-08
   17.4500008         9.15679692E-08
   17.5000000         1.03198410E-07
   17.5499992         1.15969065E-07
   17.6000004         1.29985736E-07
   17.6499996         1.45358158E-07
   17.7000008         1.62200507E-07
   17.7500000         1.80632838E-07
   17.7999992         2.00783603E-07
   17.8500004         2.22792437E-07
   17.8999996         2.46813016E-07
   17.9500008         2.73015416E-07
   18.0000000         3.01587704E-07
   18.0499992         3.32737358E-07
   18.1000004         3.66692149E-07
   18.1499996         4.03701875E-07
   18.2000008         4.44040467E-07
   18.2500000         4.88009107E-07
   18.2999992         5.35939478E-07
   18.3500004         5.88197224E-07
   18.3999996         6.45184684E-07
   18.4500008         7.07342622E-07
   18.5000000         7.75150397E-07
   18.5499992         8.49126138E-07
   18.6000004         9.29825546E-07
   18.6499996         1.01784212E-06
   18.7000008         1.11380689E-06
   18.7500000         1.21839082E-06
   18.7999992         1.33230719E-06
   18.8500004         1.45631509E-06
   18.8999996         1.59122317E-06
   18.9500008         1.73789465E-06
   19.0000000         1.89725233E-06
   19.0499992         2.07028461E-06
   19.1000004         2.25805252E-06
   19.1499996         2.46169793E-06
   19.2000008         2.68245503E-06
   19.2500000         2.92166033E-06
   19.2999992         3.18076468E-06
   19.3500004         3.46134539E-06
   19.3999996         3.76511593E-06
   19.4500008         4.09393760E-06
   19.5000000         4.44982516E-06
   19.5499992         4.83495614E-06
   19.6000004         5.25168025E-06
   19.6499996         5.70252587E-06
   19.7000008         6.19020966E-06
   19.7500000         6.71764201E-06
   19.7999992         7.28794157E-06
   19.8500004         7.90443755E-06
   19.8999996         8.57068608E-06
   19.9500008         9.29047110E-06
   20.0000000         1.00678208E-05
   20.0499992         1.09070188E-05
   20.1000004         1.18126145E-05
   20.1499996         1.27894455E-05
   20.2000008         1.38426558E-05
   20.2500000         1.49777179E-05
   20.2999992         1.62004635E-05
   20.3500004         1.75171062E-05
   20.3999996         1.89342718E-05
   20.4500008         2.04590306E-05
   20.5000000         2.20989205E-05
   20.5499992         2.38619941E-05
   20.6000004         2.57568390E-05
   20.6499996         2.77926283E-05
   20.7000008         2.99791463E-05
   20.7500000         3.23268323E-05
   20.7999992         3.48468238E-05
   20.8500004         3.75509844E-05
   20.8999996         4.04519706E-05
   20.9500008         4.35632282E-05
   21.0000000         4.68990584E-05
   21.0499992         5.04746531E-05
   21.1000004         5.43061142E-05
   21.1499996         5.84105110E-05
   21.2000008         6.28059279E-05
   21.2500000         6.75114716E-05
   21.2999992         7.25473874E-05
   21.3500004         7.79350448E-05
   21.3999996         8.36970066E-05
   21.4500008         8.98571234E-05
   21.5000000         9.64405554E-05
   21.5499992         1.03473882E-04
   21.6000004         1.10985115E-04
   21.6499996         1.19003860E-04
   21.7000008         1.27561332E-04
   21.7500000         1.36690447E-04
   21.7999992         1.46425969E-04
   21.8500004         1.56804541E-04
   21.8999996         1.67864826E-04
   21.9500008         1.79647570E-04
   22.0000000         1.92195715E-04
   22.0499992         2.05554476E-04
   22.1000004         2.19771551E-04
   22.1499996         2.34897103E-04
   22.2000008         2.50983925E-04
   22.2500000         2.68087460E-04
   22.2999992         2.86266120E-04
   22.3500004         3.05581110E-04
   22.3999996         3.26096895E-04
   22.4500008         3.47880996E-04
   22.5000000         3.71004193E-04
   22.5499992         3.95540701E-04
   22.6000004         4.21568227E-04
   22.6499996         4.49168234E-04
   22.7000008         4.78425878E-04
   22.7500000         5.09430189E-04
   22.7999992         5.42274327E-04
   22.8500004         5.77055616E-04
   22.8999996         6.13875687E-04
   22.9500008         6.52840710E-04
   23.0000000         6.94061513E-04
   23.0499992         7.37653696E-04
   23.1000004         7.83737865E-04
   23.1499996         8.32439691E-04
   23.2000008         8.83890432E-04
   23.2500000         9.38226585E-04
   23.2999992         9.95590119E-04
   23.3500004         1.05612923E-03
   23.3999996         1.11999759E-03
   23.4500008         1.18735537E-03
   23.5000000         1.25836895E-03
   23.5499992         1.33321108E-03
   23.6000004         1.41206128E-03
   23.6499996         1.49510580E-03
   23.7000008         1.58253789E-03
   23.7500000         1.67455804E-03
   23.7999992         1.77137356E-03
   23.8500004         1.87319971E-03
   23.8999996         1.98025908E-03
   23.9500008         2.09278194E-03
   24.0000000         2.21100613E-03
   24.0499992         2.33517797E-03
   24.1000004         2.46555195E-03
   24.1499996         2.60239071E-03
   24.2000008         2.74596503E-03
   24.2500000         2.89655430E-03
   24.2999992         3.05444631E-03
   24.3500004         3.21993837E-03
   24.3999996         3.39333573E-03
   24.4500008         3.57495272E-03
   24.5000000         3.76511295E-03
   24.5499992         3.96414846E-03
   24.6000004         4.17240104E-03
   24.6499996         4.39022202E-03
   24.7000008         4.61796951E-03
   24.7500000         4.85601323E-03
   24.7999992         5.10473037E-03
   24.8500004         5.36450790E-03
   24.8999996         5.63574303E-03
   24.9500008         5.91883995E-03
   25.0000000         6.21421356E-03
   25.0499992         6.52228761E-03
   25.1000004         6.84349332E-03
   25.1499996         7.17827259E-03
   25.2000008         7.52707291E-03
   25.2500000         7.89035298E-03
   25.2999992         8.26857705E-03
   25.3500004         8.66222009E-03
   25.3999996         9.07176547E-03
   25.4500008         9.49770305E-03
   25.5000000         9.94052924E-03
   25.5499992         1.04007469E-02
   25.6000004         1.08788684E-02
   25.6499996         1.13754096E-02
   25.7000008         1.18908947E-02
   25.7500000         1.24258501E-02
   25.7999992         1.29808094E-02
   25.8500004         1.35563118E-02
   25.8999996         1.41529012E-02
   25.9500008         1.47711262E-02
   26.0000000         1.54115343E-02
   26.0499992         1.60746817E-02
   26.1000004         1.67611204E-02
   26.1499996         1.74714085E-02
   26.2000008         1.82061028E-02
   26.2500000         1.89657602E-02
   26.2999992         1.97509360E-02
   26.3500004         2.05621831E-02
   26.3999996         2.14000605E-02
   26.4500008         2.22651158E-02
   26.5000000         2.31578946E-02
   26.5499992         2.40789428E-02
   26.6000004         2.50287950E-02
   26.6499996         2.60079857E-02
   26.7000008         2.70170383E-02
   26.7500000         2.80564707E-02
   26.7999992         2.91267857E-02
   26.8500004         3.02284807E-02
   26.8999996         3.13620418E-02
   26.9500008         3.25279348E-02
   27.0000000         3.37266251E-02
   27.0499992         3.49585526E-02
   27.1000004         3.62241566E-02
   27.1499996         3.75238396E-02
   27.2000008         3.88580114E-02
   27.2500000         4.02270481E-02
   27.2999992         4.16313037E-02
   27.3500004         4.30711210E-02
   27.3999996         4.45468053E-02
   27.4500008         4.60586473E-02
   27.5000000         4.76069115E-02
   27.5499992         4.91918400E-02
   27.6000004         5.08136451E-02
   27.6499996         5.24725206E-02
   27.7000008         5.41686155E-02
   27.7500000         5.59020638E-02
   27.7999992         5.76729588E-02
   27.8500004         5.94813712E-02
   27.8999996         6.13273196E-02
   27.9500008         6.32108003E-02
   28.0000000         6.51317686E-02
   28.0499992         6.70901313E-02
   28.1000004         6.90857843E-02
   28.1499996         7.11185783E-02
   28.2000008         7.31883049E-02
   28.2500000         7.52947256E-02
   28.2999992         7.74375796E-02
   28.3500004         7.96165243E-02
   28.3999996         8.18312094E-02
   28.4500008         8.40812325E-02
   28.5000000         8.63661245E-02
   28.5499992         8.86854082E-02
   28.6000004         9.10385177E-02
   28.6499996         9.34248641E-02
   28.7000008         9.58437994E-02
   28.7500000         9.82946530E-02
   28.7999992        0.100776672    
   28.8500004        0.103289090    
   28.8999996        0.105831057    
   28.9500008        0.108401716    
   29.0000000        0.111000143    
   29.0499992        0.113625355    
   29.1000004        0.116276324    
   29.1499996        0.118951976    
   29.2000008        0.121651173    
   29.2500000        0.124372751    
   29.2999992        0.127115503    
   29.3500004        0.129878163    
   29.3999996        0.132659391    
   29.4500008        0.135457858    
   29.5000000        0.138272151    
   29.5499992        0.141100839    
   29.6000004        0.143942416    
   29.6499996        0.146795347    
   29.7000008        0.149658039    
   29.7500000        0.152528882    
   29.7999992        0.155406266    
   29.8500004        0.158288479    
   29.8999996        0.161173791    
   29.9500008        0.164060429    
   30.0000000        0.166946590    
   30.0499992        0.169830486    
   30.1000004        0.172710225    
   30.1499996        0.175583959    
   30.2000008        0.178449735    
   30.2500000        0.181305647    
   30.2999992        0.184149742    
   30.3500004        0.186980039    
   30.3999996        0.189794526    
   30.4500008        0.192591175    
   30.5000000        0.195368022    
   30.5499992        0.198122993    
   30.6000004        0.200854078    
   30.6499996        0.203559220    
   30.7000008        0.206236377    
   30.7500000        0.208883494    
   30.7999992        0.211498544    
   30.8500004        0.214079425    
   30.8999996        0.216624141    
   30.9500008        0.219130650    
   31.0000000        0.221596912    
   31.0499992        0.224020973    
   31.1000004        0.226400807    
   31.1499996        0.228734523    
   31.2000008        0.231020138    
   31.2500000        0.233255759    
   31.2999992        0.235439450    
   31.3500004        0.237569377    
   31.3999996        0.239643723    
   31.4500008        0.241660684    
   31.5000000        0.243618518    
   31.5499992        0.245515510    
   31.6000004        0.247350007    
   31.6499996        0.249120444    
   31.7000008        0.250825197    
   31.7500000        0.252462775    
   31.7999992        0.254031718    
   31.8500004        0.255530596    
   31.8999996        0.256958127    
   31.9500008        0.258312911    
   32.0000000        0.259593785    
   32.0499992        0.260799557    
   32.0999985        0.261929065    
   32.1500015        0.262981355    
   32.2000008        0.263955474    
   32.2500000        0.264850467    
   32.2999992        0.265665531    
   32.3499985        0.266399920    
   32.4000015        0.267052919    
   32.4500008        0.267623931    
   32.5000000        0.268112481    
   32.5499992        0.268518060    
   32.5999985        0.268840313    
   32.6500015        0.269078910    
   32.7000008        0.269233614    
   32.7500000        0.269304305    
   32.7999992        0.269290954    
   32.8499985        0.269193470    
   32.9000015        0.269011974    
   32.9500008        0.268746674    
   33.0000000        0.268397868    
   33.0499992        0.267965943    
   33.0999985        0.267451227    
   33.1500015        0.266854137    
   33.2000008        0.266175240    
   33.2500000        0.265415192    
   33.2999992        0.264574677    
   33.3499985        0.263654500    
   33.4000015        0.262655437    
   33.4500008        0.261578470    
   33.5000000        0.260424584    
   33.5499992        0.259194970    
   33.5999985        0.257890612    
   33.6500015        0.256512761    
   33.7000008        0.255062580    
   33.7500000        0.253541410    
   33.7999992        0.251950711    
   33.8499985        0.250291914    
   33.9000015        0.248566359    
   33.9500008        0.246775568    
   34.0000000        0.244921148    
   34.0499992        0.243004814    
   34.0999985        0.241028279    
   34.1500015        0.238993227    
   34.2000008        0.236901373    
   34.2500000        0.234754533    
   34.2999992        0.232554585    
   34.3499985        0.230303407    
   34.4000015        0.228002846    
   34.4500008        0.225654751    
   34.5000000        0.223261014    
   34.5499992        0.220823705    
   34.5999985        0.218344867    
   34.6500015        0.215826541    
   34.7000008        0.213270694    
   34.7500000        0.210679337    
   34.7999992        0.208054498    
   34.8499985        0.205398247    
   34.9000015        0.202712670    
   34.9500008        0.199999750    
   35.0000000        0.197261512    
   35.0499992        0.194499984    
   35.0999985        0.191717237    
   35.1500015        0.188915402    
   35.2000008        0.186096445    
   35.2500000        0.183262318    
   35.2999992        0.180414990    
   35.3499985        0.177556425    
   35.4000015        0.174688682    
   35.4500008        0.171813682    
   35.5000000        0.168933302    
   35.5499992        0.166049376    
   35.5999985        0.163163722    
   35.6500015        0.160278201    