  -4.80000019         1.00000002E-24
  -4.75000000         1.00000002E-24
  -4.69999981         1.00000012E-24
  -4.65000010         1.00000022E-24
  -4.59999990         1.00000022E-24
  -4.55000019         1.00000012E-24
  -4.50000000         1.00000002E-24
  -4.44999981         9.99993906E-25
  -4.40000010         9.99931290E-25
  -4.34999990         9.99615647E-25
  -4.30000019         9.98655603E-25
  -4.25000000         9.97204395E-25
  -4.19999981         9.99843924E-25
  -4.15000010         1.02836765E-24
  -4.09999990         1.15529192E-24
  -4.05000019         1.57919412E-24
  -4.00000000         2.77425341E-24
  -3.95000005         5.75453717E-24
  -3.90000010         1.24876208E-23
  -3.84999990         2.64558515E-23
  -3.79999995         5.32815146E-23
  -3.75000000         1.01202177E-22
  -3.70000005         1.81030464E-22
  -3.65000010         3.05120619E-22
  -3.59999990         4.84883592E-22
  -3.54999995         7.26630559E-22
  -3.50000000         1.02601637E-21
  -3.45000005         1.36203295E-21
  -3.40000010         1.69217626E-21
  -3.34999990         1.95080208E-21
  -3.29999995         2.05249985E-21
  -3.25000000         1.90139298E-21
  -3.20000005         1.40566461E-21
  -3.15000010         4.94670314E-22
  -3.09999990        -8.65698330E-22
  -3.04999995        -2.66450102E-21
  -3.00000000        -4.84846019E-21
  -2.95000005        -7.33781824E-21
  -2.90000010        -1.00533577E-20
  -2.84999990        -1.29480472E-20
  -2.79999995        -1.60329284E-20
  -2.75000000        -1.93851295E-20
  -2.70000005        -2.31276807E-20
  -2.65000010        -2.73767024E-20
  -2.59999990        -3.21610472E-20
  -2.54999995        -3.73306772E-20
  -2.50000000        -4.24797408E-20
  -2.45000005        -4.69146761E-20
  -2.40000010        -4.96932598E-20
  -2.34999990        -4.97460992E-20
  -2.29999995        -4.60688484E-20
  -2.25000000        -3.79468751E-20
  -2.20000005        -2.51517642E-20
  -2.15000010        -8.03975854E-21
  -2.09999990         1.25071195E-20
  -2.04999995         3.53239176E-20
  -2.00000000         5.93661451E-20
  -1.95000005         8.41937062E-20
  -1.89999998         1.10408475E-19
  -1.85000002         1.39897619E-19
  -1.79999995         1.75752525E-19
  -1.75000000         2.21792480E-19
  -1.70000005         2.81715615E-19
  -1.64999998         3.58006742E-19
  -1.60000002         4.50825480E-19
  -1.54999995         5.57147657E-19
  -1.50000000         6.70417375E-19
  -1.45000005         7.80878919E-19
  -1.39999998         8.76605068E-19
  -1.35000002         9.45060674E-19
  -1.29999995         9.74879605E-19
  -1.25000000         9.57436227E-19
  -1.20000005         8.87811090E-19
  -1.14999998         7.64879127E-19
  -1.10000002         5.90478486E-19
  -1.04999995         3.67893049E-19
  -1.00000000         1.00116591E-19
 -0.949999988        -2.11503969E-19
 -0.899999976        -5.67693641E-19
 -0.850000024        -9.70409624E-19
 -0.800000012        -1.42076738E-18
 -0.750000000        -1.91617133E-18
 -0.699999988        -2.44743346E-18
 -0.649999976        -2.99682304E-18
 -0.600000024        -3.53789243E-18
 -0.550000012        -4.03756328E-18
 -0.500000000        -4.46040684E-18
 -0.449999988        -4.77442942E-18
 -0.400000006        -4.95717388E-18
 -0.349999994        -5.00071460E-18
 -0.300000012        -4.91424528E-18
 -0.250000000        -4.72345111E-18
 -0.200000003        -4.46659664E-18
 -0.150000006        -4.18804522E-18
 -0.100000001        -3.93054555E-18
  -5.00000007E-02    -3.72784908E-18
   8.88178420E-16    -3.59900825E-18
   5.00000007E-02    -3.54504836E-18
  0.100000001        -3.54788187E-18
  0.150000006        -3.57055986E-18
  0.200000003        -3.55761117E-18
  0.250000000        -3.43445783E-18
  0.300000012        -3.10573605E-18
  0.349999994        -2.45360381E-18
  0.400000006        -1.33831340E-18
  0.449999988         3.96002534E-19
  0.500000000         2.90767096E-18
  0.550000012         6.33474517E-18
  0.600000024         1.07644793E-17
  0.649999976         1.61992106E-17
  0.699999988         2.25254499E-17
  0.750000000         2.94942960E-17
  0.800000012         3.67206385E-17
  0.850000024         4.37057553E-17
  0.899999976         4.98831533E-17
  0.949999988         5.46818100E-17
   1.00000000         5.75960434E-17
   1.04999995         5.82480404E-17
   1.10000002         5.64296791E-17
   1.14999998         5.21139304E-17
   1.20000005         4.54337521E-17
   1.25000000         3.66346514E-17
   1.29999995         2.60152984E-17
   1.35000002         1.38751202E-17
   1.39999998         4.87437166E-19
   1.45000005        -1.38893965E-17
   1.50000000        -2.89613469E-17
   1.54999995        -4.43200990E-17
   1.60000002        -5.93600160E-17
   1.64999998        -7.32210749E-17
   1.70000005        -8.47869856E-17
   1.75000000        -9.27584589E-17
   1.79999995        -9.58044093E-17
   1.85000002        -9.27737122E-17
   1.89999998        -8.29316856E-17
   1.95000005        -6.61740983E-17
   2.00000000        -4.31717407E-17
   2.04999995        -1.54107288E-17
   2.09999990         1.48834690E-17
   2.15000010         4.49233817E-17
   2.20000005         7.15991061E-17
   2.25000000         9.17275669E-17
   2.29999995         1.02261341E-16
   2.34999990         1.00426218E-16
   2.40000010         8.37880955E-17
   2.45000005         5.02855568E-17
   2.50000000        -1.70895742E-18
   2.54999995        -7.32285923E-17
   2.59999990        -1.64400572E-16
   2.65000010        -2.73977889E-16
   2.70000005        -3.98772471E-16
   2.75000000        -5.33115390E-16
   2.79999995        -6.68519589E-16
   2.84999990        -7.93732658E-16
   2.90000010        -8.95332778E-16
   2.95000005        -9.58931188E-16
   3.00000000        -9.70918398E-16
   3.04999995        -9.20546619E-16
   3.09999990        -8.02019075E-16
   3.15000010        -6.16182905E-16
   3.20000005        -3.71423603E-16
   3.25000000        -8.34589305E-17
   3.29999995         2.26101178E-16
   3.34999990         5.32336120E-16
   3.40000010         8.10416031E-16
   3.45000005         1.03931398E-15
   3.50000000         1.20522603E-15
   3.54999995         1.30410897E-15
   3.59999990         1.34288148E-15
   3.65000010         1.33905660E-15
   3.70000005         1.31883697E-15
   3.75000000         1.31395626E-15
   3.79999995         1.35772372E-15
   3.84999990         1.48079803E-15
   3.90000010         1.70717436E-15
   3.95000005         2.05072500E-15
   4.00000000         2.51245939E-15
   4.05000019         3.07851414E-15
   4.09999990         3.71880625E-15
   4.15000010         4.38632200E-15
   4.19999981         5.01715741E-15
   4.25000000         5.53163633E-15
   4.30000019         5.83701712E-15
   4.34999990         5.83238766E-15
   4.40000010         5.41623487E-15
   4.44999981         4.49684455E-15
   4.50000000         3.00513631E-15
   4.55000019         9.08872917E-16
   4.59999990        -1.77349641E-15
   4.65000010        -4.96158443E-15
   4.69999981        -8.50681033E-15
   4.75000000        -1.21932748E-14
   4.80000019        -1.57471895E-14
   4.84999990        -1.88551957E-14
   4.90000010        -2.11905756E-14
   4.94999981        -2.24450670E-14
   5.00000000        -2.23629658E-14
   5.05000019        -2.07735711E-14
   5.09999990        -1.76180702E-14
   5.15000010        -1.29675103E-14
   5.19999981        -7.02962384E-15
   5.25000000        -1.43539871E-16
   5.30000019         7.23717402E-15
   5.34999990         1.45715891E-14
   5.40000010         2.12663495E-14
   5.44999981         2.67158884E-14
   5.50000000         3.03455516E-14
   5.55000019         3.16553966E-14
   5.59999990         3.02630134E-14
   5.65000010         2.59436027E-14
   5.69999981         1.86654399E-14
   5.75000000         8.61829427E-15
   5.80000019        -3.76831660E-15
   5.84999990        -1.78207482E-14
   5.90000010        -3.26345599E-14
   5.94999981        -4.71087809E-14
   6.00000000        -6.00028450E-14
   6.05000019        -7.00155198E-14
   6.09999990        -7.58822191E-14
   6.15000010        -7.64838564E-14
   6.19999981        -7.09579016E-14
   6.25000000        -5.88002073E-14
   6.30000019        -3.99462534E-14
   6.34999990        -1.48216942E-14
   6.40000010         1.56452915E-14
   6.44999981         5.00528472E-14
   6.50000000         8.65943330E-14
   6.55000019         1.23161653E-13
   6.59999990         1.57473982E-13
   6.65000010         1.87220980E-13
   6.69999981         2.10209047E-13
   6.75000000         2.24500364E-13
   6.80000019         2.28536455E-13
   6.84999990         2.21240412E-13
   6.90000010         2.02094431E-13
   6.94999981         1.71190644E-13
   7.00000000         1.29254002E-13
   7.05000019         7.76357602E-14
   7.09999990         1.82761148E-14
   7.15000010        -4.63663328E-14
   7.19999981        -1.13419460E-13
   7.25000000        -1.79736366E-13
   7.30000019        -2.42064019E-13
   7.34999990        -2.97234297E-13
   7.40000010        -3.42364022E-13
   7.44999981        -3.75048679E-13
   7.50000000        -3.93530803E-13
   7.55000019        -3.96824663E-13
   7.59999990        -3.84783243E-13
   7.65000010        -3.58097503E-13
   7.69999981        -3.18227459E-13
   7.75000000        -2.67271665E-13
   7.80000019        -2.07790816E-13
   7.84999990        -1.42604651E-13
   7.90000010        -7.45860960E-14
   7.94999981        -6.47352257E-15
   8.00000000         5.92814643E-14
   8.05000019         1.20620419E-13
   8.10000038         1.75935953E-13
   8.14999962         2.24085466E-13
   8.19999981         2.64370231E-13
   8.25000000         2.96491456E-13
   8.30000019         3.20494363E-13
   8.35000038         3.36708499E-13
   8.39999962         3.45687942E-13
   8.44999981         3.48150707E-13
   8.50000000         3.44915042E-13
   8.55000019         3.36828709E-13
   8.60000038         3.24690822E-13
   8.64999962         3.09170007E-13
   8.69999981         2.90726698E-13
   8.75000000         2.69553423E-13
   8.80000019         2.45546883E-13
   8.85000038         2.18326184E-13
   8.89999962         1.87303406E-13
   8.94999981         1.51806912E-13
   9.00000000         1.11245018E-13
   9.05000019         6.52890556E-14
   9.10000038         1.40476831E-14
   9.14999962        -4.17985891E-14
   9.19999981        -1.00929905E-13
   9.25000000        -1.61405272E-13
   9.30000019        -2.20771602E-13
   9.35000038        -2.76254117E-13
   9.39999962        -3.25004401E-13
   9.44999981        -3.64372486E-13
   9.50000000        -3.92164843E-13
   9.55000019        -4.06853587E-13
   9.60000038        -4.07710730E-13
   9.64999962        -3.94855589E-13
   9.69999981        -3.69217488E-13
   9.75000000        -3.32430399E-13
   9.80000019        -2.86684305E-13
   9.85000038        -2.34560445E-13
   9.89999962        -1.78874832E-13
   9.94999981        -1.22543157E-13
   10.0000000        -6.84705249E-14
   10.0500002        -1.94571328E-14
   10.1000004         2.18957780E-14
   10.1499996         5.32963024E-14
   10.1999998         7.28995653E-14
   10.2500000         7.94724665E-14
   10.3000002         7.25705777E-14
   10.3500004         5.26990730E-14
   10.3999996         2.14212430E-14
   10.4499998        -1.86227393E-14
   10.5000000        -6.38152251E-14
   10.5500002        -1.09790100E-13
   10.6000004        -1.51780132E-13
   10.6499996        -1.85047819E-13
   10.6999998        -2.05345642E-13
   10.7500000        -2.09341225E-13
   10.8000002        -1.94944497E-13
   10.8500004        -1.61487861E-13
   10.8999996        -1.09734758E-13
   10.9499998        -4.17210042E-14
   11.0000000         3.95370450E-14
   11.0500002         1.30411795E-13
   11.1000004         2.27044498E-13
   11.1499996         3.25672974E-13
   11.1999998         4.22860043E-13
   11.2500000         5.15602372E-13
   11.3000002         6.01326877E-13
   11.3500004         6.77809967E-13
   11.3999996         7.43068855E-13
   11.4499998         7.95276551E-13
   11.5000000         8.32740832E-13
   11.5500002         8.53963493E-13
   11.6000004         8.57768175E-13
   11.6499996         8.43458604E-13
   11.6999998         8.10952054E-13
   11.7500000         7.60829388E-13
   11.8000002         6.94259103E-13
   11.8500004         6.12779033E-13
   11.8999996         5.17957964E-13
   11.9499998         4.10992583E-13
   12.0000000         2.92325571E-13
   12.0500002         1.61377761E-13
   12.1000004         1.64779909E-14
   12.1499996        -1.44955987E-13
   12.1999998        -3.25978339E-13
   12.2500000        -5.29460048E-13
   12.3000002        -7.57306978E-13
   12.3500004        -1.00967097E-12
   12.3999996        -1.28427889E-12
   12.4499998        -1.57599454E-12
   12.5000000        -1.87668457E-12
   12.5500002        -2.17541631E-12
   12.6000004        -2.45895079E-12
   12.6499996        -2.71246437E-12
   12.6999998        -2.92039418E-12
   12.7500000        -3.06730140E-12
   12.8000002        -3.13866749E-12
   12.8500004        -3.12156963E-12
   12.8999996        -3.00522129E-12
   12.9499998        -2.78140228E-12
   13.0000000        -2.44482386E-12
   13.0500002        -1.99347418E-12
   13.1000004        -1.42897662E-12
   13.1499996        -7.56953528E-13
   13.1999998         1.26467000E-14
   13.2500000         8.65332925E-13
   13.3000002         1.78205703E-12
   13.3500004         2.73948507E-12
   13.3999996         3.71060387E-12
   13.4499998         4.66566629E-12
   13.5000000         5.57341283E-12
   13.5500002         6.40246450E-12
   13.6000004         7.12273513E-12
   13.6499996         7.70672241E-12
   13.6999998         8.13053791E-12
   13.7500000         8.37460396E-12
   13.8000002         8.42400802E-12
   13.8500004         8.26856032E-12
   13.8999996         7.90266984E-12
   13.9499998         7.32515611E-12
   14.0000000         6.53910953E-12
   14.0500002         5.55189098E-12
   14.1000004         4.37525276E-12
   14.1499996         3.02554748E-12
   14.1999998         1.52389028E-12
   14.2500000        -1.03861350E-13
   14.3000002        -1.82744011E-12
   14.3500004        -3.61290034E-12
   14.3999996        -5.42374565E-12
   14.4499998        -7.22238025E-12
   14.5000000        -8.97170359E-12
   14.5500002        -1.06366443E-11
   14.6000004        -1.21854081E-11
   14.6499996        -1.35902609E-11
   14.6999998        -1.48277293E-11
   14.7500000        -1.58782640E-11
   14.8000002        -1.67254578E-11
   14.8500004        -1.73550532E-11
   14.8999996        -1.77539927E-11
   14.9499998        -1.79097726E-11
   15.0000000        -1.78102914E-11
   15.0500002        -1.74442769E-11
   15.1000004        -1.68022592E-11
   15.1499996        -1.58779552E-11
   15.1999998        -1.46697394E-11
   15.2500000        -1.31820197E-11
   15.3000002        -1.14261708E-11
   15.3500004        -9.42087467E-12
   15.3999996        -7.19177756E-12
   15.4499998        -4.77050257E-12
   15.5000000        -2.19317424E-12
   15.5500002         5.01303805E-13
   15.6000004         3.27299407E-12
   15.6499996         6.08244965E-12
   15.6999998         8.89188723E-12
   15.7500000         1.16659495E-11
   15.8000002         1.43721268E-11
   15.8500004         1.69809427E-11
   15.8999996         1.94661110E-11
   15.9499998         2.18047368E-11
   16.0000000         2.39777104E-11
   16.0499992         2.59702728E-11
   16.1000004         2.77726436E-11
   16.1499996         2.93805986E-11
   16.2000008         3.07957687E-11
   16.2500000         3.20254726E-11
   16.2999992         3.30819538E-11
   16.3500004         3.39809882E-11
   16.3999996         3.47399401E-11
   16.4500008         3.53753797E-11
   16.5000000         3.59004597E-11
   16.5499992         3.63223444E-11
   16.6000004         3.66398162E-11
   16.6499996         3.68412488E-11
   16.7000008         3.69030605E-11
   16.7500000         3.67885514E-11
   16.7999992         3.64471404E-11
   16.8500004         3.58139421E-11
   16.8999996         3.48095754E-11
   16.9500008         3.33403201E-11
   17.0000000         3.12986512E-11
   17.0499992         2.85642621E-11
   17.1000004         2.50058203E-11
   17.1499996         2.04834847E-11
   17.2000008         1.48523693E-11
   17.2500000         7.96698211E-12
   17.2999992        -3.13698964E-13
   17.3500004        -1.01206205E-11
   17.3999996        -2.15689411E-11
   17.4500008        -3.47526070E-11
   17.5000000        -4.97396360E-11
   17.5499992        -6.65682995E-11
   17.6000004        -8.52443879E-11
   17.6499996        -1.05739535E-10
   17.7000008        -1.27990465E-10
   17.7500000        -1.51898771E-10
   17.7999992        -1.77331094E-10
   17.8500004        -2.04119222E-10
   17.8999996        -2.32059760E-10
   17.9500008        -2.60913707E-10
   18.0000000        -2.90405699E-10
   18.0499992        -3.20223237E-10
   18.1000004        -3.50016266E-10
   18.1499996        -3.79397541E-10
   18.2000008        -4.07943901E-10
   18.2500000        -4.35198932E-10
   18.2999992        -4.60677330E-10
   18.3500004        -4.83870055E-10
   18.3999996        -5.04251141E-10
   18.4500008        -5.21285126E-10
   18.5000000        -5.34434996E-10
   18.5499992        -5.43169676E-10
   18.6000004        -5.46971635E-10
   18.6499996        -5.45343493E-10
   18.7000008        -5.37813960E-10
   18.7500000        -5.23943167E-10
   18.7999992        -5.03326825E-10
   18.8500004        -4.75600004E-10
   18.8999996        -4.40440295E-10
   18.9500008        -3.97570477E-10
   19.0000000        -3.46761092E-10
   19.0499992        -2.87832425E-10
   19.1000004        -2.20656438E-10
   19.1499996        -1.45158455E-10
   19.2000008        -6.13186793E-11
   19.2500000         3.08262062E-11
   19.2999992         1.31181635E-10
   19.3500004         2.39593761E-10
   19.3999996         3.55847712E-10
   19.4500008         4.79666196E-10
   19.5000000         6.10707762E-10
   19.5499992         7.48565043E-10
   19.6000004         8.92763530E-10
   19.6499996         1.04276099E-09
   19.7000008         1.19794696E-09
   19.7500000         1.35764433E-09
   19.7999992         1.52111190E-09
   19.8500004         1.68754744E-09
   19.8999996         1.85609350E-09
   19.9500008         2.02584260E-09
   20.0000000         2.19584262E-09
   20.0499992         2.36510433E-09
   20.1000004         2.53260590E-09
   20.1499996         2.69729772E-09
   20.2000008         2.85810686E-09
   20.2500000         3.01394154E-09
   20.2999992         3.16369109E-09
   20.3500004         3.30623173E-09
   20.3999996         3.44042528E-09
   20.4500008         3.56512486E-09
   20.5000000         3.67917652E-09
   20.5499992         3.78142673E-09
   20.6000004         3.87072818E-09
   20.6499996         3.94595112E-09
   20.7000008         4.00599331E-09
   20.7500000         4.04978984E-09
   20.7999992         4.07632683E-09
   20.8500004         4.08465395E-09
   20.8999996         4.07389544E-09
   20.9500008         4.04326395E-09
   21.0000000         3.99206934E-09
   21.0499992         3.91973121E-09
   21.1000004         3.82578813E-09
   21.1499996         3.70990394E-09
   21.2000008         3.57187346E-09
   21.2500000         3.41162631E-09
   21.2999992         3.22922888E-09
   21.3500004         3.02488745E-09
   21.3999996         2.79894619E-09
   21.4500008         2.55188404E-09
   21.5000000         2.28431141E-09
   21.5499992         1.99695904E-09
   21.6000004         1.69067027E-09
   21.6499996         1.36639022E-09
   21.7000008         1.02515452E-09
   21.7500000         6.68078537E-10
   21.7999992         2.96346447E-10
   21.8500004        -8.87999049E-11
   21.8999996        -4.86071683E-10
   21.9500008        -8.94143759E-10
   22.0000000        -1.31166411E-09
   22.0499992        -1.73726322E-09
   22.1000004        -2.16956098E-09
   22.1499996        -2.60717736E-09
   22.2000008        -3.04873837E-09
   22.2500000        -3.49288620E-09
   22.2999992        -3.93828792E-09
   22.3500004        -4.38364589E-09
   22.3999996        -4.82770357E-09
   22.4500008        -5.26925614E-09
   22.5000000        -5.70715253E-09
   22.5499992        -6.14030471E-09
   22.6000004        -6.56768995E-09
   22.6499996        -6.98835345E-09
   22.7000008        -7.40141326E-09
   22.7500000        -7.80605980E-09
   22.7999992        -8.20155766E-09
   22.8500004        -8.58724469E-09
   22.8999996        -8.96253383E-09
   22.9500008        -9.32690103E-09
   23.0000000        -9.67989333E-09
   23.0499992        -1.00211102E-08
   23.1000004        -1.03502078E-08
   23.1499996        -1.06668869E-08
   23.2000008        -1.09708873E-08
   23.2500000        -1.12619718E-08
   23.2999992        -1.15399228E-08
   23.3500004        -1.18045298E-08
   23.3999996        -1.20555859E-08
   23.4500008        -1.22928787E-08
   23.5000000        -1.25161899E-08
   23.5499992        -1.27252955E-08
   23.6000004        -1.29199682E-08
   23.6499996        -1.30999736E-08
   23.7000008        -1.32650779E-08
   23.7500000        -1.34150495E-08
   23.7999992        -1.35496609E-08
   23.8500004        -1.36686946E-08
   23.8999996        -1.37719463E-08
   23.9500008        -1.38592249E-08
   24.0000000        -1.39303546E-08
   24.0499992        -1.39851766E-08
   24.1000004        -1.40235477E-08
   24.1499996        -1.40453409E-08
   24.2000008        -1.40504550E-08
   24.2500000        -1.40388101E-08
   24.2999992        -1.40103564E-08
   24.3500004        -1.39650771E-08
   24.3999996        -1.39029925E-08
   24.4500008        -1.38241489E-08
   24.5000000        -1.37286253E-08
   24.5499992        -1.36165239E-08
   24.6000004        -1.34879645E-08
   24.6499996        -1.33430760E-08
   24.7000008        -1.31819915E-08
   24.7500000        -1.30048434E-08
   24.7999992        -1.28117641E-08
   24.8500004        -1.26028956E-08
   24.8999996        -1.23784032E-08
   24.9500008        -1.21384858E-08
   25.0000000        -1.18833983E-08
   25.0499992        -1.16134640E-08
   25.1000004        -1.13290834E-08
   25.1499996        -1.10307186E-08
   25.2000008        -1.07188622E-08
   25.2500000        -1.03939977E-08
   25.2999992        -1.00565369E-08
   25.3500004        -9.70676783E-09
   25.3999996        -9.34480404E-09
   25.4500008        -8.97055763E-09
   25.5000000        -8.58375238E-09
   25.5499992        -8.18399304E-09
   25.6000004        -7.77086662E-09
   25.6499996        -7.34410888E-09
   25.7000008        -6.90378066E-09
   25.7500000        -6.45044951E-09
   25.7999992        -5.98533001E-09
   25.8500004        -5.51034418E-09
   25.8999996        -5.02806996E-09
   25.9500008        -4.54156179E-09
   26.0000000        -4.05403533E-09
   26.0499992        -3.56844221E-09
   26.1000004        -3.08698356E-09
   26.1499996        -2.61063482E-09
   26.2000008        -2.13876072E-09
   26.2500000        -1.66890801E-09
   26.2999992        -1.19685639E-09
   26.3500004        -7.16973203E-10
   26.3999996        -2.22884017E-10
   26.4500008         2.91578706E-10
   26.5000000         8.31236024E-10
   26.5499992         1.39836320E-09
   26.6000004         1.99158956E-09
   26.6499996         2.60506483E-09
   26.7000008         3.22804361E-09
   26.7500000         3.84499454E-09
   26.7999992         4.43628601E-09
   26.8500004         4.97941732E-09
   26.8999996         5.45069634E-09
   26.9500008         5.82719073E-09
   27.0000000         6.08872996E-09
   27.0499992         6.21971719E-09
   27.1000004         6.21052232E-09
   27.1499996         6.05827921E-09
   27.2000008         5.76697756E-09
   27.2500000         5.34683542E-09
   27.2999992         4.81303841E-09
   27.3500004         4.18401580E-09
   27.3999996         3.47947449E-09
   27.4500008         2.71845879E-09
   27.5000000         1.91767113E-09
   27.5499992         1.09025633E-09
   27.6000004         2.45173742E-10
   27.6499996        -6.12810747E-10
   27.7000008        -1.48257107E-09
   27.7500000        -2.36564235E-09
   27.7999992        -3.26500804E-09
   27.8500004        -4.18386215E-09
   27.8999996        -5.12454124E-09
   27.9500008        -6.08777206E-09
   28.0000000        -7.07231784E-09
   28.0499992        -8.07501532E-09
   28.1000004        -9.09114561E-09
   28.1499996        -1.01150217E-08
   28.2000008        -1.11406360E-08
   28.2500000        -1.21622463E-08
   28.2999992        -1.31747857E-08
   28.3500004        -1.41740477E-08
   28.3999996        -1.51566280E-08
   28.4500008        -1.61196834E-08
   28.5000000        -1.70605823E-08
   28.5499992        -1.79765145E-08
   28.6000004        -1.88642115E-08
   28.6499996        -1.97197636E-08
   28.7000008        -2.05385806E-08
   28.7500000        -2.13154792E-08
   28.7999992        -2.20448282E-08
   28.8500004        -2.27206716E-08
   28.8999996        -2.33367459E-08
   28.9500008        -2.38863702E-08
   29.0000000        -2.43621585E-08
   29.0499992        -2.47556020E-08
   29.1000004        -2.50566039E-08
   29.1499996        -2.52529695E-08
   29.2000008        -2.53300296E-08
   29.2500000        -2.52703760E-08
   29.2999992        -2.50537795E-08
   29.3500004        -2.46572842E-08
   29.3999996        -2.40553995E-08
   29.4500008        -2.32203519E-08
   29.5000000        -2.21222667E-08
   29.5499992        -2.07292477E-08
   29.6000004        -1.90072758E-08
   29.6499996        -1.69199446E-08
   29.7000008        -1.44280765E-08
   29.7500000        -1.14893011E-08
   29.7999992        -8.05763190E-09
   29.8500004        -4.08317335E-09
   29.8999996         4.88067642E-10
   29.9500008         5.71427972E-09
   30.0000000         1.16579484E-08
   30.0499992         1.83861033E-08
   30.1000004         2.59708770E-08
   30.1499996         3.44904976E-08
   30.2000008         4.40308412E-08
   30.2500000         5.46875150E-08
   30.2999992         6.65683828E-08
   30.3500004         7.97963580E-08
   30.3999996         9.45121030E-08
   30.4500008         1.10876321E-07
   30.5000000         1.29071424E-07
   30.5499992         1.49302153E-07
   30.6000004         1.71795207E-07
   30.6499996         1.96797870E-07
   30.7000008         2.24575928E-07
   30.7500000         2.55411294E-07
   30.7999992         2.89599882E-07
   30.8500004         3.27450465E-07
   30.8999996         3.69284436E-07
   30.9500008         4.15438080E-07
   31.0000000         4.66266499E-07
   31.0499992         5.22149605E-07
   31.1000004         5.83499798E-07
   31.1499996         6.50771256E-07
   31.2000008         7.24469544E-07
   31.2500000         8.05160937E-07
   31.2999992         8.93481342E-07
   31.3500004         9.90143121E-07
   31.3999996         1.09594055E-06
   31.4500008         1.21175276E-06
   31.5000000         1.33854542E-06
   31.5499992         1.47737035E-06
   31.6000004         1.62936385E-06
   31.6499996         1.79574624E-06
   31.7000008         1.97782038E-06
   31.7500000         2.17697220E-06
   31.7999992         2.39467477E-06
   31.8500004         2.63249285E-06
   31.8999996         2.89209174E-06
   31.9500008         3.17524950E-06
   32.0000000         3.48387061E-06
   32.0499992         3.82000235E-06
   32.0999985         4.18585432E-06
   32.1500015         4.58381737E-06
   32.2000008         5.01648583E-06
   32.2500000         5.48667640E-06
   32.2999992         5.99744772E-06
   32.3499985         6.55212125E-06
   32.4000015         7.15430087E-06
   32.4500008         7.80788469E-06
   32.5000000         8.51708592E-06
   32.5499992         9.28644295E-06
   32.5999985         1.01208379E-05
   32.6500015         1.10255132E-05
   32.7000008         1.20060895E-05
   32.7500000         1.30685867E-05
   32.7999992         1.42194413E-05
   32.8499985         1.54655318E-05
   32.9000015         1.68142160E-05
   32.9500008         1.82733620E-05
   33.0000000         1.98513771E-05
   33.0499992         2.15572582E-05
   33.0999985         2.34006311E-05
   33.1500015         2.53917951E-05
   33.2000008         2.75417642E-05
   33.2500000         2.98623127E-05
   33.2999992         3.23660352E-05
   33.3499985         3.50663904E-05
   33.4000015         3.79777521E-05
   33.4500008         4.11154506E-05
   33.5000000         4.44958569E-05
   33.5499992         4.81364295E-05
   33.5999985         5.20557696E-05
   33.6500015         5.62737005E-05
   33.7000008         6.08113369E-05
   33.7500000         6.56911870E-05
   33.7999992         7.09371961E-05
   33.8499985         7.65749064E-05
   33.9000015         8.26315081E-05
   33.9500008         8.91359086E-05
   34.0000000         9.61188780E-05
   34.0499992         1.03613151E-04
   34.0999985         1.11653484E-04
   34.1500015         1.20276847E-04
   34.2000008         1.29522450E-04
   34.2500000         1.39431926E-04
   34.2999992         1.50049411E-04
   34.3499985         1.61421718E-04
   34.4000015         1.73598411E-04
   34.4500008         1.86632024E-04
   34.5000000         2.00578099E-04
   34.5499992         2.15495485E-04
   34.5999985         2.31446451E-04
   34.6500015         2.48496828E-04
   34.7000008         2.66716204E-04
   34.7500000         2.86178081E-04
   34.7999992         3.06960224E-04
   34.8499985         3.29144736E-04
   34.9000015         3.52818228E-04
   34.9500008         3.78072145E-04
   35.0000000         4.05002793E-04
   35.0499992         4.33711859E-04
   35.0999985         4.64306446E-04
   35.1500015         4.96899360E-04
   35.2000008         5.31609228E-04
   35.2500000         5.68560965E-04
   35.2999992         6.07885770E-04
   35.3499985         6.49721653E-04
   35.4000015         6.94213493E-04
   35.4500008         7.41513504E-04
   35.5000000         7.91781291E-04
   35.5499992         8.45184433E-04
   35.5999985         9.01898602E-04
   35.6500015         9.62107850E-04