  -4.80000019         1.00000002E-24
  -4.75000000        -5.95965388E-10
  -4.69999981        -1.03112408E-09
  -4.65000010        -1.31941114E-09
  -4.59999990        -1.63265701E-09
  -4.55000019        -2.05019934E-09
  -4.50000000        -2.55092236E-09
  -4.44999981        -3.07337267E-09
  -4.40000010        -3.56676932E-09
  -4.34999990        -4.02027789E-09
  -4.30000019        -4.45331949E-09
  -4.25000000        -4.88098673E-09
  -4.19999981        -5.31244249E-09
  -4.15000010        -5.77535975E-09
  -4.09999990        -6.29429131E-09
  -4.05000019        -6.84790757E-09
  -4.00000000        -7.39352890E-09
  -3.95000005        -7.91967558E-09
  -3.90000010        -8.44021120E-09
  -3.84999990        -8.96476493E-09
  -3.79999995        -9.49549417E-09
  -3.75000000        -1.00332818E-08
  -3.70000005        -1.05776099E-08
  -3.65000010        -1.11189609E-08
  -3.59999990        -1.16462093E-08
  -3.54999995        -1.21715624E-08
  -3.50000000        -1.27163275E-08
  -3.45000005        -1.32735591E-08
  -3.40000010        -1.38227296E-08
  -3.34999990        -1.43632048E-08
  -3.29999995        -1.49050017E-08
  -3.25000000        -1.54468509E-08
  -3.20000005        -1.59785447E-08
  -3.15000010        -1.64939227E-08
  -3.09999990        -1.69919936E-08
  -3.04999995        -1.74679187E-08
  -3.00000000        -1.79182145E-08
  -2.95000005        -1.83577136E-08
  -2.90000010        -1.88067162E-08
  -2.84999990        -1.92600353E-08
  -2.79999995        -1.96986338E-08
  -2.75000000        -2.01262278E-08
  -2.70000005        -2.05562571E-08
  -2.65000010        -2.09686277E-08
  -2.59999990        -2.13323226E-08
  -2.54999995        -2.16643841E-08
  -2.50000000        -2.20040732E-08
  -2.45000005        -2.23462440E-08
  -2.40000010        -2.26617161E-08
  -2.34999990        -2.29566002E-08
  -2.29999995        -2.32555539E-08
  -2.25000000        -2.35485960E-08
  -2.20000005        -2.38081341E-08
  -2.15000010        -2.40461340E-08
  -2.09999990        -2.42940548E-08
  -2.04999995        -2.45389415E-08
  -2.00000000        -2.47440841E-08
  -1.95000005        -2.49072158E-08
  -1.89999998        -2.50490952E-08
  -1.85000002        -2.51788137E-08
  -1.79999995        -2.52931898E-08
  -1.75000000        -2.53862833E-08
  -1.70000005        -2.54510741E-08
  -1.64999998        -2.54726391E-08
  -1.60000002        -2.54378438E-08
  -1.54999995        -2.53666528E-08
  -1.50000000        -2.52897507E-08
  -1.45000005        -2.51950336E-08
  -1.39999998        -2.50477896E-08
  -1.35000002        -2.48329179E-08
  -1.29999995        -2.45524721E-08
  -1.25000000        -2.42097595E-08
  -1.20000005        -2.38045850E-08
  -1.14999998        -2.33463400E-08
  -1.10000002        -2.28422277E-08
  -1.04999995        -2.22578453E-08
  -1.00000000        -2.15479474E-08
 -0.949999988        -2.07298143E-08
 -0.899999976        -1.98496419E-08
 -0.850000024        -1.88984863E-08
 -0.800000012        -1.78304500E-08
 -0.750000000        -1.66081513E-08
 -0.699999988        -1.52154236E-08
 -0.649999976        -1.36861287E-08
 -0.600000024        -1.20582762E-08
 -0.550000012        -1.02698801E-08
 -0.500000000        -8.22087376E-09
 -0.449999988        -5.92411853E-09
 -0.400000006        -3.44624040E-09
 -0.349999994        -7.48071938E-10
 -0.300000012         2.26934516E-09
 -0.250000000         5.63063773E-09
 -0.200000003         9.31174693E-09
 -0.150000006         1.33271492E-08
 -0.100000001         1.77293096E-08
  -5.00000007E-02     2.25875354E-08
   8.88178420E-16     2.79628694E-08
   5.00000007E-02     3.38561428E-08
  0.100000001         4.02570102E-08
  0.150000006         4.72606807E-08
  0.200000003         5.50082326E-08
  0.250000000         6.35398507E-08
  0.300000012         7.28444931E-08
  0.349999994         8.29973814E-08
  0.400000006         9.41329432E-08
  0.449999988         1.06355635E-07
  0.500000000         1.19743930E-07
  0.550000012         1.34382532E-07
  0.600000024         1.50376863E-07
  0.649999976         1.67870738E-07
  0.699999988         1.87023787E-07
  0.750000000         2.07968611E-07
  0.800000012         2.30833294E-07
  0.850000024         2.55803968E-07
  0.899999976         2.83106033E-07
  0.949999988         3.12951812E-07
   1.00000000         3.45544265E-07
   1.04999995         3.81083652E-07
   1.10000002         4.19798994E-07
   1.14999998         4.62030698E-07
   1.20000005         5.08167659E-07
   1.25000000         5.58501881E-07
   1.29999995         6.13296663E-07
   1.35000002         6.72957469E-07
   1.39999998         7.37983214E-07
   1.45000005         8.08821540E-07
   1.50000000         8.85905763E-07
   1.54999995         9.69788630E-07
   1.60000002         1.06111008E-06
   1.64999998         1.16049500E-06
   1.70000005         1.26857174E-06
   1.75000000         1.38602775E-06
   1.79999995         1.51363042E-06
   1.85000002         1.65227391E-06
   1.89999998         1.80292773E-06
   1.95000005         1.96653082E-06
   2.00000000         2.14405190E-06
   2.04999995         2.33664105E-06
   2.09999990         2.54558836E-06
   2.15000010         2.77221807E-06
   2.20000005         3.01790578E-06
   2.25000000         3.28415285E-06
   2.29999995         3.57259705E-06
   2.34999990         3.88503031E-06
   2.40000010         4.22337143E-06
   2.45000005         4.58961449E-06
   2.50000000         4.98587087E-06
   2.54999995         5.41448071E-06
   2.59999990         5.87798377E-06
   2.65000010         6.37905805E-06
   2.70000005         6.92054437E-06
   2.75000000         7.50552908E-06
   2.79999995         8.13733004E-06
   2.84999990         8.81945198E-06
   2.90000010         9.55561700E-06
   2.95000005         1.03498669E-05
   3.00000000         1.12065445E-05
   3.04999995         1.21302737E-05
   3.09999990         1.31259658E-05
   3.15000010         1.41988839E-05
   3.20000005         1.53546425E-05
   3.25000000         1.65991951E-05
   3.29999995         1.79388735E-05
   3.34999990         1.93805281E-05
   3.40000010         2.09314840E-05
   3.45000005         2.25994754E-05
   3.50000000         2.43926897E-05
   3.54999995         2.63198835E-05
   3.59999990         2.83904101E-05
   3.65000010         3.06141810E-05
   3.70000005         3.30017101E-05
   3.75000000         3.55642769E-05
   3.79999995         3.83138686E-05
   3.84999990         4.12631598E-05
   3.90000010         4.44255711E-05
   3.95000005         4.78153815E-05
   4.00000000         5.14477797E-05
   4.05000019         5.53387763E-05
   4.09999990         5.95053098E-05
   4.15000010         6.39655045E-05
   4.19999981         6.87386128E-05
   4.25000000         7.38448871E-05
   4.30000019         7.93056461E-05
   4.34999990         8.51435034E-05
   4.40000010         9.13823897E-05
   4.44999981         9.80477998E-05
   4.50000000         1.05166713E-04
   4.55000019         1.12767404E-04
   4.59999990         1.20879580E-04
   4.65000010         1.29534805E-04
   4.69999981         1.38766452E-04
   4.75000000         1.48609572E-04
   4.80000019         1.59101110E-04
   4.84999990         1.70280095E-04
   4.90000010         1.82187709E-04
   4.94999981         1.94867258E-04
   5.00000000         2.08364188E-04
   5.05000019         2.22726274E-04
   5.09999990         2.38003777E-04
   5.15000010         2.54249841E-04
   5.19999981         2.71520257E-04
   5.25000000         2.89873395E-04
   5.30000019         3.09370342E-04
   5.34999990         3.30075534E-04
   5.40000010         3.52056668E-04
   5.44999981         3.75384378E-04
   5.50000000         4.00132558E-04
   5.55000019         4.26379149E-04
   5.59999990         4.54205699E-04
   5.65000010         4.83697455E-04
   5.69999981         5.14943385E-04
   5.75000000         5.48036420E-04
   5.80000019         5.83073706E-04
   5.84999990         6.20157225E-04
   5.90000010         6.59393845E-04
   5.94999981         7.00894336E-04
   6.00000000         7.44774006E-04
   6.05000019         7.91153463E-04
   6.09999990         8.40158551E-04
   6.15000010         8.91920761E-04
   6.19999981         9.46576532E-04
   6.25000000         1.00426807E-03
   6.30000019         1.06514303E-03
   6.34999990         1.12935528E-03
   6.40000010         1.19706499E-03
   6.44999981         1.26843830E-03
   6.50000000         1.34364690E-03
   6.55000019         1.42287021E-03
   6.59999990         1.50629482E-03
   6.65000010         1.59411330E-03
   6.69999981         1.68652460E-03
   6.75000000         1.78373582E-03
   6.80000019         1.88596151E-03
   6.84999990         1.99342333E-03
   6.90000010         2.10635061E-03
   6.94999981         2.22498062E-03
   7.00000000         2.34955759E-03
   7.05000019         2.48033530E-03
   7.09999990         2.61757500E-03
   7.15000010         2.76154606E-03
   7.19999981         2.91252625E-03
   7.25000000         3.07080219E-03
   7.30000019         3.23666818E-03
   7.34999990         3.41042853E-03
   7.40000010         3.59239522E-03
   7.44999981         3.78288957E-03
   7.50000000         3.98224220E-03
   7.55000019         4.19079093E-03
   7.59999990         4.40888479E-03
   7.65000010         4.63688094E-03
   7.69999981         4.87514539E-03
   7.75000000         5.12405206E-03
   7.80000019         5.38398651E-03
   7.84999990         5.65534132E-03
   7.90000010         5.93851646E-03
   7.94999981         6.23392500E-03
   8.00000000         6.54198602E-03
   8.05000019         6.86312700E-03
   8.10000038         7.19778473E-03
   8.14999962         7.54640531E-03
   8.19999981         7.90944044E-03
   8.25000000         8.28735344E-03
   8.30000019         8.68061185E-03
   8.35000038         9.08969250E-03
   8.39999962         9.51508060E-03
   8.44999981         9.95726697E-03
   8.50000000         1.04167508E-02
   8.55000019         1.08940350E-02
   8.60000038         1.13896308E-02
   8.64999962         1.19040543E-02
   8.69999981         1.24378307E-02
   8.75000000         1.29914843E-02
   8.80000019         1.35655459E-02
   8.85000038         1.41605521E-02
   8.89999962         1.47770429E-02
   8.94999981         1.54155586E-02
   9.00000000         1.60766449E-02
   9.05000019         1.67608466E-02
   9.10000038         1.74687132E-02
   9.14999962         1.82007924E-02
   9.19999981         1.89576317E-02
   9.25000000         1.97397768E-02
   9.30000019         2.05477756E-02
   9.35000038         2.13821717E-02
   9.39999962         2.22435072E-02
   9.44999981         2.31323112E-02
   9.50000000         2.40491219E-02
   9.55000019         2.49944627E-02
   9.60000038         2.59688571E-02
   9.64999962         2.69728154E-02
   9.69999981         2.80068405E-02
   9.75000000         2.90714279E-02
   9.80000019         3.01670618E-02
   9.85000038         3.12942155E-02
   9.89999962         3.24533507E-02
   9.94999981         3.36449146E-02
   10.0000000         3.48693393E-02
   10.0500002         3.61270420E-02
   10.1000004         3.74184214E-02
   10.1499996         3.87438685E-02
   10.1999998         4.01037373E-02
   10.2500000         4.14983816E-02
   10.3000002         4.29281257E-02
   10.3500004         4.43932600E-02
   10.3999996         4.58940677E-02
   10.4499998         4.74308059E-02
   10.5000000         4.90036979E-02
   10.5500002         5.06129414E-02
   10.6000004         5.22587150E-02
   10.6499996         5.39411604E-02
   10.6999998         5.56603931E-02
   10.7500000         5.74164912E-02
   10.8000002         5.92095070E-02
   10.8500004         6.10394515E-02
   10.8999996         6.29063100E-02
   10.9499998         6.48100302E-02
   11.0000000         6.67505190E-02
   11.0500002         6.87276497E-02
   11.1000004         7.07412437E-02
   11.1499996         7.27911070E-02
   11.1999998         7.48769864E-02
   11.2500000         7.69985989E-02
   11.3000002         7.91556090E-02
   11.3500004         8.13476369E-02
   11.3999996         8.35742652E-02
   11.4499998         8.58350545E-02
   11.5000000         8.81294683E-02
   11.5500002         9.04569700E-02
   11.6000004         9.28169563E-02
   11.6499996         9.52087790E-02
   11.6999998         9.76317599E-02
   11.7500000        0.100085147    
   11.8000002        0.102568150    
   11.8500004        0.105079941    
   11.8999996        0.107619643    
   11.9499998        0.110186309    
   12.0000000        0.112778991    
   12.0500002        0.115396641    
   12.1000004        0.118038185    
   12.1499996        0.120702498    
   12.1999998        0.123388425    
   12.2500000        0.126094759    
   12.3000002        0.128820196    
   12.3500004        0.131563455    
   12.3999996        0.134323224    
   12.4499998        0.137098059    
   12.5000000        0.139886543    
   12.5500002        0.142687187    
   12.6000004        0.145498440    
   12.6499996        0.148318782    
   12.6999998        0.151146606    
   12.7500000        0.153980255    
   12.8000002        0.156818062    
   12.8500004        0.159658313    
   12.8999996        0.162499264    
   12.9499998        0.165339142    
   13.0000000        0.168176115    
   13.0500002        0.171008393    
   13.1000004        0.173834085    
   13.1499996        0.176651314    
   13.1999998        0.179458141    
   13.2500000        0.182252660    
   13.3000002        0.185032904    
   13.3500004        0.187796921    
   13.3999996        0.190542728    
   13.4499998        0.193268344    
   13.5000000        0.195971757    
   13.5500002        0.198650926    
   13.6000004        0.201303869    
   13.6499996        0.203928545    
   13.6999998        0.206522986    
   13.7500000        0.209085137    
   13.8000002        0.211612999    
   13.8500004        0.214104578    
   13.8999996        0.216557890    
   13.9499998        0.218970895    
   14.0000000        0.221341670    
   14.0500002        0.223668292    
   14.1000004        0.225948766    
   14.1499996        0.228181273    
   14.1999998        0.230363905    
   14.2500000        0.232494816    
   14.3000002        0.234572187    
   14.3500004        0.236594245    
   14.3999996        0.238559246    
   14.4499998        0.240465447    
   14.5000000        0.242311239    
   14.5500002        0.244094968    
   14.6000004        0.245815068    
   14.6499996        0.247470006    
   14.6999998        0.249058321    
   14.7500000        0.250578582    
   14.8000002        0.252029419    
   14.8500004        0.253409535    
   14.8999996        0.254717678    
   14.9499998        0.255952626    
   15.0000000        0.257113308    
   15.0500002        0.258198589    
   15.1000004        0.259207577    
   15.1499996        0.260139227    
   15.1999998        0.260992706    
   15.2500000        0.261767328    
   15.3000002        0.262462229    
   15.3500004        0.263076842    
   15.3999996        0.263610542    
   15.4499998        0.264062881    
   15.5000000        0.264433444    
   15.5500002        0.264721841    
   15.6000004        0.264927804    
   15.6499996        0.265051186    
   15.6999998        0.265091836    
   15.7500000        0.265049726    
   15.8000002        0.264924854    
   15.8500004        0.264717430    
   15.8999996        0.264427602    
   15.9499998        0.264055699    
   16.0000000        0.263601929    
   16.0499992        0.263066828    
   16.1000004        0.262450844    
   16.1499996        0.261754572    
   16.2000008        0.260978639    
   16.2500000        0.260123760    
   16.2999992        0.259190738    
   16.3500004        0.258180469    
   16.3999996        0.257093847    
   16.4500008        0.255931854    
   16.5000000        0.254695624    
   16.5499992        0.253386229    
   16.6000004        0.252004892    
   16.6499996        0.250552833    
   16.7000008        0.249031395    
   16.7500000        0.247441962    
   16.7999992        0.245785907    
   16.8500004        0.244064718    
   16.8999996        0.242279932    
   16.9500008        0.240433082    
   17.0000000        0.238525808    
   17.0499992        0.236559793    
   17.1000004        0.234536752    
   17.1499996        0.232458428    
   17.2000008        0.230326623    
   17.2500000        0.228143141    
   17.2999992        0.225909784    
   17.3500004        0.223628476    
   17.3999996        0.221301138    
   17.4500008        0.218929619    
   17.5000000        0.216515884    
   17.5499992        0.214061916    
   17.6000004        0.211569697    
   17.6499996        0.209041238    
   17.7000008        0.206478536    
   17.7500000        0.203883588    
   17.7999992        0.201258421    
   17.8500004        0.198605031    
   17.8999996        0.195925385    
   17.9500008        0.193221584    
   18.0000000        0.190495595    
   18.0499992        0.187749445    
   18.1000004        0.184985116    
   18.1499996        0.182204604    
   18.2000008        0.179409876    
   18.2500000        0.176602826    
   18.2999992        0.173785478    
   18.3500004        0.170959681    
   18.3999996        0.168127313    
   18.4500008        0.165290281    
   18.5000000        0.162450403    
   18.5499992        0.159609497    
   18.6000004        0.156769291    
   18.6499996        0.153931588    
   18.7000008        0.151098043    
   18.7500000        0.148270324    
   18.7999992        0.145450130    
   18.8500004        0.142639011    
   18.8999996        0.139838532    
   18.9500008        0.137050256    
   19.0000000        0.134275660    
   19.0499992        0.131516188    
   19.1000004        0.128773227    
   19.1499996        0.126048148    
   19.2000008        0.123342179    
   19.2500000        0.120656632    
   19.2999992        0.117992699    
   19.3500004        0.115351550    
   19.3999996        0.112734310    
   19.4500008        0.110142067    
   19.5000000        0.107575849    
   19.5499992        0.105036639    
   19.6000004        0.102525376    
   19.6499996        0.100042909    
   19.7000008         9.75900516E-02
   19.7500000         9.51676071E-02
   19.7999992         9.27762985E-02
   19.8500004         9.04168561E-02
   19.8999996         8.80898982E-02
   19.9500008         8.57960358E-02
   20.0000000         8.35358426E-02
   20.0499992         8.13098177E-02
   20.1000004         7.91184083E-02
   20.1499996         7.69620389E-02
   20.2000008         7.48410597E-02
   20.2500000         7.27558136E-02
   20.2999992         7.07065910E-02
   20.3500004         6.86936453E-02
   20.3999996         6.67171627E-02
   20.4500008         6.47773147E-02
   20.5000000         6.28742203E-02
   20.5499992         6.10079691E-02
   20.6000004         5.91786392E-02
   20.6499996         5.73862456E-02
   20.7000008         5.56307733E-02
   20.7500000         5.39121814E-02
   20.7999992         5.22303879E-02
   20.8500004         5.05852699E-02
   20.8999996         4.89766821E-02
   20.9500008         4.74044308E-02
   21.0000000         4.58683148E-02
   21.0499992         4.43681031E-02
   21.1000004         4.29035686E-02
   21.1499996         4.14744355E-02
   21.2000008         4.00804058E-02
   21.2500000         3.87211442E-02
   21.2999992         3.73963229E-02
   21.3500004         3.61055620E-02
   21.3999996         3.48484665E-02
   21.4500008         3.36246081E-02
   21.5000000         3.24335769E-02
   21.5499992         3.12749520E-02
   21.6000004         3.01483031E-02
   21.6499996         2.90531814E-02
   21.7000008         2.79891156E-02
   21.7500000         2.69556213E-02
   21.7999992         2.59522032E-02
   21.8500004         2.49783471E-02
   21.8999996         2.40335371E-02
   21.9500008         2.31172349E-02
   22.0000000         2.22289115E-02
   22.0499992         2.13680323E-02
   22.1000004         2.05340739E-02
   22.1499996         1.97265018E-02
   22.2000008         1.89447775E-02
   22.2500000         1.81883555E-02
   22.2999992         1.74566880E-02
   22.3500004         1.67492349E-02
   22.3999996         1.60654504E-02
   22.4500008         1.54047869E-02
   22.5000000         1.47666885E-02
   22.5499992         1.41506037E-02
   22.6000004         1.35559849E-02
   22.6499996         1.29822949E-02
   22.7000008         1.24289962E-02
   22.7500000         1.18955541E-02
   22.7999992         1.13814436E-02
   22.8500004         1.08861504E-02
   22.8999996         1.04091717E-02
   22.9500008         9.94999707E-03
   23.0000000         9.50811524E-03
   23.0499992         9.08302050E-03
   23.1000004         8.67421459E-03
   23.1499996         8.28121696E-03
   23.2000008         7.90355727E-03
   23.2500000         7.54076941E-03
   23.2999992         7.19239144E-03
   23.3500004         6.85797399E-03
   23.3999996         6.53707609E-03
   23.4500008         6.22926187E-03
   23.5000000         5.93409454E-03
   23.5499992         5.65114291E-03
   23.6000004         5.37999067E-03
   23.6499996         5.12023969E-03
   23.7000008         4.87150904E-03
   23.7500000         4.63342061E-03
   23.7999992         4.40559909E-03
   23.8500004         4.18767286E-03
   23.8999996         3.97928618E-03
   23.9500008         3.78009002E-03
   24.0000000         3.58974398E-03
   24.0499992         3.40791186E-03
   24.1000004         3.23427166E-03
   24.1499996         3.06851952E-03
   24.2000008         2.91036465E-03
   24.2500000         2.75951880E-03
   24.2999992         2.61568930E-03
   24.3500004         2.47858604E-03
   24.3999996         2.34793103E-03
   24.4500008         2.22346419E-03
   24.5000000         2.10493710E-03
   24.5499992         1.99210551E-03
   24.6000004         1.88473240E-03
   24.6499996         1.78259099E-03
   24.7000008         1.68546708E-03
   24.7500000         1.59315055E-03
   24.7999992         1.50542927E-03
   24.8500004         1.42209150E-03
   24.8999996         1.34293840E-03
   24.9500008         1.26778940E-03
   25.0000000         1.19647640E-03
   25.0499992         1.12883234E-03
   25.1000004         1.06468750E-03
   25.1499996         1.00387586E-03
   25.2000008         9.46242712E-04
   25.2500000         8.91643111E-04
   25.2999992         8.39935208E-04
   25.3500004         7.90977327E-04
   25.3999996         7.44634890E-04
   25.4500008         7.00787583E-04
   25.5000000         6.59326557E-04
   25.5499992         6.20142848E-04
   25.6000004         5.83120098E-04
   25.6499996         5.48140029E-04
   25.7000008         5.15094434E-04
   25.7500000         4.83889162E-04
   25.7999992         4.54436551E-04
   25.8500004         4.26645827E-04
   25.8999996         4.00425954E-04
   25.9500008         3.75695177E-04
   26.0000000         3.52384843E-04
   26.0499992         3.30430659E-04
   26.1000004         3.09762370E-04
   26.1499996         2.90304102E-04
   26.2000008         2.71985686E-04
   26.2500000         2.54749582E-04
   26.2999992         2.38545195E-04
   26.3500004         2.23316849E-04
   26.3999996         2.09002057E-04
   26.4500008         1.95542030E-04
   26.5000000         1.82892240E-04
   26.5499992         1.71018488E-04
   26.6000004         1.59883377E-04
   26.6499996         1.49439453E-04
   26.7000008         1.39637326E-04
   26.7500000         1.30437620E-04
   26.7999992         1.21811674E-04
   26.8500004         1.13730188E-04
   26.8999996         1.06156294E-04
   26.9500008         9.90529807E-05
   27.0000000         9.23959669E-05
   27.0499992         8.61743902E-05
   27.1000004         8.03764924E-05
   27.1499996         7.49763785E-05
   27.2000008         6.99374214E-05
   27.2500000         6.52273884E-05
   27.2999992         6.08269365E-05
   27.3500004         5.67215320E-05
   27.3999996         5.28891469E-05
   27.4500008         4.93010884E-05
   27.5000000         4.59360999E-05
   27.5499992         4.27890373E-05
   27.6000004         3.98616721E-05
   27.6499996         3.71461174E-05
   27.7000008         3.46216257E-05
   27.7500000         3.22683809E-05
   27.7999992         3.00802640E-05
   27.8500004         2.80594541E-05
   27.8999996         2.61995992E-05
   27.9500008         2.44790517E-05
   28.0000000         2.28732952E-05
   28.0499992         2.13713192E-05
   28.1000004         1.99757087E-05
   28.1499996         1.86869911E-05
   28.2000008         1.74932084E-05
   28.2500000         1.63785589E-05
   28.2999992         1.53396159E-05
   28.3500004         1.43867310E-05
   28.3999996         1.35272094E-05
   28.4500008         1.27507119E-05
   28.5000000         1.20355326E-05
   28.5499992         1.13682117E-05
   28.6000004         1.07519227E-05
   28.6499996         1.01935284E-05
   28.7000008         9.68678251E-06
   28.7500000         9.21395804E-06
   28.7999992         8.76421745E-06
   28.8500004         8.34482034E-06
   28.8999996         7.97014127E-06
   28.9500008         7.64202287E-06
   29.0000000         7.34643891E-06
   29.0499992         7.07045001E-06
   29.1000004         6.81725896E-06
   29.1499996         6.59940406E-06
   29.2000008         6.41871611E-06
   29.2500000         6.25936946E-06
   29.2999992         6.10386951E-06
   29.3500004         5.95212441E-06
   29.3999996         5.81945051E-06
   29.4500008         5.71603005E-06
   29.5000000         5.63403228E-06
   29.5499992         5.55858878E-06
   29.6000004         5.48781372E-06
   29.6499996         5.43529040E-06
   29.7000008         5.41136160E-06
   29.7500000         5.40744168E-06
   29.7999992         5.40430437E-06
   29.8500004         5.39433086E-06
   29.8999996         5.38933409E-06
   29.9500008         5.40399060E-06
   30.0000000         5.43602118E-06
   30.0499992         5.46832644E-06
   30.1000004         5.49016431E-06
   30.1499996         5.50967798E-06
   30.2000008         5.54128928E-06
   30.2500000         5.58457759E-06
   30.2999992         5.62268997E-06
   30.3500004         5.64313495E-06
   30.3999996         5.65460505E-06
   30.4500008         5.67824827E-06
   30.5000000         5.72447425E-06
   30.5499992         5.78425261E-06
   30.6000004         5.84469308E-06
   30.6499996         5.90762829E-06
   30.7000008         5.98627594E-06
   30.7500000         6.08411983E-06
   30.7999992         6.18439481E-06
   30.8500004         6.26534620E-06
   30.8999996         6.32300225E-06
   30.9500008         6.37331050E-06
   31.0000000         6.43142039E-06
   31.0499992         6.49447202E-06
   31.1000004         6.54906853E-06
   31.1499996         6.59267607E-06
   31.2000008         6.64061236E-06
   31.2500000         6.70902682E-06
   31.2999992         6.79568984E-06
   31.3500004         6.88347791E-06
   31.3999996         6.96160032E-06
   31.4500008         7.03685646E-06
   31.5000000         7.12099290E-06
   31.5499992         7.21125116E-06
   31.6000004         7.29013118E-06
   31.6499996         7.34601917E-06
   31.7000008         7.38879407E-06
   31.7500000         7.43993269E-06
   31.7999992         7.50903291E-06
   31.8500004         7.58541728E-06
   31.8999996         7.65359164E-06
   31.9500008         7.71162740E-06
   32.0000000         7.76954857E-06
   32.0499992         7.83178530E-06
   32.0999985         7.88851685E-06
   32.1500015         7.92860737E-06
   32.2000008         7.95773121E-06
   32.2500000         7.99667851E-06
   32.2999992         8.05945092E-06
   32.3499985         8.13737461E-06
   32.4000015         8.20849345E-06
   32.4500008         8.26043288E-06
   32.5000000         8.29976398E-06
   32.5499992         8.33919148E-06
   32.5999985         8.38136293E-06
   32.6500015         8.42038298E-06
   32.7000008         8.45700470E-06
   32.7500000         8.50445940E-06
   32.7999992         8.57423038E-06
   32.8499985         8.65884977E-06
   32.9000015         8.73476256E-06
   32.9500008         8.78378523E-06
   33.0000000         8.80857078E-06
   33.0499992         8.82547010E-06
   33.0999985         8.84550718E-06
   33.1500015         8.86691396E-06
   33.2000008         8.88618069E-06
   33.2500000         8.91006312E-06
   33.2999992         8.95065205E-06
   33.3499985         9.00945543E-06
   33.4000015         9.07203048E-06
   33.4500008         9.12148334E-06
   33.5000000         9.15488363E-06
   33.5499992         9.18311616E-06
   33.5999985         9.21573519E-06
   33.6500015         9.25048698E-06
   33.7000008         9.27994279E-06
   33.7500000         9.30535498E-06
   33.7999992         9.33871615E-06
   33.8499985         9.38966514E-06
   33.9000015         9.45376360E-06
   33.9500008         9.51705533E-06
   34.0000000         9.57105476E-06
   34.0499992         9.61966998E-06
   34.0999985         9.67070810E-06
   34.1500015         9.72450835E-06
   34.2000008         9.77487434E-06
   34.2500000         9.82038455E-06
   34.2999992         9.87014482E-06
   34.3499985         9.93540652E-06
   34.4000015         1.00171792E-05
   34.4500008         1.01055339E-05
   34.5000000         1.01916921E-05
   34.5499992         1.02779995E-05
   34.5999985         1.03739558E-05
   34.6500015         1.04842475E-05
   34.7000008         1.06040397E-05
   34.7500000         1.07264386E-05
   34.7999992         1.08513168E-05
   34.8499985         1.09840912E-05
   34.9000015         1.11272420E-05
   34.9500008         1.12770249E-05
   35.0000000         1.14303693E-05
   35.0499992         1.15928988E-05
   35.0999985         1.17767668E-05
   35.1500015         1.19897632E-05
   35.2000008         1.22284418E-05
   35.2500000         1.24832513E-05
   35.2999992         1.27491048E-05
   35.3499985         1.30290509E-05
   35.4000015         1.33283302E-05
   35.4500008         1.36479302E-05
   35.5000000         1.39859440E-05
   35.5499992         1.43435909E-05
   35.5999985         1.47264964E-05
   35.6500015         1.51388904E-05