  -4.80000019         1.00000002E-24
  -4.75000000         1.00000002E-24
  -4.69999981         1.00000002E-24
  -4.65000010         1.00000002E-24
  -4.59999990         1.00000002E-24
  -4.55000019         1.00000002E-24
  -4.50000000         1.00000002E-24
  -4.44999981         9.99998836E-25
  -4.40000010         9.99982073E-25
  -4.34999990         9.99865913E-25
  -4.30000019         9.99296454E-25
  -4.25000000         9.97099871E-25
  -4.19999981         9.90008702E-25
  -4.15000010         9.70137394E-25
  -4.09999990         9.20626314E-25
  -4.05000019         8.09148682E-25
  -4.00000000         5.79834163E-25
  -3.95000005         1.45953701E-25
  -3.90000010        -6.11339591E-25
  -3.84999990        -1.82875668E-24
  -3.79999995        -3.61670676E-24
  -3.75000000        -5.96611992E-24
  -3.70000005        -8.58450349E-24
  -3.65000010        -1.06413723E-23
  -3.59999990        -1.04127060E-23
  -3.54999995        -4.83442243E-24
  -3.50000000         1.09911383E-23
  -3.45000005         4.42426959E-23
  -3.40000010         1.04625928E-22
  -3.34999990         2.04192430E-22
  -3.29999995         3.56441411E-22
  -3.25000000         5.74373033E-22
  -3.20000005         8.67169019E-22
  -3.15000010         1.23525359E-21
  -3.09999990         1.66366115E-21
  -3.04999995         2.11391317E-21
  -3.00000000         2.51499398E-21
  -2.95000005         2.75450659E-21
  -2.90000010         2.67165100E-21
  -2.84999990         2.05426226E-21
  -2.79999995         6.42672231E-22
  -2.75000000        -1.85651540E-21
  -2.70000005        -5.74369216E-21
  -2.65000010        -1.12841305E-20
  -2.59999990        -1.86493782E-20
  -2.54999995        -2.78431159E-20
  -2.50000000        -3.86151239E-20
  -2.45000005        -5.03701682E-20
  -2.40000010        -6.20818437E-20
  -2.34999990        -7.22246483E-20
  -2.29999995        -7.87401691E-20
  -2.25000000        -7.90554412E-20
  -2.20000005        -7.01719932E-20
  -2.15000010        -4.88431055E-20
  -2.09999990        -1.18522469E-20
  -2.04999995         4.36022087E-20
  -2.00000000         1.19423257E-19
  -1.95000005         2.16055479E-19
  -1.89999998         3.31889470E-19
  -1.85000002         4.62687560E-19
  -1.79999995         6.01101553E-19
  -1.75000000         7.36361403E-19
  -1.70000005         8.54216907E-19
  -1.64999998         9.37210420E-19
  -1.60000002         9.65349450E-19
  -1.54999995         9.17230079E-19
  -1.50000000         7.71632332E-19
  -1.45000005         5.09566418E-19
  -1.39999998         1.16690938E-19
  -1.35000002        -4.14043033E-19
  -1.29999995        -1.07973550E-18
  -1.25000000        -1.86513491E-18
  -1.20000005        -2.74078541E-18
  -1.14999998        -3.66201377E-18
  -1.10000002        -4.56901276E-18
  -1.04999995        -5.38821522E-18
  -1.00000000        -6.03506963E-18
 -0.949999988        -6.41823748E-18
 -0.899999976        -6.44514401E-18
 -0.850000024        -6.02870365E-18
 -0.800000012        -5.09495405E-18
 -0.750000000        -3.59119305E-18
 -0.699999988        -1.49402757E-18
 -0.649999976         1.18342859E-18
 -0.600000024         4.38610286E-18
 -0.550000012         8.01405830E-18
 -0.500000000         1.19225967E-17
 -0.449999988         1.59252865E-17
 -0.400000006         1.97994348E-17
 -0.349999994         2.32935169E-17
 -0.300000012         2.61365350E-17
 -0.250000000         2.80499890E-17
 -0.200000003         2.87631544E-17
 -0.150000006         2.80313345E-17
 -0.100000001         2.56547668E-17
  -5.00000007E-02     2.14940053E-17
   8.88178420E-16     1.54779538E-17
   5.00000007E-02     7.60426889E-18
  0.100000001        -2.06252088E-18
  0.150000006        -1.33855781E-17
  0.200000003        -2.61354299E-17
  0.250000000        -3.99577238E-17
  0.300000012        -5.43470566E-17
  0.349999994        -6.86539328E-17
  0.400000006        -8.21424362E-17
  0.449999988        -9.40844890E-17
  0.500000000        -1.03835096E-16
  0.550000012        -1.10812357E-16
  0.600000024        -1.14338384E-16
  0.649999976        -1.13390051E-16
  0.699999988        -1.06425521E-16
  0.750000000        -9.15104088E-17
  0.800000012        -6.68829391E-17
  0.850000024        -3.18455569E-17
  0.899999976         1.24532595E-17
  0.949999988         6.29702226E-17
   1.00000000         1.15895561E-16
   1.04999995         1.68770984E-16
   1.10000002         2.22534005E-16
   1.14999998         2.81819852E-16
   1.20000005         3.52132428E-16
   1.25000000         4.33983127E-16
   1.29999995         5.16409201E-16
   1.35000002         5.74234446E-16
   1.39999998         5.73421135E-16
   1.45000005         4.85774719E-16
   1.50000000         3.08538898E-16
   1.54999995         7.85270084E-17
   1.60000002        -1.31696802E-16
   1.64999998        -2.42998665E-16
   1.70000005        -2.18881731E-16
   1.75000000        -1.13302820E-16
   1.79999995        -8.49974004E-17
   1.85000002        -3.50543182E-16
   1.89999998        -1.07261148E-15
   1.95000005        -2.21872213E-15
   2.00000000        -3.46247058E-15
   2.04999995        -4.21013703E-15
   2.09999990        -3.80188833E-15
   2.15000010        -1.85743272E-15
   2.20000005         1.36345771E-15
   2.25000000         4.78614357E-15
   2.29999995         6.72164223E-15
   2.34999990         5.50903834E-15
   2.40000010         4.51212280E-16
   2.45000005        -7.33285316E-15
   2.50000000        -1.46385742E-14
   2.54999995        -1.68964963E-14
   2.59999990        -9.94565419E-15
   2.65000010         7.59696397E-15
   2.70000005         3.23217371E-14
   2.75000000         5.55282850E-14
   2.79999995         6.51225628E-14
   2.84999990         4.99690248E-14
   2.90000010         5.60661611E-15
   2.95000005        -6.08161931E-14
   3.00000000        -1.28964696E-13
   3.04999995        -1.69084663E-13
   3.09999990        -1.51416233E-13
   3.15000010        -5.91897205E-14
   3.20000005         9.90999546E-14
   3.25000000         2.83557439E-13
   3.29999995         4.27508831E-13
   3.34999990         4.54581522E-13
   3.40000010         3.05506542E-13
   3.45000005        -3.26938421E-14
   3.50000000        -5.05496524E-13
   3.54999995        -9.87925887E-13
   3.59999990        -1.30624905E-12
   3.65000010        -1.28355128E-12
   3.70000005        -7.99864894E-13
   3.75000000         1.49745071E-13
   3.79999995         1.41891414E-12
   3.84999990         2.71254915E-12
   3.90000010         3.63633321E-12
   3.95000005         3.78803152E-12
   4.00000000         2.87148040E-12
   4.05000019         8.03782659E-13
   4.09999990        -2.21662185E-12
   4.15000010        -5.70665086E-12
   4.19999981        -8.97010678E-12
   4.25000000        -1.12334404E-11
   4.30000019        -1.18149926E-11
   4.34999990        -1.02837790E-11
   4.40000010        -6.56260853E-12
   4.44999981        -9.42629763E-13
   4.50000000         6.00010883E-12
   4.55000019         1.35673773E-11
   4.59999990         2.11371840E-11
   4.65000010         2.83415635E-11
   4.69999981         3.51709217E-11
   4.75000000         4.19721514E-11
   4.80000019         4.93387171E-11
   4.84999990         5.79237457E-11
   4.90000010         6.82307474E-11
   4.94999981         8.04440195E-11
   5.00000000         9.43487441E-11
   5.05000019         1.09364039E-10
   5.09999990         1.24678184E-10
   5.15000010         1.39445566E-10
   5.19999981         1.52988400E-10
   5.25000000         1.64948014E-10
   5.30000019         1.75348625E-10
   5.34999990         1.84563975E-10
   5.40000010         1.93204203E-10
   5.44999981         2.01961073E-10
   5.50000000         2.11454007E-10
   5.55000019         2.22112731E-10
   5.59999990         2.34116226E-10
   5.65000010         2.47388471E-10
   5.69999981         2.61637684E-10
   5.75000000         2.76418777E-10
   5.80000019         2.91203311E-10
   5.84999990         3.05447084E-10
   5.90000010         3.18656768E-10
   5.94999981         3.30457162E-10
   6.00000000         3.40660861E-10
   6.05000019         3.49330176E-10
   6.09999990         3.56811969E-10
   6.15000010         3.63717750E-10
   6.19999981         3.70824788E-10
   6.25000000         3.78891030E-10
   6.30000019         3.88404753E-10
   6.34999990         3.99321548E-10
   6.40000010         4.10866619E-10
   6.44999981         4.21482543E-10
   6.50000000         4.28979491E-10
   6.55000019         4.30891350E-10
   6.59999990         4.24976665E-10
   6.65000010         4.09742962E-10
   6.69999981         3.84841159E-10
   6.75000000         3.51194518E-10
   6.80000019         3.10789311E-10
   6.84999990         2.66154210E-10
   6.90000010         2.19654767E-10
   6.94999981         1.72799511E-10
   7.00000000         1.25760957E-10
   7.05000019         7.72610309E-11
   7.09999990         2.48613751E-11
   7.15000010        -3.44256568E-11
   7.19999981        -1.03387472E-10
   7.25000000        -1.83945997E-10
   7.30000019        -2.76768941E-10
   7.34999990        -3.81259690E-10
   7.40000010        -4.95912311E-10
   7.44999981        -6.18917140E-10
   7.50000000        -7.48842433E-10
   7.55000019        -8.85213569E-10
   7.59999990        -1.02885667E-09
   7.65000010        -1.18194532E-09
   7.69999981        -1.34776512E-09
   7.75000000        -1.53027113E-09
   7.80000019        -1.73354409E-09
   7.84999990        -1.96126426E-09
   7.90000010        -2.21630980E-09
   7.94999981        -2.50056331E-09
   8.00000000        -2.81496981E-09
   8.05000019        -3.15983706E-09
   8.10000038        -3.53531582E-09
   8.14999962        -3.94194943E-09
   8.19999981        -4.38116743E-09
   8.25000000        -4.85560792E-09
   8.30000019        -5.36921352E-09
   8.35000038        -5.92712013E-09
   8.39999962        -6.53541887E-09
   8.44999981        -7.20091364E-09
   8.50000000        -7.93096433E-09
   8.55000019        -8.73344863E-09
   8.60000038        -9.61682467E-09
   8.64999962        -1.05901723E-08
   8.69999981        -1.16631469E-08
   8.75000000        -1.28457875E-08
   8.80000019        -1.41482337E-08
   8.85000038        -1.55804436E-08
   8.89999962        -1.71520647E-08
   8.94999981        -1.88725515E-08
   9.00000000        -2.07515480E-08
   9.05000019        -2.27994512E-08
   9.10000038        -2.50280401E-08
   9.14999962        -2.74509890E-08
   9.19999981        -3.00842480E-08
   9.25000000        -3.29462218E-08
   9.30000019        -3.60578802E-08
   9.35000038        -3.94427708E-08
   9.39999962        -4.31271481E-08
   9.44999981        -4.71400838E-08
   9.50000000        -5.15135952E-08
   9.55000019        -5.62827722E-08
   9.60000038        -6.14858209E-08
   9.64999962        -6.71641516E-08
   9.69999981        -7.33624788E-08
   9.75000000        -8.01290980E-08
   9.80000019        -8.75161774E-08
   9.85000038        -9.55801553E-08
   9.89999962        -1.04381911E-07
   9.94999981        -1.13986836E-07
   10.0000000        -1.24464719E-07
   10.0500002        -1.35889437E-07
   10.1000004        -1.48338970E-07
   10.1499996        -1.61895485E-07
   10.1999998        -1.76645869E-07
   10.2500000        -1.92682592E-07
   10.3000002        -2.10104716E-07
   10.3500004        -2.29018966E-07
   10.3999996        -2.49540676E-07
   10.4499998        -2.71794647E-07
   10.5000000        -2.95916408E-07
   10.5500002        -3.22053239E-07
   10.6000004        -3.50365838E-07
   10.6499996        -3.81030048E-07
   10.6999998        -4.14238599E-07
   10.7500000        -4.50202322E-07
   10.8000002        -4.89151091E-07
   10.8500004        -5.31334138E-07
   10.8999996        -5.77019819E-07
   10.9499998        -6.26495421E-07
   11.0000000        -6.80066876E-07
   11.0500002        -7.38059668E-07
   11.1000004        -8.00819123E-07
   11.1499996        -8.68711993E-07
   11.1999998        -9.42127599E-07
   11.2500000        -1.02148010E-06
   11.3000002        -1.10721021E-06
   11.3500004        -1.19978756E-06
   11.3999996        -1.29971443E-06
   11.4499998        -1.40752900E-06
   11.5000000        -1.52381006E-06
   11.5500002        -1.64917992E-06
   11.6000004        -1.78430787E-06
   11.6499996        -1.92991229E-06
   11.6999998        -2.08676238E-06
   11.7500000        -2.25568010E-06
   11.8000002        -2.43754107E-06
   11.8500004        -2.63327797E-06
   11.8999996        -2.84388375E-06
   11.9499998        -3.07041410E-06
   12.0000000        -3.31399292E-06
   12.0500002        -3.57581575E-06
   12.1000004        -3.85715111E-06
   12.1499996        -4.15934710E-06
   12.1999998        -4.48383253E-06
   12.2500000        -4.83212443E-06
   12.3000002        -5.20583353E-06
   12.3500004        -5.60666967E-06
   12.3999996        -6.03644958E-06
   12.4499998        -6.49710410E-06
   12.5000000        -6.99068414E-06
   12.5500002        -7.51936523E-06
   12.6000004        -8.08545701E-06
   12.6499996        -8.69140422E-06
   12.6999998        -9.33979845E-06
   12.7500000        -1.00333864E-05
   12.8000002        -1.07750793E-05
   12.8500004        -1.15679586E-05
   12.8999996        -1.24152866E-05
   12.9499998        -1.33205122E-05
   13.0000000        -1.42872805E-05
   13.0500002        -1.53194414E-05
   13.1000004        -1.64210578E-05
   13.1499996        -1.75964215E-05
   13.1999998        -1.88500580E-05
   13.2500000        -2.01867460E-05
   13.3000002        -2.16115241E-05
   13.3500004        -2.31296963E-05
   13.3999996        -2.47468506E-05
   13.4499998        -2.64688661E-05
   13.5000000        -2.83019290E-05
   13.5500002        -3.02525459E-05
   13.6000004        -3.23275599E-05
   13.6499996        -3.45341614E-05
   13.6999998        -3.68799228E-05
   13.7500000        -3.93727969E-05
   13.8000002        -4.20211363E-05
   13.8500004        -4.48337159E-05
   13.8999996        -4.78197180E-05
   13.9499998        -5.09887832E-05
   14.0000000        -5.43510105E-05
   14.0500002        -5.79169900E-05
   14.1000004        -6.16978214E-05
   14.1499996        -6.57051351E-05
   14.1999998        -6.99510856E-05
   14.2500000        -7.44483841E-05
   14.3000002        -7.92103092E-05
   14.3500004        -8.42507070E-05
   14.3999996        -8.95840203E-05
   14.4499998        -9.52253322E-05
   14.5000000        -1.01190373E-04
   14.5500002        -1.07495602E-04
   14.6000004        -1.14158174E-04
   14.6499996        -1.21195983E-04
   14.6999998        -1.28627667E-04
   14.7500000        -1.36472590E-04
   14.8000002        -1.44750869E-04
   14.8500004        -1.53483459E-04
   14.8999996        -1.62692115E-04
   14.9499998        -1.72399436E-04
   15.0000000        -1.82628923E-04
   15.0500002        -1.93405009E-04
   15.1000004        -2.04753043E-04
   15.1499996        -2.16699249E-04
   15.1999998        -2.29270852E-04
   15.2500000        -2.42495982E-04
   15.3000002        -2.56403873E-04
   15.3500004        -2.71024648E-04
   15.3999996        -2.86389608E-04
   15.4499998        -3.02530942E-04
   15.5000000        -3.19482118E-04
   15.5500002        -3.37277568E-04
   15.6000004        -3.55953001E-04
   15.6499996        -3.75545031E-04
   15.6999998        -3.96091578E-04
   15.7500000        -4.17631643E-04
   15.8000002        -4.40205389E-04
   15.8500004        -4.63854230E-04
   15.8999996        -4.88620659E-04
   15.9499998        -5.14548563E-04
   16.0000000        -5.41682821E-04
   16.0499992        -5.70069824E-04
   16.1000004        -5.99757012E-04
   16.1499996        -6.30793103E-04
   16.2000008        -6.63228042E-04
   16.2500000        -6.97112817E-04
   16.2999992        -7.32499699E-04
   16.3500004        -7.69442122E-04
   16.3999996        -8.07994918E-04
   16.4500008        -8.48214026E-04
   16.5000000        -8.90156953E-04
   16.5499992        -9.33882082E-04
   16.6000004        -9.79449018E-04
   16.6499996        -1.02691830E-03
   16.7000008        -1.07635185E-03
   16.7500000        -1.12781266E-03
   16.7999992        -1.18136487E-03
   16.8500004        -1.23707310E-03
   16.8999996        -1.29500392E-03
   16.9500008        -1.35522382E-03
   17.0000000        -1.41780043E-03
   17.0499992        -1.48280256E-03
   17.1000004        -1.55030005E-03
   17.1499996        -1.62036333E-03
   17.2000008        -1.69306411E-03
   17.2500000        -1.76847493E-03
   17.2999992        -1.84666808E-03
   17.3500004        -1.92771689E-03
   17.3999996        -2.01169401E-03
   17.4500008        -2.09867326E-03
   17.5000000        -2.18872866E-03
   17.5499992        -2.28193495E-03
   17.6000004        -2.37836759E-03
   17.6499996        -2.47810106E-03
   17.7000008        -2.58121081E-03
   17.7500000        -2.68777134E-03
   17.7999992        -2.79785623E-03
   17.8500004        -2.91153952E-03
   17.8999996        -3.02889454E-03
   17.9500008        -3.14999511E-03
   18.0000000        -3.27491388E-03
   18.0499992        -3.40372301E-03
   18.1000004        -3.53649375E-03
   18.1499996        -3.67329596E-03
   18.2000008        -3.81419878E-03
   18.2500000        -3.95927019E-03
   18.2999992        -4.10857564E-03
   18.3500004        -4.26217960E-03
   18.3999996        -4.42014495E-03
   18.4500008        -4.58253222E-03
   18.5000000        -4.74940054E-03
   18.5499992        -4.92080767E-03
   18.6000004        -5.09680714E-03
   18.6499996        -5.27745252E-03
   18.7000008        -5.46279410E-03
   18.7500000        -5.65287843E-03
   18.7999992        -5.84775163E-03
   18.8500004        -6.04745420E-03
   18.8999996        -6.25202339E-03
   18.9500008        -6.46149414E-03
   19.0000000        -6.67589670E-03
   19.0499992        -6.89525809E-03
   19.1000004        -7.11960113E-03
   19.1499996        -7.34894676E-03
   19.2000008        -7.58330990E-03
   19.2500000        -7.82270543E-03
   19.2999992        -8.06713756E-03
   19.3500004        -8.31661001E-03
   19.3999996        -8.57111998E-03
   19.4500008        -8.83065909E-03
   19.5000000        -9.09521524E-03
   19.5499992        -9.36477166E-03
   19.6000004        -9.63930413E-03
   19.6499996        -9.91878845E-03
   19.7000008        -1.02031883E-02
   19.7500000        -1.04924664E-02
   19.7999992        -1.07865743E-02
   19.8500004        -1.10854609E-02
   19.8999996        -1.13890665E-02
   19.9500008        -1.16973305E-02
   20.0000000        -1.20101850E-02
   20.0499992        -1.23275584E-02
   20.1000004        -1.26493722E-02
   20.1499996        -1.29755400E-02
   20.2000008        -1.33059658E-02
   20.2500000        -1.36405472E-02
   20.2999992        -1.39791714E-02
   20.3500004        -1.43217221E-02
   20.3999996        -1.46680791E-02
   20.4500008        -1.50181139E-02
   20.5000000        -1.53716998E-02
   20.5499992        -1.57287009E-02
   20.6000004        -1.60889719E-02
   20.6499996        -1.64523609E-02
   20.7000008        -1.68187097E-02
   20.7500000        -1.71878450E-02
   20.7999992        -1.75595935E-02
   20.8500004        -1.79337766E-02
   20.8999996        -1.83102079E-02
   20.9500008        -1.86886992E-02
   21.0000000        -1.90690551E-02
   21.0499992        -1.94510836E-02
   21.1000004        -1.98345724E-02
   21.1499996        -2.02193148E-02
   21.2000008        -2.06050817E-02
   21.2500000        -2.09916495E-02
   21.2999992        -2.13787891E-02
   21.3500004        -2.17662603E-02
   21.3999996        -2.21538302E-02
   21.4500008        -2.25412622E-02
   21.5000000        -2.29283143E-02
   21.5499992        -2.33147386E-02
   21.6000004        -2.37002820E-02
   21.6499996        -2.40846816E-02
   21.7000008        -2.44676676E-02
   21.7500000        -2.48489752E-02
   21.7999992        -2.52283327E-02
   21.8500004        -2.56054774E-02
   21.8999996        -2.59801429E-02
   21.9500008        -2.63520628E-02
   22.0000000        -2.67209709E-02
   22.0499992        -2.70865932E-02
   22.1000004        -2.74486486E-02
   22.1499996        -2.78068613E-02
   22.2000008        -2.81609464E-02
   22.2500000        -2.85106283E-02
   22.2999992        -2.88556330E-02
   22.3500004        -2.91956943E-02
   22.3999996        -2.95305438E-02
   22.4500008        -2.98599154E-02
   22.5000000        -3.01835369E-02
   22.5499992        -3.05011403E-02
   22.6000004        -3.08124609E-02
   22.6499996        -3.11172325E-02
   22.7000008        -3.14151980E-02
   22.7500000        -3.17061059E-02
   22.7999992        -3.19897085E-02
   22.8500004        -3.22657749E-02
   22.8999996        -3.25340703E-02
   22.9500008        -3.27943675E-02
   23.0000000        -3.30464393E-02
   23.0499992        -3.32900584E-02
   23.1000004        -3.35250013E-02
   23.1499996        -3.37510556E-02
   23.2000008        -3.39680165E-02
   23.2500000        -3.41756940E-02
   23.2999992        -3.43738981E-02
   23.3500004        -3.45624536E-02
   23.3999996        -3.47411968E-02
   23.4500008        -3.49099562E-02
   23.5000000        -3.50685865E-02
   23.5499992        -3.52169350E-02
   23.6000004        -3.53548713E-02
   23.6499996        -3.54822800E-02
   23.7000008        -3.55990380E-02
   23.7500000        -3.57050337E-02
   23.7999992        -3.58001664E-02
   23.8500004        -3.58843468E-02
   23.8999996        -3.59574743E-02
   23.9500008        -3.60194854E-02
   24.0000000        -3.60703170E-02
   24.0499992        -3.61099318E-02
   24.1000004        -3.61383073E-02
   24.1499996        -3.61554362E-02
   24.2000008        -3.61613110E-02
   24.2500000        -3.61559242E-02
   24.2999992        -3.61392722E-02
   24.3500004        -3.61113474E-02
   24.3999996        -3.60721648E-02
   24.4500008        -3.60217504E-02
   24.5000000        -3.59601453E-02
   24.5499992        -3.58874239E-02
   24.6000004        -3.58036496E-02
   24.6499996        -3.57089229E-02
   24.7000008        -3.56033370E-02
   24.7500000        -3.54869924E-02
   24.7999992        -3.53599936E-02
   24.8500004        -3.52224633E-02
   24.8999996        -3.50745171E-02
   24.9500008        -3.49162929E-02
   25.0000000        -3.47479396E-02
   25.0499992        -3.45696099E-02
   25.1000004        -3.43814678E-02
   25.1499996        -3.41836698E-02
   25.2000008        -3.39763835E-02
   25.2500000        -3.37597877E-02
   25.2999992        -3.35340761E-02
   25.3500004        -3.32994610E-02
   25.3999996        -3.30561586E-02
   25.4500008        -3.28043960E-02
   25.5000000        -3.25444005E-02
   25.5499992        -3.22764032E-02
   25.6000004        -3.20006199E-02
   25.6499996        -3.17172818E-02
   25.7000008        -3.14266197E-02
   25.7500000        -3.11288759E-02
   25.7999992        -3.08243185E-02
   25.8500004        -3.05132158E-02
   25.8999996        -3.01958360E-02
   25.9500008        -2.98724417E-02
   26.0000000        -2.95432862E-02
   26.0499992        -2.92086322E-02
   26.1000004        -2.88687311E-02
   26.1499996        -2.85238530E-02
   26.2000008        -2.81742737E-02
   26.2500000        -2.78202761E-02
   26.2999992        -2.74621509E-02
   26.3500004        -2.71001793E-02
   26.3999996        -2.67346408E-02
   26.4500008        -2.63657961E-02
   26.5000000        -2.59939022E-02
   26.5499992        -2.56192163E-02
   26.6000004        -2.52420120E-02
   26.6499996        -2.48625651E-02
   26.7000008        -2.44811624E-02
   26.7500000        -2.40980778E-02
   26.7999992        -2.37135924E-02
   26.8500004        -2.33279616E-02
   26.8999996        -2.29414403E-02
   26.9500008        -2.25542616E-02
   27.0000000        -2.21666619E-02
   27.0499992        -2.17788741E-02
   27.1000004        -2.13911440E-02
   27.1499996        -2.10037231E-02
   27.2000008        -2.06168592E-02
   27.2500000        -2.02307925E-02
   27.2999992        -1.98457520E-02
   27.3500004        -1.94619521E-02
   27.3999996        -1.90795958E-02
   27.4500008        -1.86988804E-02
   27.5000000        -1.83199979E-02
   27.5499992        -1.79431420E-02
   27.6000004        -1.75685063E-02
   27.6499996        -1.71962772E-02
   27.7000008        -1.68266464E-02
   27.7500000        -1.64597835E-02
   27.7999992        -1.60958618E-02
   27.8500004        -1.57350414E-02
   27.8999996        -1.53774759E-02
   27.9500008        -1.50233107E-02
   28.0000000        -1.46726808E-02
   28.0499992        -1.43257100E-02
   28.1000004        -1.39825204E-02
   28.1499996        -1.36432275E-02
   28.2000008        -1.33079458E-02
   28.2500000        -1.29767871E-02
   28.2999992        -1.26498584E-02
   28.3500004        -1.23272659E-02
   28.3999996        -1.20091019E-02
   28.4500008        -1.16954502E-02
   28.5000000        -1.13863749E-02
   28.5499992        -1.10819358E-02
   28.6000004        -1.07821878E-02
   28.6499996        -1.04871839E-02
   28.7000008        -1.01969801E-02
   28.7500000        -9.91162844E-03
   28.7999992        -9.63117555E-03
   28.8500004        -9.35565960E-03
   28.8999996        -9.08510480E-03
   28.9500008        -8.81951861E-03
   29.0000000        -8.55890661E-03
   29.0499992        -8.30327347E-03
   29.1000004        -8.05263221E-03
   29.1499996        -7.80699821E-03
   29.2000008        -7.56638870E-03
   29.2500000        -7.33080879E-03
   29.2999992        -7.10025104E-03
   29.3500004        -6.87469076E-03
   29.3999996        -6.65408932E-03
   29.4500008        -6.43840246E-03
   29.5000000        -6.22758828E-03
   29.5499992        -6.02161419E-03
   29.6000004        -5.82045736E-03
   29.6499996        -5.62409824E-03
   29.7000008        -5.43251028E-03
   29.7500000        -5.24565112E-03
   29.7999992        -5.06346673E-03
   29.8500004        -4.88589518E-03
   29.8999996        -4.71287174E-03
   29.9500008        -4.54433728E-03
   30.0000000        -4.38023638E-03
   30.0499992        -4.22051968E-03
   30.1000004        -4.06513829E-03
   30.1499996        -3.91403725E-03
   30.2000008        -3.76715092E-03
   30.2500000        -3.62440082E-03
   30.2999992        -3.48570477E-03
   30.3500004        -3.35098524E-03
   30.3999996        -3.22017353E-03
   30.4500008        -3.09320609E-03
   30.5000000        -2.97001866E-03
   30.5499992        -2.85054115E-03
   30.6000004        -2.73469836E-03
   30.6499996        -2.62240972E-03
   30.7000008        -2.51359190E-03
   30.7500000        -2.40816083E-03
   30.7999992        -2.30603851E-03
   30.8500004        -2.20715813E-03
   30.8999996        -2.11146078E-03
   30.9500008        -2.01888825E-03
   31.0000000        -1.92937150E-03
   31.0499992        -1.84282905E-03
   31.1000004        -1.75917207E-03
   31.1499996        -1.67831173E-03
   31.2000008        -1.60016469E-03
   31.2500000        -1.52465352E-03
   31.2999992        -1.45170791E-03
   31.3500004        -1.38126395E-03
   31.3999996        -1.31326297E-03
   31.4500008        -1.24764442E-03
   31.5000000        -1.18433929E-03
   31.5499992        -1.12326909E-03
   31.6000004        -1.06435351E-03
   31.6499996        -1.00751827E-03
   31.7000008        -9.52698407E-04
   31.7500000        -8.99835199E-04
   31.7999992        -8.48871714E-04
   31.8500004        -7.99752015E-04
   31.8999996        -7.52421736E-04
   31.9500008        -7.06827210E-04
   32.0000000        -6.62911159E-04
   32.0499992        -6.20610081E-04
   32.0999985        -5.79857617E-04
   32.1500015        -5.40590729E-04
   32.2000008        -5.02752257E-04
   32.2500000        -4.66289086E-04
   32.2999992        -4.31148190E-04
   32.3499985        -3.97277996E-04
   32.4000015        -3.64632811E-04
   32.4500008        -3.33174510E-04
   32.5000000        -3.02868255E-04
   32.5499992        -2.73675716E-04
   32.5999985        -2.45552132E-04
   32.6500015        -2.18449553E-04
   32.7000008        -1.92321240E-04
   32.7500000        -1.67122431E-04
   32.7999992        -1.42809411E-04
   32.8499985        -1.19340453E-04
   32.9000015        -9.66801817E-05
   32.9500008        -7.48020611E-05
   33.0000000        -5.36842672E-05
   33.0499992        -3.33013922E-05
   33.0999985        -1.36192803E-05
   33.1500015         5.40218070E-06
   33.2000008         2.38018201E-05
   33.2500000         4.16122639E-05
   33.2999992         5.88600051E-05
   33.3499985         7.55671863E-05
   33.4000015         9.17517318E-05
   33.4500008         1.07427091E-04
   33.5000000         1.22605663E-04
   33.5499992         1.37305455E-04
   33.5999985         1.51554123E-04
   33.6500015         1.65385572E-04
   33.7000008         1.78830916E-04
   33.7500000         1.91911604E-04
   33.7999992         2.04639815E-04
   33.8499985         2.17023829E-04
   33.9000015         2.29072393E-04
   33.9500008         2.40795634E-04
   34.0000000         2.52205034E-04
   34.0499992         2.63314811E-04
   34.0999985         2.74143182E-04
   34.1500015         2.84709473E-04
   34.2000008         2.95028120E-04
   34.2500000         3.05104913E-04
   34.2999992         3.14939709E-04
   34.3499985         3.24534340E-04
   34.4000015         3.33897799E-04
   34.4500008         3.43045307E-04
   34.5000000         3.51992727E-04
   34.5499992         3.60752107E-04
   34.5999985         3.69330781E-04
   34.6500015         3.77732067E-04
   34.7000008         3.85955500E-04
   34.7500000         3.93997354E-04
   34.7999992         4.01854079E-04
   34.8499985         4.09527129E-04
   34.9000015         4.17025061E-04
   34.9500008         4.24359372E-04
   35.0000000         4.31537832E-04
   35.0499992         4.38560412E-04
   35.0999985         4.45422193E-04
   35.1500015         4.52119479E-04
   35.2000008         4.58653987E-04
   35.2500000         4.65032761E-04
   35.2999992         4.71264793E-04
   35.3499985         4.77357418E-04
   35.4000015         4.83313517E-04
   35.4500008         4.89128870E-04
   35.5000000         4.94792417E-04
   35.5499992         5.00289840E-04
   35.5999985         5.05612115E-04
   35.6500015         5.10762329E-04