  -4.80000019         1.00000002E-24
  -4.75000000         1.00000002E-24
  -4.69999981         1.00000002E-24
  -4.65000010         1.00000002E-24
  -4.59999990         1.00000002E-24
  -4.55000019         1.00000002E-24
  -4.50000000         1.00000002E-24
  -4.44999981         1.00003700E-24
  -4.40000010         1.00084390E-24
  -4.34999990         1.00792265E-24
  -4.30000019         1.04530765E-24
  -4.25000000         1.18263079E-24
  -4.19999981         1.55382051E-24
  -4.15000010         2.28768144E-24
  -4.09999990         3.21192251E-24
  -4.05000019         3.23604746E-24
  -4.00000000        -3.96140358E-25
  -3.95000005        -1.22240158E-23
  -3.90000010        -3.66763933E-23
  -3.84999990        -7.27064824E-23
  -3.79999995        -1.04735718E-22
  -3.75000000        -9.27051665E-23
  -3.70000005         3.17161495E-23
  -3.65000010         3.52285085E-22
  -3.59999990         9.28931401E-22
  -3.54999995         1.73040449E-21
  -3.50000000         2.55326583E-21
  -3.45000005         2.96170726E-21
  -3.40000010         2.29701654E-21
  -3.34999990        -1.97834577E-22
  -3.29999995        -5.12216287E-21
  -3.25000000        -1.25659632E-20
  -3.20000005        -2.17567727E-20
  -3.15000010        -3.08364531E-20
  -3.09999990        -3.68913506E-20
  -3.04999995        -3.62985658E-20
  -3.00000000        -2.53575868E-20
  -2.95000005        -1.09231149E-21
  -2.90000010         3.79209352E-20
  -2.84999990         9.08006951E-20
  -2.79999995         1.53698753E-19
  -2.75000000         2.19194151E-19
  -2.70000005         2.75773279E-19
  -2.65000010         3.07641705E-19
  -2.59999990         2.95400078E-19
  -2.54999995         2.18294360E-19
  -2.50000000         5.85902368E-20
  -2.45000005        -1.92011419E-19
  -2.40000010        -5.25028078E-19
  -2.34999990        -9.09099721E-19
  -2.29999995        -1.28790874E-18
  -2.25000000        -1.58448018E-18
  -2.20000005        -1.71267684E-18
  -2.15000010        -1.59434762E-18
  -2.09999990        -1.17827277E-18
  -2.04999995        -4.55817928E-19
  -2.00000000         5.31209289E-19
  -1.95000005         1.69261181E-18
  -1.89999998         2.90058533E-18
  -1.85000002         4.00538720E-18
  -1.79999995         4.85140064E-18
  -1.75000000         5.29093340E-18
  -1.70000005         5.19646235E-18
  -1.64999998         4.47486803E-18
  -1.60000002         3.08718963E-18
  -1.54999995         1.07355026E-18
  -1.50000000        -1.42378101E-18
  -1.45000005        -4.15223740E-18
  -1.39999998        -6.76986203E-18
  -1.35000002        -8.90256278E-18
  -1.29999995        -1.02306964E-17
  -1.25000000        -1.05811422E-17
  -1.20000005        -9.98961707E-18
  -1.14999998        -8.69977614E-18
  -1.10000002        -7.08379361E-18
  -1.04999995        -5.49954835E-18
  -1.00000000        -4.13088952E-18
 -0.949999988        -2.87509225E-18
 -0.899999976        -1.33419280E-18
 -0.850000024         1.06727723E-18
 -0.800000012         4.86576505E-18
 -0.750000000         1.03166032E-17
 -0.699999988         1.72187951E-17
 -0.649999976         2.48793578E-17
 -0.600000024         3.22354138E-17
 -0.550000012         3.80854369E-17
 -0.500000000         4.13331200E-17
 -0.449999988         4.11452772E-17
 -0.400000006         3.69748179E-17
 -0.349999994         2.84816648E-17
 -0.300000012         1.54568409E-17
 -0.250000000        -2.12592242E-18
 -0.200000003        -2.38644535E-17
 -0.150000006        -4.85424093E-17
 -0.100000001        -7.37887127E-17
  -5.00000007E-02    -9.60368007E-17
   8.88178420E-16    -1.10988613E-16
   5.00000007E-02    -1.14609805E-16
  0.100000001        -1.04430950E-16
  0.150000006        -8.07108645E-17
  0.200000003        -4.69485944E-17
  0.250000000        -9.38021078E-18
  0.300000012         2.45563222E-17
  0.349999994         4.83796500E-17
  0.400000006         5.86153285E-17
  0.449999988         5.59501922E-17
  0.500000000         4.49818468E-17
  0.550000012         3.25885471E-17
  0.600000024         2.55247026E-17
  0.649999976         2.82094364E-17
  0.699999988         4.16254291E-17
  0.750000000         6.37603853E-17
  0.800000012         9.12901339E-17
  0.850000024         1.21556613E-16
  0.899999976         1.53673588E-16
  0.949999988         1.87970494E-16
   1.00000000         2.23853364E-16
   1.04999995         2.57141309E-16
   1.10000002         2.78526959E-16
   1.14999998         2.74617425E-16
   1.20000005         2.31981651E-16
   1.25000000         1.43120590E-16
   1.29999995         1.19683249E-17
   1.35000002        -1.43869499E-16
   1.39999998        -2.96039947E-16
   1.45000005        -4.13424923E-16
   1.50000000        -4.72722788E-16
   1.54999995        -4.67541805E-16
   1.60000002        -4.11911381E-16
   1.64999998        -3.36004047E-16
   1.70000005        -2.75035410E-16
   1.75000000        -2.55468684E-16
   1.79999995        -2.84295518E-16
   1.85000002        -3.46326335E-16
   1.89999998        -4.11182774E-16
   1.95000005        -4.47297082E-16
   2.00000000        -4.36660784E-16
   2.04999995        -3.83148657E-16
   2.09999990        -3.09745840E-16
   2.15000010        -2.45107380E-16
   2.20000005        -2.05392175E-16
   2.25000000        -1.80542439E-16
   2.29999995        -1.33211535E-16
   2.34999990        -1.32801564E-17
   2.40000010         2.16634936E-16
   2.45000005         5.55664413E-16
   2.50000000         9.52053174E-16
   2.54999995         1.31214562E-15
   2.59999990         1.53067599E-15
   2.65000010         1.53183516E-15
   2.70000005         1.30397927E-15
   2.75000000         9.11507507E-16
   2.79999995         4.75959142E-16
   2.84999990         1.31651658E-16
   2.90000010        -2.65706609E-17
   2.95000005         1.93727503E-17
   3.00000000         2.06368368E-16
   3.04999995         4.22547071E-16
   3.09999990         5.63496609E-16
   3.15000010         5.86714629E-16
   3.20000005         5.37434941E-16
   3.25000000         5.30479900E-16
   3.29999995         6.92874857E-16
   3.34999990         1.09174246E-15
   3.40000010         1.68185846E-15
   3.45000005         2.30140355E-15
   3.50000000         2.72410984E-15
   3.54999995         2.74954391E-15
   3.59999990         2.29280723E-15
   3.65000010         1.43096423E-15
   3.70000005         3.79556205E-16
   3.75000000        -5.97067066E-16
   3.79999995        -1.30625609E-15
   3.84999990        -1.72512585E-15
   3.90000010        -2.02836227E-15
   3.95000005        -2.52630075E-15
   4.00000000        -3.53364210E-15
   4.05000019        -5.22272553E-15
   4.09999990        -7.52633836E-15
   4.15000010        -1.01367745E-14
   4.19999981        -1.26067149E-14
   4.25000000        -1.45111872E-14
   4.30000019        -1.55997109E-14
   4.34999990        -1.58688709E-14
   4.40000010        -1.55194766E-14
   4.44999981        -1.48150908E-14
   4.50000000        -1.39064844E-14
   4.55000019        -1.27066945E-14
   4.59999990        -1.08825853E-14
   4.65000010        -7.97770612E-15
   4.69999981        -3.61987026E-15
   4.75000000         2.27659967E-15
   4.80000019         9.40808134E-15
   4.84999990         1.71330286E-14
   4.90000010         2.46651081E-14
   4.94999981         3.13305358E-14
   5.00000000         3.67790616E-14
   5.05000019         4.10539387E-14
   5.09999990         4.44859027E-14
   5.15000010         4.74544313E-14
   5.19999981         5.01211553E-14
   5.25000000         5.22567456E-14
   5.30000019         5.32449383E-14
   5.34999990         5.22705929E-14
   5.40000010         4.86167469E-14
   5.44999981         4.19450614E-14
   5.50000000         3.24383769E-14
   5.55000019         2.07425816E-14
   5.59999990         7.73246552E-15
   5.65000010        -5.79603174E-15
   5.69999981        -1.93716825E-14
   5.75000000        -3.29231136E-14
   5.80000019        -4.66499567E-14
   5.84999990        -6.07479494E-14
   5.90000010        -7.51126930E-14
   5.94999981        -8.91594470E-14
   6.00000000        -1.01848902E-13
   6.05000019        -1.11921404E-13
   6.09999990        -1.18252454E-13
   6.15000010        -1.20188676E-13
   6.19999981        -1.17728567E-13
   6.25000000        -1.11474930E-13
   6.30000019        -1.02377566E-13
   6.34999990        -9.13703453E-14
   6.40000010        -7.90478522E-14
   6.44999981        -6.55097856E-14
   6.50000000        -5.04324196E-14
   6.55000019        -3.33342363E-14
   6.59999990        -1.39246558E-14
   6.65000010         7.60865048E-15
   6.69999981         3.04945583E-14
   6.75000000         5.35043100E-14
   6.80000019         7.52660399E-14
   6.84999990         9.46494537E-14
   6.90000010         1.11071966E-13
   6.94999981         1.24604577E-13
   7.00000000         1.35832521E-13
   7.05000019         1.45522686E-13
   7.09999990         1.54231825E-13
   7.15000010         1.62020327E-13
   7.19999981         1.68402334E-13
   7.25000000         1.72570318E-13
   7.30000019         1.73814102E-13
   7.34999990         1.71957717E-13
   7.40000010         1.67605581E-13
   7.44999981         1.62046469E-13
   7.50000000         1.56798321E-13
   7.55000019         1.52942342E-13
   7.59999990         1.50522810E-13
   7.65000010         1.48315225E-13
   7.69999981         1.44155223E-13
   7.75000000         1.35796580E-13
   7.80000019         1.22001815E-13
   7.84999990         1.03374930E-13
   7.90000010         8.24284624E-14
   7.94999981         6.25894125E-14
   8.00000000         4.62628965E-14
   8.05000019         3.25634566E-14
   8.10000038         1.57033403E-14
   8.14999962        -1.48992977E-14
   8.19999981        -7.20929935E-14
   8.25000000        -1.66137069E-13
   8.30000019        -2.98653761E-13
   8.35000038        -4.57494719E-13
   8.39999962        -6.15118525E-13
   8.44999981        -7.32714887E-13
   8.50000000        -7.70931442E-13
   8.55000019        -7.05779565E-13
   8.60000038        -5.45641440E-13
   8.64999962        -3.43109194E-13
   8.69999981        -1.94661412E-13
   8.75000000        -2.22798003E-13
   8.80000019        -5.39551368E-13
   8.85000038        -1.19680199E-12
   8.89999962        -2.13606910E-12
   8.94999981        -3.15608672E-12
   9.00000000        -3.91784348E-12
   9.05000019        -4.00166445E-12
   9.10000038        -3.01861986E-12
   9.14999962        -7.60599374E-13
   9.19999981         2.64617538E-12
   9.25000000         6.63448810E-12
   9.30000019         1.01905385E-11
   9.35000038         1.19912543E-11
   9.39999962         1.06961445E-11
   9.44999981         5.36122622E-12
   9.50000000        -4.10594518E-12
   9.55000019        -1.65704776E-11
   9.60000038        -2.95094366E-11
   9.64999962        -3.91828688E-11
   9.69999981        -4.11957586E-11
   9.75000000        -3.14219137E-11
   9.80000019        -7.15917299E-12
   9.85000038         3.17035183E-11
   9.89999962         8.17768561E-11
   9.94999981         1.35779527E-10
   10.0000000         1.82847210E-10
   10.0500002         2.09591067E-10
   10.1000004         2.01789210E-10
   10.1499996         1.46438417E-10
   10.1999998         3.37841491E-11
   10.2500000        -1.41080883E-10
   10.3000002        -3.77394144E-10
   10.3500004        -6.68871625E-10
   10.3999996        -1.00482200E-09
   10.4499998        -1.37201683E-09
   10.5000000        -1.75694559E-09
   10.5500002        -2.14801288E-09
   10.6000004        -2.53725352E-09
   10.6499996        -2.92126590E-09
   10.6999998        -3.30123373E-09
   10.7500000        -3.68210484E-09
   10.8000002        -4.07115319E-09
   10.8500004        -4.47624648E-09
   10.8999996        -4.90415797E-09
   10.9499998        -5.35921618E-09
   11.0000000        -5.84247140E-09
   11.0500002        -6.35147845E-09
   11.1000004        -6.88064672E-09
   11.1499996        -7.42208783E-09
   11.1999998        -7.96679966E-09
   11.2500000        -8.50603232E-09
   11.3000002        -9.03262354E-09
   11.3500004        -9.54212975E-09
   11.3999996        -1.00335233E-08
   11.4499998        -1.05093072E-08
   11.5000000        -1.09749561E-08
   11.5500002        -1.14377015E-08
   11.6000004        -1.19048611E-08
   11.6499996        -1.23820421E-08
   11.6999998        -1.28716326E-08
   11.7500000        -1.33719871E-08
   11.8000002        -1.38775924E-08
   11.8500004        -1.43802374E-08
   11.8999996        -1.48709542E-08
   11.9499998        -1.53422501E-08
   12.0000000        -1.57899880E-08
   12.0500002        -1.62143934E-08
   12.1000004        -1.66198326E-08
   12.1499996        -1.70133596E-08
   12.1999998        -1.74024812E-08
   12.2500000        -1.77927042E-08
   12.3000002        -1.81857001E-08
   12.3500004        -1.85785716E-08
   12.3999996        -1.89645242E-08
   12.4499998        -1.93346690E-08
   12.5000000        -1.96804226E-08
   12.5500002        -1.99956958E-08
   12.6000004        -2.02781454E-08
   12.6499996        -2.05291091E-08
   12.6999998        -2.07522159E-08
   12.7500000        -2.09511626E-08
   12.8000002        -2.11274127E-08
   12.8500004        -2.12785647E-08
   12.8999996        -2.13979430E-08
   12.9499998        -2.14754934E-08
   13.0000000        -2.14996163E-08
   13.0500002        -2.14592752E-08
   13.1000004        -2.13455760E-08
   13.1499996        -2.11522639E-08
   13.1999998        -2.08749675E-08
   13.2500000        -2.05094768E-08
   13.3000002        -2.00496846E-08
   13.3500004        -1.94859862E-08
   13.3999996        -1.88046467E-08
   13.4499998        -1.79884214E-08
   13.5000000        -1.70181274E-08
   13.5500002        -1.58745852E-08
   13.6000004        -1.45401531E-08
   13.6499996        -1.29993287E-08
   13.6999998        -1.12381242E-08
   13.7500000        -9.24246457E-09
   13.8000002        -6.99617209E-09
   13.8500004        -4.47922144E-09
   13.8999996        -1.66682279E-09
   13.9499998         1.47048007E-09
   14.0000000         4.96590991E-09
   14.0500002         8.85531115E-09
   14.1000004         1.31764137E-08
   14.1499996         1.79689650E-08
   14.1999998         2.32758666E-08
   14.2500000         2.91449567E-08
   14.3000002         3.56308476E-08
   14.3500004         4.27961311E-08
   14.3999996         5.07114315E-08
   14.4499998         5.94543437E-08
   14.5000000         6.91076067E-08
   14.5500002         7.97572071E-08
   14.6000004         9.14912164E-08
   14.6499996         1.04399881E-07
   14.6999998         1.18577084E-07
   14.7500000         1.34122686E-07
   14.8000002         1.51145144E-07
   14.8500004         1.69763737E-07
   14.8999996         1.90109702E-07
   14.9499998         2.12326526E-07
   15.0000000         2.36569875E-07
   15.0500002         2.63007621E-07
   15.1000004         2.91820953E-07
   15.1499996         3.23207217E-07
   15.1999998         3.57383470E-07
   15.2500000         3.94591439E-07
   15.3000002         4.35101867E-07
   15.3500004         4.79217988E-07
   15.3999996         5.27277621E-07
   15.4499998         5.79653090E-07
   15.5000000         6.36750826E-07
   15.5500002         6.99009888E-07
   15.6000004         7.66901735E-07
   15.6499996         8.40929772E-07
   15.6999998         9.21630658E-07
   15.7500000         1.00957641E-06
   15.8000002         1.10537599E-06
   15.8500004         1.20967695E-06
   15.8999996         1.32316836E-06
   15.9499998         1.44658281E-06
   16.0000000         1.58069963E-06
   16.0499992         1.72635066E-06
   16.1000004         1.88442823E-06
   16.1499996         2.05589322E-06
   16.2000008         2.24178643E-06
   16.2500000         2.44323860E-06
   16.2999992         2.66147981E-06
   16.3500004         2.89784884E-06
   16.3999996         3.15380044E-06
   16.4500008         3.43091324E-06
   16.5000000         3.73089756E-06
   16.5499992         4.05560377E-06
   16.6000004         4.40703161E-06
   16.6499996         4.78734046E-06
   16.7000008         5.19885953E-06
   16.7500000         5.64409220E-06
   16.7999992         6.12572330E-06
   16.8500004         6.64662502E-06
   16.8999996         7.20986100E-06
   16.9500008         7.81869039E-06
   17.0000000         8.47657702E-06
   17.0499992         9.18720252E-06
   17.1000004         9.95447863E-06
   17.1499996         1.07825699E-05
   17.2000008         1.16759056E-05
   17.2500000         1.26392079E-05
   17.2999992         1.36775097E-05
   17.3500004         1.47961746E-05
   17.3999996         1.60009240E-05
   17.4500008         1.72978598E-05
   17.5000000         1.86934940E-05
   17.5499992         2.01947878E-05
   17.6000004         2.18091809E-05
   17.6499996         2.35446223E-05
   17.7000008         2.54096176E-05
   17.7500000         2.74132544E-05
   17.7999992         2.95652408E-05
   17.8500004         3.18759376E-05
   17.8999996         3.43563770E-05
   17.9500008         3.70183116E-05
   18.0000000         3.98742450E-05
   18.0499992         4.29374522E-05
   18.1000004         4.62220341E-05
   18.1499996         4.97429428E-05
   18.2000008         5.35160252E-05
   18.2500000         5.75580525E-05
   18.2999992         6.18867634E-05
   18.3500004         6.65209373E-05
   18.3999996         7.14804046E-05
   18.4500008         7.67861347E-05
   18.5000000         8.24602612E-05
   18.5499992         8.85261907E-05
   18.6000004         9.50086396E-05
   18.6499996         1.01933736E-04
   18.7000008         1.09329056E-04
   18.7500000         1.17223717E-04
   18.7999992         1.25648483E-04
   18.8500004         1.34635819E-04
   18.8999996         1.44219972E-04
   18.9500008         1.54437104E-04
   19.0000000         1.65325357E-04
   19.0499992         1.76924936E-04
   19.1000004         1.89278231E-04
   19.1499996         2.02429932E-04
   19.2000008         2.16427070E-04
   19.2500000         2.31319180E-04
   19.2999992         2.47158314E-04
   19.3500004         2.63999274E-04
   19.3999996         2.81899498E-04
   19.4500008         3.00919462E-04
   19.5000000         3.21122614E-04
   19.5499992         3.42575368E-04
   19.6000004         3.65347514E-04
   19.6499996         3.89512134E-04
   19.7000008         4.15145681E-04
   19.7500000         4.42328368E-04
   19.7999992         4.71144042E-04
   19.8500004         5.01680421E-04
   19.8999996         5.34029212E-04
   19.9500008         5.68286399E-04
   20.0000000         6.04552217E-04
   20.0499992         6.42931263E-04
   20.1000004         6.83532795E-04
   20.1499996         7.26471015E-04
   20.2000008         7.71864725E-04
   20.2500000         8.19838024E-04
   20.2999992         8.70520249E-04
   20.3500004         9.24045919E-04
   20.3999996         9.80555429E-04
   20.4500008         1.04019477E-03
   20.5000000         1.10311585E-03
   20.5499992         1.16947677E-03
   20.6000004         1.23944168E-03
   20.6499996         1.31318124E-03
   20.7000008         1.39087241E-03
   20.7500000         1.47269911E-03
   20.7999992         1.55885192E-03
   20.8500004         1.64952851E-03
   20.8999996         1.74493343E-03
   20.9500008         1.84527913E-03
   21.0000000         1.95078505E-03
   21.0499992         2.06167880E-03
   21.1000004         2.17819517E-03
   21.1499996         2.30057747E-03
   21.2000008         2.42907624E-03
   21.2500000         2.56395107E-03
   21.2999992         2.70546856E-03
   21.3500004         2.85390485E-03
   21.3999996         3.00954399E-03
   21.4500008         3.17267934E-03
   21.5000000         3.34361219E-03
   21.5499992         3.52265383E-03
   21.6000004         3.71012301E-03
   21.6499996         3.90634825E-03
   21.7000008         4.11166763E-03
   21.7500000         4.32642596E-03
   21.7999992         4.55098040E-03
   21.8500004         4.78569418E-03
   21.8999996         5.03094215E-03
   21.9500008         5.28710661E-03
   22.0000000         5.55457920E-03
   22.0499992         5.83376037E-03
   22.1000004         6.12505991E-03
   22.1499996         6.42889692E-03
   22.2000008         6.74569793E-03
   22.2500000         7.07590021E-03
   22.2999992         7.41994707E-03
   22.3500004         7.77829345E-03
   22.3999996         8.15139990E-03
   22.4500008         8.53973627E-03
   22.5000000         8.94377846E-03
   22.5499992         9.36401263E-03
   22.6000004         9.80093144E-03
   22.6499996         1.02550341E-02
   22.7000008         1.07268253E-02
   22.7500000         1.12168193E-02
   22.7999992         1.17255338E-02
   22.8500004         1.22534940E-02
   22.8999996         1.28012281E-02
   22.9500008         1.33692706E-02
   23.0000000         1.39581589E-02
   23.0499992         1.45684360E-02
   23.1000004         1.52006494E-02
   23.1499996         1.58553459E-02
   23.2000008         1.65330786E-02
   23.2500000         1.72343999E-02
   23.2999992         1.79598611E-02
   23.3500004         1.87100191E-02
   23.3999996         1.94854289E-02
   23.4500008         2.02866383E-02
   23.5000000         2.11142004E-02
   23.5499992         2.19686627E-02
   23.6000004         2.28505675E-02
   23.6499996         2.37604566E-02
   23.7000008         2.46988665E-02
   23.7500000         2.56663281E-02
   23.7999992         2.66633648E-02
   23.8500004         2.76904870E-02
   23.8999996         2.87482031E-02
   23.9500008         2.98370067E-02
   24.0000000         3.09573859E-02
   24.0499992         3.21098119E-02
   24.1000004         3.32947411E-02
   24.1499996         3.45126241E-02
   24.2000008         3.57638933E-02
   24.2500000         3.70489582E-02
   24.2999992         3.83682288E-02
   24.3500004         3.97220738E-02
   24.3999996         4.11108620E-02
   24.4500008         4.25349325E-02
   24.5000000         4.39946018E-02
   24.5499992         4.54901680E-02
   24.6000004         4.70218994E-02
   24.6499996         4.85900454E-02
   24.7000008         5.01948185E-02
   24.7500000         5.18364161E-02
   24.7999992         5.35149947E-02
   24.8500004         5.52306958E-02
   24.8999996         5.69836199E-02
   24.9500008         5.87738417E-02
   25.0000000         6.06014095E-02
   25.0499992         6.24663159E-02
   25.1000004         6.43685237E-02
   25.1499996         6.63079694E-02
   25.2000008         6.82845563E-02
   25.2500000         7.02981204E-02
   25.2999992         7.23484904E-02
   25.3500004         7.44354427E-02
   25.3999996         7.65587240E-02
   25.4500008         7.87180141E-02
   25.5000000         8.09129626E-02
   25.5499992         8.31431746E-02
   25.6000004         8.54082182E-02
   25.6499996         8.77076238E-02
   25.7000008         9.00408477E-02
   25.7500000         9.24073309E-02
   25.7999992         9.48064551E-02
   25.8500004         9.72375423E-02
   25.8999996         9.96998623E-02
   25.9500008        0.102192663    
   26.0000000        0.104715139    
   26.0499992        0.107266434    
   26.1000004        0.109845638    
   26.1499996        0.112451807    
   26.2000008        0.115083925    
   26.2500000        0.117740937    
   26.2999992        0.120421737    
   26.3500004        0.123125196    
   26.3999996        0.125850111    
   26.4500008        0.128595218    
   26.5000000        0.131359294    
   26.5499992        0.134140968    
   26.6000004        0.136938885    
   26.6499996        0.139751583    
   26.7000008        0.142577603    
   26.7500000        0.145415455    
   26.7999992        0.148263574    
   26.8500004        0.151120380    
   26.8999996        0.153984219    
   26.9500008        0.156853467    
   27.0000000        0.159726381    
   27.0499992        0.162601262    
   27.1000004        0.165476322    
   27.1499996        0.168349758    
   27.2000008        0.171219751    
   27.2500000        0.174084440    
   27.2999992        0.176941931    
   27.3500004        0.179790288    
   27.3999996        0.182627618    
   27.4500008        0.185451955    
   27.5000000        0.188261330    
   27.5499992        0.191053733    
   27.6000004        0.193827167    
   27.6499996        0.196579620    
   27.7000008        0.199309081    
   27.7500000        0.202013537    
   27.7999992        0.204690933    
   27.8500004        0.207339242    
   27.8999996        0.209956437    
   27.9500008        0.212540478    
   28.0000000        0.215089366    
   28.0499992        0.217601046    
   28.1000004        0.220073521    
   28.1499996        0.222504795    
   28.2000008        0.224892870    
   28.2500000        0.227235824    
   28.2999992        0.229531720    
   28.3500004        0.231778681    
   28.3999996        0.233974785    
   28.4500008        0.236118212    
   28.5000000        0.238207161    
   28.5499992        0.240239799    
   28.6000004        0.242214397    
   28.6499996        0.244129241    
   28.7000008        0.245982662    
   28.7500000        0.247773036    
   28.7999992        0.249498770    
   28.8500004        0.251158386    
   28.8999996        0.252750367    
   28.9500008        0.254273355    
   29.0000000        0.255725890    
   29.0499992        0.257106751    
   29.1000004        0.258414656    
   29.1499996        0.259648442    
   29.2000008        0.260806978    
   29.2500000        0.261889219    
   29.2999992        0.262894243    
   29.3500004        0.263821006    
   29.3999996        0.264668703    
   29.4500008        0.265436620    
   29.5000000        0.266123921    
   29.5499992        0.266730070    
   29.6000004        0.267254502    
   29.6499996        0.267696768    
   29.7000008        0.268056393    
   29.7500000        0.268333107    
   29.7999992        0.268526584    
   29.8500004        0.268636644    
   29.8999996        0.268663287    
   29.9500008        0.268606365    
   30.0000000        0.268466026    
   30.0499992        0.268242389    
   30.1000004        0.267935634    
   30.1499996        0.267546088    
   30.2000008        0.267074138    
   30.2500000        0.266520143    
   30.2999992        0.265884727    
   30.3500004        0.265168369    
   30.3999996        0.264371872    
   30.4500008        0.263495862    
   30.5000000        0.262541234    
   30.5499992        0.261508852    
   30.6000004        0.260399640    
   30.6499996        0.259214580    
   30.7000008        0.257954776    
   30.7500000        0.256621361    
   30.7999992        0.255215555    
   30.8500004        0.253738642    
   30.8999996        0.252191961    
   30.9500008        0.250576913    
   31.0000000        0.248894975    
   31.0499992        0.247147605    
   31.1000004        0.245336339    
   31.1499996        0.243462756    
   31.2000008        0.241528481    
   31.2500000        0.239535198    
   31.2999992        0.237484679    
   31.3500004        0.235378683    
   31.3999996        0.233218983    
   31.4500008        0.231007412    
   31.5000000        0.228745848    
   31.5499992        0.226436153    
   31.6000004        0.224080235    
   31.6499996        0.221680045    
   31.7000008        0.219237536    
   31.7500000        0.216754720    
   31.7999992        0.214233577    
   31.8500004        0.211676106    
   31.8999996        0.209084317    
   31.9500008        0.206460178    
   32.0000000        0.203805760    
   32.0499992        0.201123103    
   32.0999985        0.198414251    
   32.1500015        0.195681214    
   32.2000008        0.192926049    
   32.2500000        0.190150753    
   32.2999992        0.187357321    
   32.3499985        0.184547722    
   32.4000015        0.181723908    
   32.4500008        0.178887814    
   32.5000000        0.176041394    
   32.5499992        0.173186600    
   32.5999985        0.170325324    
   32.6500015        0.167459473    
   32.7000008        0.164590850    
   32.7500000        0.161721289    
   32.7999992        0.158852562    
   32.8499985        0.155986413    
   32.9000015        0.153124541    
   32.9500008        0.150268599    
   33.0000000        0.147420287    
   33.0499992        0.144581228    
   33.0999985        0.141753003    
   33.1500015        0.138937071    
   33.2000008        0.136134937    
   33.2500000        0.133348018    
   33.2999992        0.130577728    
   33.3499985        0.127825424    
   33.4000015        0.125092387    
   33.4500008        0.122379892    
   33.5000000        0.119689167    
   33.5499992        0.117021404    
   33.5999985        0.114377752    
   33.6500015        0.111759245    
   33.7000008        0.109166913    
   33.7500000        0.106601737    
   33.7999992        0.104064666    
   33.8499985        0.101556592    
   33.9000015         9.90783200E-02
   33.9500008         9.66306031E-02
   34.0000000         9.42141861E-02
   34.0499992         9.18297991E-02
   34.0999985         8.94780904E-02
   34.1500015         8.71596858E-02
   34.2000008         8.48751068E-02
   34.2500000         8.26248750E-02
   34.2999992         8.04094896E-02
   34.3499985         7.82293826E-02
   34.4000015         7.60849044E-02
   34.4500008         7.39763379E-02
   34.5000000         7.19039515E-02
   34.5499992         6.98679984E-02
   34.5999985         6.78687096E-02
   34.6500015         6.59062713E-02
   34.7000008         6.39808103E-02
   34.7500000         6.20924234E-02
   34.7999992         6.02411814E-02
   34.8499985         5.84271513E-02
   34.9000015         5.66503070E-02
   34.9500008         5.49105741E-02
   35.0000000         5.32078072E-02
   35.0499992         5.15418947E-02
   35.0999985         4.99127246E-02
   35.1500015         4.83201444E-02
   35.2000008         4.67639454E-02
   35.2500000         4.52439003E-02
   35.2999992         4.37597670E-02
   35.3499985         4.23113033E-02
   35.4000015         4.08982262E-02
   35.4500008         3.95201892E-02
   35.5000000         3.81768011E-02
   35.5499992         3.68676931E-02
   35.5999985         3.55925001E-02
   35.6500015         3.43508497E-02