 -0.622799993         1.00000012E-24
 -0.610800028         1.00000012E-24
 -0.598800004         1.00000012E-24
 -0.586799979         8.68900956E-17
 -0.574800014         4.81983346E-16
 -0.562799990         1.37413499E-15
 -0.550800025         2.51455537E-15
 -0.538800001         2.83311684E-15
 -0.526799977         5.41410437E-16
 -0.514800012        -5.91316115E-15
 -0.502799988        -1.61606263E-14
 -0.490799993        -2.62853500E-14
 -0.478799999        -2.85275140E-14
 -0.466800004        -1.33919136E-14
 -0.454800010         2.57481380E-14
 -0.442799985         8.69931365E-14
 -0.430799991         1.55993138E-13
 -0.418799996         2.06842369E-13
 -0.406800002         2.09577283E-13
 -0.394800007         1.43331947E-13
 -0.382800013         1.10382733E-14
 -0.370799989        -1.50534844E-13
 -0.358799994        -2.71289691E-13
 -0.346799999        -2.61574128E-13
 -0.334800005        -3.67991533E-14
 -0.322800010         4.54624836E-13
 -0.310799986         1.21028719E-12
 -0.298799992         2.16878425E-12
 -0.286799997         3.22476442E-12
 -0.274800003         4.26105852E-12
 -0.262800008         5.18893348E-12
 -0.250800014         5.98499245E-12
 -0.238800004         6.71533619E-12
 -0.226799995         7.54293503E-12
 -0.214800000         8.71988245E-12
 -0.202800006         1.05694750E-11
 -0.190799996         1.34623215E-11
 -0.178800002         1.77871381E-11
 -0.166800007         2.39138501E-11
 -0.154799998         3.21473820E-11
 -0.142800003         4.26764978E-11
 -0.130799994         5.55311977E-11
 -0.118799999         7.05692380E-11
 -0.106799997         8.75115605E-11
  -9.48000029E-02     1.06033862E-10
  -8.28000009E-02     1.25900651E-10
  -7.07999989E-02     1.47105286E-10
  -5.88000007E-02     1.69966652E-10
  -4.67999987E-02     1.95137115E-10
  -3.48000005E-02     2.23501176E-10
  -2.28000004E-02     2.55979460E-10
  -1.08000003E-02     2.93286534E-10
   1.20000006E-03     3.35707323E-10
   1.31999999E-02     3.82947118E-10
   2.52000000E-02     4.34080438E-10
   3.72000001E-02     4.87584195E-10
   4.91999984E-02     5.41417244E-10
   6.12000003E-02     5.93105232E-10
   7.32000023E-02     6.39825304E-10
   8.51999968E-02     6.78522238E-10
   9.71999988E-02     7.06123493E-10
  0.109200001         7.19914184E-10
  0.121200003         7.18085369E-10
  0.133200005         7.00385416E-10
  0.145199999         6.68725519E-10
  0.157199994         6.27544572E-10
  0.169200003         5.83760040E-10
  0.181199998         5.46219237E-10
  0.193200007         5.24691290E-10
  0.205200002         5.28549149E-10
  0.217199996         5.65357150E-10
  0.229200006         6.39556408E-10
  0.241200000         7.51374463E-10
  0.253199995         8.95991559E-10
  0.265199989         1.06295839E-09
  0.277200013         1.23589072E-09
  0.289200008         1.39256895E-09
  0.301200002         1.50568702E-09
  0.313199997         1.54455027E-09
  0.325199991         1.47794887E-09
  0.337199986         1.27820965E-09
  0.349200010         9.26118571E-10
  0.361200005         4.16080143E-10
  0.373199999        -2.39332665E-10
  0.385199994        -1.00630293E-09
  0.397199988        -1.82887039E-09
  0.409200013        -2.63061728E-09
  0.421200007        -3.31905015E-09
  0.433200002        -3.79257115E-09
  0.445199996        -3.94984312E-09
  0.457199991        -3.70131836E-09
  0.469199985        -2.98263636E-09
  0.481200010        -1.76932102E-09
  0.493200004        -9.17315598E-11
  0.505200028         1.95144989E-09
  0.517199993         4.18353130E-09
  0.529200017         6.34662234E-09
  0.541199982         8.10747292E-09
  0.553200006         9.07409081E-09
  0.565199971         8.82359874E-09
  0.577199996         6.94018665E-09
  0.589200020         3.06044545E-09
  0.601199985        -3.07789239E-09
  0.613200009        -1.15885701E-08
  0.625199974        -2.23958772E-08
  0.637199998        -3.52050797E-08
  0.649200022        -4.94889996E-08
  0.661199987        -6.44947775E-08
  0.673200011        -7.92739598E-08
  0.685199976        -9.27377073E-08
  0.697200000        -1.03736596E-07
  0.709200025        -1.11161796E-07
  0.721199989        -1.14061123E-07
  0.733200014        -1.11760130E-07
  0.745199978        -1.03976191E-07
  0.757200003        -9.09121596E-08
  0.769200027        -7.33171959E-08
  0.781199992        -5.25039248E-08
  0.793200016        -3.03143146E-08
  0.805199981        -9.03139874E-09
  0.817200005         8.76279582E-09
  0.829200029         2.03788080E-08
  0.841199994         2.32534063E-08
  0.853200018         1.52133559E-08
  0.865199983        -5.24432187E-09
  0.877200007        -3.86716827E-08
  0.889199972        -8.44116883E-08
  0.901199996        -1.40381616E-07
  0.913200021        -2.02918841E-07
  0.925199986        -2.66710742E-07
  0.937200010        -3.24819354E-07
  0.949199975        -3.68810646E-07
  0.961199999        -3.88990969E-07
  0.973200023        -3.74742967E-07
  0.985199988        -3.14952814E-07
  0.997200012        -1.98510762E-07
   1.00919998        -1.48712731E-08
   1.02119994         2.45353363E-07
   1.03320003         5.89787362E-07
   1.04519999         1.02370063E-06
   1.05719995         1.54946736E-06
   1.06920004         2.16610260E-06
   1.08120000         2.86891463E-06
   1.09319997         3.64929906E-06
   1.10520005         4.49470826E-06
   1.11720002         5.38880522E-06
   1.12919998         6.31181911E-06
   1.14119995         7.24109441E-06
   1.15320003         8.15183466E-06
   1.16520000         9.01801832E-06
   1.17719996         9.81346511E-06
   1.18920004         1.05130130E-05
   1.20120001         1.10937826E-05
   1.21319997         1.15364574E-05
   1.22520006         1.18265289E-05
   1.23720002         1.19554434E-05
   1.24919999         1.19215647E-05
   1.26119995         1.17309091E-05
   1.27320004         1.13975684E-05
   1.28520000         1.09438015E-05
   1.29719996         1.03997445E-05
   1.30920005         9.80273489E-06
   1.32120001         9.19625472E-06
   1.33319998         8.62852539E-06
   1.34519994         8.15076146E-06
   1.35720003         7.81519157E-06
   1.36919999         7.67286929E-06
   1.38119996         7.77139576E-06
   1.39320004         8.15263047E-06
   1.40520000         8.85050940E-06
   1.41719997         9.88906322E-06
   1.42920005         1.12807411E-05
   1.44120002         1.30251010E-05
   1.45319998         1.51079639E-05
   1.46519995         1.75010337E-05
   1.47720003         2.01620351E-05
   1.48920000         2.30353671E-05
   1.50119996         2.60532524E-05
   1.51320004         2.91373435E-05
   1.52520001         3.22007618E-05
   1.53719997         3.51504859E-05
   1.54920006         3.78900222E-05
   1.56120002         4.03222621E-05
   1.57319999         4.23524543E-05
   1.58519995         4.38911666E-05
   1.59720004         4.48571336E-05
   1.60920000         4.51799679E-05
   1.62119997         4.48025785E-05
   1.63320005         4.36832670E-05
   1.64520001         4.17974734E-05
   1.65719998         3.91390386E-05
   1.66919994         3.57210556E-05
   1.68120003         3.15761536E-05
   1.69319999         2.67563046E-05
   1.70519996         2.13320345E-05
   1.71720004         1.53911351E-05
   1.72920001         9.03681212E-06
   1.74119997         2.38535290E-06
   1.75320005        -4.43666886E-06
   1.76520002        -1.12955877E-05
   1.77719998        -1.80541683E-05
   1.78919995        -2.45753727E-05
   1.80120003        -3.07262744E-05
   1.81320000        -3.63820327E-05
   1.82519996        -4.14297756E-05
   1.83720005        -4.57722999E-05
   1.84920001        -4.93314219E-05
   1.86119998        -5.20508802E-05
   1.87320006        -5.38986314E-05
   1.88520002        -5.48684693E-05
   1.89719999        -5.49808210E-05
   1.90919995        -5.42827365E-05
   1.92120004        -5.28469063E-05
   1.93320000        -5.07698314E-05
   1.94519997        -4.81690658E-05
   1.95720005        -4.51796368E-05
   1.96920002        -4.19497155E-05
   1.98119998        -3.86356805E-05
   1.99319994        -3.53967298E-05
   2.00519991        -3.23892273E-05
   2.01719999        -2.97610113E-05
   2.02920008        -2.76458941E-05
   2.04119992        -2.61585574E-05
   2.05320001        -2.53900453E-05
   2.06520009        -2.54041206E-05
   2.07719994        -2.62345329E-05
   2.08920002        -2.78834286E-05
   2.10120010        -3.03208908E-05
   2.11319995        -3.34857104E-05
   2.12520003        -3.72873110E-05
   2.13720012        -4.16087787E-05
   2.14919996        -4.63109427E-05
   2.16120005        -5.12371917E-05
   2.17319989        -5.62190362E-05
   2.18519998        -6.10820425E-05
   2.19720006        -6.56520351E-05
   2.20919991        -6.97612122E-05
   2.22119999        -7.32541594E-05
   2.23320007        -7.59933100E-05
   2.24519992        -7.78639078E-05
   2.25720000        -7.87781173E-05
   2.26920009        -7.86783494E-05
   2.28119993        -7.75395165E-05
   2.29320002        -7.53702770E-05
   2.30520010        -7.22132172E-05
   2.31719995        -6.81439124E-05
   2.32920003        -6.32689844E-05
   2.34120011        -5.77230858E-05
   2.35319996        -5.16650289E-05
   2.36520004        -4.52730419E-05
   2.37719989        -3.87393447E-05
   2.38919997        -3.22641317E-05
   2.40120006        -2.60492125E-05
   2.41319990        -2.02913870E-05
   2.42519999        -1.51758722E-05
   2.43720007        -1.08699296E-05
   2.44919991        -7.51695370E-06
   2.46120000        -5.23122071E-06
   2.47320008        -4.09355016E-06
   2.48519993        -4.14802798E-06
   2.49720001        -5.39998246E-06
   2.50920010        -7.81532071E-06
   2.52119994        -1.13212900E-05
   2.53320003        -1.58087023E-05
   2.54520011        -2.11355309E-05
   2.55719995        -2.71318313E-05
   2.56920004        -3.36057237E-05
   2.58119988        -4.03503000E-05
   2.59319997        -4.71510721E-05
   2.60520005        -5.37937376E-05
   2.61719990        -6.00718085E-05
   2.62919998        -6.57939163E-05
   2.64120007        -7.07903237E-05
   2.65319991        -7.49184837E-05
   2.66520000        -7.80672999E-05
   2.67720008        -8.01600472E-05
   2.68919992        -8.11557111E-05
   2.70120001        -8.10488928E-05
   2.71320009        -7.98681649E-05
   2.72519994        -7.76731686E-05
   2.73720002        -7.45505968E-05
   2.74920011        -7.06092906E-05
   2.76119995        -6.59748184E-05
   2.77320004        -6.07838556E-05
   2.78520012        -5.51786252E-05
   2.79719996        -4.93017287E-05
   2.80920005        -4.32916095E-05
   2.82119989        -3.72788672E-05
   2.83319998        -3.13834389E-05
   2.84520006        -2.57128231E-05
   2.85719991        -2.03612126E-05
   2.86919999        -1.54094832E-05
   2.88120008        -1.09258826E-05
   2.89319992        -6.96721645E-06
   2.90520000        -3.58028069E-06
   2.91720009        -8.03347632E-07
   2.92919993         1.33253161E-06
   2.94120002         2.80261270E-06
   2.95320010         3.58804255E-06
   2.96519995         3.67604980E-06
   2.97720003         3.06071797E-06
   2.98920012         1.74430261E-06
   3.00119996        -2.61061388E-07
   3.01320004        -2.93142375E-06
   3.02519989        -6.22909465E-06
   3.03719997        -1.01009637E-05
   3.04920006        -1.44773021E-05
   3.06119990        -1.92712669E-05
   3.07319999        -2.43792765E-05
   3.08520007        -2.96823655E-05
   3.09719992        -3.50485825E-05
   3.10920000        -4.03363774E-05
   3.12120008        -4.53988832E-05
   3.13319993        -5.00889073E-05
   3.14520001        -5.42643684E-05
   3.15720010        -5.77939281E-05
   3.16919994        -6.05624518E-05
   3.18120003        -6.24760505E-05
   3.19320011        -6.34663156E-05
   3.20519996        -6.34935786E-05
   3.21720004        -6.25490211E-05
   3.22919989        -6.06553804E-05
   3.24119997        -5.78664221E-05
   3.25320005        -5.42650814E-05
   3.26519990        -4.99603993E-05
   3.27719998        -4.50835287E-05
   3.28920007        -3.97829026E-05
   3.30119991        -3.42189123E-05
   3.31320000        -2.85582955E-05
   3.32520008        -2.29685411E-05
   3.33719993        -1.76124868E-05
   3.34920001        -1.26433915E-05
   3.36120009        -8.20058722E-06
   3.37319994        -4.40584881E-06
   3.38520002        -1.36054246E-06
   3.39720011         8.56447400E-07
   3.40919995         2.19002891E-06
   3.42120004         2.60952652E-06
   3.43319988         2.10869007E-06
   3.44519997         7.05168929E-07
   3.45720005        -1.56046633E-06
   3.46919990        -4.62609933E-06
   3.48119998        -8.40980192E-06
   3.49320006        -1.28118700E-05
   3.50519991        -1.77171842E-05
   3.51719999        -2.29978359E-05
   3.52920008        -2.85160586E-05
   3.54119992        -3.41273917E-05
   3.55320001        -3.96840842E-05
   3.56520009        -4.50387161E-05
   3.57719994        -5.00479109E-05
   3.58920002        -5.45761832E-05
   3.60120010        -5.84996997E-05
   3.61319995        -6.17099213E-05
   3.62520003        -6.41169681E-05
   3.63720012        -6.56524862E-05
   3.64919996        -6.62719831E-05
   3.66120005        -6.59563666E-05
   3.67319989        -6.47127017E-05
   3.68519998        -6.25739704E-05
   3.69720006        -5.95979072E-05
   3.70919991        -5.58649263E-05
   3.72119999        -5.14751773E-05
   3.73320007        -4.65448684E-05
   3.74519992        -4.12020054E-05
   3.75720000        -3.55817938E-05
   3.76920009        -2.98218547E-05
   3.78119993        -2.40574936E-05
   3.79320002        -1.84173277E-05
   3.80520010        -1.30193830E-05
   3.81719995        -7.96794120E-06
   3.82920003        -3.35124241E-06
   3.84120011         7.59870034E-07
   3.85319996         4.31232047E-06
   3.86520004         7.27025235E-06
   3.87719989         9.61366368E-06
   3.88919997         1.13363949E-05
   3.90120006         1.24436820E-05
   3.91319990         1.29494683E-05
   3.92519999         1.28737338E-05
   3.93720007         1.22400525E-05
   3.94919991         1.10735400E-05
   3.96120000         9.39937672E-06
   3.97320008         7.24198298E-06
   3.98519993         4.62489788E-06
   3.99720001         1.57135673E-06
   4.00920010        -1.89451657E-06
   4.02120018        -5.74603246E-06
   4.03319979        -9.95196660E-06
   4.04519987        -1.44744954E-05
   4.05719995        -1.92672851E-05
   4.06920004        -2.42739479E-05
   4.08120012        -2.94270721E-05
   4.09320021        -3.46479574E-05
   4.10519981        -3.98471966E-05
   4.11719990        -4.49260660E-05
   4.12919998        -4.97787478E-05
   4.14120007        -5.42953312E-05
   4.15320015        -5.83653273E-05
   4.16520023        -6.18816266E-05
   4.17719984        -6.47446868E-05
   4.18919992        -6.68666107E-05
   4.20120001        -6.81749516E-05
   4.21320009        -6.86161220E-05
   4.22520018        -6.81579477E-05
   4.23719978        -6.67914937E-05
   4.24919987        -6.45318578E-05
   4.26119995        -6.14180317E-05
   4.27320004        -5.75117410E-05
   4.28520012        -5.28954370E-05
   4.29720020        -4.76695095E-05
   4.30919981        -4.19489115E-05
   4.32119989        -3.58594116E-05
   4.33319998        -2.95336395E-05
   4.34520006        -2.31071153E-05
   4.35720015        -1.67144863E-05
   4.36920023        -1.04860901E-05
   4.38119984        -4.54497149E-06
   4.39319992         9.95562004E-07
   4.40520000         6.03379249E-06
   4.41720009         1.04808669E-05
   4.42920017         1.42615281E-05
   4.44119978         1.73143744E-05
   4.45319986         1.95917801E-05
   4.46519995         2.10595426E-05
   4.47720003         2.16964563E-05
   4.48920012         2.14938591E-05
   4.50120020         2.04552962E-05
   4.51319981         1.85963163E-05
   4.52519989         1.59444517E-05
   4.53719997         1.25393390E-05
   4.54920006         8.43293401E-06
   4.56120014         3.68973110E-06
   4.57320023        -1.61312187E-06
   4.58519983        -7.38593781E-06
   4.59719992        -1.35269365E-05
   4.60920000        -1.99231545E-05
   4.62120008        -2.64518676E-05
   4.63320017        -3.29826398E-05
   4.64519978        -3.93799419E-05
   4.65719986        -4.55063782E-05
   4.66919994        -5.12263614E-05
   4.68120003        -5.64102047E-05
   4.69320011        -6.09383351E-05
   4.70520020        -6.47054912E-05
   4.71719980        -6.76246564E-05
   4.72919989        -6.96304778E-05
   4.74119997        -7.06819701E-05
   4.75320005        -7.07643121E-05
   4.76520014        -6.98896329E-05
   4.77720022        -6.80967132E-05
   4.78919983        -6.54495889E-05
   4.80119991        -6.20351057E-05
   4.81320000        -5.79596017E-05
   4.82520008        -5.33448147E-05
   4.83720016        -4.83233089E-05
   4.84919977        -4.30335785E-05
   4.86119986        -3.76151547E-05
   4.87319994        -3.22039741E-05
   4.88520002        -2.69281863E-05
   4.89720011        -2.19046833E-05
   4.90920019        -1.72364271E-05
   4.92119980        -1.30106973E-05
   4.93319988        -9.29823091E-06
   4.94519997        -6.15321687E-06
   4.95720005        -3.61401794E-06
   4.96920013        -1.70447345E-06
   4.98120022        -4.35570257E-07
   4.99319983         1.92650305E-07
   5.00519991         1.89215143E-07
   5.01719999        -4.29532378E-07
   5.02920008        -1.64139021E-06
   5.04120016        -3.41933378E-06
   5.05319977        -5.73211537E-06
   5.06519985        -8.54438076E-06
   5.07719994        -1.18163452E-05
   5.08920002        -1.55031503E-05
   5.10120010        -1.95539778E-05
   5.11320019        -2.39111851E-05
   5.12519979        -2.85095448E-05
   5.13719988        -3.32758173E-05
   5.14919996        -3.81288119E-05
   5.16120005        -4.29800129E-05
   5.17320013        -4.77348367E-05
   5.18520021        -5.22945738E-05
   5.19719982        -5.65588598E-05
   5.20919991        -6.04287015E-05
   5.22119999        -6.38098281E-05
   5.23320007        -6.66162305E-05
   5.24520016        -6.87737265E-05
   5.25719976        -7.02232501E-05
   5.26919985        -7.09237502E-05
   5.28119993        -7.08544030E-05
   5.29320002        -7.00160454E-05
   5.30520010        -6.84316037E-05
   5.31720018        -6.61455415E-05
   5.32919979        -6.32222436E-05
   5.34119987        -5.97435574E-05
   5.35319996        -5.58054744E-05
   5.36520004        -5.15142601E-05
   5.37720013        -4.69822990E-05
   5.38920021        -4.23237980E-05
   5.40119982        -3.76507342E-05
   5.41319990        -3.30691655E-05
   5.42519999        -2.86762042E-05
   5.43720007        -2.45577376E-05
   5.44920015        -2.07870380E-05
   5.46120024        -1.74242468E-05
   5.47319984        -1.45167351E-05
   5.48519993        -1.21001731E-05
   5.49720001        -1.02001350E-05
   5.50920010        -8.83401299E-06
   5.52120018        -8.01291935E-06
   5.53319979        -7.74336149E-06
   5.54519987        -8.02841441E-06
   5.55719995        -8.86821999E-06
   5.56920004        -1.02597232E-05
   5.58120012        -1.21956318E-05
   5.59320021        -1.46626744E-05
   5.60519981        -1.76393278E-05
   5.61719990        -2.10932594E-05
   5.62919998        -2.49787499E-05
   5.64120007        -2.92344448E-05
   5.65320015        -3.37817182E-05
   5.66520023        -3.85239946E-05
   5.67719984        -4.33472305E-05
   5.68919992        -4.81217321E-05
   5.70120001        -5.27054690E-05
   5.71320009        -5.69486838E-05
   5.72520018        -6.06997964E-05
   5.73719978        -6.38122292E-05
   5.74919987        -6.61517770E-05
   5.76119995        -6.76041163E-05
   5.77320004        -6.80819285E-05
   5.78520012        -6.75311239E-05
   5.79720020        -6.59357756E-05
   5.80919981        -6.33212912E-05
   5.82119989        -5.97556027E-05
   5.83319998        -5.53481914E-05
   5.84520006        -5.02469084E-05
   5.85720015        -4.46326812E-05
   5.86920023        -3.87124055E-05
   5.88119984        -3.27103226E-05
   5.89319992        -2.68583717E-05
   5.90520000        -2.13860130E-05
   5.91720009        -1.65101173E-05
   5.92920017        -1.24254229E-05
   5.94119978        -9.29611451E-06
   5.95319986        -7.24891697E-06
   5.96519995        -6.36807636E-06
   5.97720003        -6.69241399E-06
   5.98920012        -8.21455251E-06
   6.00120020        -1.08822596E-05
   6.01319981        -1.46017537E-05
   6.02519989        -1.92426669E-05
   6.03719997        -2.46443360E-05
   6.04920006        -3.06230031E-05
   6.06120014        -3.69794652E-05
   6.07320023        -4.35068032E-05
   6.08519983        -4.99977359E-05
   6.09719992        -5.62513524E-05
   6.10920000        -6.20788560E-05
   6.12120008        -6.73082832E-05
   6.13320017        -7.17880248E-05
   6.14519978        -7.53891727E-05
   6.15719986        -7.80068513E-05
   6.16919994        -7.95606175E-05
   6.18120003        -7.99942209E-05
   6.19320011        -7.92748542E-05
   6.20520020        -7.73922584E-05
   6.21719980        -7.43578275E-05
   6.22919989        -7.02038815E-05
   6.24119997        -6.49832291E-05
   6.25320005        -5.87689537E-05
   6.26520014        -5.16545624E-05
   6.27720022        -4.37540948E-05
   6.28919983        -3.52022616E-05
   6.30119991        -2.61542591E-05
   6.31320000        -1.67850831E-05
   6.32520008        -7.28813257E-06
   6.33720016         2.12711416E-06
   6.34919977         1.12384305E-05
   6.36119986         1.98153193E-05
   6.37319994         2.76245755E-05
   6.38520002         3.44368636E-05
   6.39720011         4.00341014E-05
   6.40920019         4.42173587E-05
   6.42119980         4.68148719E-05
   6.43319988         4.76898022E-05
   6.44519997         4.67472346E-05
   6.45720005         4.39399810E-05
   6.46920013         3.92728143E-05
   6.48120022         3.28048227E-05
   6.49319983         2.46496220E-05
   6.50519991         1.49733632E-05
   6.51719999         3.99052169E-06
   6.52920008        -8.04240153E-06
   6.54120016        -2.08350266E-05
   6.55319977        -3.40727565E-05
   6.56519985        -4.74275184E-05
   6.57719994        -6.05690802E-05
   6.58920002        -7.31764012E-05
   6.60120010        -8.49485514E-05
   6.61320019        -9.56144941E-05
   6.62519979        -1.04941537E-04
   6.63719988        -1.12741880E-04
   6.64919996        -1.18877171E-04
   6.66120005        -1.23260907E-04
   6.67320013        -1.25858598E-04
   6.68520021        -1.26685962E-04
   6.69719982        -1.25805338E-04
   6.70919991        -1.23320351E-04
   6.72119999        -1.19369615E-04
   6.73320007        -1.14119466E-04
   6.74520016        -1.07756357E-04
   6.75719976        -1.00479352E-04
   6.76919985        -9.24928681E-05
   6.78119993        -8.40003122E-05
   6.79320002        -7.51986154E-05
   6.80520010        -6.62740131E-05
   6.81720018        -5.73989564E-05
   6.82919979        -4.87302386E-05
   6.84119987        -4.04081948E-05
   6.85319996        -3.25567380E-05
   6.86520004        -2.52840637E-05
   6.87720013        -1.86837442E-05
   6.88920021        -1.28359443E-05
   6.90119982        -7.80856681E-06
   6.91319990        -3.65806659E-06
   6.92519999        -4.29797637E-07
   6.93720007         1.84221562E-06
   6.94920015         3.13610099E-06
   6.96120024         3.44350315E-06
   6.97319984         2.77133063E-06
   6.98519993         1.14368686E-06
   6.99720001        -1.39630572E-06
   7.00920010        -4.78506672E-06
   7.02120018        -8.93777360E-06
   7.03319979        -1.37484976E-05
   7.04519987        -1.90914252E-05
   7.05719995        -2.48232664E-05
   7.06920004        -3.07868722E-05
   7.08120012        -3.68159454E-05
   7.09320021        -4.27407140E-05
   7.10519981        -4.83942822E-05
   7.11719990        -5.36193074E-05
   7.12919998        -5.82746834E-05
   7.14120007        -6.22417356E-05
   7.15320015        -6.54295873E-05
   7.16520023        -6.77792777E-05
   7.17719984        -6.92663234E-05
   7.18919992        -6.99015800E-05
   7.20120001        -6.97301875E-05
   7.21320009        -6.88287982E-05
   7.22520018        -6.73009927E-05
   7.23719978        -6.52713861E-05
   7.24919987        -6.28785710E-05
   7.26119995        -6.02674227E-05
   7.27320004        -5.75811428E-05
   7.28520012        -5.49535544E-05
   7.29720020        -5.25021132E-05
   7.30919981        -5.03220217E-05
   7.32119989        -4.84818265E-05
   7.33319998        -4.70206905E-05
   7.34520006        -4.59475923E-05
   7.35720015        -4.52422792E-05
   7.36920023        -4.48580176E-05
   7.38119984        -4.47258644E-05
   7.39319992        -4.47600833E-05
   7.40520000        -4.48644460E-05
   7.41720009        -4.49389227E-05
   7.42920017        -4.48863611E-05
   7.44119978        -4.46187223E-05
   7.45319986        -4.40625154E-05
   7.46519995        -4.31630542E-05
   7.47720003        -4.18873387E-05
   7.48920012        -4.02253427E-05
   7.50120020        -3.81897516E-05
   7.51319981        -3.58141697E-05
   7.52519989        -3.31500232E-05
   7.53719997        -3.02624485E-05
   7.54920006        -2.72255147E-05
   7.56120014        -2.41171547E-05
   7.57320023        -2.10142098E-05
   7.58519983        -1.79879553E-05
   7.59719992        -1.51003806E-05
   7.60920000        -1.24015232E-05
   7.62120008        -9.92800051E-06
   7.63320017        -7.70281349E-06
   7.64519978        -5.73639818E-06
   7.65719986        -4.02878595E-06
   7.66919994        -2.57263741E-06
   7.68120003        -1.35682092E-06
   7.69320011        -3.70168095E-07
   7.70520020         3.94993037E-07
   7.71719980         9.39877339E-07
   7.72919989         1.25716360E-06
   7.74119997         1.32999833E-06
   7.75320005         1.13218960E-06
   7.76520014         6.29578039E-07
   7.77720022        -2.17512792E-07
   7.78919983        -1.45093509E-06
   7.80119991        -3.11075041E-06
   7.81320000        -5.23095105E-06
   7.82520008        -7.83521500E-06
   7.83720016        -1.09330585E-05
   7.84919977        -1.45167287E-05
   7.86119986        -1.85591416E-05
   7.87319994        -2.30130754E-05
   7.88520002        -2.78117295E-05
   7.89720011        -3.28706628E-05
   7.90920019        -3.80909478E-05
   7.92119980        -4.33633613E-05
   7.93319988        -4.85732562E-05
   7.94519997        -5.36058178E-05
   7.95720005        -5.83513392E-05
   7.96920013        -6.27101253E-05
   7.98120022        -6.65968182E-05
   7.99319983        -6.99437733E-05
   8.00520039        -7.27034421E-05
   8.01720047        -7.48494567E-05
   8.02919960        -7.63764911E-05
   8.04119968        -7.72989442E-05
   8.05319977        -7.76483939E-05
   8.06519985        -7.74703440E-05
   8.07719994        -7.68202081E-05
   8.08920002        -7.57590678E-05
   8.10120010        -7.43494675E-05
   8.11320019        -7.26515427E-05
   8.12520027        -7.07197614E-05
   8.13720036        -6.86004787E-05
   8.14920044        -6.63304527E-05
   8.16119957        -6.39363570E-05
   8.17319965        -6.14353048E-05
   8.18519974        -5.88363073E-05
   8.19719982        -5.61425368E-05
   8.20919991        -5.33541861E-05
   8.22119999        -5.04716882E-05
   8.23320007        -4.74989865E-05
   8.24520016        -4.44466204E-05
   8.25720024        -4.13342423E-05
   8.26920033        -3.81923492E-05
   8.28120041        -3.50630689E-05
   8.29319954        -3.19998362E-05
   8.30519962        -2.90659264E-05
   8.31719971        -2.63320289E-05
   8.32919979        -2.38728844E-05
   8.34119987        -2.17632769E-05
   8.35319996        -2.00736977E-05
   8.36520004        -1.88659160E-05
   8.37720013        -1.81888608E-05
   8.38920021        -1.80750631E-05
   8.40120029        -1.85379940E-05
   8.41320038        -1.95704761E-05
   8.42520046        -2.11443275E-05
   8.43719959        -2.32112961E-05
   8.44919968        -2.57052161E-05
   8.46119976        -2.85452734E-05
   8.47319984        -3.16401383E-05
   8.48519993        -3.48926878E-05
   8.49720001        -3.82050057E-05
   8.50920010        -4.14832684E-05
   8.52120018        -4.46422382E-05
   8.53320026        -4.76090463E-05
   8.54520035        -5.03259944E-05
   8.55720043        -5.27522789E-05
   8.56919956        -5.48645112E-05
   8.58119965        -5.66560811E-05
   8.59319973        -5.81354834E-05
   8.60519981        -5.93237455E-05
   8.61719990        -6.02512846E-05
   8.62919998        -6.09543167E-05
   8.64120007        -6.14712553E-05
   8.65320015        -6.18392150E-05
   8.66520023        -6.20909414E-05
   8.67720032        -6.22523294E-05
   8.68920040        -6.23407032E-05
   8.70119953        -6.23639207E-05
   8.71319962        -6.23203232E-05
   8.72519970        -6.21996078E-05
   8.73719978        -6.19843486E-05
   8.74919987        -6.16522084E-05
   8.76119995        -6.11784562E-05
   8.77320004        -6.05387613E-05
   8.78520012        -5.97118960E-05
   8.79720020        -5.86822462E-05
   8.80920029        -5.74419319E-05
   8.82120037        -5.59924119E-05
   8.83320045        -5.43454989E-05
   8.84519958        -5.25237483E-05
   8.85719967        -5.05601274E-05
   8.86919975        -4.84970587E-05
   8.88119984        -4.63847937E-05
   8.89319992        -4.42793025E-05
   8.90520000        -4.22397061E-05
   8.91720009        -4.03254962E-05
   8.92920017        -3.85936946E-05
   8.94120026        -3.70961752E-05
   8.95320034        -3.58773141E-05
   8.96520042        -3.49721049E-05
   8.97719955        -3.44048494E-05
   8.98919964        -3.41884224E-05
   9.00119972        -3.43241591E-05
   9.01319981        -3.48023059E-05
   9.02519989        -3.56029668E-05
   9.03719997        -3.66974855E-05
   9.04920006        -3.80501479E-05
   9.06120014        -3.96201322E-05
   9.07320023        -4.13634807E-05
   9.08520031        -4.32350389E-05