 -0.622799993         1.00000002E-24
 -0.610800028         1.00000002E-24
 -0.598800004         1.00000002E-24
 -0.586799979         1.00000002E-24
 -0.574800014        -3.51593200E-21
 -0.562799990        -2.40172796E-20
 -0.550800025        -8.25744356E-20
 -0.538800001        -1.82033437E-19
 -0.526799977        -2.66555850E-19
 -0.514800012        -2.24103003E-19
 -0.502799988        -2.42144345E-20
 -0.490799993        -3.82458588E-20
 -0.478799999        -1.42112979E-18
 -0.466800004        -6.19153539E-18
 -0.454800010        -1.65062948E-17
 -0.442799985        -3.28286247E-17
 -0.430799991        -5.13831163E-17
 -0.418799996        -6.23131434E-17
 -0.406800002        -5.07418727E-17
 -0.394800007        -2.67137710E-18
 -0.382800013         8.42685220E-17
 -0.370799989         1.88594122E-16
 -0.358799994         2.58119579E-16
 -0.346799999         2.16643460E-16
 -0.334800005        -1.07323913E-17
 -0.322800010        -4.56567382E-16
 -0.310799986        -1.06800987E-15
 -0.298799992        -1.68389081E-15
 -0.286799997        -2.05441954E-15
 -0.274800003        -1.91392050E-15
 -0.262800008        -1.09418573E-15
 -0.250800014         3.59646590E-16
 -0.238800004         2.12454350E-15
 -0.226799995         3.63411990E-15
 -0.214800000         4.22783832E-15
 -0.202800006         3.38057922E-15
 -0.190799996         9.31300338E-16
 -0.178800002        -2.78940930E-15
 -0.166800007        -7.00629909E-15
 -0.154799998        -1.07240868E-14
 -0.142800003        -1.30452806E-14
 -0.130799994        -1.34347294E-14
 -0.118799999        -1.17890334E-14
 -0.106799997        -8.25539232E-15
  -9.48000029E-02    -2.88660993E-15
  -8.28000009E-02     4.64932954E-15
  -7.07999989E-02     1.50463341E-14
  -5.88000007E-02     2.88721887E-14
  -4.67999987E-02     4.57097366E-14
  -3.48000005E-02     6.33172510E-14
  -2.28000004E-02     7.73934410E-14
  -1.08000003E-02     8.24782340E-14
   1.20000006E-03     7.41452255E-14
   1.31999999E-02     5.20151041E-14
   2.52000000E-02     2.24661818E-14
   3.72000001E-02    -4.46224209E-16
   4.91999984E-02     2.86042285E-15
   6.12000003E-02     5.18934566E-14
   7.32000023E-02     1.58047552E-13
   8.51999968E-02     3.16600885E-13
   9.71999988E-02     5.02088497E-13
  0.109200001         6.70134412E-13
  0.121200003         7.67201894E-13
  0.133200005         7.47004943E-13
  0.145199999         5.89335275E-13
  0.157199994         3.14905464E-13
  0.169200003        -1.04267003E-14
  0.181199998        -2.86448572E-13
  0.193200007        -4.04341166E-13
  0.205200002        -2.81846568E-13
  0.217199996         1.02379368E-13
  0.229200006         6.87458391E-13
  0.241200000         1.33226915E-12
  0.253199995         1.84491094E-12
  0.265199989         2.03513313E-12
  0.277200013         1.77640715E-12
  0.289200008         1.05852328E-12
  0.301200002         1.13367051E-14
  0.313199997        -1.11338879E-12
  0.325199991        -2.00329575E-12
  0.337199986        -2.37699812E-12
  0.349200010        -2.08089904E-12
  0.361200005        -1.16055429E-12
  0.373199999         1.20599873E-13
  0.385199994         1.32948600E-12
  0.397199988         1.97369833E-12
  0.409200013         1.64877812E-12
  0.421200007         1.82560943E-13
  0.433200002        -2.26735948E-12
  0.445199996        -5.19783045E-12
  0.457199991        -7.84003331E-12
  0.469199985        -9.32215676E-12
  0.481200010        -8.87681595E-12
  0.493200004        -6.03987303E-12
  0.505200028        -7.87333848E-13
  0.517199993         6.42673458E-12
  0.529200017         1.47401882E-11
  0.541199982         2.30381287E-11
  0.553200006         3.01463889E-11
  0.565199971         3.50068342E-11
  0.577199996         3.67880448E-11
  0.589200020         3.49114453E-11
  0.601199985         2.90073417E-11
  0.613200009         1.88453905E-11
  0.625199974         4.29858970E-12
  0.637199998        -1.46084759E-11
  0.649200022        -3.75464070E-11
  0.661199987        -6.36456235E-11
  0.673200011        -9.12444634E-11
  0.685199976        -1.17712964E-10
  0.697200000        -1.39444609E-10
  0.709200025        -1.52078031E-10
  0.721199989        -1.50959134E-10
  0.733200014        -1.31794242E-10
  0.745199978        -9.13963419E-11
  0.757200003        -2.84041402E-11
  0.769200027         5.61388228E-11
  0.781199992         1.58421901E-10
  0.793200016         2.71753287E-10
  0.805199981         3.86686738E-10
  0.817200005         4.91365726E-10
  0.829200029         5.72075165E-10
  0.841199994         6.14023665E-10
  0.853200018         6.02411510E-10
  0.865199983         5.23850630E-10
  0.877200007         3.68162750E-10
  0.889199972         1.30496378E-10
  0.901199996        -1.86423432E-10
  0.913200021        -5.70231251E-10
  0.925199986        -9.97459670E-10
  0.937200010        -1.43312107E-09
  0.949199975        -1.83169746E-09
  0.961199999        -2.13973972E-09
  0.973200023        -2.30004105E-09
  0.985199988        -2.25709451E-09
  0.997200012        -1.96333172E-09
   1.00919998        -1.38549572E-09
   1.02119994        -5.10458953E-10
   1.03320003         6.50153986E-10
   1.04519999         2.05707340E-09
   1.05719995         3.64263508E-09
   1.06920004         5.31246958E-09
   1.08120000         6.94984736E-09
   1.09319997         8.42281089E-09
   1.10520005         9.59414237E-09
   1.11720002         1.03340314E-08
   1.12919998         1.05351017E-08
   1.14119995         1.01291109E-08
   1.15320003         9.10432529E-09
   1.16520000         7.52227614E-09
   1.17719996         5.53246693E-09
   1.18920004         3.38371797E-09
   1.20120001         1.43116308E-09
   1.21319997         1.38477008E-10
   1.22520006         7.57965982E-11
   1.23720002         1.91446725E-09
   1.24919999         6.42065379E-09
   1.26119995         1.44504178E-08
   1.27320004         2.69492109E-08
   1.28520000         4.49587674E-08
   1.29719996         6.96341829E-08
   1.30920005         1.02273425E-07
   1.32120001         1.44360655E-07
   1.33319998         1.97623706E-07
   1.34519994         2.64104784E-07
   1.35720003         3.46242103E-07
   1.36919999         4.46957984E-07
   1.38119996         5.69747442E-07
   1.39320004         7.18760077E-07
   1.40520000         8.98865380E-07
   1.41719997         1.11569216E-06
   1.42920005         1.37563029E-06
   1.44120002         1.68578686E-06
   1.45319998         2.05388437E-06
   1.46519995         2.48810011E-06
   1.47720003         2.99683984E-06
   1.48920000         3.58844432E-06
   1.50119996         4.27084160E-06
   1.51320004         5.05114576E-06
   1.52520001         5.93522464E-06
   1.53719997         6.92724961E-06
   1.54920006         8.02925206E-06
   1.56120002         9.24071264E-06
   1.57319999         1.05582039E-05
   1.58519995         1.19751248E-05
   1.59720004         1.34815436E-05
   1.60920000         1.50641636E-05
   1.62119997         1.67064482E-05
   1.63320005         1.83888988E-05
   1.64520001         2.00894810E-05
   1.65719998         2.17842189E-05
   1.66919994         2.34479121E-05
   1.68120003         2.50549583E-05
   1.69319999         2.65802701E-05
   1.70519996         2.80002059E-05
   1.71720004         2.92935001E-05
   1.72920001         3.04421392E-05
   1.74119997         3.14321296E-05
   1.75320005         3.22541200E-05
   1.76520002         3.29038230E-05
   1.77719998         3.33822427E-05
   1.78919995         3.36956509E-05
   1.80120003         3.38553218E-05
   1.81320000         3.38770114E-05
   1.82519996         3.37802521E-05
   1.83720005         3.35874101E-05
   1.84920001         3.33226526E-05
   1.86119998         3.30107723E-05
   1.87320006         3.26760237E-05
   1.88520002         3.23409695E-05
   1.89719999         3.20254185E-05
   1.90919995         3.17455597E-05
   1.92120004         3.15132711E-05
   1.93320000         3.13356832E-05
   1.94519997         3.12150296E-05
   1.95720005         3.11488184E-05
   1.96920002         3.11302174E-05
   1.98119998         3.11488002E-05
   1.99319994         3.11914482E-05
   2.00519991         3.12434822E-05
   2.01719999         3.12898774E-05
   2.02920008         3.13165438E-05
   2.04119992         3.13115524E-05
   2.05320001         3.12662778E-05
   2.06520009         3.11763106E-05
   2.07719994         3.10421892E-05
   2.08920002         3.08697636E-05
   2.10120010         3.06702786E-05
   2.11319995         3.04600762E-05
   2.12520003         3.02599674E-05
   2.13720012         3.00942775E-05
   2.14919996         2.99896165E-05
   2.16120005         2.99734329E-05
   2.17319989         3.00724387E-05
   2.18519998         3.03109537E-05
   2.19720006         3.07093287E-05
   2.20919991         3.12824959E-05
   2.22119999         3.20387044E-05
   2.23320007         3.29786053E-05
   2.24519992         3.40946681E-05
   2.25720000         3.53710129E-05
   2.26920009         3.67836656E-05
   2.28119993         3.83012630E-05
   2.29320002         3.98861303E-05
   2.30520010         4.14957576E-05
   2.31719995         4.30845503E-05
   2.32920003         4.46058184E-05
   2.34120011         4.60138617E-05
   2.35319996         4.72660831E-05
   2.36520004         4.83250442E-05
   2.37719989         4.91603460E-05
   2.38919997         4.97501751E-05
   2.40120006         5.00826209E-05
   2.41319990         5.01564828E-05
   2.42519999         4.99817033E-05
   2.43720007         4.95793283E-05
   2.44919991         4.89809754E-05
   2.46120000         4.82278847E-05
   2.47320008         4.73695727E-05
   2.48519993         4.64621153E-05
   2.49720001         4.55661611E-05
   2.50920010         4.47447892E-05
   2.52119994         4.40611802E-05
   2.53320003         4.35763104E-05
   2.54520011         4.33467103E-05
   2.55719995         4.34223366E-05
   2.56920004         4.38447096E-05
   2.58119988         4.46452686E-05
   2.59319997         4.58441245E-05
   2.60520005         4.74491681E-05
   2.61719990         4.94555316E-05
   2.62919998         5.18455672E-05
   2.64120007         5.45891417E-05
   2.65319991         5.76443272E-05
   2.66520000         6.09585150E-05
   2.67720008         6.44697502E-05
   2.68919992         6.81083911E-05
   2.70120001         7.17989387E-05
   2.71320009         7.54619832E-05
   2.72519994         7.90162521E-05
   2.73720002         8.23806549E-05
   2.74920011         8.54762402E-05
   2.76119995         8.82280729E-05
   2.77320004         9.05669876E-05
   2.78520012         9.24310152E-05
   2.79719996         9.37667137E-05
   2.80920005         9.45302017E-05
   2.82119989         9.46878863E-05
   2.83319998         9.42169572E-05
   2.84520006         9.31056420E-05
   2.85719991         9.13531840E-05
   2.86919999         8.89696239E-05
   2.88120008         8.59753782E-05
   2.89319992         8.24005401E-05
   2.90520000         7.82841817E-05
   2.91720009         7.36733491E-05
   2.92919993         6.86220519E-05
   2.94120002         6.31901057E-05
   2.95320010         5.74419464E-05
   2.96519995         5.14453204E-05
   2.97720003         4.52700515E-05
   2.98920012         3.89867455E-05
   3.00119996         3.26655172E-05
   3.01320004         2.63748079E-05
   3.02519989         2.01802231E-05
   3.03719997         1.41435112E-05
   3.04920006         8.32163096E-06
   3.06119990         2.76598053E-06
   3.07319999        -2.47822163E-06
   3.08520007        -7.37239088E-06
   3.09719992        -1.18848393E-05
   3.10920000        -1.59909014E-05
   3.12120008        -1.96728597E-05
   3.13319993        -2.29197503E-05
   3.14520001        -2.57270203E-05
   3.15720010        -2.80960958E-05
   3.16919994        -3.00338779E-05
   3.18120003        -3.15521829E-05
   3.19320011        -3.26671579E-05
   3.20519996        -3.33987373E-05
   3.21720004        -3.37700367E-05
   3.22919989        -3.38068821E-05
   3.24119997        -3.35372933E-05
   3.25320005        -3.29910727E-05
   3.26519990        -3.21994121E-05
   3.27719998        -3.11945259E-05
   3.28920007        -3.00092961E-05
   3.30119991        -2.86769064E-05
   3.31320000        -2.72304733E-05
   3.32520008        -2.57026259E-05
   3.33719993        -2.41250655E-05
   3.34920001        -2.25280819E-05
   3.36120009        -2.09400314E-05
   3.37319994        -1.93868073E-05
   3.38520002        -1.78913033E-05
   3.39720011        -1.64729045E-05
   3.40919995        -1.51470313E-05
   3.42120004        -1.39247686E-05
   3.43319988        -1.28126030E-05
   3.44519997        -1.18123162E-05
   3.45720005        -1.09210350E-05
   3.46919990        -1.01314708E-05
   3.48119998        -9.43234863E-06
   3.49320006        -8.80900552E-06
   3.50519991        -8.24415929E-06
   3.51719999        -7.71880605E-06
   3.52920008        -7.21320703E-06
   3.54119992        -6.70792588E-06
   3.55320001        -6.18485637E-06
   3.56520009        -5.62818968E-06
   3.57719994        -5.02526927E-06
   3.58920002        -4.36728760E-06
   3.60120010        -3.64977996E-06
   3.61319995        -2.87289049E-06
   3.62520003        -2.04138905E-06
   3.63720012        -1.16444198E-06
   3.64919996        -2.55147370E-07
   3.66120005         6.70139571E-07
   3.67319989         1.59265153E-06
   3.68519998         2.49217669E-06
   3.69720006         3.34810215E-06
   3.70919991         4.14046826E-06
   3.72119999         4.85099190E-06
   3.73320007         5.46399497E-06
   3.74519992         5.96719701E-06
   3.75720000         6.35232891E-06
   3.76920009         6.61553804E-06
   3.78119993         6.75756428E-06
   3.79320002         6.78368542E-06
   3.80520010         6.70342706E-06
   3.81719995         6.53006509E-06
   3.82920003         6.27994950E-06
   3.84120011         5.97167900E-06
   3.85319996         5.62517880E-06
   3.86520004         5.26071835E-06
   3.87719989         4.89791728E-06
   3.88919997         4.55478857E-06
   3.90120006         4.24685413E-06
   3.91319990         3.98638304E-06
   3.92519999         3.78178220E-06
   3.93720007         3.63718004E-06
   3.94919991         3.55222460E-06
   3.96120000         3.52211600E-06
   3.97320008         3.53788073E-06
   3.98519993         3.58687885E-06
   3.99720001         3.65352753E-06
   4.00920010         3.72021350E-06
   4.02120018         3.76835010E-06
   4.03319979         3.77953052E-06
   4.04519987         3.73672060E-06
   4.05719995         3.62543528E-06
   4.06920004         3.43482611E-06
   4.08120012         3.15862894E-06
   4.09320021         2.79589926E-06
   4.10519981         2.35149969E-06
   4.11719990         1.83628447E-06
   4.12919998         1.26696546E-06
   4.14120007         6.65647008E-07
   4.15320015         5.90462896E-08
   4.16520023        -5.22575476E-07
   4.17719984        -1.04672165E-06
   4.18919992        -1.48014954E-06
   4.20120001        -1.79046822E-06
   4.21320009        -1.94777067E-06
   4.22520018        -1.92621678E-06
   4.23719978        -1.70549583E-06
   4.24919987        -1.27208796E-06
   4.26119995        -6.20261517E-07
   4.27320004         2.47250398E-07
   4.28520012         1.31892978E-06
   4.29720020         2.57453917E-06
   4.30919981         3.98557086E-06
   4.32119989         5.51607081E-06
   4.33319998         7.12380188E-06
   4.34520006         8.76170088E-06
   4.35720015         1.03795674E-05
   4.36920023         1.19259257E-05
   4.38119984         1.33499780E-05
   4.39319992         1.46035736E-05
   4.40520000         1.56431179E-05
   4.41720009         1.64313569E-05
   4.42920017         1.69389587E-05
   4.44119978         1.71457959E-05
   4.45319986         1.70419316E-05
   4.46519995         1.66281934E-05
   4.47720003         1.59163646E-05
   4.48920012         1.49289172E-05
   4.50120020         1.36983563E-05
   4.51319981         1.22661313E-05
   4.52519989         1.06812076E-05
   4.53719997         8.99833503E-06
   4.54920006         7.27607039E-06
   4.56120014         5.57465228E-06
   4.57320023         3.95380175E-06
   4.58519983         2.47053708E-06
   4.59719992         1.17709612E-06
   4.60920000         1.19043669E-07
   4.62120008        -6.66351127E-07
   4.63320017        -1.15140881E-06
   4.64519978        -1.31894785E-06
   4.65719986        -1.16278170E-06
   4.66919994        -6.87787519E-07
   4.68120003         9.04381281E-08
   4.69320011         1.14631837E-06
   4.70520020         2.44537500E-06
   4.71719980         3.94560675E-06
   4.72919989         5.59908995E-06
   4.74119997         7.35374579E-06
   4.75320005         9.15519195E-06
   4.76520014         1.09486409E-05
   4.77720022         1.26807390E-05
   4.78919983         1.43013349E-05
   4.80119991         1.57650757E-05
   4.81320000         1.70328294E-05
   4.82520008         1.80728639E-05
   4.83720016         1.88617450E-05
   4.84919977         1.93849719E-05
   4.86119986         1.96372857E-05
   4.87319994         1.96226811E-05
   4.88520002         1.93541109E-05
   4.89720011         1.88528902E-05
   4.90920019         1.81478354E-05
   4.92119980         1.72741402E-05
   4.93319988         1.62720571E-05
   4.94519997         1.51853974E-05
   4.95720005         1.40599204E-05
   4.96920013         1.29416694E-05
   4.98120022         1.18753060E-05
   4.99319983         1.09025295E-05
   5.00519991         1.00606212E-05
   5.01719999         9.38118865E-06
   5.02920008         8.88916202E-06
   5.04120016         8.60206819E-06
   5.05319977         8.52961330E-06
   5.06519985         8.67360450E-06
   5.07719994         9.02817101E-06
   5.08920002         9.58030887E-06
   5.10120010         1.03106822E-05
   5.11320019         1.11946729E-05
   5.12519979         1.22035817E-05
   5.13719988         1.33059748E-05
   5.14919996         1.44690639E-05
   5.16120005         1.56600872E-05
   5.17320013         1.68475981E-05
   5.18520021         1.80026509E-05
   5.19719982         1.90997816E-05
   5.20919991         2.01178063E-05
   5.22119999         2.10403578E-05
   5.23320007         2.18561745E-05
   5.24520016         2.25591666E-05
   5.25719976         2.31481899E-05
   5.26919985         2.36266333E-05
   5.28119993         2.40018035E-05
   5.29320002         2.42841270E-05
   5.30520010         2.44862822E-05
   5.31720018         2.46222298E-05
   5.32919979         2.47062435E-05
   5.34119987         2.47520038E-05
   5.35319996         2.47717489E-05
   5.36520004         2.47755925E-05
   5.37720013         2.47710013E-05
   5.38920021         2.47624776E-05
   5.40119982         2.47514599E-05
   5.41319990         2.47364605E-05
   5.42519999         2.47134012E-05
   5.43720007         2.46761483E-05
   5.44920015         2.46172149E-05
   5.46120024         2.45285573E-05
   5.47319984         2.44024450E-05
   5.48519993         2.42323149E-05
   5.49720001         2.40135669E-05
   5.50920010         2.37442255E-05
   5.52120018         2.34254294E-05
   5.53319979         2.30617043E-05
   5.54519987         2.26609718E-05
   5.55719995         2.22343206E-05
   5.56920004         2.17955057E-05
   5.58120012         2.13602580E-05
   5.59320021         2.09453756E-05
   5.60519981         2.05677188E-05
   5.61719990         2.02431474E-05
   5.62919998         1.99854658E-05
   5.64120007         1.98054695E-05
   5.65320015         1.97101435E-05
   5.66520023         1.97020890E-05
   5.67719984         1.97791869E-05
   5.68919992         1.99345704E-05
   5.70120001         2.01568873E-05
   5.71320009         2.04308453E-05
   5.72520018         2.07380308E-05
   5.73719978         2.10579583E-05
   5.74919987         2.13692692E-05
   5.76119995         2.16510598E-05
   5.77320004         2.18842142E-05
   5.78520012         2.20526890E-05
   5.79720020         2.21446644E-05
   5.80919981         2.21534810E-05
   5.82119989         2.20782931E-05
   5.83319998         2.19244193E-05
   5.84520006         2.17033048E-05
   5.85720015         2.14321553E-05
   5.86920023         2.11331662E-05
   5.88119984         2.08324636E-05
   5.89319992         2.05587185E-05
   5.90520000         2.03415693E-05
   5.91720009         2.02098781E-05
   5.92920017         2.01899165E-05
   5.94119978         2.03036234E-05
   5.95319986         2.05669767E-05
   5.96519995         2.09886202E-05
   5.97720003         2.15688233E-05
   5.98920012         2.22988328E-05
   6.00120020         2.31606973E-05
   6.01319981         2.41275702E-05
   6.02519989         2.51644706E-05
   6.03719997         2.62295362E-05
   6.04920006         2.72756606E-05
   6.06120014         2.82524707E-05
   6.07320023         2.91085544E-05
   6.08519983         2.97938586E-05
   6.09719992         3.02621029E-05
   6.10920000         3.04731584E-05
   6.12120008         3.03952038E-05
   6.13320017         3.00066131E-05
   6.14519978         2.92974419E-05
   6.15719986         2.82704259E-05
   6.16919994         2.69414686E-05
   6.18120003         2.53395683E-05
   6.19320011         2.35061834E-05
   6.20520020         2.14940683E-05
   6.21719980         1.93656106E-05
   6.22919989         1.71907377E-05
   6.24119997         1.50444894E-05
   6.25320005         1.30043009E-05
   6.26520014         1.11471536E-05
   6.27720022         9.54665938E-06
   6.28919983         8.27022177E-06
   6.30119991         7.37637083E-06
   6.31320000         6.91241121E-06
   6.32520008         6.91246805E-06
   6.33720016         7.39602274E-06
   6.34919977         8.36700656E-06
   6.36119986         9.81347239E-06
   6.37319994         1.17078816E-05
   6.38520002         1.40079637E-05
   6.39720011         1.66581358E-05
   6.40920019         1.95914054E-05
   6.42119980         2.27316941E-05
   6.43319988         2.59964763E-05
   6.44519997         2.92996519E-05
   6.45720005         3.25545006E-05
   6.46920013         3.56766432E-05
   6.48120022         3.85868225E-05
   6.49319983         4.12134468E-05
   6.50519991         4.34947469E-05
   6.51719999         4.53805042E-05
   6.52920008         4.68332437E-05
   6.54120016         4.78288930E-05
   6.55319977         4.83569092E-05
   6.56519985         4.84198645E-05
   6.57719994         4.80325798E-05
   6.58920002         4.72208267E-05
   6.60120010         4.60197225E-05
   6.61320019         4.44718498E-05
   6.62519979         4.26252700E-05
   6.63719988         4.05314640E-05
   6.64919996         3.82433500E-05
   6.66120005         3.58133766E-05
   6.67320013         3.32919226E-05
   6.68520021         3.07258852E-05
   6.69719982         2.81576104E-05
   6.70919991         2.56241492E-05
   6.72119999         2.31568483E-05
   6.73320007         2.07812209E-05
   6.74520016         1.85171193E-05
   6.75719976         1.63791174E-05
   6.76919985         1.43770731E-05
   6.78119993         1.25167944E-05
   6.79320002         1.08007762E-05
   6.80520010         9.22892650E-06
   6.81720018         7.79924812E-06
   6.82919979         6.50843731E-06
   6.84119987         5.35236632E-06
   6.85319996         4.32644583E-06
   6.86520004         3.42586077E-06
   6.87720013         2.64568689E-06
   6.88920021         1.98091357E-06
   6.90119982         1.42640386E-06
   6.91319990         9.76798447E-07
   6.92519999         6.26421979E-07
   6.93720007         3.69193799E-07
   6.94920015         1.98582782E-07
   6.96120024         1.07622085E-07
   6.97319984         8.89909089E-08
   6.98519993         1.35177345E-07
   6.99720001         2.38701347E-07
   7.00920010         3.92398960E-07
   7.02120018         5.89734896E-07
   7.03319979         8.25112579E-07
   7.04519987         1.09415089E-06
   7.05719995         1.39389238E-06
   7.06920004         1.72291618E-06
   7.08120012         2.08132315E-06
   7.09320021         2.47059984E-06
   7.10519981         2.89334366E-06
   7.11719990         3.35287086E-06
   7.12919998         3.85271960E-06
   7.14120007         4.39608220E-06
   7.15320015         4.98520330E-06
   7.16520023         5.62078321E-06
   7.17719984         6.30142995E-06
   7.18919992         7.02319812E-06
   7.20120001         7.77925470E-06
   7.21320009         8.55970575E-06
   7.22520018         9.35159733E-06
   7.23719978         1.01391124E-05
   7.24919987         1.09039538E-05
   7.26119995         1.16259043E-05
   7.27320004         1.22835390E-05
   7.28520012         1.28550537E-05
   7.29720020         1.33191561E-05
   7.30919981         1.36559911E-05
   7.32119989         1.38480364E-05
   7.33319998         1.38809201E-05
   7.34520006         1.37441320E-05
   7.35720015         1.34315787E-05
   7.36920023         1.29419732E-05
   7.38119984         1.22790389E-05
   7.39319992         1.14515260E-05
   7.40520000         1.04730607E-05
   7.41720009         9.36183096E-06
   7.42920017         8.14014584E-06
   7.44119978         6.83387634E-06
   7.45319986         5.47182299E-06
   7.46519995         4.08501955E-06
   7.47720003         2.70600208E-06
   7.48920012         1.36806443E-06
   7.50120020         1.04510363E-07
   7.51319981        -1.05207585E-06
   7.52519989        -2.07053222E-06
   7.53719997        -2.92177970E-06
   7.54920006        -3.57945078E-06
   7.56120014        -4.02046544E-06
   7.57320023        -4.22557696E-06
   7.58519983        -4.17988031E-06
   7.59719992        -3.87328600E-06
   7.60920000        -3.30096736E-06
   7.62120008        -2.46376021E-06
   7.63320017        -1.36850542E-06
   7.64519978        -2.83032922E-08
   7.65719986         1.53735346E-06
   7.66919994         3.30259854E-06
   7.68120003         5.23540075E-06
   7.69320011         7.29798103E-06
   7.70520020         9.44745625E-06
   7.71719980         1.16367046E-05
   7.72919989         1.38154510E-05
   7.74119997         1.59315441E-05
   7.75320005         1.79323888E-05
   7.76520014         1.97665031E-05
   7.77720022         2.13851363E-05
   7.78919983         2.27439123E-05
   7.80119991         2.38044031E-05
   7.81320000         2.45355914E-05
   7.82520008         2.49151399E-05
   7.83720016         2.49303903E-05
   7.84919977         2.45790488E-05
   7.86119986         2.38694993E-05
   7.87319994         2.28207282E-05
   7.88520002         2.14618631E-05
   7.89720011         1.98313137E-05
   7.90920019         1.79755880E-05
   7.92119980         1.59478241E-05
   7.93319988         1.38060914E-05
   7.94519997         1.16115398E-05
   7.95720005         9.42647239E-06
   7.96920013         7.31239470E-06
   7.98120022         5.32812510E-06
   7.99319983         3.52803454E-06
   8.00520039         1.96045676E-06
   8.01720047         6.66337712E-07
   8.02919960        -3.21836978E-07
   8.04119968        -9.80811819E-07
   8.05319977        -1.29701277E-06
   8.06519985        -1.26667260E-06
   8.07719994        -8.95649976E-07
   8.08920002        -1.98956869E-07
   8.10120010         7.99969428E-07
   8.11320019         2.07022390E-06
   8.12520027         3.57458316E-06
   8.13720036         5.27080692E-06
   8.14920044         7.11305665E-06
   8.16119957         9.05338584E-06
   8.17319965         1.10432620E-05
   8.18519974         1.30350672E-05
   8.19719982         1.49835250E-05
   8.20919991         1.68470178E-05
   8.22119999         1.85887275E-05
   8.23320007         2.01775911E-05
   8.24520016         2.15890068E-05
   8.25720024         2.28052959E-05
   8.26920033         2.38158827E-05
   8.28120041         2.46172385E-05
   8.29319954         2.52125283E-05
   8.30519962         2.56110452E-05
   8.31719971         2.58274249E-05
   8.32919979         2.58806740E-05
   8.34119987         2.57930897E-05
   8.35319996         2.55890900E-05
   8.36520004         2.52940208E-05
   8.37720013         2.49330133E-05
   8.38920021         2.45299034E-05
   8.40120029         2.41063244E-05
   8.41320038         2.36809301E-05
   8.42520046         2.32688617E-05
   8.43719959         2.28814060E-05
   8.44919968         2.25258791E-05
   8.46119976         2.22057442E-05
   8.47319984         2.19209142E-05
   8.48519993         2.16682420E-05
   8.49720001         2.14421580E-05
   8.50920010         2.12353880E-05
   8.52120018         2.10397520E-05
   8.53320026         2.08469228E-05
   8.54520035         2.06491950E-05
   8.55720043         2.04400985E-05
   8.56919956         2.02149495E-05
   8.58119965         1.99711976E-05
   8.59319973         1.97086410E-05
   8.60519981         1.94294498E-05
   8.61719990         1.91380368E-05
   8.62919998         1.88407630E-05
   8.64120007         1.85455137E-05
   8.65320015         1.82611675E-05
   8.66520023         1.79969975E-05
   8.67720032         1.77620550E-05
   8.68920040         1.75645455E-05
   8.70119953         1.74112884E-05
   8.71319962         1.73072476E-05
   8.72519970         1.72552100E-05
   8.73719978         1.72555992E-05
   8.74919987         1.73064564E-05
   8.76119995         1.74035740E-05
   8.77320004         1.75407840E-05
   8.78520012         1.77103648E-05
   8.79720020         1.79035487E-05
   8.80920029         1.81110918E-05
   8.82120037         1.83238662E-05
   8.83320045         1.85334502E-05
   8.84519958         1.87326514E-05
   8.85719967         1.89159346E-05
   8.86919975         1.90797364E-05
   8.88119984         1.92226216E-05
   8.89319992         1.93452797E-05
   8.90520000         1.94503755E-05
   8.91720009         1.95422472E-05
   8.92920017         1.96265028E-05
   8.94120026         1.97095360E-05
   8.95320034         1.97979862E-05
   8.96520042         1.98982270E-05
   8.97719955         2.00158593E-05
   8.98919964         2.01552939E-05
   9.00119972         2.03194122E-05
   9.01319981         2.05093475E-05
   9.02519989         2.07243938E-05
   9.03719997         2.09620412E-05
   9.04920006         2.12181312E-05
   9.06120014         2.14871452E-05
   9.07320023         2.17625475E-05
   9.08520031         2.20372149E-05