 -0.622799993       0.00000000    
 -0.610800028       0.00000000    
 -0.598800004       0.00000000    
 -0.586799979       0.00000000    
 -0.574800014      -0.00000000    
 -0.562799990       4.55580583E-23
 -0.550800025       3.45183873E-22
 -0.538800001       1.23014227E-21
 -0.526799977       2.35070089E-21
 -0.514800012       5.66912201E-22
 -0.502799988      -1.29477693E-20
 -0.490799993      -5.41312777E-20
 -0.478799999      -1.42884904E-19
 -0.466800004      -2.94208860E-19
 -0.454800010      -5.07425261E-19
 -0.442799985      -7.62207850E-19
 -0.430799991      -1.02986406E-18
 -0.418799996      -1.29965656E-18
 -0.406800002      -1.60630431E-18
 -0.394800007      -2.03687973E-18
 -0.382800013      -2.70487605E-18
 -0.370799989      -3.70775066E-18
 -0.358799994      -5.11481259E-18
 -0.346799999      -7.03416857E-18
 -0.334800005      -9.75697914E-18
 -0.322800010      -1.38857982E-17
 -0.310799986      -2.02811071E-17
 -0.298799992      -2.96922304E-17
 -0.286799997      -4.21287652E-17
 -0.274800003      -5.63258183E-17
 -0.262800008      -6.98807475E-17
 -0.250800014      -8.05430262E-17
 -0.238800004      -8.85664598E-17
 -0.226799995      -9.91012600E-17
 -0.214800000      -1.22788292E-16
 -0.202800006      -1.72718819E-16
 -0.190799996      -2.57284246E-16
 -0.178800002      -3.71070285E-16
 -0.166800007      -4.88802650E-16
 -0.154799998      -5.68614541E-16
 -0.142800003      -5.68753401E-16
 -0.130799994      -4.75674116E-16
 -0.118799999      -3.32884928E-16
 -0.106799997      -2.52940502E-16
  -9.48000029E-02  -3.94758620E-16
  -8.28000009E-02  -8.98744203E-16
  -7.07999989E-02  -1.79252098E-15
  -5.88000007E-02  -2.90389237E-15
  -4.67999987E-02  -3.83340854E-15
  -3.48000005E-02  -4.03407446E-15
  -2.28000004E-02  -3.01326381E-15
  -1.08000003E-02  -6.16152995E-16
   1.20000006E-03   2.71080316E-15
   1.31999999E-02   5.81547411E-15
   2.52000000E-02   7.02038271E-15
   3.72000001E-02   4.63479192E-15
   4.91999984E-02  -2.28672235E-15
   6.12000003E-02  -1.31702527E-14
   7.32000023E-02  -2.54633452E-14
   8.51999968E-02  -3.48143111E-14
   9.71999988E-02  -3.60687906E-14
  0.109200001      -2.49945853E-14
  0.121200003      -3.24691737E-16
  0.133200005       3.45547023E-14
  0.145199999       7.10336399E-14
  0.157199994       9.64198543E-14
  0.169200003       9.69555992E-14
  0.181199998       6.22613059E-14
  0.193200007      -9.86975834E-15
  0.205200002      -1.09838022E-13
  0.217199996      -2.15333299E-13
  0.229200006      -2.94292151E-13
  0.241200000      -3.11937108E-13
  0.253199995      -2.40891454E-13
  0.265199989      -7.21150705E-14
  0.277200013       1.76493030E-13
  0.289200008       4.57163062E-13
  0.301200002       6.97548247E-13
  0.313199997       8.15008380E-13
  0.325199991       7.38111395E-13
  0.337199986       4.30868476E-13
  0.349200010      -8.68744299E-14
  0.361200005      -7.30083854E-13
  0.373199999      -1.35595278E-12
  0.385199994      -1.79013033E-12
  0.397199988      -1.86853376E-12
  0.409200013      -1.48592239E-12
  0.421200007      -6.38297737E-13
  0.433200002       5.54757791E-13
  0.445199996       1.85842075E-12
  0.457199991       2.96497549E-12
  0.469199985       3.56378729E-12
  0.481200010       3.42315889E-12
  0.493200004       2.46242089E-12
  0.505200028       7.92646656E-13
  0.517199993      -1.28887948E-12
  0.529200017      -3.35331134E-12
  0.541199982      -4.93298024E-12
  0.553200006      -5.62979047E-12
  0.565199971      -5.21170607E-12
  0.577199996      -3.67278950E-12
  0.589200020      -1.24247910E-12
  0.601199985       1.65624166E-12
  0.613200009       4.48715587E-12
  0.625199974       6.69924533E-12
  0.637199998       7.82231138E-12
  0.649200022       7.54446072E-12
  0.661199987       5.76434907E-12
  0.673200011       2.61756979E-12
  0.685199976      -1.52154298E-12
  0.697200000      -6.06434217E-12
  0.709200025      -1.02646476E-11
  0.721199989      -1.33152768E-11
  0.733200014      -1.44858691E-11
  0.745199978      -1.32900314E-11
  0.757200003      -9.65292690E-12
  0.769200027      -4.03792928E-12
  0.781199992       2.50892536E-12
  0.793200016       8.42087598E-12
  0.805199981       1.17714154E-11
  0.817200005       1.04917915E-11
  0.829200029       2.57946594E-12
  0.841199994      -1.37659033E-11
  0.853200018      -4.01074417E-11
  0.865199983      -7.78058104E-11
  0.877200007      -1.28027103E-10
  0.889199972      -1.91580266E-10
  0.901199996      -2.68440770E-10
  0.913200021      -3.56869367E-10
  0.925199986      -4.52130833E-10
  0.937200010      -5.44926604E-10
  0.949199975      -6.19732710E-10
  0.961199999      -6.53235299E-10
  0.973200023      -6.12958628E-10
  0.985199988      -4.55974980E-10
  0.997200012      -1.27311148E-10
   1.00919998       4.42640591E-10
   1.02119994       1.34270106E-09
   1.03320003       2.68869527E-09
   1.04519999       4.63591388E-09
   1.05719995       7.39784323E-09
   1.06920004       1.12729639E-08
   1.08120000       1.66816552E-08
   1.09319997       2.42154847E-08
   1.10520005       3.47013867E-08
   1.11720002       4.92834431E-08
   1.12919998       6.95248730E-08
   1.14119995       9.75325776E-08
   1.15320003       1.36105768E-07
   1.16520000       1.88908771E-07
   1.17719996       2.60667548E-07
   1.18920004       3.57385829E-07
   1.20120001       4.86576425E-07
   1.21319997       6.57499527E-07
   1.22520006       8.81398648E-07
   1.23720002       1.17172101E-06
   1.24919999       1.54430791E-06
   1.26119995       2.01754006E-06
   1.27320004       2.61241507E-06
   1.28520000       3.35254322E-06
   1.29719996       4.26403903E-06
   1.30920005       5.37528695E-06
   1.32120001       6.71657517E-06
   1.33319998       8.31957095E-06
   1.34519994       1.02166387E-05
   1.35720003       1.24400040E-05
   1.36919999       1.50207579E-05
   1.38119996       1.79877261E-05
   1.39320004       2.13662370E-05
   1.40520000       2.51768015E-05
   1.41719997       2.94337824E-05
   1.42920005       3.41440718E-05
   1.44120002       3.93058690E-05
   1.45319998       4.49076069E-05
   1.46519995       5.09270976E-05
   1.47720003       5.73309662E-05
   1.48920000       6.40744183E-05
   1.50119996       7.11014145E-05
   1.51320004       7.83452342E-05
   1.52520001       8.57295090E-05
   1.53719997       9.31697068E-05
   1.54920006       1.00574944E-04
   1.56120002       1.07850268E-04
   1.57319999       1.14899143E-04
   1.58519995       1.21626181E-04
   1.59720004       1.27940031E-04
   1.60920000       1.33756126E-04
   1.62119997       1.38999487E-04
   1.63320005       1.43607118E-04
   1.64520001       1.47530140E-04
   1.65719998       1.50735505E-04
   1.66919994       1.53207046E-04
   1.68120003       1.54946116E-04
   1.69319999       1.55971502E-04
   1.70519996       1.56318740E-04
   1.71720004       1.56038950E-04
   1.72920001       1.55196933E-04
   1.74119997       1.53869012E-04
   1.75320005       1.52140346E-04
   1.76520002       1.50102147E-04
   1.77719998       1.47848594E-04
   1.78919995       1.45473896E-04
   1.80120003       1.43069352E-04
   1.81320000       1.40720760E-04
   1.82519996       1.38505944E-04
   1.83720005       1.36492978E-04
   1.84920001       1.34738584E-04
   1.86119998       1.33287220E-04
   1.87320006       1.32170608E-04
   1.88520002       1.31407840E-04
   1.89719999       1.31005756E-04
   1.90919995       1.30960034E-04
   1.92120004       1.31256413E-04
   1.93320000       1.31872293E-04
   1.94519997       1.32778499E-04
   1.95720005       1.33941212E-04
   1.96920002       1.35323862E-04
   1.98119998       1.36888935E-04
   1.99319994       1.38599760E-04
   2.00519991       1.40422038E-04
   2.01719999       1.42324992E-04
   2.02920008       1.44282472E-04
   2.04119992       1.46273567E-04
   2.05320001       1.48282954E-04
   2.06520009       1.50300999E-04
   2.07719994       1.52323410E-04
   2.08920002       1.54350942E-04
   2.10120010       1.56388487E-04
   2.11319995       1.58444353E-04
   2.12520003       1.60529191E-04
   2.13720012       1.62655037E-04
   2.14919996       1.64834230E-04
   2.16120005       1.67078513E-04
   2.17319989       1.69398059E-04
   2.18519998       1.71800799E-04
   2.19720006       1.74291825E-04
   2.20919991       1.76873131E-04
   2.22119999       1.79543335E-04
   2.23320007       1.82297837E-04
   2.24519992       1.85129116E-04
   2.25720000       1.88027116E-04
   2.26920009       1.90979990E-04
   2.28119993       1.93974905E-04
   2.29320002       1.96998910E-04
   2.30520010       2.00039969E-04
   2.31719995       2.03087839E-04
   2.32920003       2.06135068E-04
   2.34120011       2.09177771E-04
   2.35319996       2.12216386E-04
   2.36520004       2.15255990E-04
   2.37719989       2.18306683E-04
   2.38919997       2.21383438E-04
   2.40120006       2.24505857E-04
   2.41319990       2.27697441E-04
   2.42519999       2.30984719E-04
   2.43720007       2.34396080E-04
   2.44919991       2.37960252E-04
   2.46120000       2.41704649E-04
   2.47320008       2.45653617E-04
   2.48519993       2.49826408E-04
   2.49720001       2.54235347E-04
   2.50920010       2.58883840E-04
   2.52119994       2.63764785E-04
   2.53320003       2.68858945E-04
   2.54520011       2.74133607E-04
   2.55719995       2.79541855E-04
   2.56920004       2.85021757E-04
   2.58119988       2.90496653E-04
   2.59319997       2.95875187E-04
   2.60520005       3.01052351E-04
   2.61719990       3.05910769E-04
   2.62919998       3.10322735E-04
   2.64120007       3.14152305E-04
   2.65319991       3.17258207E-04
   2.66520000       3.19496961E-04
   2.67720008       3.20726278E-04
   2.68919992       3.20808904E-04
   2.70120001       3.19616316E-04
   2.71320009       3.17032798E-04
   2.72519994       3.12959164E-04
   2.73720002       3.07316484E-04
   2.74920011       3.00049403E-04
   2.76119995       2.91129254E-04
   2.77320004       2.80556385E-04
   2.78520012       2.68362113E-04
   2.79719996       2.54609797E-04
   2.80920005       2.39395275E-04
   2.82119989       2.22846124E-04
   2.83319998       2.05120537E-04
   2.84520006       1.86404912E-04
   2.85719991       1.66910759E-04
   2.86919999       1.46870880E-04
   2.88120008       1.26534695E-04
   2.89319992       1.06163207E-04
   2.90520000       8.60233413E-05
   2.91720009       6.63821338E-05
   2.92919993       4.75007328E-05
   2.94120002       2.96285416E-05
   2.95320010       1.29975406E-05
   2.96519995      -2.18295281E-06
   2.97720003      -1.57310005E-05
   2.98920012      -2.74960566E-05
   3.00119996      -3.73622061E-05
   3.01320004      -4.52505265E-05
   3.02519989      -5.11204889E-05
   3.03719997      -5.49704491E-05
   3.04920006      -5.68371470E-05
   3.06119990      -5.67942843E-05
   3.07319999      -5.49502183E-05
   3.08520007      -5.14448220E-05
   3.09719992      -4.64456607E-05
   3.10920000      -4.01435100E-05
   3.12120008      -3.27473972E-05
   3.13319993      -2.44792627E-05
   3.14520001      -1.55683883E-05
   3.15720010      -6.24571976E-06
   3.16919994       3.26177201E-06
   3.18120003       1.27365483E-05
   3.19320011       2.19756021E-05
   3.20519996       3.07951195E-05
   3.21720004       3.90345376E-05
   3.22919989       4.65598423E-05
   3.24119997       5.32660815E-05
   3.25320005       5.90789459E-05
   3.26519990       6.39553909E-05
   3.27719998       6.78833094E-05
   3.28920007       7.08801672E-05
   3.30119991       7.29907770E-05
   3.31320000       7.42841366E-05
   3.32520008       7.48495877E-05
   3.33719993       7.47923696E-05
   3.34920001       7.42287521E-05
   3.36120009       7.32809203E-05
   3.37319994       7.20718745E-05
   3.38520002       7.07205108E-05
   3.39720011       6.93370966E-05
   3.40919995       6.80193261E-05
   3.42120004       6.68491266E-05
   3.43319988       6.58902500E-05
   3.44519997       6.51868904E-05
   3.45720005       6.47631896E-05
   3.46919990       6.46236513E-05
   3.48119998       6.47545385E-05
   3.49320006       6.51258524E-05
   3.50519991       6.56941193E-05
   3.51719999       6.64055187E-05
   3.52920008       6.71993184E-05
   3.54119992       6.80114099E-05
   3.55320001       6.87776701E-05
   3.56520009       6.94371629E-05
   3.57719994       6.99348311E-05
   3.58920002       7.02237594E-05
   3.60120010       7.02668403E-05
   3.61319995       7.00378368E-05
   3.62520003       6.95218478E-05
   3.63720012       6.87152351E-05
   3.64919996       6.76250638E-05
   3.66120005       6.62681778E-05
   3.67319989       6.46699700E-05
   3.68519998       6.28629350E-05
   3.69720006       6.08851951E-05
   3.70919991       5.87789727E-05
   3.72119999       5.65891751E-05
   3.73320007       5.43621027E-05
   3.74519992       5.21443035E-05
   3.75720000       4.99815942E-05
   3.76920009       4.79182054E-05
   3.78119993       4.59960720E-05
   3.79320002       4.42541859E-05
   3.80520010       4.27280029E-05
   3.81719995       4.14488277E-05
   3.82920003       4.04432431E-05
   3.84120011       3.97324620E-05
   3.85319996       3.93316914E-05
   3.86520004       3.92494730E-05
   3.87719989       3.94870694E-05
   3.88919997       4.00378594E-05
   3.90120006       4.08869091E-05
   3.91319990       4.20106735E-05
   3.92519999       4.33769274E-05
   3.93720007       4.49449835E-05
   3.94919991       4.66662314E-05
   3.96120000       4.84850461E-05
   3.97320008       5.03400079E-05
   3.98519993       5.21655238E-05
   3.99720001       5.38937093E-05
   4.00920010       5.54565231E-05
   4.02120018       5.67880561E-05
   4.03319979       5.78269028E-05
   4.04519987       5.85185226E-05
   4.05719995       5.88174662E-05
   4.06920004       5.86893766E-05
   4.08120012       5.81126806E-05
   4.09320021       5.70798729E-05
   4.10519981       5.55983461E-05
   4.11719990       5.36906482E-05
   4.12919998       5.13942286E-05
   4.14120007       4.87605575E-05
   4.15320015       4.58537579E-05
   4.16520023       4.27487139E-05
   4.17719984       3.95287170E-05
   4.18919992       3.62828068E-05
   4.20120001       3.31028750E-05
   4.21320009       3.00805787E-05
   4.22520018       2.73043042E-05
   4.23719978       2.48561701E-05
   4.24919987       2.28092740E-05
   4.26119995       2.12252435E-05
   4.27320004       2.01521798E-05
   4.28520012       1.96231340E-05
   4.29720020       1.96550700E-05
   4.30919981       2.02484644E-05
   4.32119989       2.13874482E-05
   4.33319998       2.30405421E-05
   4.34520006       2.51618985E-05
   4.35720015       2.76930077E-05
   4.36920023       3.05648064E-05
   4.38119984       3.37000565E-05
   4.39319992       3.70159432E-05
   4.40520000       4.04267703E-05
   4.41720009       4.38466668E-05
   4.42920017       4.71922067E-05
   4.44119978       5.03848314E-05
   4.45319986       5.33530583E-05
   4.46519995       5.60343615E-05
   4.47720003       5.83766923E-05
   4.48920012       6.03396584E-05
   4.50120020       6.18952254E-05
   4.51319981       6.30281575E-05
   4.52519989       6.37359844E-05
   4.53719997       6.40286307E-05
   4.54920006       6.39278223E-05
   4.56120014       6.34660901E-05
   4.57320023       6.26856126E-05
   4.58519983       6.16368052E-05
   4.59719992       6.03767367E-05
   4.60920000       5.89674200E-05
   4.62120008       5.74739242E-05
   4.63320017       5.59625296E-05
   4.64519978       5.44987743E-05
   4.65719986       5.31455298E-05
   4.66919994       5.19611494E-05
   4.68120003       5.09977399E-05
   4.69320011       5.02995135E-05
   4.70520020       4.99014277E-05
   4.71719980       4.98280569E-05
   4.72919989       5.00927381E-05
   4.74119997       5.06971301E-05
   4.75320005       5.16311557E-05
   4.76520014       5.28733544E-05
   4.77720022       5.43917013E-05
   4.78919983       5.61448251E-05
   4.80119991       5.80836422E-05
   4.81320000       6.01532811E-05
   4.82520008       6.22952721E-05
   4.83720016       6.44499160E-05
   4.84919977       6.65586849E-05
   4.86119986       6.85665364E-05
   4.87319994       7.04240738E-05
   4.88520002       7.20894241E-05
   4.89720011       7.35297144E-05
   4.90920019       7.47221129E-05
   4.92119980       7.56543523E-05
   4.93319988       7.63246862E-05
   4.94519997       7.67413439E-05
   4.95720005       7.69214821E-05
   4.96920013       7.68896571E-05
   4.98120022       7.66759622E-05
   4.99319983       7.63138814E-05
   5.00519991       7.58380920E-05
   5.01719999       7.52821798E-05
   5.02920008       7.46764490E-05
   5.04120016       7.40460819E-05
   5.05319977       7.34095665E-05
   5.06519985       7.27775841E-05
   5.07719994       7.21522956E-05
   5.08920002       7.15273272E-05
   5.10120010       7.08881489E-05
   5.11320019       7.02130128E-05
   5.12519979       6.94743794E-05
   5.13719988       6.86406638E-05
   5.14919996       6.76783166E-05
   5.16120005       6.65541011E-05
   5.17320013       6.52374001E-05
   5.18520021       6.37024496E-05
   5.19719982       6.19304119E-05
   5.20919991       5.99111117E-05
   5.22119999       5.76444472E-05
   5.23320007       5.51412413E-05
   5.24520016       5.24235911E-05
   5.25719976       4.95246786E-05
   5.26919985       4.64880286E-05
   5.28119993       4.33661990E-05
   5.29320002       4.02191181E-05
   5.30520010       3.71119240E-05
   5.31720018       3.41126361E-05
   5.32919979       3.12895791E-05
   5.34119987       2.87088169E-05
   5.35319996       2.64316259E-05
   5.36520004       2.45121446E-05
   5.37720013       2.29953312E-05
   5.38920021       2.19152880E-05
   5.40119982       2.12940322E-05
   5.41319990       2.11407569E-05
   5.42519999       2.14516476E-05
   5.43720007       2.22101826E-05
   5.44920015       2.33879655E-05
   5.46120024       2.49459736E-05
   5.47319984       2.68362182E-05
   5.48519993       2.90036660E-05
   5.49720001       3.13884193E-05
   5.50920010       3.39279650E-05
   5.52120018       3.65594788E-05
   5.53319979       3.92220318E-05
   5.54519987       4.18586715E-05
   5.55719995       4.44182042E-05
   5.56920004       4.68567159E-05
   5.58120012       4.91386891E-05
   5.59320021       5.12377010E-05
   5.60519981       5.31367223E-05
   5.61719990       5.48279459E-05
   5.62919998       5.63122339E-05
   5.64120007       5.75982085E-05
   5.65320015       5.87010254E-05
   5.66520023       5.96409300E-05
   5.67719984       6.04416091E-05
   5.68919992       6.11285432E-05
   5.70120001       6.17273181E-05
   5.71320009       6.22620282E-05
   5.72520018       6.27538975E-05
   5.73719978       6.32200972E-05
   5.74919987       6.36728582E-05
   5.76119995       6.41189617E-05
   5.77320004       6.45594919E-05
   5.78520012       6.49900176E-05
   5.79720020       6.54010291E-05
   5.80919981       6.57787095E-05
   5.82119989       6.61059457E-05
   5.83319998       6.63634855E-05
   5.84520006       6.65312546E-05
   5.85720015       6.65897023E-05
   5.86920023       6.65211628E-05
   5.88119984       6.63110914E-05
   5.89319992       6.59492216E-05
   5.90520000       6.54305040E-05
   5.91720009       6.47558045E-05
   5.92920017       6.39323116E-05
   5.94119978       6.29737333E-05
   5.95319986       6.19000930E-05
   5.96519995       6.07372749E-05
   5.97720003       5.95162855E-05
   5.98920012       5.82722641E-05
   6.00120020       5.70432567E-05
   6.01319981       5.58688043E-05
   6.02519989       5.47883938E-05
   6.03719997       5.38398235E-05
   6.04920006       5.30575526E-05
   6.06120014       5.24710777E-05
   6.07320023       5.21034453E-05
   6.08519983       5.19699388E-05
   6.09719992       5.20770918E-05
   6.10920000       5.24219686E-05
   6.12120008       5.29919052E-05
   6.13320017       5.37646520E-05
   6.14519978       5.47089803E-05
   6.15719986       5.57857820E-05
   6.16919994       5.69495496E-05
   6.18120003       5.81502936E-05
   6.19320011       5.93357399E-05
   6.20520020       6.04537454E-05
   6.21719980       6.14548335E-05
   6.22919989       6.22946754E-05
   6.24119997       6.29364149E-05
   6.25320005       6.33527379E-05
   6.26520014       6.35274628E-05
   6.27720022       6.34566022E-05
   6.28919983       6.31488729E-05
   6.30119991       6.26253895E-05
   6.31320000       6.19188722E-05
   6.32520008       6.10720672E-05
   6.33720016       6.01355932E-05
   6.34919977       5.91654025E-05
   6.36119986       5.82198190E-05
   6.37319994       5.73564430E-05
   6.38520002       5.66290837E-05
   6.39720011       5.60848821E-05
   6.40920019       5.57618077E-05
   6.42119980       5.56866689E-05
   6.43319988       5.58737556E-05
   6.44519997       5.63242174E-05
   6.45720005       5.70261582E-05
   6.46920013       5.79554326E-05
   6.48120022       5.90771451E-05
   6.49319983       6.03476619E-05
   6.50519991       6.17170663E-05
   6.51719999       6.31318253E-05
   6.52920008       6.45376422E-05
   6.54120016       6.58821591E-05
   6.55319977       6.71174275E-05
   6.56519985       6.82020691E-05
   6.57719994       6.91029054E-05
   6.58920002       6.97960641E-05
   6.60120010       7.02675170E-05
   6.61320019       7.05130224E-05
   6.62519979       7.05376151E-05
   6.63719988       7.03545811E-05
   6.64919996       6.99841476E-05
   6.66120005       6.94519767E-05
   6.67320013       6.87875217E-05
   6.68520021       6.80224330E-05
   6.69719982       6.71890157E-05
   6.70919991       6.63189494E-05
   6.72119999       6.54422038E-05
   6.73320007       6.45862019E-05
   6.74520016       6.37752528E-05
   6.75719976       6.30302311E-05
   6.76919985       6.23684318E-05
   6.78119993       6.18035483E-05
   6.79320002       6.13458251E-05
   6.80520010       6.10021561E-05
   6.81720018       6.07762158E-05
   6.82919979       6.06686008E-05
   6.84119987       6.06768954E-05
   6.85319996       6.07957154E-05
   6.86520004       6.10167408E-05
   6.87720013       6.13287484E-05
   6.88920021       6.17176993E-05
   6.90119982       6.21668441E-05
   6.91319990       6.26569890E-05
   6.92519999       6.31667717E-05
   6.93720007       6.36731929E-05
   6.94920015       6.41522274E-05
   6.96120024       6.45795008E-05
   6.97319984       6.49311914E-05
   6.98519993       6.51849405E-05
   6.99720001       6.53207535E-05
   7.00920010       6.53219831E-05
   7.02120018       6.51761293E-05
   7.03319979       6.48755595E-05
   7.04519987       6.44180182E-05
   7.05719995       6.38069760E-05
   7.06920004       6.30516297E-05
   7.08120012       6.21668587E-05
   7.09320021       6.11728246E-05
   7.10519981       6.00944295E-05
   7.11719990       5.89606061E-05
   7.12919998       5.78034415E-05
   7.14120007       5.66572016E-05
   7.15320015       5.55572769E-05
   7.16520023       5.45389994E-05
   7.17719984       5.36365405E-05
   7.18919992       5.28817218E-05
   7.20120001       5.23029339E-05
   7.21320009       5.19241257E-05
   7.22520018       5.17638800E-05
   7.23719978       5.18346824E-05
   7.24919987       5.21423353E-05
   7.26119995       5.26855947E-05
   7.27320004       5.34559622E-05
   7.28520012       5.44377908E-05
   7.29720020       5.56085688E-05
   7.30919981       5.69394870E-05
   7.32119989       5.83962574E-05
   7.33319998       5.99401792E-05
   7.34520006       6.15293829E-05
   7.35720015       6.31203366E-05
   7.36920023       6.46693370E-05
   7.38119984       6.61341473E-05
   7.39319992       6.74755793E-05
   7.40520000       6.86589046E-05
   7.41720009       6.96551433E-05
   7.42920017       7.04420236E-05
   7.44119978       7.10046297E-05
   7.45319986       7.13357585E-05
   7.46519995       7.14358030E-05
   7.47720003       7.13123445E-05
   7.48920012       7.09794404E-05
   7.50120020       7.04565318E-05
   7.51319981       6.97672585E-05
   7.52519989       6.89381341E-05
   7.53719997       6.79970908E-05
   7.54920006       6.69722285E-05
   7.56120014       6.58905774E-05
   7.57320023       6.47771303E-05
   7.58519983       6.36541808E-05
   7.59719992       6.25408575E-05
   7.60920000       6.14530363E-05
   7.62120008       6.04035122E-05
   7.63320017       5.94023622E-05
   7.64519978       5.84575355E-05
   7.65719986       5.75754602E-05
   7.66919994       5.67617244E-05
   7.68120003       5.60216104E-05
   7.69320011       5.53605714E-05
   7.70520020       5.47844575E-05
   7.71719980       5.42996204E-05
   7.72919989       5.39127286E-05
   7.74119997       5.36304724E-05
   7.75320005       5.34590799E-05
   7.76520014       5.34037790E-05
   7.77720022       5.34681931E-05
   7.78919983       5.36537955E-05
   7.80119991       5.39594475E-05
   7.81320000       5.43810966E-05
   7.82520008       5.49116412E-05
   7.83720016       5.55410224E-05
   7.84919977       5.62564965E-05
   7.86119986       5.70430966E-05
   7.87319994       5.78842410E-05
   7.88520002       5.87624199E-05
   7.89720011       5.96598766E-05
   7.90920019       6.05592650E-05
   7.92119980       6.14442033E-05
   7.93319988       6.22996231E-05
   7.94519997       6.31120856E-05
   7.95720005       6.38697747E-05
   7.96920013       6.45624677E-05
   7.98120022       6.51812588E-05
   7.99319983       6.57183409E-05
   8.00520039       6.61666418E-05
   8.01720047       6.65195621E-05
   8.02919960       6.67708446E-05
   8.04119968       6.69144792E-05
   8.05319977       6.69449073E-05
   8.06519985       6.68572975E-05
   8.07719994       6.66480919E-05
   8.08920002       6.63156388E-05
   8.10120010       6.58609497E-05
   8.11320019       6.52884119E-05
   8.12520027       6.46064655E-05
   8.13720036       6.38281272E-05
   8.14920044       6.29712667E-05
   8.16119957       6.20586579E-05
   8.17319965       6.11176438E-05
   8.18519974       6.01795546E-05
   8.19719982       5.92787146E-05
   8.20919991       5.84512636E-05
   8.22119999       5.77337050E-05
   8.23320007       5.71613127E-05
   8.24520016       5.67665011E-05
   8.25720024       5.65772280E-05
   8.26920033       5.66155541E-05
   8.28120041       5.68964351E-05
   8.29319954       5.74268270E-05
   8.30519962       5.82051725E-05
   8.31719971       5.92212746E-05
   8.32919979       6.04565721E-05
   8.34119987       6.18847625E-05
   8.35319996       6.34728131E-05
   8.36520004       6.51821683E-05
   8.37720013       6.69701403E-05
   8.38920021       6.87914799E-05
   8.40120029       7.05999046E-05
   8.41320038       7.23496560E-05
   8.42520046       7.39969400E-05
   8.43719959       7.55012588E-05
   8.44919968       7.68265600E-05
   8.46119976       7.79421607E-05
   8.47319984       7.88234902E-05
   8.48519993       7.94526422E-05
   8.49720001       7.98185865E-05
   8.50920010       7.99173213E-05
   8.52120018       7.97517787E-05
   8.53320026       7.93315558E-05
   8.54520035       7.86724922E-05
   8.55720043       7.77961541E-05
   8.56919956       7.67291567E-05
   8.58119965       7.55023066E-05
   8.59319973       7.41497133E-05
   8.60519981       7.27077131E-05
   8.61719990       7.12137771E-05
   8.62919998       6.97052892E-05
   8.64120007       6.82183600E-05
   8.65320015       6.67866625E-05
   8.66520023       6.54403702E-05
   8.67720032       6.42052328E-05
   8.68920040       6.31018120E-05
   8.70119953       6.21450090E-05
   8.71319962       6.13437805E-05
   8.72519970       6.07011752E-05
   8.73719978       6.02145919E-05
   8.74919987       5.98763363E-05
   8.76119995       5.96743957E-05
   8.77320004       5.95933125E-05
   8.78520012       5.96152822E-05
   8.79720020       5.97212202E-05
   8.80920029       5.98918778E-05
   8.82120037       6.01087922E-05
   8.83320045       6.03551380E-05
   8.84519958       6.06163449E-05
   8.85719967       6.08805312E-05
   8.86919975       6.11386349E-05
   8.88119984       6.13844095E-05
   8.89319992       6.16141479E-05
   8.90520000       6.18263148E-05
   8.91720009       6.20210703E-05
   8.92920017       6.21997460E-05
   8.94120026       6.23643573E-05
   8.95320034       6.25171451E-05
   8.96520042       6.26602196E-05
   8.97719955       6.27952759E-05
   8.98919964       6.29234855E-05
   9.00119972       6.30454742E-05
   9.01319981       6.31613875E-05
   9.02519989       6.32710944E-05
   9.03719997       6.33743548E-05
   9.04920006       6.34710523E-05
   9.06120014       6.35614269E-05
   9.07320023       6.36461773E-05
   9.08520031       6.37265257E-05
   9.09720039       6.38041602E-05
   9.10919952       6.38811325E-05
   9.12119961       6.39596474E-05
   9.13319969       6.40418657E-05
   9.14519978       6.41295846E-05
   9.15719986       6.42241284E-05
   9.16919994       6.43261446E-05
   9.18120003       6.44355750E-05
   9.19320011       6.45516848E-05
   9.20520020       6.46731569E-05
   9.21720028       6.47983688E-05
   9.22920036       6.49255599E-05
   9.24120045       6.50531219E-05
   9.25319958       6.51798473E-05
   9.26519966       6.53050956E-05
   9.27719975       6.54289543E-05
   9.28919983       6.55521799E-05
   9.30119991       6.56761113E-05
   9.31320000       6.58024073E-05
   9.32520008       6.59327052E-05
   9.33720016       6.60681399E-05
   9.34920025       6.62088132E-05
   9.36120033       6.63533210E-05
   9.37320042       6.64982872E-05
   9.38519955       6.66379856E-05
   9.39719963       6.67642016E-05
   9.40919971       6.68661960E-05
   9.42119980       6.69310248E-05
   9.43319988       6.69439905E-05
   9.44519997       6.68894354E-05
