 -0.622799993         1.00000002E-24
 -0.610800028         1.00000002E-24
 -0.598800004         1.00000002E-24
 -0.586799979         1.00000002E-24
 -0.574800014         1.00000012E-24
 -0.562799990         4.29953553E-23
 -0.550800025         3.15468026E-22
 -0.538800001         1.09445557E-21
 -0.526799977         1.93831924E-21
 -0.514800012        -3.74991733E-22
 -0.502799988        -1.46496320E-20
 -0.490799993        -5.66155240E-20
 -0.478799999        -1.45810461E-19
 -0.466800004        -2.96896241E-19
 -0.454800010        -5.09095081E-19
 -0.442799985        -7.62223308E-19
 -0.430799991        -1.02761351E-18
 -0.418799996        -1.29394860E-18
 -0.406800002        -1.59485065E-18
 -0.394800007        -2.01719924E-18
 -0.382800013        -2.67787316E-18
 -0.370799989        -3.68350144E-18
 -0.358799994        -5.11692976E-18
 -0.346799999        -7.09627329E-18
 -0.334800005        -9.90533233E-18
 -0.322800010        -1.41084653E-17
 -0.310799986        -2.04955834E-17
 -0.298799992        -2.97350321E-17
 -0.286799997        -4.17929299E-17
 -0.274800003        -5.54575433E-17
 -0.262800008        -6.85131996E-17
 -0.250800014        -7.90050328E-17
 -0.238800004        -8.74791474E-17
 -0.226799995        -9.91919323E-17
 -0.214800000        -1.24521056E-16
 -0.202800006        -1.75851173E-16
 -0.190799996        -2.60563269E-16
 -0.178800002        -3.72314947E-16
 -0.166800007        -4.85529556E-16
 -0.154799998        -5.59142966E-16
 -0.142800003        -5.53438358E-16
 -0.130799994        -4.57687477E-16
 -0.118799999        -3.17945834E-16
 -0.106799997        -2.47674101E-16
  -9.48000029E-02    -4.03916952E-16
  -8.28000009E-02    -9.22172816E-16
  -7.07999989E-02    -1.82320983E-15
  -5.88000007E-02    -2.92842414E-15
  -4.67999987E-02    -3.83544227E-15
  -3.48000005E-02    -4.00032655E-15
  -2.28000004E-02    -2.94012526E-15
  -1.08000003E-02    -5.14228779E-16
   1.20000006E-03     2.81680934E-15
   1.31999999E-02     5.89274553E-15
   2.52000000E-02     7.03877603E-15
   3.72000001E-02     4.57891612E-15
   4.91999984E-02    -2.40908473E-15
   6.12000003E-02    -1.33278847E-14
   7.32000023E-02    -2.56112948E-14
   8.51999968E-02    -3.49110423E-14
   9.71999988E-02    -3.60940288E-14
  0.109200001        -2.49587660E-14
  0.121200003        -2.62749011E-16
  0.133200005         3.46068152E-14
  0.145199999         7.10722171E-14
  0.157199994         9.65009051E-14
  0.169200003         9.71970239E-14
  0.181199998         6.28050604E-14
  0.193200007        -8.93637716E-15
  0.205200002        -1.08582082E-13
  0.217199996        -2.14057315E-13
  0.229200006        -2.93546302E-13
  0.241200000        -3.12420960E-13
  0.253199995        -2.43233141E-13
  0.265199989        -7.65646498E-14
  0.277200013         1.70367992E-13
  0.289200008         4.50654542E-13
  0.301200002         6.92732872E-13
  0.313199997         8.14344740E-13
  0.325199991         7.43730218E-13
  0.337199986         4.43698680E-13
  0.349200010        -6.78926791E-14
  0.361200005        -7.08395473E-13
  0.373199999        -1.33712908E-12
  0.385199994        -1.78083720E-12
  0.397199988        -1.87483254E-12
  0.409200013        -1.51125998E-12
  0.421200007        -6.81725184E-13
  0.433200002         4.99532761E-13
  0.445199996         1.80267617E-12
  0.457199991         2.92313504E-12
  0.469199985         3.55032908E-12
  0.481200010         3.44889720E-12
  0.493200004         2.53105653E-12
  0.505200028         8.98518185E-13
  0.517199993        -1.16113813E-12
  0.529200017        -3.22692415E-12
  0.541199982        -4.83524115E-12
  0.553200006        -5.58703864E-12
  0.565199971        -5.24403481E-12
  0.577199996        -3.78948565E-12
  0.589200020        -1.43896537E-12
  0.601199985         1.39950107E-12
  0.613200009         4.20366129E-12
  0.625199974         6.43345403E-12
  0.637199998         7.62478015E-12
  0.649200022         7.46531569E-12
  0.661199987         5.84535502E-12
  0.673200011         2.88336867E-12
  0.685199976        -1.07195459E-12
  0.697200000        -5.46421892E-12
  0.709200025        -9.58209380E-12
  0.721199989        -1.26497727E-11
  0.733200014        -1.39574559E-11
  0.745199978        -1.30214442E-11
  0.757200003        -9.74703564E-12
  0.769200027        -4.55478363E-12
  0.781199992         1.56977860E-12
  0.793200016         7.12713742E-12
  0.805199981         1.02500421E-11
  0.817200005         8.90563925E-12
  0.829200029         1.09192072E-12
  0.841199994        -1.50310424E-11
  0.853200018        -4.11015839E-11
  0.865199983        -7.85771934E-11
  0.877200007        -1.28721325E-10
  0.889199972        -1.92418165E-10
  0.901199996        -2.69677197E-10
  0.913200021        -3.58740565E-10
  0.925199986        -4.54799060E-10
  0.937200010        -5.48430468E-10
  0.949199975        -6.23942897E-10
  0.961199999        -6.57808807E-10
  0.973200023        -6.17276175E-10
  0.985199988        -4.59040278E-10
  0.997200012        -1.27590938E-10
   1.00919998         4.47458542E-10
   1.02119994         1.35604161E-09
   1.03320003         2.71554845E-09
   1.04519999         4.68341810E-09
   1.05719995         7.47604556E-09
   1.06920004         1.13958274E-08
   1.08120000         1.68683894E-08
   1.09319997         2.44923246E-08
   1.10520005         3.51040264E-08
   1.11720002         4.98603008E-08
   1.12919998         7.03414145E-08
   1.14119995         9.86768143E-08
   1.15320003         1.37695054E-07
   1.16520000         1.91098195E-07
   1.17719996         2.63659359E-07
   1.18920004         3.61440328E-07
   1.20120001         4.92023503E-07
   1.21319997         6.64751042E-07
   1.22520006         8.90960109E-07
   1.23720002         1.18420303E-06
   1.24919999         1.56043666E-06
   1.26119995         2.03816353E-06
   1.27320004         2.63850825E-06
   1.28520000         3.38520726E-06
   1.29719996         4.30449563E-06
   1.30920005         5.42486760E-06
   1.32120001         6.77669868E-06
   1.33319998         8.39171753E-06
   1.34519994         1.03023212E-05
   1.35720003         1.25407196E-05
   1.36919999         1.51379472E-05
   1.38119996         1.81227206E-05
   1.39320004         2.15202053E-05
   1.40520000         2.53506932E-05
   1.41719997         2.96282724E-05
   1.42920005         3.43595129E-05
   1.44120002         3.95422503E-05
   1.45319998         4.51645137E-05
   1.46519995         5.12036822E-05
   1.47720003         5.76259408E-05
   1.48920000         6.43860549E-05
   1.50119996         7.14275520E-05
   1.51320004         7.86833334E-05
   1.52520001         8.60766886E-05
   1.53719997         9.35227872E-05
   1.54920006         1.00930556E-04
   1.56120002         1.08204935E-04
   1.57319999         1.15249350E-04
   1.58519995         1.21968522E-04
   1.59720004         1.28271233E-04
   1.60920000         1.34073227E-04
   1.62119997         1.39299882E-04
   1.63320005         1.43888625E-04
   1.64520001         1.47791085E-04
   1.65719998         1.50974738E-04
   1.66919994         1.53424058E-04
   1.68120003         1.55140995E-04
   1.69319999         1.56144932E-04
   1.70519996         1.56472015E-04
   1.71720004         1.56173846E-04
   1.72920001         1.55315705E-04
   1.74119997         1.53974295E-04
   1.75320005         1.52235021E-04
   1.76520002         1.50189284E-04
   1.77719998         1.47931307E-04
   1.78919995         1.45555256E-04
   1.80120003         1.43152269E-04
   1.81320000         1.40807926E-04
   1.82519996         1.38599746E-04
   1.83720005         1.36595394E-04
   1.84920001         1.34851231E-04
   1.86119998         1.33411304E-04
   1.87320006         1.32306901E-04
   1.88520002         1.31556677E-04
   1.89719999         1.31167166E-04
   1.90919995         1.31133726E-04
   1.92120004         1.31441848E-04
   1.93320000         1.32068802E-04
   1.94519997         1.32985297E-04
   1.95720005         1.34157483E-04
   1.96920002         1.35548806E-04
   1.98119998         1.37121882E-04
   1.99319994         1.38840187E-04
   2.00519991         1.40669523E-04
   2.01719999         1.42579287E-04
   2.02920008         1.44543534E-04
   2.04119992         1.46541439E-04
   2.05320001         1.48557840E-04
   2.06520009         1.50583131E-04
   2.07719994         1.52613124E-04
   2.08920002         1.54648500E-04
   2.10120010         1.56694121E-04
   2.11319995         1.58758194E-04
   2.12520003         1.60851268E-04
   2.13720012         1.62985249E-04
   2.14919996         1.65172401E-04
   2.16120005         1.67424296E-04
   2.17319989         1.69751045E-04
   2.18519998         1.72160566E-04
   2.19720006         1.74657966E-04
   2.20919991         1.77245209E-04
   2.22119999         1.79920957E-04
   2.23320007         1.82680684E-04
   2.24519992         1.85516910E-04
   2.25720000         1.88419712E-04
   2.26920009         1.91377359E-04
   2.28119993         1.94377135E-04
   2.29320002         1.97406218E-04
   2.30520010         2.00452705E-04
   2.31719995         2.03506468E-04
   2.32920003         2.06560202E-04
   2.34120011         2.09610123E-04
   2.35319996         2.12656654E-04
   2.36520004         2.15705018E-04
   2.37719989         2.18765243E-04
   2.38919997         2.21852330E-04
   2.40120006         2.24985837E-04
   2.41319990         2.28189238E-04
   2.42519999         2.31489001E-04
   2.43720007         2.34913445E-04
   2.44919991         2.38491150E-04
   2.46120000         2.42249269E-04
   2.47320008         2.46211945E-04
   2.48519993         2.50398036E-04
   2.49720001         2.54819461E-04
   2.50920010         2.59479159E-04
   2.52119994         2.64369504E-04
   2.53320003         2.69470620E-04
   2.54520011         2.74749153E-04
   2.55719995         2.80157430E-04
   2.56920004         2.85632937E-04
   2.58119988         2.91098142E-04
   2.59319997         2.96461076E-04
   2.60520005         3.01616063E-04
   2.61719990         3.06445232E-04
   2.62919998         3.10820382E-04
   2.64120007         3.14605277E-04
   2.65319991         3.17658472E-04
   2.66520000         3.19836516E-04
   2.67720008         3.20997409E-04
   2.68919992         3.21004249E-04
   2.70120001         3.19729181E-04
   2.71320009         3.17057245E-04
   2.72519994         3.12890246E-04
   2.73720002         3.07150505E-04
   2.74920011         2.99784122E-04
   2.76119995         2.90763914E-04
   2.77320004         2.80091917E-04
   2.78520012         2.67801253E-04
   2.79719996         2.53957085E-04
   2.80920005         2.38656881E-04
   2.82119989         2.22030052E-04
   2.83319998         2.04236305E-04
   2.84520006         1.85463490E-04
   2.85719991         1.65924401E-04
   2.86919999         1.45852900E-04
   2.88120008         1.25499238E-04
   2.89319992         1.05124956E-04
   2.90520000         8.49972057E-05
   2.91720009         6.53829266E-05
   2.92919993         4.65428348E-05
   2.94120002         2.87255370E-05
   2.95320010         1.21619014E-05
   2.96519995        -2.94018378E-06
   2.97720003        -1.64004578E-05
   2.98920012        -2.80702752E-05
   3.00119996        -3.78357836E-05
   3.01320004        -4.56202324E-05
   3.02519989        -5.13853229E-05
   3.03719997        -5.51316298E-05
   3.04920006        -5.68980176E-05
   3.06119990        -5.67601855E-05
   3.07319999        -5.48282696E-05
   3.08520007        -5.12436673E-05
   3.09719992        -4.61751588E-05
   3.10920000        -3.98144039E-05
   3.12120008        -3.23709683E-05
   3.13319993        -2.40669760E-05
   3.14520001        -1.51315426E-05
   3.15720010        -5.79511152E-06
   3.16919994         3.71614965E-06
   3.18120003         1.31857523E-05
   3.19320011         2.24119740E-05
   3.20519996         3.12124357E-05
   3.21720004         3.94280942E-05
   3.22919989         4.69265069E-05
   3.24119997         5.36042498E-05
   3.25320005         5.93884761E-05
   3.26519990         6.42374725E-05
   3.27719998         6.81402889E-05
   3.28920007         7.11153261E-05
   3.30119991         7.32081098E-05
   3.31320000         7.44881036E-05
   3.32520008         7.50448380E-05
   3.33719993         7.49834799E-05
   3.34920001         7.44199569E-05
   3.36120009         7.34759014E-05
   3.37319994         7.22735567E-05
   3.38520002         7.09309170E-05
   3.39720011         6.95572380E-05
   3.40919995         6.82491664E-05
   3.42120004         6.70875597E-05
   3.43319988         6.61351878E-05
   3.44519997         6.54353134E-05
   3.45720005         6.50112706E-05
   3.46919990         6.48669229E-05
   3.48119998         6.49880603E-05
   3.49320006         6.53444658E-05
   3.50519991         6.58926583E-05
   3.51719999         6.65790867E-05
   3.52920008         6.73435206E-05
   3.54119992         6.81225574E-05
   3.55320001         6.88529835E-05
   3.56520009         6.94749178E-05
   3.57719994         6.99344455E-05
   3.58920002         7.01858298E-05
   3.60120010         7.01931494E-05
   3.61319995         6.99312732E-05
   3.62520003         6.93863403E-05
   3.63720012         6.85555933E-05
   3.64919996         6.74468611E-05
   3.66120005         6.60775331E-05
   3.67319989         6.44733518E-05
   3.68519998         6.26669134E-05
   3.69720006         6.06962458E-05
   3.70919991         5.86032293E-05
   3.72119999         5.64322763E-05
   3.73320007         5.42290036E-05
   3.74519992         5.20391659E-05
   3.75720000         4.99076959E-05
   3.76920009         4.78779111E-05
   3.78119993         4.59908297E-05
   3.79320002         4.42845449E-05
   3.80520010         4.27936720E-05
   3.81719995         4.15487557E-05
   3.82920003         4.05756909E-05
   3.84120011         3.98951161E-05
   3.85319996         3.95217539E-05
   3.86520004         3.94637718E-05
   3.87719989         3.97221156E-05
   3.88919997         4.02899677E-05
   3.90120006         4.11522269E-05
   3.91319990         4.22852463E-05
   3.92519999         4.36567570E-05
   3.93720007         4.52260538E-05
   3.94919991         4.69445695E-05
   3.96120000         4.87567304E-05
   3.97320008         5.06012366E-05
   3.98519993         5.24126408E-05
   3.99720001         5.41232221E-05
   4.00920010         5.56651612E-05
   4.02120018         5.69727999E-05
   4.03319979         5.79850675E-05
   4.04519987         5.86478091E-05
   4.05719995         5.89160445E-05
   4.06920004         5.87559771E-05
   4.08120012         5.81466702E-05
   4.09320021         5.70813172E-05
   4.10519981         5.55680308E-05
   4.11719990         5.36301122E-05
   4.12919998         5.13057239E-05
   4.14120007         4.86470453E-05
   4.15320015         4.57188435E-05
   4.16520023         4.25965809E-05
   4.17719984         3.93640876E-05
   4.18919992         3.61108468E-05
   4.20120001         3.29290815E-05
   4.21320009         2.99106614E-05
   4.22520018         2.71440240E-05
   4.23719978         2.47111639E-05
   4.24919987         2.26848751E-05
   4.26119995         2.11263123E-05
   4.27320004         2.00829745E-05
   4.28520012         1.95871908E-05
   4.29720020         1.96551555E-05
   4.30919981         2.02865212E-05
   4.32119989         2.14645879E-05
   4.33319998         2.31570302E-05
   4.34520006         2.53171438E-05
   4.35720015         2.78855714E-05
   4.36920023         3.07923983E-05
   4.38119984         3.39595863E-05
   4.39319992         3.73035764E-05
   4.40520000         4.07380503E-05
   4.41720009         4.41766606E-05
   4.42920017         4.75356537E-05
   4.44119978         5.07363329E-05
   4.45319986         5.37072228E-05
   4.46519995         5.63859503E-05
   4.47720003         5.87207214E-05
   4.48920012         6.06714821E-05
   4.50120020         6.22106309E-05
   4.51319981         6.33234449E-05
   4.52519989         6.40079961E-05
   4.53719997         6.42749146E-05
   4.54920006         6.41466395E-05
   4.56120014         6.36565092E-05
   4.57320023         6.28474736E-05
   4.58519983         6.17707410E-05
   4.59719992         6.04840825E-05
   4.60920000         5.90501331E-05
   4.62120008         5.75345039E-05
   4.63320017         5.60039261E-05
   4.64519978         5.45242729E-05
   4.65719986         5.31586811E-05
   4.66919994         5.19656678E-05
   4.68120003         5.09973761E-05
   4.69320011         5.02979674E-05
   4.70520020         4.99022135E-05
   4.71719980         4.98343725E-05
   4.72919989         5.01073882E-05
   4.74119997         5.07224395E-05
   4.75320005         5.16689397E-05
   4.76520014         5.29249264E-05
   4.77720022         5.44578834E-05
   4.78919983         5.62260029E-05
   4.80119991         5.81797904E-05
   4.81320000         6.02640284E-05
   4.82520008         6.24199456E-05
   4.83720016         6.45875916E-05
   4.84919977         6.67082204E-05
   4.86119986         6.87266365E-05
   4.87319994         7.05933417E-05
   4.88520002         7.22664045E-05
   4.89720011         7.37129449E-05
   4.90920019         7.49101382E-05
   4.92119980         7.58457027E-05
   4.93319988         7.65179066E-05
   4.94519997         7.69349790E-05
   4.95720005         7.71140403E-05
   4.96920013         7.70796178E-05
   4.98120022         7.68617610E-05
   4.99319983         7.64939687E-05
   5.00519991         7.60108596E-05
   5.01719999         7.54460052E-05
   5.02920008         7.48297243E-05
   5.04120016         7.41871845E-05
   5.05319977         7.35368958E-05
   5.06519985         7.28895611E-05
   5.07719994         7.22474651E-05
   5.08920002         7.16043505E-05
   5.10120010         7.09458764E-05
   5.11320019         7.02505640E-05
   5.12519979         6.94911287E-05
   5.13719988         6.86363128E-05
   5.14919996         6.76529016E-05
   5.16120005         6.65079642E-05
   5.17320013         6.51712035E-05
   5.18520021         6.36171681E-05
   5.19719982         6.18273334E-05
   5.20919991         5.97918443E-05
   5.22119999         5.75109116E-05
   5.23320007         5.49956494E-05
   5.24520016         5.22684204E-05
   5.25719976         4.93626467E-05
   5.26919985         4.63220131E-05
   5.28119993         4.31992230E-05
   5.29320002         4.00542485E-05
   5.30520010         3.69522786E-05
   5.31720018         3.39613071E-05
   5.32919979         3.11496406E-05
   5.34119987         2.85832793E-05
   5.35319996         2.63234106E-05
   5.36520004         2.44240509E-05
   5.37720013         2.29299767E-05
   5.38920021         2.18750520E-05
   5.40119982         2.12809955E-05
   5.41319990         2.11566530E-05
   5.42519999         2.14978027E-05
   5.43720007         2.22874787E-05
   5.44920015         2.34967974E-05
   5.46120024         2.50862176E-05
   5.47319984         2.70071960E-05
   5.48519993         2.92041386E-05
   5.49720001         3.16165715E-05
   5.50920010         3.41814157E-05
   5.52120018         3.68353103E-05
   5.53319979         3.95168536E-05
   5.54519987         4.21686746E-05
   5.55719995         4.47392886E-05
   5.56920004         4.71845742E-05
   5.58120012         4.94689375E-05
   5.59320021         5.15660031E-05
   5.60519981         5.34589381E-05
   5.61719990         5.51402518E-05
   5.62919998         5.66112358E-05
   5.64120007         5.78810577E-05
   5.65320015         5.89654665E-05
   5.66520023         5.98853439E-05
   5.67719984         6.06650538E-05
   5.68919992         6.13307202E-05
   5.70120001         6.19085404E-05
   5.71320009         6.24231761E-05
   5.72520018         6.28963098E-05
   5.73719978         6.33455129E-05
   5.74919987         6.37832927E-05
   5.76119995         6.42165687E-05
   5.77320004         6.46464687E-05
   5.78520012         6.50684888E-05
   5.79720020         6.54729229E-05
   5.80919981         6.58456920E-05
   5.82119989         6.61693557E-05
   5.83319998         6.64243125E-05
   5.84520006         6.65901243E-05
   5.85720015         6.66469205E-05
   5.86920023         6.65767657E-05
   5.88119984         6.63649189E-05
   5.89319992         6.60009828E-05
   5.90520000         6.54798350E-05
   5.91720009         6.48023633E-05
   5.92920017         6.39758655E-05
   5.94119978         6.30142094E-05
   5.95319986         6.19376588E-05
   5.96519995         6.07723960E-05
   5.97720003         5.95497659E-05
   5.98920012         5.83052388E-05
   6.00120020         5.70771699E-05
   6.01319981         5.59053406E-05
   6.02519989         5.48293792E-05
   6.03719997         5.38871391E-05
   6.04920006         5.31129917E-05
   6.06120014         5.25362630E-05
   6.07320023         5.21797228E-05
   6.08519983         5.20583235E-05
   6.09719992         5.21781985E-05
   6.10920000         5.25359974E-05
   6.12120008         5.31186088E-05
   6.13320017         5.39033317E-05
   6.14519978         5.48585085E-05
   6.15719986         5.59446125E-05
   6.16919994         5.71157725E-05
   6.18120003         5.83217043E-05
   6.19320011         5.95099227E-05
   6.20520020         6.06281901E-05
   6.21719980         6.16270408E-05
   6.22919989         6.24623062E-05
   6.24119997         6.30973809E-05
   6.25320005         6.35052784E-05
   6.26520014         6.36702243E-05
   6.27720022         6.35886609E-05
   6.28919983         6.32697265E-05
   6.30119991         6.27349946E-05
   6.31320000         6.20175560E-05
   6.32520008         6.11604773E-05
   6.33720016         6.02146429E-05
   6.34919977         5.92361903E-05
   6.36119986         5.82835564E-05
   6.37319994         5.74144033E-05
   6.38520002         5.66825693E-05
   6.39720011         5.61351808E-05
   6.40920019         5.58101747E-05
   6.42119980         5.57343046E-05
   6.43319988         5.59218097E-05
   6.44519997         5.63737667E-05
   6.45720005         5.70781776E-05
   6.46920013         5.80107953E-05
   6.48120022         5.91365824E-05
   6.49319983         6.04117595E-05
   6.50519991         6.17862606E-05
   6.51719999         6.32064111E-05
   6.52920008         6.46177868E-05
   6.54120016         6.59678990E-05
   6.55319977         6.72087044E-05
   6.56519985         6.82987084E-05
   6.57719994         6.92046015E-05
   6.58920002         6.99023731E-05
   6.60120010         7.03778205E-05
   6.61320019         7.06265419E-05
   6.62519979         7.06533756E-05
   6.63719988         7.04714839E-05
   6.64919996         7.01009994E-05
   6.66120005         6.95675335E-05
   6.67320013         6.89005610E-05
   6.68520021         6.81318197E-05
   6.69719982         6.72937458E-05
   6.70919991         6.64182226E-05
   6.72119999         6.55354452E-05
   6.73320007         6.46731132E-05
   6.74520016         6.38558340E-05
   6.75719976         6.31048315E-05
   6.76919985         6.24377353E-05
   6.78119993         6.18685735E-05
   6.79320002         6.14079108E-05
   6.80520010         6.10628704E-05
   6.81720018         6.08373302E-05
   6.82919979         6.07319816E-05
   6.84119987         6.07444163E-05
   6.85319996         6.08691771E-05
   6.86520004         6.10977804E-05
   6.87720013         6.14187593E-05
   6.88920021         6.18177655E-05
   6.90119982         6.22776861E-05
   6.91319990         6.27789050E-05
   6.92519999         6.32996307E-05
   6.93720007         6.38163983E-05
   6.94920015         6.43047024E-05
   6.96120024         6.47397537E-05
   6.97319984         6.50973234E-05
   6.98519993         6.53547468E-05
   6.99720001         6.54918113E-05
   7.00920010         6.54917676E-05
   7.02120018         6.53421303E-05
   7.03319979         6.50353468E-05
   7.04519987         6.45693581E-05
   7.05719995         6.39478749E-05
   7.06920004         6.31804432E-05
   7.08120012         6.22823063E-05
   7.09320021         6.12740478E-05
   7.10519981         6.01810061E-05
   7.11719990         5.90325799E-05
   7.12919998         5.78613108E-05
   7.14120007         5.67019197E-05
   7.15320015         5.55901643E-05
   7.16520023         5.45617368E-05
   7.17719984         5.36510524E-05
   7.18919992         5.28901328E-05
   7.20120001         5.23074668E-05
   7.21320009         5.19270288E-05
   7.22520018         5.17673689E-05
   7.23719978         5.18408815E-05
   7.24919987         5.21532274E-05
   7.26119995         5.27029515E-05
   7.27320004         5.34813262E-05
   7.28520012         5.44724280E-05
   7.29720020         5.56534287E-05
   7.30919981         5.69951917E-05
   7.32119989         5.84630943E-05
   7.33319998         6.00180938E-05
   7.34520006         6.16180259E-05
   7.35720015         6.32190859E-05
   7.36920023         6.47773340E-05
   7.38119984         6.62503808E-05
   7.39319992         6.75988631E-05
   7.40520000         6.87879583E-05
   7.41720009         6.97885844E-05
   7.42920017         7.05783823E-05
   7.44119978         7.11423927E-05
   7.45319986         7.14733978E-05
   7.46519995         7.15718197E-05
   7.47720003         7.14453563E-05
   7.48920012         7.11082321E-05
   7.50120020         7.05801576E-05
   7.51319981         6.98850636E-05
   7.52519989         6.90497545E-05
   7.53719997         6.81024685E-05
   7.54920006         6.70715453E-05
   7.56120014         6.59842553E-05
   7.57320023         6.48657951E-05
   7.58519983         6.37386183E-05
   7.59719992         6.26220281E-05
   7.60920000         6.15320678E-05
   7.62120008         6.04817033E-05
   7.63320017         5.94811245E-05
   7.64519978         5.85383459E-05
   7.65719986         5.76597668E-05
   7.66919994         5.68508149E-05
   7.68120003         5.61165289E-05
   7.69320011         5.54620055E-05
   7.70520020         5.48927273E-05
   7.71719980         5.44146715E-05
   7.72919989         5.40341898E-05
   7.74119997         5.37577143E-05
   7.75320005         5.35912986E-05
   7.76520014         5.35400432E-05
   7.77720022         5.36074804E-05
   7.78919983         5.37950109E-05
   7.80119991         5.41014233E-05
   7.81320000         5.45226067E-05
   7.82520008         5.50514451E-05
   7.83720016         5.56779378E-05
   7.84919977         5.63894791E-05
   7.86119986         5.71713244E-05
   7.87319994         5.80071610E-05
   7.88520002         5.88797666E-05
   7.89720011         5.97716535E-05
   7.90920019         6.06656831E-05
   7.92119980         6.15456083E-05
   7.93319988         6.23964370E-05
   7.94519997         6.32047522E-05
   7.95720005         6.39587015E-05
   7.96920013         6.46480185E-05
   7.98120022         6.52637536E-05
   7.99319983         6.57980272E-05
   8.00520039         6.62436942E-05
   8.01720047         6.65940825E-05
   8.02919960         6.68428111E-05
   8.04119968         6.69838191E-05
   8.05319977         6.70114750E-05
   8.06519985         6.69209549E-05
   8.07719994         6.67087734E-05
   8.08920002         6.63734318E-05
   8.10120010         6.59161087E-05
   8.11320019         6.53413808E-05
   8.12520027         6.46578846E-05
   8.13720036         6.38787678E-05
   8.14920044         6.30220238E-05
   8.16119957         6.21105137E-05
   8.17319965         6.11716750E-05
   8.18519974         6.02368746E-05
   8.19719982         5.93404729E-05
   8.20919991         5.85186099E-05
   8.22119999         5.78077052E-05
   8.23320007         5.72428726E-05
   8.24520016         5.68562755E-05
   8.25720024         5.66755152E-05
   8.26920033         5.67222633E-05
   8.28120041         5.70110642E-05
   8.29319954         5.75485356E-05
   8.30519962         5.83328692E-05
   8.31719971         5.93536970E-05
   8.32919979         6.05924033E-05
   8.34119987         6.20227147E-05
   8.35319996         6.36116383E-05
   8.36520004         6.53206444E-05
   8.37720013         6.71071102E-05
   8.38920021         6.89258013E-05
   8.40120029         7.07305298E-05
   8.41320038         7.24756464E-05
   8.42520046         7.41175609E-05
   8.43719959         7.56160516E-05
   8.44919968         7.69353064E-05
   8.46119976         7.80449263E-05
   8.47319984         7.89205442E-05
   8.48519993         7.95443193E-05
   8.49720001         7.99052868E-05
   8.50920010         7.99994086E-05
   8.52120018         7.98295805E-05
   8.53320026         7.94053849E-05
   8.54520035         7.87427271E-05
   8.55720043         7.78632966E-05
   8.56919956         7.67938618E-05
   8.58119965         7.55654037E-05
   8.59319973         7.42121410E-05
   8.60519981         7.27704828E-05
   8.61719990         7.12778710E-05
   8.62919998         6.97716168E-05
   8.64120007         6.82877435E-05
   8.65320015         6.68598441E-05
   8.66520023         6.55180120E-05
   8.67720032         6.42879313E-05
   8.68920040         6.31901057E-05
   8.70119953         6.22393127E-05
   8.71319962         6.14443125E-05
   8.72519970         6.08079026E-05
   8.73719978         6.03271510E-05
   8.74919987         5.99940249E-05
   8.76119995         5.97961662E-05
   8.77320004         5.97178769E-05
   8.78520012         5.97411890E-05
   8.79720020         5.98469815E-05
   8.80920029         6.00160165E-05
   8.82120037         6.02298933E-05
   8.83320045         6.04718953E-05
   8.84519958         6.07275506E-05
   8.85719967         6.09850977E-05
   8.86919975         6.12356525E-05
   8.88119984         6.14732053E-05
   8.89319992         6.16943944E-05
   8.90520000         6.18981139E-05
   8.91720009         6.20850260E-05
   8.92920017         6.22569860E-05
   8.94120026         6.24164459E-05
   8.95320034         6.25659814E-05
   8.96520042         6.27078771E-05
   8.97719955         6.28438866E-05
   8.98919964         6.29750793E-05
   9.00119972         6.31018847E-05
   9.01319981         6.32242300E-05
   9.02519989         6.33416930E-05
   9.03719997         6.34537500E-05
   9.04920006         6.35599790E-05
   9.06120014         6.36602272E-05
   9.07320023         6.37547491E-05
   9.08520031         6.38442507E-05