 -0.622799993       0.00000000    
 -0.610800028       0.00000000    
 -0.598800004       0.00000000    
 -0.586799979       0.00000000    
 -0.574800014      -6.34059180E-24
 -0.562799990      -5.69366606E-23
 -0.550800025      -2.78817674E-22
 -0.538800001      -9.06968807E-22
 -0.526799977      -1.86491888E-21
 -0.514800012      -9.80189841E-22
 -0.502799988       1.01458614E-20
 -0.490799993       5.20004378E-20
 -0.478799999       1.60499043E-19
 -0.466800004       3.80068631E-19
 -0.454800010       7.40530497E-19
 -0.442799985       1.22350414E-18
 -0.430799991       1.74321779E-18
 -0.418799996       2.17935001E-18
 -0.406800002       2.48481292E-18
 -0.394800007       2.83761104E-18
 -0.382800013       3.73175502E-18
 -0.370799989       5.86414971E-18
 -0.358799994       9.74238188E-18
 -0.346799999       1.51396336E-17
 -0.334800005       2.07825225E-17
 -0.322800010       2.47874481E-17
 -0.310799986       2.61411292E-17
 -0.298799992       2.68651471E-17
 -0.286799997       3.36267150E-17
 -0.274800003       5.70061445E-17
 -0.262800008       1.07078001E-16
 -0.250800014       1.85767071E-16
 -0.238800004       2.79180577E-16
 -0.226799995       3.55422595E-16
 -0.214800000       3.73352536E-16
 -0.202800006       3.03931939E-16
 -0.190799996       1.58510463E-16
 -0.178800002       1.04051008E-17
 -0.166800007      -7.84467074E-18
 -0.154799998       2.55562255E-16
 -0.142800003       8.96708253E-16
 -0.130799994       1.86980490E-15
 -0.118799999       2.93243272E-15
 -0.106799997       3.66839932E-15
  -9.48000029E-02   3.61417651E-15
  -8.28000009E-02   2.47148163E-15
  -7.07999989E-02   3.35896183E-16
  -5.88000007E-02  -2.16631853E-15
  -4.67999987E-02  -3.93843851E-15
  -3.48000005E-02  -3.71952496E-15
  -2.28000004E-02  -5.85582940E-16
  -1.08000003E-02   5.51435432E-15
   1.20000006E-03   1.34146683E-14
   1.31999999E-02   2.07914469E-14
   2.52000000E-02   2.47139836E-14
   3.72000001E-02   2.25930470E-14
   4.91999984E-02   1.32424216E-14
   6.12000003E-02  -2.33156004E-15
   7.32000023E-02  -2.07538234E-14
   8.51999968E-02  -3.68677765E-14
   9.71999988E-02  -4.49659129E-14
  0.109200001      -4.03096441E-14
  0.121200003      -2.04955952E-14
  0.133200005       1.36731362E-14
  0.145199999       5.79163453E-14
  0.157199994       1.04681556E-13
  0.169200003       1.43630916E-13
  0.181199998       1.62388305E-13
  0.193200007       1.47860538E-13
  0.205200002       8.87096318E-14
  0.217199996      -2.05554076E-14
  0.229200006      -1.74083038E-13
  0.241200000      -3.49179534E-13
  0.253199995      -5.03459958E-13
  0.265199989      -5.77927354E-13
  0.277200013      -5.08536193E-13
  0.289200008      -2.46387681E-13
  0.301200002       2.17046257E-13
  0.313199997       8.27229615E-13
  0.325199991       1.45642114E-12
  0.337199986       1.91542051E-12
  0.349200010       1.99180277E-12
  0.361200005       1.51098947E-12
  0.373199999       4.06829816E-13
  0.385199994      -1.21938570E-12
  0.397199988      -3.07496628E-12
  0.409200013      -4.70512561E-12
  0.421200007      -5.58082573E-12
  0.433200002      -5.23267671E-12
  0.445199996      -3.40088808E-12
  0.457199991      -1.60006191E-13
  0.469199985       4.02308742E-12
  0.481200010       8.32693723E-12
  0.493200004       1.17150161E-11
  0.505200028       1.31553301E-11
  0.517199993       1.18742099E-11
  0.529200017       7.58483987E-12
  0.541199982       6.32605242E-13
  0.553200006      -7.98403878E-12
  0.565199971      -1.67315918E-11
  0.577199996      -2.37829739E-11
  0.589200020      -2.73419638E-11
  0.601199985      -2.59954558E-11
  0.613200009      -1.90352335E-11
  0.625199974      -6.69740001E-12
  0.637199998       9.72113882E-12
  0.649200022       2.78976113E-11
  0.661199987       4.46867578E-11
  0.673200011       5.64969668E-11
  0.685199976       5.98255195E-11
  0.697200000       5.19123876E-11
  0.709200025       3.14362425E-11
  0.721199989      -8.62208091E-13
  0.733200014      -4.17734736E-11
  0.745199978      -8.55777671E-11
  0.757200003      -1.24484659E-10
  0.769200027      -1.49594795E-10
  0.781199992      -1.52314383E-10
  0.793200016      -1.26030311E-10
  0.805199981      -6.77458367E-11
  0.817200005       2.06765299E-11
  0.829200029       1.31999120E-10
  0.841199994       2.54043592E-10
  0.853200018       3.71116110E-10
  0.865199983       4.66239880E-10
  0.877200007       5.23795896E-10
  0.889199972       5.32024258E-10
  0.901199996       4.84794094E-10
  0.913200021       3.82136434E-10
  0.925199986       2.29234090E-10
  0.937200010       3.38283984E-11
  0.949199975      -1.97722477E-10
  0.961199999      -4.65320005E-10
  0.973200023      -7.80474796E-10
  0.985199988      -1.17181709E-09
  0.997200012      -1.69077441E-09
   1.00919998      -2.41787790E-09
   1.02119994      -3.47065132E-09
   1.03320003      -5.01447461E-09
   1.04519999      -7.27814342E-09
   1.05719995      -1.05759996E-08
   1.06920004      -1.53385162E-08
   1.08120000      -2.21532535E-08
   1.09319997      -3.18181002E-08
   1.10520005      -4.54090276E-08
   1.11720002      -6.43650679E-08
   1.12919998      -9.05940354E-08
   1.14119995      -1.26603268E-07
   1.15320003      -1.75660290E-07
   1.16520000      -2.41988545E-07
   1.17719996      -3.31002695E-07
   1.18920004      -4.49585286E-07
   1.20120001      -6.06404569E-07
   1.21319997      -8.12267274E-07
   1.22520006      -1.08049494E-06
   1.23720002      -1.42730687E-06
   1.24919999      -1.87218268E-06
   1.26119995      -2.43817840E-06
   1.27320004      -3.15215539E-06
   1.28520000      -4.04488492E-06
   1.29719996      -5.15099373E-06
   1.30920005      -6.50870470E-06
   1.32120001      -8.15934618E-06
   1.33319998      -1.01466030E-05
   1.34519994      -1.25155020E-05
   1.35720003      -1.53111232E-05
   1.36919999      -1.85770659E-05
   1.38119996      -2.23537118E-05
   1.39320004      -2.66763145E-05
   1.40520000      -3.15730249E-05
   1.41719997      -3.70629168E-05
   1.42920005      -4.31541303E-05
   1.44120002      -4.98422123E-05
   1.45319998      -5.71087912E-05
   1.46519995      -6.49206631E-05
   1.47720003      -7.32293920E-05
   1.48920000      -8.19714551E-05
   1.50119996      -9.10690142E-05
   1.51320004      -1.00431294E-04
   1.52520001      -1.09956556E-04
   1.53719997      -1.19534612E-04
   1.54920006      -1.29049804E-04
   1.56120002      -1.38384290E-04
   1.57319999      -1.47421641E-04
   1.58519995      -1.56050359E-04
   1.59720004      -1.64167461E-04
   1.60920000      -1.71681604E-04
   1.62119997      -1.78516100E-04
   1.63320005      -1.84611068E-04
   1.64520001      -1.89925151E-04
   1.65719998      -1.94436507E-04
   1.66919994      -1.98142894E-04
   1.68120003      -2.01061121E-04
   1.69319999      -2.03225776E-04
   1.70519996      -2.04687080E-04
   1.71720004      -2.05508462E-04
   1.72920001      -2.05763601E-04
   1.74119997      -2.05533055E-04
   1.75320005      -2.04901051E-04
   1.76520002      -2.03952266E-04
   1.77719998      -2.02768686E-04
   1.78919995      -2.01427159E-04
   1.80120003      -1.99997288E-04
   1.81320000      -1.98539958E-04
   1.82519996      -1.97106550E-04
   1.83720005      -1.95738947E-04
   1.84920001      -1.94469947E-04
   1.86119998      -1.93324420E-04
   1.87320006      -1.92320804E-04
   1.88520002      -1.91472907E-04
   1.89719999      -1.90791878E-04
   1.90919995      -1.90288018E-04
   1.92120004      -1.89972547E-04
   1.93320000      -1.89858853E-04
   1.94519997      -1.89963335E-04
   1.95720005      -1.90305756E-04
   1.96920002      -1.90908904E-04
   1.98119998      -1.91797779E-04
   1.99319994      -1.92998225E-04
   2.00519991      -1.94535125E-04
   2.01719999      -1.96430366E-04
   2.02920008      -1.98700713E-04
   2.04119992      -2.01355622E-04
   2.05320001      -2.04395372E-04
   2.06520009      -2.07809513E-04
   2.07719994      -2.11575942E-04
   2.08920002      -2.15660461E-04
   2.10120010      -2.20017188E-04
   2.11319995      -2.24589574E-04
   2.12520003      -2.29312165E-04
   2.13720012      -2.34112915E-04
   2.14919996      -2.38916109E-04
   2.16120005      -2.43645511E-04
   2.17319989      -2.48227763E-04
   2.18519998      -2.52595928E-04
   2.19720006      -2.56692321E-04
   2.20919991      -2.60471832E-04
   2.22119999      -2.63903843E-04
   2.23320007      -2.66974035E-04
   2.24519992      -2.69685581E-04
   2.25720000      -2.72059027E-04
   2.26920009      -2.74131977E-04
   2.28119993      -2.75957718E-04
   2.29320002      -2.77603482E-04
   2.30520010      -2.79147876E-04
   2.31719995      -2.80678243E-04
   2.32920003      -2.82287598E-04
   2.34120011      -2.84071488E-04
   2.35319996      -2.86125054E-04
   2.36520004      -2.88540090E-04
   2.37719989      -2.91402423E-04
   2.38919997      -2.94789672E-04
   2.40120006      -2.98769242E-04
   2.41319990      -3.03396897E-04
   2.42519999      -3.08715622E-04
   2.43720007      -3.14754405E-04
   2.44919991      -3.21527827E-04
   2.46120000      -3.29035422E-04
   2.47320008      -3.37261357E-04
   2.48519993      -3.46173882E-04
   2.49720001      -3.55725235E-04
   2.50920010      -3.65851185E-04
   2.52119994      -3.76470678E-04
   2.53320003      -3.87485721E-04
   2.54520011      -3.98781296E-04
   2.55719995      -4.10225533E-04
   2.56920004      -4.21670149E-04
   2.58119988      -4.32951405E-04
   2.59319997      -4.43891680E-04
   2.60520005      -4.54301451E-04
   2.61719990      -4.63981967E-04
   2.62919998      -4.72728570E-04
   2.64120007      -4.80334566E-04
   2.65319991      -4.86595702E-04
   2.66520000      -4.91314859E-04
   2.67720008      -4.94307198E-04
   2.68919992      -4.95405169E-04
   2.70120001      -4.94463660E-04
   2.71320009      -4.91364452E-04
   2.72519994      -4.86020319E-04
   2.73720002      -4.78378934E-04
   2.74920011      -4.68425103E-04
   2.76119995      -4.56182548E-04
   2.77320004      -4.41714859E-04
   2.78520012      -4.25124832E-04
   2.79719996      -4.06553329E-04
   2.80920005      -3.86176951E-04
   2.82119989      -3.64204752E-04
   2.83319998      -3.40874452E-04
   2.84520006      -3.16447637E-04
   2.85719991      -2.91204808E-04
   2.86919999      -2.65439972E-04
   2.88120008      -2.39455039E-04
   2.89319992      -2.13554144E-04
   2.90520000      -1.88038102E-04
   2.91720009      -1.63198987E-04
   2.92919993      -1.39314943E-04
   2.94120002      -1.16645526E-04
   2.95320010      -9.54271673E-05
   2.96519995      -7.58693350E-05
   2.97720003      -5.81510831E-05
   2.98920012      -4.24181453E-05
   3.00119996      -2.87806652E-05
   3.01320004      -1.73114713E-05
   3.02519989      -8.04508272E-06
   3.03719997      -9.77392460E-07
   3.04920006       3.93388109E-06
   3.06119990       6.76795798E-06
   3.07319999       7.63894695E-06
   3.08520007       6.69297697E-06
   3.09719992       4.10451139E-06
   3.10920000       7.19074720E-08
   3.12120008      -5.18771549E-06
   3.13319993      -1.14441764E-05
   3.14520001      -1.84603596E-05
   3.15720010      -2.59985864E-05
   3.16919994      -3.38270002E-05
   3.18120003      -4.17257470E-05
   3.19320011      -4.94927408E-05
   3.20519996      -5.69487238E-05
   3.21720004      -6.39414429E-05
   3.22919989      -7.03487894E-05
   3.24119997      -7.60807379E-05
   3.25320005      -8.10799975E-05
   3.26519990      -8.53214151E-05
   3.27719998      -8.88101495E-05
   3.28920007      -9.15787095E-05
   3.30119991      -9.36830838E-05
   3.31320000      -9.51981347E-05
   3.32520008      -9.62124977E-05
   3.33719993      -9.68232926E-05
   3.34920001      -9.71308764E-05
   3.36120009      -9.72338676E-05
   3.37319994      -9.72246999E-05
   3.38520002      -9.71859045E-05
   3.39720011      -9.71870977E-05
   3.40919995      -9.72829002E-05
   3.42120004      -9.75117800E-05
   3.43319988      -9.78956887E-05
   3.44519997      -9.84404833E-05
   3.45720005      -9.91371053E-05
   3.46919990      -9.99631739E-05
   3.48119998      -1.00885147E-04
   3.49320006      -1.01860613E-04
   3.50519991      -1.02840902E-04
   3.51719999      -1.03773622E-04
   3.52920008      -1.04605213E-04
   3.54119992      -1.05283405E-04
   3.55320001      -1.05759515E-04
   3.56520009      -1.05990526E-04
   3.57719994      -1.05940991E-04
   3.58920002      -1.05584702E-04
   3.60120010      -1.04905987E-04
   3.61319995      -1.03900806E-04
   3.62520003      -1.02577491E-04
   3.63720012      -1.00956982E-04
   3.64919996      -9.90728004E-05
   3.66120005      -9.69704197E-05
   3.67319989      -9.47062363E-05
   3.68519998      -9.23460611E-05
   3.69720006      -8.99630904E-05
   3.70919991      -8.76355916E-05
   3.72119999      -8.54440950E-05
   3.73320007      -8.34685852E-05
   3.74519992      -8.17853943E-05
   3.75720000      -8.04642550E-05
   3.76920009      -7.95655433E-05
   3.78119993      -7.91377752E-05
   3.79320002      -7.92156425E-05
   3.80520010      -7.98185720E-05
   3.81719995      -8.09499033E-05
   3.82920003      -8.25967509E-05
   3.84120011      -8.47305346E-05
   3.85319996      -8.73081153E-05
   3.86520004      -9.02734464E-05
   3.87719989      -9.35596472E-05
   3.88919997      -9.70914043E-05
   3.90120006      -1.00787474E-04
   3.91319990      -1.04563194E-04
   3.92519999      -1.08332941E-04
   3.93720007      -1.12012349E-04
   3.94919991      -1.15520255E-04
   3.96120000      -1.18780285E-04
   3.97320008      -1.21722223E-04
   3.98519993      -1.24282989E-04
   3.99720001      -1.26407351E-04
   4.00920010      -1.28048574E-04
   4.02120018      -1.29168839E-04
   4.03319979      -1.29739608E-04
   4.04519987      -1.29742009E-04
   4.05719995      -1.29167369E-04
   4.06920004      -1.28017607E-04
   4.08120012      -1.26305735E-04
   4.09320021      -1.24056402E-04
   4.10519981      -1.21306213E-04
   4.11719990      -1.18103955E-04
   4.12919998      -1.14510527E-04
   4.14120007      -1.10598521E-04
   4.15320015      -1.06451371E-04
   4.16520023      -1.02161983E-04
   4.17719984      -9.78309108E-05
   4.18919992      -9.35639982E-05
   4.20120001      -8.94694967E-05
   4.21320009      -8.56549595E-05
   4.22520018      -8.22237416E-05
   4.23719978      -7.92714345E-05
   4.24919987      -7.68824029E-05
   4.26119995      -7.51264961E-05
   4.27320004      -7.40562100E-05
   4.28520012      -7.37043956E-05
   4.29720020      -7.40826799E-05
   4.30919981      -7.51807675E-05
   4.32119989      -7.69664912E-05
   4.33319998      -7.93868530E-05
   4.34520006      -8.23698865E-05
   4.35720015      -8.58272469E-05
   4.36920023      -8.96575730E-05
   4.38119984      -9.37502555E-05
   4.39319992      -9.79895922E-05
   4.40520000      -1.02259080E-04
   4.41720009      -1.06445601E-04
   4.42920017      -1.10443412E-04
   4.44119978      -1.14157738E-04
   4.45319986      -1.17507690E-04
   4.46519995      -1.20428689E-04
   4.47720003      -1.22873913E-04
   4.48920012      -1.24815226E-04
   4.50120020      -1.26243162E-04
   4.51319981      -1.27166219E-04
   4.52519989      -1.27609528E-04
   4.53719997      -1.27612962E-04
   4.54920006      -1.27228748E-04
   4.56120014      -1.26518731E-04
   4.57320023      -1.25551509E-04
   4.58519983      -1.24399477E-04
   4.59719992      -1.23135833E-04
   4.60920000      -1.21831894E-04
   4.62120008      -1.20554563E-04
   4.63320017      -1.19364195E-04
   4.64519978      -1.18312812E-04
   4.65719986      -1.17442883E-04
   4.66919994      -1.16786439E-04
   4.68120003      -1.16364783E-04
   4.69320011      -1.16188581E-04
   4.70520020      -1.16258474E-04
   4.71719980      -1.16566080E-04
   4.72919989      -1.17095253E-04
   4.74119997      -1.17823758E-04
   4.75320005      -1.18724936E-04
   4.76520014      -1.19769669E-04
   4.77720022      -1.20928256E-04
   4.78919983      -1.22172074E-04
   4.80119991      -1.23475271E-04
   4.81320000      -1.24816084E-04
   4.82520008      -1.26177722E-04
   4.83720016      -1.27548992E-04
   4.84919977      -1.28924439E-04
   4.86119986      -1.30304004E-04
   4.87319994      -1.31692228E-04
   4.88520002      -1.33097157E-04
   4.89720011      -1.34528833E-04
   4.90920019      -1.35997558E-04
   4.92119980      -1.37512106E-04
   4.93319988      -1.39077820E-04
   4.94519997      -1.40694960E-04
   4.95720005      -1.42357210E-04
   4.96920013      -1.44050558E-04
   4.98120022      -1.45752623E-04
   4.99319983      -1.47432525E-04
   5.00519991      -1.49051237E-04
   5.01719999      -1.50562439E-04
   5.02920008      -1.51913962E-04
   5.04120016      -1.53049623E-04
   5.05319977      -1.53911446E-04
   5.06519985      -1.54442052E-04
   5.07719994      -1.54587266E-04
   5.08920002      -1.54298628E-04
   5.10120010      -1.53535861E-04
   5.11320019      -1.52268956E-04
   5.12519979      -1.50479973E-04
   5.13719988      -1.48164443E-04
   5.14919996      -1.45332175E-04
   5.16120005      -1.42007702E-04
   5.17320013      -1.38229996E-04
   5.18520021      -1.34051996E-04
   5.19719982      -1.29539316E-04
   5.20919991      -1.24768922E-04
   5.22119999      -1.19827120E-04
   5.23320007      -1.14807590E-04
   5.24520016      -1.09808978E-04
   5.25719976      -1.04932449E-04
   5.26919985      -1.00279147E-04
   5.28119993      -9.59476092E-05
   5.29320002      -9.20312741E-05
   5.30520010      -8.86159905E-05
   5.31720018      -8.57777559E-05
   5.32919979      -8.35805695E-05
   5.34119987      -8.20745699E-05
   5.35319996      -8.12944272E-05
   5.36520004      -8.12581275E-05
   5.37720013      -8.19661072E-05
   5.38920021      -8.34008970E-05
   5.40119982      -8.55272519E-05
   5.41319990      -8.82927634E-05
   5.42519999      -9.16291319E-05
   5.43720007      -9.54538773E-05
   5.44920015      -9.96726521E-05
   5.46120024      -1.04181985E-04
   5.47319984      -1.08872395E-04
   5.48519993      -1.13631810E-04
   5.49720001      -1.18349119E-04
   5.50920010      -1.22917714E-04
   5.52120018      -1.27238935E-04
   5.53319979      -1.31225112E-04
   5.54519987      -1.34802336E-04
   5.55719995      -1.37912575E-04
   5.56920004      -1.40515054E-04
   5.58120012      -1.42587072E-04
   5.59320021      -1.44124017E-04
   5.60519981      -1.45138532E-04
   5.61719990      -1.45659171E-04
   5.62919998      -1.45728278E-04
   5.64120007      -1.45399506E-04
   5.65320015      -1.44734906E-04
   5.66520023      -1.43801924E-04
   5.67719984      -1.42670338E-04
   5.68919992      -1.41409371E-04
   5.70120001      -1.40084914E-04
   5.71320009      -1.38757459E-04
   5.72520018      -1.37480238E-04
   5.73719978      -1.36297953E-04
   5.74919987      -1.35246184E-04
   5.76119995      -1.34351110E-04
   5.77320004      -1.33629816E-04
   5.78520012      -1.33091002E-04
   5.79720020      -1.32735964E-04
   5.80919981      -1.32559726E-04
   5.82119989      -1.32552334E-04
   5.83319998      -1.32700035E-04
   5.84520006      -1.32986548E-04
   5.85720015      -1.33393914E-04
   5.86920023      -1.33903421E-04
   5.88119984      -1.34496106E-04
   5.89319992      -1.35153285E-04
   5.90520000      -1.35856710E-04
   5.91720009      -1.36588686E-04
   5.92920017      -1.37332187E-04
   5.94119978      -1.38070842E-04
   5.95319986      -1.38788964E-04
   5.96519995      -1.39471682E-04
   5.97720003      -1.40105098E-04
   5.98920012      -1.40676508E-04
   6.00120020      -1.41174693E-04
   6.01319981      -1.41590237E-04
   6.02519989      -1.41915691E-04
   6.03719997      -1.42145946E-04
   6.04920006      -1.42278252E-04
   6.06120014      -1.42312187E-04
   6.07320023      -1.42249512E-04
   6.08519983      -1.42093806E-04
   6.09719992      -1.41850003E-04
   6.10920000      -1.41523778E-04
   6.12120008      -1.41120952E-04
   6.13320017      -1.40646851E-04
   6.14519978      -1.40105738E-04
   6.15719986      -1.39500393E-04
   6.16919994      -1.38831965E-04
   6.18120003      -1.38099975E-04
   6.19320011      -1.37302646E-04
   6.20520020      -1.36437491E-04
   6.21719980      -1.35502225E-04
   6.22919989      -1.34495698E-04
   6.24119997      -1.33419104E-04
   6.25320005      -1.32277157E-04
   6.26520014      -1.31079010E-04
   6.27720022      -1.29839245E-04
   6.28919983      -1.28578162E-04
   6.30119991      -1.27322055E-04
   6.31320000      -1.26102692E-04
   6.32520008      -1.24956525E-04
   6.33720016      -1.23923339E-04
   6.34919977      -1.23044505E-04
   6.36119986      -1.22361031E-04
   6.37319994      -1.21911260E-04
   6.38520002      -1.21728706E-04
   6.39720011      -1.21839854E-04
   6.40920019      -1.22262369E-04
   6.42119980      -1.23003600E-04
   6.43319988      -1.24059676E-04
   6.44519997      -1.25415143E-04
   6.45720005      -1.27043197E-04
   6.46920013      -1.28906700E-04
   6.48120022      -1.30959481E-04
   6.49319983      -1.33148438E-04
   6.50519991      -1.35415656E-04
   6.51719999      -1.37701063E-04
   6.52920008      -1.39944837E-04
   6.54120016      -1.42089950E-04
   6.55319977      -1.44084232E-04
   6.56519985      -1.45882237E-04
   6.57719994      -1.47446655E-04
   6.58920002      -1.48749154E-04
   6.60120010      -1.49770800E-04
   6.61320019      -1.50502005E-04
   6.62519979      -1.50942113E-04
   6.63719988      -1.51098633E-04
   6.64919996      -1.50986263E-04
   6.66120005      -1.50625841E-04
   6.67320013      -1.50043154E-04
   6.68520021      -1.49267900E-04
   6.69719982      -1.48332780E-04
   6.70919991      -1.47272498E-04
   6.72119999      -1.46123231E-04
   6.73320007      -1.44921854E-04
   6.74520016      -1.43705518E-04
   6.75719976      -1.42511097E-04
   6.76919985      -1.41374563E-04
   6.78119993      -1.40330449E-04
   6.79320002      -1.39411030E-04
   6.80520010      -1.38645468E-04
   6.81720018      -1.38058735E-04
   6.82919979      -1.37670606E-04
   6.84119987      -1.37494528E-04
   6.85319996      -1.37536641E-04
   6.86520004      -1.37794908E-04
   6.87720013      -1.38258605E-04
   6.88920021      -1.38908086E-04
   6.90119982      -1.39715121E-04
   6.91319990      -1.40643577E-04
   6.92519999      -1.41650802E-04
   6.93720007      -1.42689285E-04
   6.94920015      -1.43708879E-04
   6.96120024      -1.44659236E-04
   6.97319984      -1.45492435E-04
   6.98519993      -1.46165607E-04
   6.99720001      -1.46643259E-04
   7.00920010      -1.46899547E-04
   7.02120018      -1.46919672E-04
   7.03319979      -1.46700986E-04
   7.04519987      -1.46253180E-04
   7.05719995      -1.45598024E-04
   7.06920004      -1.44768084E-04
   7.08120012      -1.43805126E-04
   7.09320021      -1.42757839E-04
   7.10519981      -1.41679280E-04
   7.11719990      -1.40624150E-04
   7.12919998      -1.39646014E-04
   7.14120007      -1.38794843E-04
   7.15320015      -1.38114759E-04
   7.16520023      -1.37642288E-04
   7.17719984      -1.37405092E-04
   7.18919992      -1.37421390E-04
   7.20120001      -1.37699695E-04
   7.21320009      -1.38239207E-04
   7.22520018      -1.39030599E-04
   7.23719978      -1.40056931E-04
   7.24919987      -1.41294964E-04
   7.26119995      -1.42716337E-04
   7.27320004      -1.44288904E-04
   7.28520012      -1.45977756E-04
   7.29720020      -1.47746177E-04
   7.30919981      -1.49556392E-04
   7.32119989      -1.51370172E-04
   7.33319998      -1.53149158E-04
   7.34520006      -1.54855370E-04
   7.35720015      -1.56451308E-04
   7.36920023      -1.57900489E-04
   7.38119984      -1.59167859E-04
   7.39319992      -1.60220414E-04
   7.40520000      -1.61027972E-04
   7.41720009      -1.61564094E-04
   7.42920017      -1.61807067E-04
   7.44119978      -1.61740914E-04
   7.45319986      -1.61356438E-04
   7.46519995      -1.60652009E-04
   7.47720003      -1.59634248E-04
   7.48920012      -1.58318420E-04
   7.50120020      -1.56728318E-04
   7.51319981      -1.54895912E-04
   7.52519989      -1.52860666E-04
   7.53719997      -1.50668246E-04
   7.54920006      -1.48369174E-04
   7.56120014      -1.46016944E-04
   7.57320023      -1.43666315E-04
   7.58519983      -1.41371318E-04
   7.59719992      -1.39183379E-04
   7.60920000      -1.37149647E-04
   7.62120008      -1.35311406E-04
   7.63320017      -1.33702997E-04
   7.64519978      -1.32350935E-04
   7.65719986      -1.31273351E-04
   7.66919994      -1.30479923E-04
   7.68120003      -1.29971988E-04
   7.69320011      -1.29743159E-04
   7.70520020      -1.29779844E-04
   7.71719980      -1.30062283E-04
   7.72919989      -1.30565488E-04
   7.74119997      -1.31260327E-04
   7.75320005      -1.32114583E-04
   7.76520014      -1.33094087E-04
   7.77720022      -1.34163667E-04
   7.78919983      -1.35288166E-04
   7.80119991      -1.36433358E-04
   7.81320000      -1.37566836E-04
   7.82520008      -1.38658637E-04
   7.83720016      -1.39682103E-04
   7.84919977      -1.40614386E-04
   7.86119986      -1.41436933E-04
   7.87319994      -1.42135905E-04
   7.88520002      -1.42702367E-04
   7.89720011      -1.43132391E-04
   7.90920019      -1.43426951E-04
   7.92119980      -1.43591751E-04
   7.93319988      -1.43636746E-04
   7.94519997      -1.43575613E-04
   7.95720005      -1.43425044E-04
   7.96920013      -1.43203826E-04
   7.98120022      -1.42931982E-04
   7.99319983      -1.42629826E-04
   8.00520039      -1.42317062E-04
   8.01720047      -1.42011922E-04
   8.02919960      -1.41730459E-04
   8.04119968      -1.41486074E-04
   8.05319977      -1.41289085E-04
   8.06519985      -1.41146680E-04
   8.07719994      -1.41062861E-04
   8.08920002      -1.41038719E-04
   8.10120010      -1.41072829E-04
   8.11320019      -1.41161552E-04
   8.12520027      -1.41299519E-04
   8.13720036      -1.41480079E-04
   8.14920044      -1.41695709E-04
   8.16119957      -1.41938188E-04
   8.17319965      -1.42198798E-04
   8.18519974      -1.42468358E-04
   8.19719982      -1.42737117E-04
   8.20919991      -1.42994526E-04
   8.22119999      -1.43229059E-04
   8.23320007      -1.43428013E-04
   8.24520016      -1.43577359E-04
   8.25720024      -1.43661731E-04
   8.26920033      -1.43664671E-04
   8.28120041      -1.43569036E-04
   8.29319954      -1.43357640E-04
   8.30519962      -1.43014127E-04
   8.31719971      -1.42523975E-04
   8.32919979      -1.41875731E-04
   8.34119987      -1.41062090E-04
   8.35319996      -1.40081131E-04
   8.36520004      -1.38937248E-04
   8.37720013      -1.37641953E-04
   8.38920021      -1.36214338E-04
   8.40120029      -1.34681060E-04
   8.41320038      -1.33075999E-04
   8.42520046      -1.31439388E-04
   8.43719959      -1.29816559E-04
   8.44919968      -1.28256244E-04
   8.46119976      -1.26808736E-04
   8.47319984      -1.25523569E-04
   8.48519993      -1.24447441E-04
   8.49720001      -1.23621983E-04
   8.50920010      -1.23081947E-04
   8.52120018      -1.22853438E-04
   8.53320026      -1.22952843E-04
   8.54520035      -1.23386126E-04
   8.55720043      -1.24148602E-04
   8.56919956      -1.25225386E-04
   8.58119965      -1.26592204E-04
   8.59319973      -1.28216765E-04
   8.60519981      -1.30060318E-04
   8.61719990      -1.32079600E-04
   8.62919998      -1.34228772E-04
   8.64120007      -1.36461313E-04
   8.65320015      -1.38731950E-04
   8.66520023      -1.40998091E-04
   8.67720032      -1.43221099E-04
   8.68920040      -1.45367201E-04
   8.70119953      -1.47407976E-04
   8.71319962      -1.49320374E-04
   8.72519970      -1.51086642E-04
   8.73719978      -1.52693668E-04
   8.74919987      -1.54132373E-04
   8.76119995      -1.55396803E-04
   8.77320004      -1.56483220E-04
   8.78520012      -1.57389281E-04
   8.79720020      -1.58113180E-04
   8.80920029      -1.58652969E-04
   8.82120037      -1.59006129E-04
   8.83320045      -1.59169271E-04
   8.84519958      -1.59138057E-04
   8.85719967      -1.58907234E-04
   8.86919975      -1.58471157E-04
   8.88119984      -1.57824092E-04
   8.89319992      -1.56961018E-04
   8.90520000      -1.55878268E-04
   8.91720009      -1.54574416E-04
   8.92920017      -1.53051093E-04
   8.94120026      -1.51313914E-04
   8.95320034      -1.49373212E-04
   8.96520042      -1.47244733E-04
   8.97719955      -1.44950231E-04
   8.98919964      -1.42517747E-04
   9.00119972      -1.39981756E-04
   9.01319981      -1.37382958E-04
   9.02519989      -1.34767746E-04
   9.03719997      -1.32187430E-04
   9.04920006      -1.29697088E-04
   9.06120014      -1.27354084E-04
   9.07320023      -1.25216437E-04
   9.08520031      -1.23340855E-04
   9.09720039      -1.21780817E-04
   9.10919952      -1.20584533E-04
   9.12119961      -1.19793054E-04
   9.13319969      -1.19438475E-04
   9.14519978      -1.19542470E-04
   9.15719986      -1.20115117E-04
   9.16919994      -1.21154211E-04
   9.18120003      -1.22644909E-04
   9.19320011      -1.24559956E-04
   9.20520020      -1.26860221E-04
   9.21720028      -1.29495806E-04
   9.22920036      -1.32407295E-04
   9.24120045      -1.35527633E-04
   9.25319958      -1.38783755E-04
   9.26519966      -1.42098768E-04
   9.27719975      -1.45393904E-04
   9.28919983      -1.48590552E-04
   9.30119991      -1.51612257E-04
   9.31320000      -1.54386536E-04
   9.32520008      -1.56846523E-04
   9.33720016      -1.58932526E-04
   9.34920025      -1.60593452E-04
   9.36120033      -1.61787844E-04
   9.37320042      -1.62485012E-04
   9.38519955      -1.62665761E-04
   9.39719963      -1.62323020E-04
   9.40919971      -1.61462260E-04
   9.42119980      -1.60101597E-04
   9.43319988      -1.58271738E-04
   9.44519997      -1.56015521E-04
