 -0.622799993         1.00000002E-24
 -0.610800028         1.00000002E-24
 -0.598800004         1.00000002E-24
 -0.586799979         1.00000002E-24
 -0.574800014        -4.84545978E-24
 -0.562799990        -5.07023023E-23
 -0.550800025        -2.47491389E-22
 -0.538800001        -7.81712437E-22
 -0.526799977        -1.46921332E-21
 -0.514800012         3.66571924E-23
 -0.502799988         1.23141699E-20
 -0.490799993         5.58709904E-20
 -0.478799999         1.66264609E-19
 -0.466800004         3.87096383E-19
 -0.454800010         7.47198606E-19
 -0.442799985         1.22786514E-18
 -0.430799991         1.74473029E-18
 -0.418799996         2.18112597E-18
 -0.406800002         2.49488095E-18
 -0.394800007         2.86738685E-18
 -0.382800013         3.79108786E-18
 -0.370799989         5.95501716E-18
 -0.358799994         9.85617133E-18
 -0.346799999         1.52634245E-17
 -0.334800005         2.09155546E-17
 -0.322800010         2.49603255E-17
 -0.310799986         2.64216575E-17
 -0.298799992         2.73337565E-17
 -0.286799997         3.43176557E-17
 -0.274800003         5.78378713E-17
 -0.262800008         1.07824965E-16
 -0.250800014         1.86134008E-16
 -0.238800004         2.79007835E-16
 -0.226799995         3.54973482E-16
 -0.214800000         3.73536712E-16
 -0.202800006         3.06258553E-16
 -0.190799996         1.64606546E-16
 -0.178800002         2.11127048E-17
 -0.166800007         6.49890371E-18
 -0.154799998         2.70139718E-16
 -0.142800003         9.06131283E-16
 -0.130799994         1.86855362E-15
 -0.118799999         2.91788133E-15
 -0.106799997         3.64398529E-15
  -9.48000029E-02     3.59108935E-15
  -8.28000009E-02     2.46726002E-15
  -7.07999989E-02     3.69177298E-16
  -5.88000007E-02    -2.08401128E-15
  -4.67999987E-02    -3.81113665E-15
  -3.48000005E-02    -3.57153009E-15
  -2.28000004E-02    -4.58779938E-16
  -1.08000003E-02     5.57211985E-15
   1.20000006E-03     1.33680434E-14
   1.31999999E-02     2.06369616E-14
   2.52000000E-02     2.44921779E-14
   3.72000001E-02     2.23859830E-14
   4.91999984E-02     1.31535679E-14
   6.12000003E-02    -2.21129047E-15
   7.32000023E-02    -2.03832905E-14
   8.51999968E-02    -3.62818804E-14
   9.71999988E-02    -4.42784576E-14
  0.109200001        -3.96878880E-14
  0.121200003        -2.01124636E-14
  0.133200005         1.36932871E-14
  0.145199999         5.75382366E-14
  0.157199994         1.03969994E-13
  0.169200003         1.42728548E-13
  0.181199998         1.61471639E-13
  0.193200007         1.47096351E-13
  0.205200002         8.82347851E-14
  0.217199996        -2.06208460E-14
  0.229200006        -1.73600853E-13
  0.241200000        -3.47968751E-13
  0.253199995        -5.01322833E-13
  0.265199989        -5.74751401E-13
  0.277200013        -5.04463279E-13
  0.289200008        -2.41992922E-13
  0.301200002         2.20660106E-13
  0.313199997         8.28522147E-13
  0.325199991         1.45375053E-12
  0.337199986         1.90760407E-12
  0.349200010         1.97877500E-12
  0.361200005         1.49434002E-12
  0.373199999         3.89972451E-13
  0.385199994        -1.23160965E-12
  0.397199988        -3.07730360E-12
  0.409200013        -4.69339671E-12
  0.421200007        -5.55353246E-12
  0.433200002        -5.19224854E-12
  0.445199996        -3.35408394E-12
  0.457199991        -1.17152436E-13
  0.469199985         4.05006237E-12
  0.481200010         8.32734489E-12
  0.493200004         1.16824935E-11
  0.505200028         1.30903543E-11
  0.517199993         1.17852776E-11
  0.529200017         7.48778903E-12
  0.541199982         5.48031130E-13
  0.553200006        -8.03486704E-12
  0.565199971        -1.67314548E-11
  0.577199996        -2.37230027E-11
  0.589200020        -2.72245334E-11
  0.601199985        -2.58349713E-11
  0.613200009        -1.88566263E-11
  0.625199974        -6.53267327E-12
  0.637199998         9.83763331E-12
  0.649200022         2.79343319E-11
  0.661199987         4.46198321E-11
  0.673200011         5.63143907E-11
  0.685199976         5.95306027E-11
  0.697200000         5.15265226E-11
  0.709200025         3.10009136E-11
  0.721199989        -1.28467473E-12
  0.733200014        -4.21014161E-11
  0.745199978        -8.57152960E-11
  0.757200003        -1.24331545E-10
  0.769200027        -1.49061458E-10
  0.781199992        -1.51341023E-10
  0.793200016        -1.24607352E-10
  0.805199981        -6.59317601E-11
  0.817200005         2.27449622E-11
  0.829200029         1.34107933E-10
  0.841199994         2.55915900E-10
  0.853200018         3.72439107E-10
  0.865199983         4.66700345E-10
  0.877200007         5.23118271E-10
  0.889199972         5.30003541E-10
  0.901199996         4.81316986E-10
  0.913200021         3.77184478E-10
  0.925199986         2.22866933E-10
  0.937200010         2.61477177E-11
  0.949199975        -2.06629103E-10
  0.961199999        -4.75453787E-10
  0.973200023        -7.92021393E-10
  0.985199988        -1.18527621E-09
  0.997200012        -1.70713454E-09
   1.00919998        -2.43886467E-09
   1.02119994        -3.49908036E-09
   1.03320003        -5.05476505E-09
   1.04519999        -7.33705230E-09
   1.05719995        -1.06636406E-08
   1.06920004        -1.54697855E-08
   1.08120000        -2.23497434E-08
   1.09319997        -3.21106519E-08
   1.10520005        -4.58410803E-08
   1.11720002        -6.49969323E-08
   1.12919998        -9.15082197E-08
   1.14119995        -1.27910965E-07
   1.15320003        -1.77509293E-07
   1.16520000        -2.44572533E-07
   1.17719996        -3.34571780E-07
   1.18920004        -4.54457819E-07
   1.20120001        -6.12979932E-07
   1.21319997        -8.21039293E-07
   1.22520006        -1.09206508E-06
   1.23720002        -1.44239652E-06
   1.24919999        -1.89164382E-06
   1.26119995        -2.46300056E-06
   1.27320004        -3.18346838E-06
   1.28520000        -4.08395863E-06
   1.29719996        -5.19922651E-06
   1.30920005        -6.56760903E-06
   1.32120001        -8.23052505E-06
   1.33319998        -1.02317154E-05
   1.34519994        -1.26162249E-05
   1.35720003        -1.54290974E-05
   1.36919999        -1.87138412E-05
   1.38119996        -2.25106851E-05
   1.39320004        -2.68546646E-05
   1.40520000        -3.17736412E-05
   1.41719997        -3.72863396E-05
   1.42920005        -4.34004760E-05
   1.44120002        -5.01111390E-05
   1.45319998        -5.73994512E-05
   1.46519995        -6.52316812E-05
   1.47720003        -7.35588619E-05
   1.48920000        -8.23169539E-05
   1.50119996        -9.14276316E-05
   1.51320004        -1.00799691E-04
   1.52520001        -1.10331035E-04
   1.53719997        -1.19911223E-04
   1.54920006        -1.29424428E-04
   1.56120002        -1.38752788E-04
   1.57319999        -1.47779938E-04
   1.58519995        -1.56394570E-04
   1.59720004        -1.64494035E-04
   1.60920000        -1.71987442E-04
   1.62119997        -1.78798582E-04
   1.63320005        -1.84868186E-04
   1.64520001        -1.90155552E-04
   1.65719998        -1.94639491E-04
   1.66919994        -1.98318448E-04
   1.68120003        -2.01209899E-04
   1.69319999        -2.03349002E-04
   1.70519996        -2.04786527E-04
   1.71720004        -2.05586373E-04
   1.72920001        -2.05822478E-04
   1.74119997        -2.05575663E-04
   1.75320005        -2.04930315E-04
   1.76520002        -2.03971023E-04
   1.77719998        -2.02779760E-04
   1.78919995        -2.01433184E-04
   1.80120003        -2.00000650E-04
   1.81320000        -1.98542766E-04
   1.82519996        -1.97110669E-04
   1.83720005        -1.95745917E-04
   1.84920001        -1.94481065E-04
   1.86119998        -1.93340777E-04
   1.87320006        -1.92343286E-04
   1.88520002        -1.91502302E-04
   1.89719999        -1.90828898E-04
   1.90919995        -1.90333361E-04
   1.92120004        -1.90026942E-04
   1.93320000        -1.89923041E-04
   1.94519997        -1.90038147E-04
   1.95720005        -1.90392078E-04
   1.96920002        -1.91007653E-04
   1.98119998        -1.91909887E-04
   1.99319994        -1.93124564E-04
   2.00519991        -1.94676468E-04
   2.01719999        -1.96587367E-04
   2.02920008        -1.98873749E-04
   2.04119992        -2.01544797E-04
   2.05320001        -2.04600408E-04
   2.06520009        -2.08029771E-04
   2.07719994        -2.11810286E-04
   2.08920002        -2.15907363E-04
   2.10120010        -2.20274684E-04
   2.11319995        -2.24855277E-04
   2.12520003        -2.29583355E-04
   2.13720012        -2.34386695E-04
   2.14919996        -2.39189467E-04
   2.16120005        -2.43915449E-04
   2.17319989        -2.48491502E-04
   2.18519998        -2.52850907E-04
   2.19720006        -2.56936532E-04
   2.20919991        -2.60703673E-04
   2.22119999        -2.64122413E-04
   2.23320007        -2.67179217E-04
   2.24519992        -2.69877812E-04
   2.25720000        -2.72239617E-04
   2.26920009        -2.74302874E-04
   2.28119993        -2.76121544E-04
   2.29320002        -2.77763465E-04
   2.30520010        -2.79307744E-04
   2.31719995        -2.80842098E-04
   2.32920003        -2.82459776E-04
   2.34120011        -2.84256443E-04
   2.35319996        -2.86327209E-04
   2.36520004        -2.88763695E-04
   2.37719989        -2.91651406E-04
   2.38919997        -2.95067526E-04
   2.40120006        -2.99078965E-04
   2.41319990        -3.03740875E-04
   2.42519999        -3.09095485E-04
   2.43720007        -3.15171084E-04
   2.44919991        -3.21981439E-04
   2.46120000        -3.29525385E-04
   2.47320008        -3.37786187E-04
   2.48519993        -3.46731336E-04
   2.49720001        -3.56312259E-04
   2.50920010        -3.66463879E-04
   2.52119994        -3.77104327E-04
   2.53320003        -3.88134766E-04
   2.54520011        -3.99439334E-04
   2.55719995        -4.10885288E-04
   2.56920004        -4.22323588E-04
   2.58119988        -4.33589827E-04
   2.59319997        -4.44505713E-04
   2.60520005        -4.54881112E-04
   2.61719990        -4.64516896E-04
   2.62919998        -4.73208114E-04
   2.64120007        -4.80748015E-04
   2.65319991        -4.86932520E-04
   2.66520000        -4.91564919E-04
   2.67720008        -4.94461041E-04
   2.68919992        -4.95454296E-04
   2.70120001        -4.94400796E-04
   2.71320009        -4.91183600E-04
   2.72519994        -4.85717552E-04
   2.73720002        -4.77952010E-04
   2.74920011        -4.67874022E-04
   2.76119995        -4.55509638E-04
   2.77320004        -4.40924632E-04
   2.78520012        -4.24224301E-04
   2.79719996        -4.05551778E-04
   2.80920005        -3.85085819E-04
   2.82119989        -3.63037572E-04
   2.83319998        -3.39646329E-04
   2.84520006        -3.15175246E-04
   2.85719991        -2.89905875E-04
   2.86919999        -2.64132890E-04
   2.88120008        -2.38158536E-04
   2.89319992        -2.12286774E-04
   2.90520000        -1.86817822E-04
   2.91720009        -1.62042794E-04
   2.92919993        -1.38238524E-04
   2.94120002        -1.15662842E-04
   2.95320010        -9.45502543E-05
   2.96519995        -7.51080006E-05
   2.97720003        -5.75127742E-05
   2.98920012        -4.19078133E-05
   3.00119996        -2.84007001E-05
   3.01320004        -1.70617041E-05
   3.02519989        -7.92285300E-06
   3.03719997        -9.77670879E-07
   3.04920006         3.81830887E-06
   3.06119990         6.54626137E-06
   3.07319999         7.32196395E-06
   3.08520007         6.29289025E-06
   3.09719992         3.63449635E-06
   3.10920000        -4.54233600E-07
   3.12120008        -5.75593140E-06
   3.13319993        -1.20405402E-05
   3.14520001        -1.90714400E-05
   3.15720010        -2.66117640E-05
   3.16919994        -3.44307773E-05
   3.18120003        -4.23100064E-05
   3.19320011        -5.00489259E-05
   3.20519996        -5.74699843E-05
   3.21720004        -6.44226893E-05
   3.22919989        -7.07867148E-05
   3.24119997        -7.64737488E-05
   3.25320005        -8.14280866E-05
   3.26519990        -8.56260376E-05
   3.27719998        -8.90739611E-05
   3.28920007        -9.18053847E-05
   3.30119991        -9.38770318E-05
   3.31320000        -9.53642520E-05
   3.32520008        -9.63558705E-05
   3.33719993        -9.69489774E-05
   3.34920001        -9.72436392E-05
   3.36120009        -9.73379865E-05
   3.37319994        -9.73238057E-05
   3.38520002        -9.72828420E-05
   3.39720011        -9.72838752E-05
   3.40919995        -9.73806891E-05
   3.42120004        -9.76109222E-05
   3.43319988        -9.79958277E-05
   3.44519997        -9.85406223E-05
   3.45720005        -9.92357600E-05
   3.46919990        -1.00058554E-04
   3.48119998        -1.00975252E-04
   3.49320006        -1.01943464E-04
   3.50519991        -1.02914615E-04
   3.51719999        -1.03836559E-04
   3.52920008        -1.04656108E-04
   3.54119992        -1.05321444E-04
   3.55320001        -1.05784406E-04
   3.56520009        -1.06002561E-04
   3.57719994        -1.05941035E-04
   3.58920002        -1.05574174E-04
   3.60120010        -1.04886829E-04
   3.61319995        -1.03875434E-04
   3.62520003        -1.02548656E-04
   3.63720012        -1.00927697E-04
   3.64919996        -9.90461776E-05
   3.66120005        -9.69495595E-05
   3.67319989        -9.46941072E-05
   3.68519998        -9.23453699E-05
   3.69720006        -8.99761726E-05
   3.70919991        -8.76643244E-05
   3.72119999        -8.54898826E-05
   3.73320007        -8.35322426E-05
   3.74519992        -8.18672197E-05
   3.75720000        -8.05639866E-05
   3.76920009        -7.96823660E-05
   3.78119993        -7.92704013E-05
   3.79320002        -7.93623549E-05
   3.80520010        -7.99772461E-05
   3.81719995        -8.11181308E-05
   3.82920003        -8.27719414E-05
   3.84120011        -8.49100034E-05
   3.85319996        -8.74891703E-05
   3.86520004        -9.04535264E-05
   3.87719989        -9.37364166E-05
   3.88919997        -9.72627968E-05
   3.90120006        -1.00951751E-04
   3.91319990        -1.04719002E-04
   3.92519999        -1.08479304E-04
   3.93720007        -1.12148664E-04
   3.94919991        -1.15646224E-04
   3.96120000        -1.18895921E-04
   3.97320008        -1.21827739E-04
   3.98519993        -1.24378756E-04
   3.99720001        -1.26493847E-04
   4.00920010        -1.28126310E-04
   4.02120018        -1.29238309E-04
   4.03319979        -1.29801279E-04
   4.04519987        -1.29796332E-04
   4.05719995        -1.29214735E-04
   4.06920004        -1.28058382E-04
   4.08120012        -1.26340325E-04
   4.09320021        -1.24085200E-04
   4.10519981        -1.21329671E-04
   4.11719990        -1.18122618E-04
   4.12919998        -1.14525043E-04
   4.14120007        -1.10609704E-04
   4.15320015        -1.06460204E-04
   4.16520023        -1.02169644E-04
   4.17719984        -9.78387761E-05
   4.18919992        -9.35735879E-05
   4.20120001        -8.94824916E-05
   4.21320009        -8.56731058E-05
   4.22520018        -8.22488073E-05
   4.23719978        -7.93051513E-05
   4.24919987        -7.69263715E-05
   4.26119995        -7.51821353E-05
   4.27320004        -7.41246695E-05
   4.28520012        -7.37865194E-05
   4.29720020        -7.41789772E-05
   4.30919981        -7.52913329E-05
   4.32119989        -7.70910046E-05
   4.33319998        -7.95245578E-05
   4.34520006        -8.25196039E-05
   4.35720015        -8.59874126E-05
   4.36920023        -8.98262806E-05
   4.38119984        -9.39253296E-05
   4.39319992        -9.81686389E-05
   4.40520000        -1.02439604E-04
   4.41720009        -1.06625077E-04
   4.42920017        -1.10619403E-04
   4.44119978        -1.14327937E-04
   4.45319986        -1.17670032E-04
   4.46519995        -1.20581382E-04
   4.47720003        -1.23015605E-04
   4.48920012        -1.24944985E-04
   4.50120020        -1.26360566E-04
   4.51319981        -1.27271385E-04
   4.52519989        -1.27703155E-04
   4.53719997        -1.27696272E-04
   4.54920006        -1.27303458E-04
   4.56120014        -1.26587023E-04
   4.57320023        -1.25615901E-04
   4.58519983        -1.24462735E-04
   4.59719992        -1.23200894E-04
   4.60920000        -1.21901707E-04
   4.62120008        -1.20631987E-04
   4.63320017        -1.19451906E-04
   4.64519978        -1.18413183E-04
   4.65719986        -1.17557873E-04
   4.66919994        -1.16917545E-04
   4.68120003        -1.16512958E-04
   4.69320011        -1.16354240E-04
   4.70520020        -1.16441472E-04
   4.71719980        -1.16765710E-04
   4.72919989        -1.17310308E-04
   4.74119997        -1.18052514E-04
   4.75320005        -1.18965283E-04
   4.76520014        -1.20019140E-04
   4.77720022        -1.21184079E-04
   4.78919983        -1.22431346E-04
   4.80119991        -1.23735008E-04
   4.81320000        -1.25073246E-04
   4.82520008        -1.26429397E-04
   4.83720016        -1.27792417E-04
   4.84919977        -1.29157008E-04
   4.86119986        -1.30523375E-04
   4.87319994        -1.31896319E-04
   4.88520002        -1.33284178E-04
   4.89720011        -1.34697286E-04
   4.90920019        -1.36146264E-04
   4.92119980        -1.37640192E-04
   4.93319988        -1.39184718E-04
   4.94519997        -1.40780394E-04
   4.95720005        -1.42421151E-04
   4.96920013        -1.44093210E-04
   4.98120022        -1.45774407E-04
   4.99319983        -1.47433995E-04
   5.00519991        -1.49033061E-04
   5.01719999        -1.50525389E-04
   5.02920008        -1.51858927E-04
   5.04120016        -1.52977576E-04
   5.05319977        -1.53823436E-04
   5.06519985        -1.54339214E-04
   5.07719994        -1.54470836E-04
   5.08920002        -1.54169946E-04
   5.10120010        -1.53396380E-04
   5.11320019        -1.52120265E-04
   5.12519979        -1.50323802E-04
   5.13719988        -1.48002699E-04
   5.14919996        -1.45166923E-04
   5.16120005        -1.41841156E-04
   5.17320013        -1.38064541E-04
   5.18520021        -1.33890077E-04
   5.19719982        -1.29383436E-04
   5.20919991        -1.24621569E-04
   5.22119999        -1.19690769E-04
   5.23320007        -1.14684626E-04
   5.24520016        -1.09701650E-04
   5.25719976        -1.04842860E-04
   5.26919985        -1.00209247E-04
   5.28119993        -9.58991732E-05
   5.29320002        -9.20058737E-05
   5.30520010        -8.86149937E-05
   5.31720018        -8.58022831E-05
   5.32919979        -8.36315012E-05
   5.34119987        -8.21525100E-05
   5.35319996        -8.13996739E-05
   5.36520004        -8.13906663E-05
   5.37720013        -8.21255890E-05
   5.38920021        -8.35865940E-05
   5.40119982        -8.57380364E-05
   5.41319990        -8.85271147E-05
   5.42519999        -9.18851147E-05
   5.43720007        -9.57291631E-05
   5.44920015        -9.99645345E-05
   5.46120024        -1.04487430E-04
   5.47319984        -1.09188062E-04
   5.48519993        -1.13954120E-04
   5.49720001        -1.18674288E-04
   5.50920010        -1.23241829E-04
   5.52120018        -1.27558000E-04
   5.53319979        -1.31535169E-04
   5.54519987        -1.35099544E-04
   5.55719995        -1.38193223E-04
   5.56920004        -1.40775781E-04
   5.58120012        -1.42824909E-04
   5.59320021        -1.44336460E-04
   5.60519981        -1.45323618E-04
   5.61719990        -1.45815458E-04
   5.62919998        -1.45854938E-04
   5.64120007        -1.45496262E-04
   5.65320015        -1.44802150E-04
   5.66520023        -1.43840589E-04
   5.67719984        -1.42681951E-04
   5.68919992        -1.41395969E-04
   5.70120001        -1.40049073E-04
   5.71320009        -1.38702177E-04
   5.72520018        -1.37408875E-04
   5.73719978        -1.36214207E-04
   5.74919987        -1.35153954E-04
   5.76119995        -1.34254456E-04
   5.77320004        -1.33532885E-04
   5.78520012        -1.32997957E-04
   5.79720020        -1.32650908E-04
   5.80919981        -1.32486588E-04
   5.82119989        -1.32494824E-04
   5.83319998        -1.32661575E-04
   5.84520006        -1.32970104E-04
   5.85720015        -1.33402005E-04
   5.86920023        -1.33937996E-04
   5.88119984        -1.34558461E-04
   5.89319992        -1.35244030E-04
   5.90520000        -1.35975701E-04
   5.91720009        -1.36735078E-04
   5.92920017        -1.37504408E-04
   5.94119978        -1.38266550E-04
   5.95319986        -1.39005220E-04
   5.96519995        -1.39704920E-04
   5.97720003        -1.40351287E-04
   5.98920012        -1.40931224E-04
   6.00120020        -1.41433295E-04
   6.01319981        -1.41847951E-04
   6.02519989        -1.42167861E-04
   6.03719997        -1.42388104E-04
   6.04920006        -1.42506236E-04
   6.06120014        -1.42522302E-04
   6.07320023        -1.42438614E-04
   6.08519983        -1.42259392E-04
   6.09719992        -1.41990284E-04
   6.10920000        -1.41637749E-04
   6.12120008        -1.41208380E-04
   6.13320017        -1.40708333E-04
   6.14519978        -1.40142569E-04
   6.15719986        -1.39514625E-04
   6.16919994        -1.38826144E-04
   6.18120003        -1.38077085E-04
   6.19320011        -1.37265946E-04
   6.20520020        -1.36390430E-04
   6.21719980        -1.35448237E-04
   6.22919989        -1.34438160E-04
   6.24119997        -1.33361216E-04
   6.25320005        -1.32221889E-04
   6.26520014        -1.31029054E-04
   6.27720022        -1.29796928E-04
   6.28919983        -1.28545507E-04
   6.30119991        -1.27300606E-04
   6.31320000        -1.26093611E-04
   6.32520008        -1.24960527E-04
   6.33720016        -1.23940714E-04
   6.34919977        -1.23075210E-04
   6.36119986        -1.22404628E-04
   6.37319994        -1.21967074E-04
   6.38520002        -1.21795812E-04
   6.39720011        -1.21917154E-04
   6.40920019        -1.22348632E-04
   6.42119980        -1.23097503E-04
   6.43319988        -1.24159880E-04
   6.44519997        -1.25520281E-04
   6.45720005        -1.27151972E-04
   6.46920013        -1.29017892E-04
   6.48120022        -1.31072011E-04
   6.49319983        -1.33261346E-04
   6.50519991        -1.35528186E-04
   6.51719999        -1.37812603E-04
   6.52920008        -1.40054952E-04
   6.54120016        -1.42198362E-04
   6.55319977        -1.44190810E-04
   6.56519985        -1.45986982E-04
   6.57719994        -1.47549712E-04
   6.58920002        -1.48850755E-04
   6.60120010        -1.49871354E-04
   6.61320019        -1.50601976E-04
   6.62519979        -1.51042041E-04
   6.63719988        -1.51199041E-04
   6.64919996        -1.51087646E-04
   6.66120005        -1.50728534E-04
   6.67320013        -1.50147345E-04
   6.68520021        -1.49373562E-04
   6.69719982        -1.48439591E-04
   6.70919991        -1.47379993E-04
   6.72119999        -1.46230683E-04
   6.73320007        -1.45028389E-04
   6.74520016        -1.43810175E-04
   6.75719976        -1.42612887E-04
   6.76919985        -1.41472614E-04
   6.78119993        -1.40423988E-04
   6.79320002        -1.39499520E-04
   6.80520010        -1.38728559E-04
   6.81720018        -1.38136355E-04
   6.82919979        -1.37742943E-04
   6.84119987        -1.37562005E-04
   6.85319996        -1.37599869E-04
   6.86520004        -1.37854702E-04
   6.87720013        -1.38315925E-04
   6.88920021        -1.38963980E-04
   6.90119982        -1.39770724E-04
   6.91319990        -1.40700053E-04
   6.92519999        -1.41709257E-04
   6.93720007        -1.42750767E-04
   6.94920015        -1.43774276E-04
   6.96120024        -1.44729260E-04
   6.97319984        -1.45567567E-04
   6.98519993        -1.46246064E-04
   6.99720001        -1.46729086E-04
   7.00920010        -1.46990482E-04
   7.02120018        -1.47015337E-04
   7.03319979        -1.46800827E-04
   7.04519987        -1.46356600E-04
   7.05719995        -1.45704355E-04
   7.06920004        -1.44876671E-04
   7.08120012        -1.43915269E-04
   7.09320021        -1.42868899E-04
   7.10519981        -1.41790631E-04
   7.11719990        -1.40735196E-04
   7.12919998        -1.39756259E-04
   7.14120007        -1.38903837E-04
   7.15320015        -1.38222167E-04
   7.16520023        -1.37747818E-04
   7.17719984        -1.37508599E-04
   7.18919992        -1.37522729E-04
   7.20120001        -1.37798837E-04
   7.21320009        -1.38336181E-04
   7.22520018        -1.39125434E-04
   7.23719978        -1.40149757E-04
   7.24919987        -1.41385914E-04
   7.26119995        -1.42805569E-04
   7.27320004        -1.44376565E-04
   7.28520012        -1.46063918E-04
   7.29720020        -1.47830826E-04
   7.30919981        -1.49639411E-04
   7.32119989        -1.51451255E-04
   7.33319998        -1.53227884E-04
   7.34520006        -1.54931098E-04
   7.35720015        -1.56523325E-04
   7.36920023        -1.57967967E-04
   7.38119984        -1.59229952E-04
   7.39319992        -1.60276322E-04
   7.40520000        -1.61076983E-04
   7.41720009        -1.61605640E-04
   7.42920017        -1.61840740E-04
   7.44119978        -1.61766598E-04
   7.45319986        -1.61374279E-04
   7.46519995        -1.60662501E-04
   7.47720003        -1.59638206E-04
   7.48920012        -1.58316951E-04
   7.50120020        -1.56722876E-04
   7.51319981        -1.54888257E-04
   7.52519989        -1.52852779E-04
   7.53719997        -1.50662279E-04
   7.54920006        -1.48367355E-04
   7.56120014        -1.46021586E-04
   7.57320023        -1.43679659E-04
   7.58519983        -1.41395445E-04
   7.59719992        -1.39220181E-04
   7.60920000        -1.37200695E-04
   7.62120008        -1.35377981E-04
   7.63320017        -1.33785943E-04
   7.64519978        -1.32450659E-04
   7.65719986        -1.31389868E-04
   7.66919994        -1.30612767E-04
   7.68120003        -1.30120374E-04
   7.69320011        -1.29905864E-04
   7.70520020        -1.29955355E-04
   7.71719980        -1.30248838E-04
   7.72919989        -1.30761095E-04
   7.74119997        -1.31462788E-04
   7.75320005        -1.32321569E-04
   7.76520014        -1.33303169E-04
   7.77720022        -1.34372356E-04
   7.78919983        -1.35493989E-04
   7.80119991        -1.36633913E-04
   7.81320000        -1.37759780E-04
   7.82520008        -1.38841788E-04
   7.83720016        -1.39853481E-04
   7.84919977        -1.40772143E-04
   7.86119986        -1.41579469E-04
   7.87319994        -1.42261764E-04
   7.88520002        -1.42810328E-04
   7.89720011        -1.43221478E-04
   7.90920019        -1.43496523E-04
   7.92119980        -1.43641490E-04
   7.93319988        -1.43666752E-04
   7.94519997        -1.43586440E-04
   7.95720005        -1.43417710E-04
   7.96920013        -1.43179845E-04
   7.98120022        -1.42893346E-04
   7.99319983        -1.42578996E-04
   8.00520039        -1.42256817E-04
   8.01720047        -1.41945304E-04
   8.02919960        -1.41660668E-04
   8.04119968        -1.41416356E-04
   8.05319977        -1.41222597E-04
   8.06519985        -1.41086435E-04
   8.07719994        -1.41011624E-04
   8.08920002        -1.40998935E-04
   8.10120010        -1.41046490E-04
   8.11320019        -1.41150260E-04
   8.12520027        -1.41304365E-04
   8.13720036        -1.41501703E-04
   8.14920044        -1.41734214E-04
   8.16119957        -1.41993223E-04
   8.17319965        -1.42269550E-04
   8.18519974        -1.42553617E-04
   8.19719982        -1.42835241E-04
   8.20919991        -1.43103607E-04
   8.22119999        -1.43346944E-04
   8.23320007        -1.43552403E-04
   8.24520016        -1.43705911E-04
   8.25720024        -1.43792116E-04
   8.26920033        -1.43794736E-04
   8.28120041        -1.43696801E-04
   8.29319954        -1.43481389E-04
   8.30519962        -1.43132449E-04
   8.31719971        -1.42635836E-04
   8.32919979        -1.41980359E-04
   8.34119987        -1.41159107E-04
   8.35319996        -1.40170494E-04
   8.36520004        -1.39019248E-04
   8.37720013        -1.37717201E-04
   8.38920021        -1.36283677E-04
   8.40120029        -1.34745569E-04
   8.41320038        -1.33136913E-04
   8.42520046        -1.31498047E-04
   8.43719959        -1.29874359E-04
   8.44919968        -1.28314539E-04
   8.46119976        -1.26868748E-04
   8.47319984        -1.25586390E-04
   8.48519993        -1.24514001E-04
   8.49720001        -1.23693069E-04
   8.50920010        -1.23158083E-04
   8.52120018        -1.22934987E-04
   8.53320026        -1.23039965E-04
   8.54520035        -1.23478749E-04
   8.55720043        -1.24246493E-04
   8.56919956        -1.25328108E-04
   8.58119965        -1.26699131E-04
   8.59319973        -1.28327069E-04
   8.60519981        -1.30173095E-04
   8.61719990        -1.32193818E-04
   8.62919998        -1.34343310E-04
   8.64120007        -1.36575123E-04
   8.65320015        -1.38843970E-04
   8.66520023        -1.41107346E-04
   8.67720032        -1.43326746E-04
   8.68920040        -1.45468526E-04
   8.70119953        -1.47504383E-04
   8.71319962        -1.49411469E-04
   8.72519970        -1.51172178E-04
   8.73719978        -1.52773646E-04
   8.74919987        -1.54206980E-04
   8.76119995        -1.55466463E-04
   8.77320004        -1.56548587E-04
   8.78520012        -1.57451170E-04
   8.79720020        -1.58172566E-04
   8.80920029        -1.58710973E-04
   8.82120037        -1.59063900E-04
   8.83320045        -1.59227973E-04
   8.84519958        -1.59198782E-04
   8.85719967        -1.58971074E-04
   8.86919975        -1.58538998E-04
   8.88119984        -1.57896706E-04
   8.89319992        -1.57038899E-04
   8.90520000        -1.55961636E-04
   8.91720009        -1.54663168E-04
   8.92920017        -1.53144792E-04
   8.94120026        -1.51411732E-04
   8.95320034        -1.49473955E-04
   8.96520042        -1.47346946E-04
   8.97719955        -1.45052210E-04
   8.98919964        -1.42617675E-04
   9.00119972        -1.40077784E-04
   9.01319981        -1.37473296E-04
   9.02519989        -1.34850809E-04
   9.03719997        -1.32261863E-04
   9.04920006        -1.29761858E-04
   9.06120014        -1.27408566E-04
   9.07320023        -1.25260398E-04
   9.08520031        -1.23374601E-04