 -0.622799993         1.00000002E-24
 -0.610800028         1.00000002E-24
 -0.598800004         1.00000002E-24
 -0.586799979         1.00000012E-24
 -0.574800014         1.36503594E-24
 -0.562799990         2.82564020E-24
 -0.550800025         4.63297300E-24
 -0.538800001         2.53968838E-24
 -0.526799977        -6.22185956E-24
 -0.514800012        -5.25092679E-24
 -0.502799988         6.16875786E-23
 -0.490799993         2.87216935E-22
 -0.478799999         7.59874344E-22
 -0.466800004         1.54347631E-21
 -0.454800010         2.82141533E-21
 -0.442799985         5.33701414E-21
 -0.430799991         1.10089443E-20
 -0.418799996         2.31244528E-20
 -0.406800002         4.51348936E-20
 -0.394800007         7.73966274E-20
 -0.382800013         1.12713440E-19
 -0.370799989         1.33986561E-19
 -0.358799994         1.19144291E-19
 -0.346799999         5.72713619E-20
 -0.334800005        -2.65798916E-20
 -0.322800010        -5.12504855E-20
 -0.310799986         1.12988619E-19
 -0.298799992         5.87524365E-19
 -0.286799997         1.37882405E-18
 -0.274800003         2.26369286E-18
 -0.262800008         2.75362057E-18
 -0.250800014         2.24157447E-18
 -0.238800004         3.82939956E-19
 -0.226799995        -2.37362331E-18
 -0.214800000        -4.37532015E-18
 -0.202800006        -2.88121421E-18
 -0.190799996         4.93775913E-18
 -0.178800002         2.01003383E-17
 -0.166800007         3.96167037E-17
 -0.154799998         5.52464964E-17
 -0.142800003         5.47577750E-17
 -0.130799994         2.67044822E-17
 -0.118799999        -3.18081386E-17
 -0.106799997        -1.07149410E-16
  -9.48000029E-02    -1.65736634E-16
  -8.28000009E-02    -1.60216454E-16
  -7.07999989E-02    -4.77339429E-17
  -5.88000007E-02     1.82865533E-16
  -4.67999987E-02     4.85172743E-16
  -3.48000005E-02     7.46216227E-16
  -2.28000004E-02     8.09161575E-16
  -1.08000003E-02     5.33027934E-16
   1.20000006E-03    -1.22908808E-16
   1.31999999E-02    -1.02253616E-15
   2.52000000E-02    -1.82948020E-15
   3.72000001E-02    -2.07691716E-15
   4.91999984E-02    -1.34132760E-15
   6.12000003E-02     5.18516724E-16
   7.32000023E-02     3.14878950E-15
   8.51999968E-02     5.63550713E-15
   9.71999988E-02     6.68987511E-15
  0.109200001         5.10751677E-15
  0.121200003         3.98748383E-16
  0.133200005        -6.64278177E-15
  0.145199999        -1.37362647E-14
  0.157199994        -1.75301617E-14
  0.169200003        -1.47042023E-14
  0.181199998        -3.52506186E-15
  0.193200007         1.46801618E-14
  0.205200002         3.48396781E-14
  0.217199996         4.88590152E-14
  0.229200006         4.79637489E-14
  0.241200000         2.62359121E-14
  0.253199995        -1.57574251E-14
  0.265199989        -6.87643573E-14
  0.277200013        -1.15498553E-13
  0.289200008        -1.34824104E-13
  0.301200002        -1.08906828E-13
  0.313199997        -3.13746492E-14
  0.325199991         8.64591398E-14
  0.337199986         2.14327810E-13
  0.349200010         3.08603972E-13
  0.361200005         3.24508947E-13
  0.373199999         2.32105323E-13
  0.385199994         3.11220030E-14
  0.397199988        -2.41071648E-13
  0.409200013        -5.12800902E-13
  0.421200007        -6.94082270E-13
  0.433200002        -7.02433825E-13
  0.445199996        -4.91701135E-13
  0.457199991        -7.48380240E-14
  0.469199985         4.67927184E-13
  0.481200010         1.00066960E-12
  0.493200004         1.36262117E-12
  0.505200028         1.41169932E-12
  0.517199993         1.06939295E-12
  0.529200017         3.53994774E-13
  0.541199982        -6.08773394E-13
  0.553200006        -1.60331741E-12
  0.565199971        -2.36824319E-12
  0.577199996        -2.65815711E-12
  0.589200020        -2.30930552E-12
  0.601199985        -1.29331821E-12
  0.613200009         2.54957676E-13
  0.625199974         2.04477993E-12
  0.637199998         3.67448476E-12
  0.649200022         4.70907037E-12
  0.661199987         4.77809806E-12
  0.673200011         3.67565830E-12
  0.685199976         1.44047187E-12
  0.697200000        -1.60601599E-12
  0.709200025        -4.88124818E-12
  0.721199989        -7.63079530E-12
  0.733200014        -9.07848276E-12
  0.745199978        -8.61343809E-12
  0.757200003        -5.97444186E-12
  0.769200027        -1.38315628E-12
  0.781199992         4.41940581E-12
  0.793200016         1.02620516E-11
  0.805199981         1.47581444E-11
  0.817200005         1.66109210E-11
  0.829200029         1.49431908E-11
  0.841199994         9.56811800E-12
  0.853200018         1.12225106E-12
  0.865199983        -8.99008906E-12
  0.877200007        -1.88462388E-11
  0.889199972        -2.64019188E-11
  0.901199996        -2.99458652E-11
  0.913200021        -2.85023134E-11
  0.925199986        -2.20798033E-11
  0.937200010        -1.17013005E-11
  0.949199975         7.94994170E-13
  0.961199999         1.31370800E-11
  0.973200023         2.30907134E-11
  0.985199988         2.89066149E-11
  0.997200012         2.96334901E-11
   1.00919998         2.52135882E-11
   1.02119994         1.63170848E-11
   1.03320003         3.91279457E-12
   1.04519999        -1.13905968E-11
   1.05719995        -3.01729440E-11
   1.06920004        -5.51230450E-11
   1.08120000        -9.19647830E-11
   1.09319997        -1.50301549E-10
   1.10520005        -2.44308518E-10
   1.11720002        -3.93231170E-10
   1.12919998        -6.21716567E-10
   1.14119995        -9.60085789E-10
   1.15320003        -1.44477519E-09
   1.16520000        -2.11928075E-09
   1.17719996        -3.03606185E-09
   1.18920004        -4.25992974E-09
   1.20120001        -5.87352300E-09
   1.21319997        -7.98549848E-09
   1.22520006        -1.07421396E-08
   1.23720002        -1.43431746E-08
   1.24919999        -1.90628153E-08
   1.26119995        -2.52771297E-08
   1.27320004        -3.34992691E-08
   1.28520000        -4.44240378E-08
   1.29719996        -5.89835665E-08
   1.30920005        -7.84153684E-08
   1.32120001        -1.04343620E-07
   1.33319998        -1.38873830E-07
   1.34519994        -1.84699189E-07
   1.35720003        -2.45216285E-07
   1.36919999        -3.24645441E-07
   1.38119996        -4.28149775E-07
   1.39320004        -5.61945512E-07
   1.40520000        -7.33395325E-07
   1.41719997        -9.51073673E-07
   1.42920005        -1.22479605E-06
   1.44120002        -1.56560043E-06
   1.45319998        -1.98567250E-06
   1.46519995        -2.49820641E-06
   1.47720003        -3.11719168E-06
   1.48920000        -3.85712974E-06
   1.50119996        -4.73266755E-06
   1.51320004        -5.75816466E-06
   1.52520001        -6.94719074E-06
   1.53719997        -8.31197303E-06
   1.54920006        -9.86280975E-06
   1.56120002        -1.16074607E-05
   1.57319999        -1.35505661E-05
   1.58519995        -1.56930892E-05
   1.59720004        -1.80318439E-05
   1.60920000        -2.05591023E-05
   1.62119997        -2.32623461E-05
   1.63320005        -2.61241585E-05
   1.64520001        -2.91222786E-05
   1.65719998        -3.22298474E-05
   1.66919994        -3.54158256E-05
   1.68120003        -3.86455904E-05
   1.69319999        -4.18817181E-05
   1.70519996        -4.50849038E-05
   1.71720004        -4.82149917E-05
   1.72920001        -5.12321130E-05
   1.74119997        -5.40978690E-05
   1.75320005        -5.67765092E-05
   1.76520002        -5.92360593E-05
   1.77719998        -6.14493911E-05
   1.78919995        -6.33951058E-05
   1.80120003        -6.50582879E-05
   1.81320000        -6.64310064E-05
   1.82519996        -6.75125921E-05
   1.83720005        -6.83096296E-05
   1.84920001        -6.88357395E-05
   1.86119998        -6.91110108E-05
   1.87320006        -6.91612877E-05
   1.88520002        -6.90171437E-05
   1.89719999        -6.87128268E-05
   1.90919995        -6.82848913E-05
   1.92120004        -6.77709177E-05
   1.93320000        -6.72081733E-05
   1.94519997        -6.66322667E-05
   1.95720005        -6.60759906E-05
   1.96920002        -6.55682670E-05
   1.98119998        -6.51332666E-05
   1.99319994        -6.47898269E-05
   2.00519991        -6.45510372E-05
   2.01719999        -6.44241736E-05
   2.02920008        -6.44108077E-05
   2.04119992        -6.45071996E-05
   2.05320001        -6.47049674E-05
   2.06520009        -6.49919020E-05
   2.07719994        -6.53529351E-05
   2.08920002        -6.57712881E-05
   2.10120010        -6.62295934E-05
   2.11319995        -6.67111017E-05
   2.12520003        -6.72008173E-05
   2.13720012        -6.76865093E-05
   2.14919996        -6.81595993E-05
   2.16120005        -6.86158819E-05
   2.17319989        -6.90559173E-05
   2.18519998        -6.94852351E-05
   2.19720006        -6.99142256E-05
   2.20919991        -7.03577170E-05
   2.22119999        -7.08342559E-05
   2.23320007        -7.13651316E-05
   2.24519992        -7.19731761E-05
   2.25720000        -7.26812868E-05
   2.26920009        -7.35109643E-05
   2.28119993        -7.44807112E-05
   2.29320002        -7.56044828E-05
   2.30520010        -7.68903628E-05
   2.31719995        -7.83393552E-05
   2.32920003        -7.99446061E-05
   2.34120011        -8.16909524E-05
   2.35319996        -8.35549581E-05
   2.36520004        -8.55053950E-05
   2.37719989        -8.75043115E-05
   2.38919997        -8.95084595E-05
   2.40120006        -9.14712655E-05
   2.41319990        -9.33450356E-05
   2.42519999        -9.50834728E-05
   2.43720007        -9.66442822E-05
   2.44919991        -9.79917677E-05
   2.46120000        -9.90992412E-05
   2.47320008        -9.99511758E-05
   2.48519993        -1.00544872E-04
   2.49720001        -1.00891673E-04
   2.50920010        -1.01017475E-04
   2.52119994        -1.00962628E-04
   2.53320003        -1.00781159E-04
   2.54520011        -1.00539219E-04
   2.55719995        -1.00313060E-04
   2.56920004        -1.00186320E-04
   2.58119988        -1.00246965E-04
   2.59319997        -1.00583908E-04
   2.60520005        -1.01283447E-04
   2.61719990        -1.02425714E-04
   2.62919998        -1.04081300E-04
   2.64120007        -1.06308049E-04
   2.65319991        -1.09148430E-04
   2.66520000        -1.12627269E-04
   2.67720008        -1.16750205E-04
   2.68919992        -1.21502700E-04
   2.70120001        -1.26849802E-04
   2.71320009        -1.32736590E-04
   2.72519994        -1.39089083E-04
   2.73720002        -1.45815982E-04
   2.74920011        -1.52810680E-04
   2.76119995        -1.59953750E-04
   2.77320004        -1.67115664E-04
   2.78520012        -1.74159766E-04
   2.79719996        -1.80945121E-04
   2.80920005        -1.87329453E-04
   2.82119989        -1.93171873E-04
   2.83319998        -1.98335401E-04
   2.84520006        -2.02689276E-04
   2.85719991        -2.06110897E-04
   2.86919999        -2.08487589E-04
   2.88120008        -2.09718040E-04
   2.89319992        -2.09713471E-04
   2.90520000        -2.08398633E-04
   2.91720009        -2.05712655E-04
   2.92919993        -2.01609815E-04
   2.94120002        -1.96060239E-04
   2.95320010        -1.89050479E-04
   2.96519995        -1.80584204E-04
   2.97720003        -1.70682804E-04
   2.98920012        -1.59386065E-04
   3.00119996        -1.46752485E-04
   3.01320004        -1.32859917E-04
   3.02519989        -1.17805532E-04
   3.03719997        -1.01705882E-04
   3.04920006        -8.46964249E-05
   3.06119990        -6.69307337E-05
   3.07319999        -4.85792916E-05
   3.08520007        -2.98277027E-05
   3.09719992        -1.08745062E-05
   3.10920000         8.07153720E-06
   3.12120008         2.67946289E-05
   3.13319993         4.50754997E-05
   3.14520001         6.26953261E-05
   3.15720010         7.94398729E-05
   3.16919994         9.51037873E-05
   3.18120003         1.09494897E-04
   3.19320011         1.22438374E-04
   3.20519996         1.33780675E-04
   3.21720004         1.43393103E-04
   3.22919989         1.51174856E-04
   3.24119997         1.57055518E-04
   3.25320005         1.60996860E-04
   3.26519990         1.62993907E-04
   3.27719998         1.63075238E-04
   3.28920007         1.61302480E-04
   3.30119991         1.57768969E-04
   3.31320000         1.52597611E-04
   3.32520008         1.45938044E-04
   3.33719993         1.37963012E-04
   3.34920001         1.28864238E-04
   3.36120009         1.18847645E-04
   3.37319994         1.08128370E-04
   3.38520002         9.69254033E-05
   3.39720011         8.54562168E-05
   3.40919995         7.39314637E-05
   3.42120004         6.25499306E-05
   3.43319988         5.14939056E-05
   3.44519997         4.09250861E-05
   3.45720005         3.09812676E-05
   3.46919990         2.17737834E-05
   3.48119998         1.33858912E-05
   3.49320006         5.87209342E-06
   3.50519991        -7.41539395E-07
   3.51719999        -6.45612909E-06
   3.52920008        -1.12978614E-05
   3.54119992        -1.53150977E-05
   3.55320001        -1.85748777E-05
   3.56520009        -2.11589486E-05
   3.57719994        -2.31595495E-05
   3.58920002        -2.46750697E-05
   3.60120010        -2.58058408E-05
   3.61319995        -2.66501665E-05
   3.62520003        -2.73007608E-05
   3.63720012        -2.78417028E-05
   3.64919996        -2.83459758E-05
   3.66120005        -2.88736537E-05
   3.67319989        -2.94707079E-05
   3.68519998        -3.01684868E-05
   3.69720006        -3.09837233E-05
   3.70919991        -3.19191095E-05
   3.72119999        -3.29642935E-05
   3.73320007        -3.40972729E-05
   3.74519992        -3.52860370E-05
   3.75720000        -3.64904881E-05
   3.76920009        -3.76644821E-05
   3.78119993        -3.87579785E-05
   3.79320002        -3.97192744E-05
   3.80520010        -4.04972161E-05
   3.81719995        -4.10434113E-05
   3.82920003        -4.13144044E-05
   3.84120011        -4.12736954E-05
   3.85319996        -4.08936867E-05
   3.86520004        -4.01574071E-05
   3.87719989        -3.90599416E-05
   3.88919997        -3.76095923E-05
   3.90120006        -3.58285724E-05
   3.91319990        -3.37532547E-05
   3.92519999        -3.14338795E-05
   3.93720007        -2.89336440E-05
   3.94919991        -2.63272450E-05
   3.96120000        -2.36988162E-05
   3.97320008        -2.11393562E-05
   3.98519993        -1.87436981E-05
   3.99720001        -1.66071641E-05
   4.00920010        -1.48219879E-05
   4.02120018        -1.34736792E-05
   4.03319979        -1.26374844E-05
   4.04519987        -1.23750842E-05
   4.05719995        -1.27316862E-05
   4.06920004        -1.37336565E-05
   4.08120012        -1.53868259E-05
   4.09320021        -1.76755420E-05
   4.10519981        -2.05625547E-05
   4.11719990        -2.39897308E-05
   4.12919998        -2.78795924E-05
   4.14120007        -3.21375992E-05
   4.15320015        -3.66550848E-05
   4.16520023        -4.13126691E-05
   4.17719984        -4.59840958E-05
   4.18919992        -5.05402095E-05
   4.20120001        -5.48530188E-05
   4.21320009        -5.87996619E-05
   4.22520018        -6.22660882E-05
   4.23719978        -6.51504379E-05
   4.24919987        -6.73658869E-05
   4.26119995        -6.88429936E-05
   4.27320004        -6.95314084E-05
   4.28520012        -6.94010014E-05
   4.29720020        -6.84423067E-05
   4.30919981        -6.66664200E-05
   4.32119989        -6.41043225E-05
   4.33319998        -6.08057708E-05
   4.34520006        -5.68377327E-05
   4.35720015        -5.22825321E-05
   4.36920023        -4.72357315E-05
   4.38119984        -4.18037926E-05
   4.39319992        -3.61016173E-05
   4.40520000        -3.02499175E-05
   4.41720009        -2.43725481E-05
   4.42920017        -1.85937515E-05
   4.44119978        -1.30353837E-05
   4.45319986        -7.81413928E-06
   4.46519995        -3.03884212E-06
   4.47720003         1.19217987E-06
   4.48920012         4.79355140E-06
   4.50120020         7.69508097E-06
   4.51319981         9.84368580E-06
   4.52519989         1.12049393E-05
   4.53719997         1.17641439E-05
   4.54920006         1.15268749E-05
   4.56120014         1.05189310E-05
   4.57320023         8.78563696E-06
   4.58519983         6.39049813E-06
   4.59719992         3.41321447E-06
   4.60920000        -5.28950359E-08
   4.62120008        -3.90397872E-06
   4.63320017        -8.02913291E-06
   4.64519978        -1.23141463E-05
   4.65719986        -1.66453374E-05
   4.66919994        -2.09133286E-05
   4.68120003        -2.50165795E-05
   4.69320011        -2.88644969E-05
   4.70520020        -3.23800559E-05
   4.71719980        -3.55017364E-05
   4.72919989        -3.81847603E-05
   4.74119997        -4.04015918E-05
   4.75320005        -4.21417317E-05
   4.76520014        -4.34107751E-05
   4.77720022        -4.42289711E-05
   4.78919983        -4.46292070E-05
   4.80119991        -4.46547274E-05
   4.81320000        -4.43565514E-05
   4.82520008        -4.37909039E-05
   4.83720016        -4.30166219E-05
   4.84919977        -4.20928081E-05
   4.86119986        -4.10767461E-05
   4.87319994        -4.00221943E-05
   4.88520002        -3.89780726E-05
   4.89720011        -3.79876365E-05
   4.90920019        -3.70880189E-05
   4.92119980        -3.63101899E-05
   4.93319988        -3.56792116E-05
   4.94519997        -3.52146963E-05
   4.95720005        -3.49314469E-05
   4.96920013        -3.48401190E-05
   4.98120022        -3.49479051E-05
   4.99319983        -3.52590941E-05
   5.00519991        -3.57755598E-05
   5.01719999        -3.64970620E-05
   5.02920008        -3.74214178E-05
   5.04120016        -3.85444728E-05
   5.05319977        -3.98599332E-05
   5.06519985        -4.13590715E-05
   5.07719994        -4.30303189E-05
   5.08920002        -4.48588653E-05
   5.10120010        -4.68262588E-05
   5.11320019        -4.89101367E-05
   5.12519979        -5.10840910E-05
   5.13719988        -5.33177772E-05
   5.14919996        -5.55772458E-05
   5.16120005        -5.78255567E-05
   5.17320013        -6.00236381E-05
   5.18520021        -6.21313811E-05
   5.19719982        -6.41088918E-05
   5.20919991        -6.59178986E-05
   5.22119999        -6.75231786E-05
   5.23320007        -6.88939690E-05
   5.24520016        -7.00052988E-05
   5.25719976        -7.08390944E-05
   5.26919985        -7.13850750E-05
   5.28119993        -7.16412542E-05
   5.29320002        -7.16141294E-05
   5.30520010        -7.13183617E-05
   5.31720018        -7.07762156E-05
   5.32919979        -7.00164164E-05
   5.34119987        -6.90727975E-05
   5.35319996        -6.79827208E-05
   5.36520004        -6.67852510E-05
   5.37720013        -6.55193726E-05
   5.38920021        -6.42223094E-05
   5.40119982        -6.29279166E-05
   5.41319990        -6.16655088E-05
   5.42519999        -6.04588531E-05
   5.43720007        -5.93257646E-05
   5.44920015        -5.82779758E-05
   5.46120024        -5.73214893E-05
   5.47319984        -5.64572838E-05
   5.48519993        -5.56823506E-05
   5.49720001        -5.49908800E-05
   5.50920010        -5.43755887E-05
   5.52120018        -5.38289933E-05
   5.53319979        -5.33445418E-05
   5.54519987        -5.29175049E-05
   5.55719995        -5.25455471E-05
   5.56920004        -5.22289374E-05
   5.58120012        -5.19703826E-05
   5.59320021        -5.17745357E-05
   5.60519981        -5.16471700E-05
   5.61719990        -5.15941938E-05
   5.62919998        -5.16205073E-05
   5.64120007        -5.17289081E-05
   5.65320015        -5.19191308E-05
   5.66520023        -5.21870825E-05
   5.67719984        -5.25244686E-05
   5.68919992        -5.29187819E-05
   5.70120001        -5.33536768E-05
   5.71320009        -5.38097884E-05
   5.72520018        -5.42658199E-05
   5.73719978        -5.46998890E-05
   5.74919987        -5.50909754E-05
   5.76119995        -5.54203289E-05
   5.77320004        -5.56727573E-05
   5.78520012        -5.58376414E-05
   5.79720020        -5.59096043E-05
   5.80919981        -5.58887878E-05
   5.82119989        -5.57806961E-05
   5.83319998        -5.55956030E-05
   5.84520006        -5.53476420E-05
   5.85720015        -5.50535078E-05
   5.86920023        -5.47310592E-05
   5.88119984        -5.43978058E-05
   5.89319992        -5.40694818E-05
   5.90520000        -5.37588130E-05
   5.91720009        -5.34745886E-05
   5.92920017        -5.32211598E-05
   5.94119978        -5.29983081E-05
   5.95319986        -5.28015808E-05
   5.96519995        -5.26229960E-05
   5.97720003        -5.24520328E-05
   5.98920012        -5.22768460E-05
   6.00120020        -5.20855647E-05
   6.01319981        -5.18675224E-05
   6.02519989        -5.16144137E-05
   6.03719997        -5.13211526E-05
   6.04920006        -5.09864913E-05
   6.06120014        -5.06132346E-05
   6.07320023        -5.02081384E-05
   6.08519983        -4.97814290E-05
   6.09719992        -4.93460393E-05
   6.10920000        -4.89166086E-05
   6.12120008        -4.85083292E-05
   6.13320017        -4.81357565E-05
   6.14519978        -4.78116308E-05
   6.15719986        -4.75458473E-05
   6.16919994        -4.73446016E-05
   6.18120003        -4.72097527E-05
   6.19320011        -4.71384446E-05
   6.20520020        -4.71230123E-05
   6.21719980        -4.71511230E-05
   6.22919989        -4.72061802E-05
   6.24119997        -4.72679494E-05
   6.25320005        -4.73133477E-05
   6.26520014        -4.73173750E-05
   6.27720022        -4.72541251E-05
   6.28919983        -4.70978666E-05
   6.30119991        -4.68240760E-05
   6.31320000        -4.64104669E-05
   6.32520008        -4.58380055E-05
   6.33720016        -4.50917905E-05
   6.34919977        -4.41619486E-05
   6.36119986        -4.30443652E-05
   6.37319994        -4.17413430E-05
   6.38520002        -4.02620790E-05
   6.39720011        -3.86229367E-05
   6.40920019        -3.68474830E-05
   6.42119980        -3.49662405E-05
   6.43319988        -3.30161347E-05
   6.44519997        -3.10396499E-05
   6.45720005        -2.90837106E-05
   6.46920013        -2.71983336E-05
   6.48120022        -2.54350507E-05
   6.49319983        -2.38452067E-05
   6.50519991        -2.24781343E-05
   6.51719999        -2.13792937E-05
   6.52920008        -2.05884153E-05
   6.54120016        -2.01377643E-05
   6.55319977        -2.00505801E-05
   6.56519985        -2.03398140E-05
   6.57719994        -2.10072540E-05
   6.58920002        -2.20430738E-05
   6.60120010        -2.34259041E-05
   6.61320019        -2.51233687E-05
   6.62519979        -2.70931105E-05
   6.63719988        -2.92842251E-05
   6.64919996        -3.16390251E-05
   6.66120005        -3.40951119E-05
   6.67320013        -3.65875640E-05
   6.68520021        -3.90512760E-05
   6.69719982        -4.14233109E-05
   6.70919991        -4.36451264E-05
   6.72119999        -4.56646994E-05
   6.73320007        -4.74383087E-05
   6.74520016        -4.89320119E-05
   6.75719976        -5.01226205E-05
   6.76919985        -5.09982383E-05
   6.78119993        -5.15582142E-05
   6.79320002        -5.18126435E-05
   6.80520010        -5.17813496E-05
   6.81720018        -5.14925050E-05
   6.82919979        -5.09809288E-05
   6.84119987        -5.02861185E-05
   6.85319996        -4.94501983E-05
   6.86520004        -4.85157907E-05
   6.87720013        -4.75239904E-05
   6.88920021        -4.65124576E-05
   6.90119982        -4.55138179E-05
   6.91319990        -4.45543774E-05
   6.92519999        -4.36532791E-05
   6.93720007        -4.28221319E-05
   6.94920015        -4.20651013E-05
   6.96120024        -4.13795024E-05
   6.97319984        -4.07567750E-05
   6.98519993        -4.01838115E-05
   6.99720001        -3.96445030E-05
   7.00920010        -3.91214489E-05
   7.02120018        -3.85976527E-05
   7.03319979        -3.80581514E-05
   7.04519987        -3.74914307E-05
   7.05719995        -3.68906149E-05
   7.06920004        -3.62542814E-05
   7.08120012        -3.55868688E-05
   7.09320021        -3.48987269E-05
   7.10519981        -3.42056810E-05
   7.11719990        -3.35282384E-05
   7.12919998        -3.28904680E-05
   7.14120007        -3.23185850E-05
   7.15320015        -3.18393468E-05
   7.16520023        -3.14784411E-05
   7.17719984        -3.12587836E-05
   7.18919992        -3.11990407E-05
   7.20120001        -3.13122546E-05
   7.21320009        -3.16047917E-05
   7.22520018        -3.20756408E-05
   7.23719978        -3.27160160E-05
   7.24919987        -3.35094410E-05
   7.26119995        -3.44321415E-05
   7.27320004        -3.54538606E-05
   7.28520012        -3.65389897E-05
   7.29720020        -3.76479620E-05
   7.30919981        -3.87389045E-05
   7.32119989        -3.97693912E-05
   7.33319998        -4.06983236E-05
   7.34520006        -4.14878596E-05
   7.35720015        -4.21052064E-05
   7.36920023        -4.25243961E-05
   7.38119984        -4.27277846E-05
   7.39319992        -4.27072955E-05
   7.40520000        -4.24652790E-05
   7.41720009        -4.20149445E-05
   7.42920017        -4.13802845E-05
   7.44119978        -4.05954961E-05
   7.45319986        -3.97038566E-05
   7.46519995        -3.87561377E-05
   7.47720003        -3.78085679E-05
   7.48920012        -3.69204026E-05
   7.50120020        -3.61512502E-05
   7.51319981        -3.55582379E-05
   7.52519989        -3.51930830E-05
   7.53719997        -3.50993141E-05
   7.54920006        -3.53096802E-05
   7.56120014        -3.58440011E-05
   7.57320023        -3.67075190E-05
   7.58519983        -3.78899567E-05
   7.59719992        -3.93653172E-05
   7.60920000        -4.10925168E-05
   7.62120008        -4.30168548E-05
   7.63320017        -4.50721927E-05
   7.64519978        -4.71838684E-05
   7.65719986        -4.92720355E-05
   7.66919994        -5.12554143E-05
   7.68120003        -5.30551042E-05
   7.69320011        -5.45984112E-05
   7.70520020        -5.58223910E-05
   7.71719980        -5.66769631E-05
   7.72919989        -5.71274250E-05
   7.74119997        -5.71562596E-05
   7.75320005        -5.67641036E-05
   7.76520014        -5.59697837E-05
   7.77720022        -5.48095595E-05
   7.78919983        -5.33354323E-05
   7.80119991        -5.16128093E-05
   7.81320000        -4.97175351E-05
   7.82520008        -4.77325630E-05
   7.83720016        -4.57443966E-05
   7.84919977        -4.38395255E-05
   7.86119986        -4.21010045E-05
   7.87319994        -4.06053041E-05
   7.88520002        -3.94195849E-05
   7.89720011        -3.85994608E-05
   7.90920019        -3.81872742E-05
   7.92119980        -3.82109502E-05
   7.93319988        -3.86833635E-05
   7.94519997        -3.96023170E-05
   7.95720005        -4.09509084E-05
   7.96920013        -4.26983861E-05
   7.98120022        -4.48013234E-05
   7.99319983        -4.72051070E-05
   8.00520039        -4.98456357E-05
   8.01720047        -5.26511758E-05
   8.02919960        -5.55443803E-05
   8.04119968        -5.84443733E-05
   8.05319977        -6.12689400E-05
   8.06519985        -6.39367499E-05
   8.07719994        -6.63696410E-05
   8.08920002        -6.84948536E-05
   8.10120010        -7.02473044E-05
   8.11320019        -7.15716014E-05
   8.12520027        -7.24240963E-05
   8.13720036        -7.27745210E-05
   8.14920044        -7.26073777E-05
   8.16119957        -7.19229647E-05
   8.17319965        -7.07378131E-05
   8.18519974        -6.90847373E-05
   8.19719982        -6.70121372E-05
   8.20919991        -6.45827968E-05
   8.22119999        -6.18720296E-05
   8.23320007        -5.89652554E-05
   8.24520016        -5.59551008E-05
   8.25720024        -5.29381359E-05
   8.26920033        -5.00113711E-05
   8.28120041        -4.72686588E-05
   8.29319954        -4.47971724E-05
   8.30519962        -4.26741353E-05
   8.31719971        -4.09639324E-05
   8.32919979        -3.97157055E-05
   8.34119987        -3.89616071E-05
   8.35319996        -3.87157270E-05
   8.36520004        -3.89737761E-05
   8.37720013        -3.97135227E-05
   8.38920021        -4.08959386E-05
   8.40120029        -4.24670034E-05
   8.41320038        -4.43600256E-05
   8.42520046        -4.64983896E-05
   8.43719959        -4.87985490E-05
   8.44919968        -5.11731414E-05
   8.46119976        -5.35340914E-05
   8.47319984        -5.57955500E-05
   8.48519993        -5.78766521E-05
   8.49720001        -5.97039216E-05
   8.50920010        -6.12133372E-05
   8.52120018        -6.23520027E-05
   8.53320026        -6.30793729E-05
   8.54520035        -6.33680756E-05
   8.55720043        -6.32042502E-05
   8.56919956        -6.25875327E-05
   8.58119965        -6.15306417E-05
   8.59319973        -6.00585918E-05
   8.60519981        -5.82077482E-05
   8.61719990        -5.60245207E-05
   8.62919998        -5.35639374E-05
   8.64120007        -5.08880948E-05
   8.65320015        -4.80644594E-05
   8.66520023        -4.51640772E-05
   8.67720032        -4.22597623E-05
   8.68920040        -3.94242052E-05
   8.70119953        -3.67280954E-05
   8.71319962        -3.42382627E-05
   8.72519970        -3.20159052E-05
   8.73719978        -3.01149248E-05
   8.74919987        -2.85804526E-05
   8.76119995        -2.74475733E-05
   8.77320004        -2.67403102E-05
   8.78520012        -2.64709088E-05
   8.79720020        -2.66394291E-05
   8.80920029        -2.72337074E-05
   8.82120037        -2.82296514E-05
   8.83320045        -2.95919308E-05
   8.84519958        -3.12750199E-05
   8.85719967        -3.32245945E-05
   8.86919975        -3.53792639E-05
   8.88119984        -3.76725257E-05
   8.89319992        -4.00350109E-05
   8.90520000        -4.23967722E-05
   8.91720009        -4.46897175E-05
   8.92920017        -4.68499493E-05
   8.94120026        -4.88199839E-05
   8.95320034        -5.05507960E-05
   8.96520042        -5.20034955E-05
   8.97719955        -5.31506885E-05
   8.98919964        -5.39773282E-05
   9.00119972        -5.44811010E-05
   9.01319981        -5.46722440E-05
   9.02519989        -5.45728435E-05
   9.03719997        -5.42155722E-05
   9.04920006        -5.36419611E-05
   9.06120014        -5.29002536E-05
   9.07320023        -5.20429312E-05
   9.08520031        -5.11240250E-05