 -0.622799993         1.00000002E-24
 -0.610800028         1.00000002E-24
 -0.598800004         1.00000002E-24
 -0.586799979         1.00000002E-24
 -0.574800014         1.35936560E-24
 -0.562799990         4.00625180E-24
 -0.550800025         1.76869794E-24
 -0.538800001        -8.33104832E-23
 -0.526799977        -5.40658153E-22
 -0.514800012        -2.00530694E-21
 -0.502799988        -5.33376237E-21
 -0.490799993        -1.09950212E-20
 -0.478799999        -1.82343129E-20
 -0.466800004        -2.50835590E-20
 -0.454800010        -3.06288502E-20
 -0.442799985        -3.96796472E-20
 -0.430799991        -6.68646084E-20
 -0.418799996        -1.34053588E-19
 -0.406800002        -2.55683750E-19
 -0.394800007        -4.14307239E-19
 -0.382800013        -5.42112408E-19
 -0.370799989        -5.34698285E-19
 -0.358799994        -3.17747551E-19
 -0.346799999         4.34159186E-20
 -0.334800005         2.49875469E-19
 -0.322800010        -2.13232130E-19
 -0.310799986        -1.86590853E-18
 -0.298799992        -4.84120730E-18
 -0.286799997        -8.47800323E-18
 -0.274800003        -1.12012679E-17
 -0.262800008        -1.09949732E-17
 -0.250800014        -6.55132422E-18
 -0.238800004         1.24745795E-18
 -0.226799995         8.31779406E-18
 -0.214800000         7.83129853E-18
 -0.202800006        -7.21677200E-18
 -0.190799996        -3.96608454E-17
 -0.178800002        -8.36919043E-17
 -0.166800007        -1.22927986E-16
 -0.154799998        -1.33647426E-16
 -0.142800003        -9.41872778E-17
 -0.130799994         1.48593671E-18
 -0.118799999         1.31348208E-16
 -0.106799997         2.41319898E-16
  -9.48000029E-02     2.55972351E-16
  -8.28000009E-02     1.05519328E-16
  -7.07999989E-02    -2.36778822E-16
  -5.88000007E-02    -7.20233915E-16
  -4.67999987E-02    -1.20287519E-15
  -3.48000005E-02    -1.47305827E-15
  -2.28000004E-02    -1.31122299E-15
  -1.08000003E-02    -5.80641879E-16
   1.20000006E-03     6.80295094E-16
   1.31999999E-02     2.20173721E-15
   2.52000000E-02     3.49731921E-15
   3.72000001E-02     3.96901174E-15
   4.91999984E-02     3.09178185E-15
   6.12000003E-02     6.35011918E-16
   7.32000023E-02    -3.14861247E-15
   8.51999968E-02    -7.44459798E-15
   9.71999988E-02    -1.09699949E-14
  0.109200001        -1.22582320E-14
  0.121200003        -1.00953935E-14
  0.133200005        -4.00553792E-15
  0.145199999         5.36272568E-15
  0.157199994         1.61051355E-14
  0.169200003         2.53024683E-14
  0.181199998         2.96588180E-14
  0.193200007         2.64386308E-14
  0.205200002         1.44772313E-14
  0.217199996        -5.04560544E-15
  0.229200006        -2.83816939E-14
  0.241200000        -4.97479391E-14
  0.253199995        -6.26212949E-14
  0.265199989        -6.15438757E-14
  0.277200013        -4.39598580E-14
  0.289200008        -1.14973279E-14
  0.301200002         2.98155123E-14
  0.313199997         7.06383601E-14
  0.325199991         1.00545711E-13
  0.337199986         1.10819699E-13
  0.349200010         9.69780286E-14
  0.361200005         6.02180727E-14
  0.373199999         7.27034044E-15
  0.385199994        -5.13216890E-14
  0.397199988        -1.03930360E-13
  0.409200013        -1.40663644E-13
  0.421200007        -1.55361265E-13
  0.433200002        -1.46229451E-13
  0.445199996        -1.15177711E-13
  0.457199991        -6.64775106E-14
  0.469199985        -5.59467972E-15
  0.481200010         6.11879457E-14
  0.493200004         1.26365037E-13
  0.505200028         1.80734754E-13
  0.517199993         2.13941319E-13
  0.529200017         2.16836057E-13
  0.541199982         1.85481012E-13
  0.553200006         1.25304620E-13
  0.565199971         5.29213039E-14
  0.577199996        -6.84424263E-15
  0.589200020        -2.97354067E-14
  0.601199985        -4.99146987E-15
  0.613200009         5.21961963E-14
  0.625199974         9.52201913E-14
  0.637199998         5.36052085E-14
  0.649200022        -1.43943749E-13
  0.661199987        -5.34555256E-13
  0.673200011        -1.08455031E-12
  0.685199976        -1.66616688E-12
  0.697200000        -2.06278527E-12
  0.709200025        -2.01180956E-12
  0.721199989        -1.28287311E-12
  0.733200014         2.25071372E-13
  0.745199978         2.39632468E-12
  0.757200003         4.85431140E-12
  0.769200027         6.98894935E-12
  0.781199992         8.06720142E-12
  0.793200016         7.41414742E-12
  0.805199981         4.62637090E-12
  0.817200005        -2.39120030E-13
  0.829200029        -6.56154037E-12
  0.841199994        -1.31859116E-11
  0.853200018        -1.86026177E-11
  0.865199983        -2.12538702E-11
  0.877200007        -1.99050030E-11
  0.889199972        -1.39922856E-11
  0.901199996        -3.85457204E-12
  0.913200021         9.22277185E-12
  0.925199986         2.31807091E-11
  0.937200010         3.55510274E-11
  0.949199975         4.39366772E-11
  0.961199999         4.64978889E-11
  0.973200023         4.23280369E-11
  0.985199988         3.16256500E-11
  0.997200012         1.56154759E-11
   1.00919998        -3.77167264E-12
   1.02119994        -2.44012501E-11
   1.03320003        -4.45314098E-11
   1.04519999        -6.34164735E-11
   1.05719995        -8.18611776E-11
   1.06920004        -1.02719937E-10
   1.08120000        -1.31380282E-10
   1.09319997        -1.76309259E-10
   1.10520005        -2.49739784E-10
   1.11720002        -3.68547970E-10
   1.12919998        -5.55317459E-10
   1.14119995        -8.39538161E-10
   1.15320003        -1.25886579E-09
   1.16520000        -1.86039639E-09
   1.17719996        -2.70204548E-09
   1.18920004        -3.85428356E-09
   1.20120001        -5.40277467E-09
   1.21319997        -7.45272821E-09
   1.22520006        -1.01360991E-08
   1.23720002        -1.36229446E-08
   1.24919999        -1.81385431E-08
   1.26119995        -2.39878819E-08
   1.27320004        -3.15888862E-08
   1.28520000        -4.15159320E-08
   1.29719996        -5.45544445E-08
   1.30920005        -7.17671753E-08
   1.32120001        -9.45716749E-08
   1.33319998        -1.24828318E-07
   1.34519994        -1.64936111E-07
   1.35720003        -2.17933604E-07
   1.36919999        -2.87599562E-07
   1.38119996        -3.78548691E-07
   1.39320004        -4.96314613E-07
   1.40520000        -6.47413287E-07
   1.41719997        -8.39378913E-07
   1.42920005        -1.08076449E-06
   1.44120002        -1.38109920E-06
   1.45319998        -1.75079890E-06
   1.46519995        -2.20102152E-06
   1.47720003        -2.74346712E-06
   1.48920000        -3.39012490E-06
   1.50119996        -4.15295972E-06
   1.51320004        -5.04355921E-06
   1.52520001        -6.07272932E-06
   1.53719997        -7.25006748E-06
   1.54920006        -8.58351814E-06
   1.56120002        -1.00789239E-05
   1.57319999        -1.17395984E-05
   1.58519995        -1.35659384E-05
   1.59720004        -1.55550842E-05
   1.60920000        -1.77006568E-05
   1.62119997        -1.99925889E-05
   1.63320005        -2.24170726E-05
   1.64520001        -2.49566001E-05
   1.65719998        -2.75901511E-05
   1.66919994        -3.02935059E-05
   1.68120003        -3.30396833E-05
   1.69319999        -3.57994832E-05
   1.70519996        -3.85421772E-05
   1.71720004        -4.12362606E-05
   1.72920001        -4.38502793E-05
   1.74119997        -4.63537217E-05
   1.75320005        -4.87178986E-05
   1.76520002        -5.09168240E-05
   1.77719998        -5.29280405E-05
   1.78919995        -5.47333475E-05
   1.80120003        -5.63194226E-05
   1.81320000        -5.76782986E-05
   1.82519996        -5.88076437E-05
   1.83720005        -5.97108883E-05
   1.84920001        -6.03971203E-05
   1.86119998        -6.08807859E-05
   1.87320006        -6.11812284E-05
   1.88520002        -6.13219963E-05
   1.89719999        -6.13300435E-05
   1.90919995        -6.12347430E-05
   1.92120004        -6.10669158E-05
   1.93320000        -6.08577247E-05
   1.94519997        -6.06376234E-05
   1.95720005        -6.04353409E-05
   1.96920002        -6.02769724E-05
   1.98119998        -6.01851680E-05
   1.99319994        -6.01785359E-05
   2.00519991        -6.02711807E-05
   2.01719999        -6.04724846E-05
   2.02920008        -6.07870861E-05
   2.04119992        -6.12150834E-05
   2.05320001        -6.17523910E-05
   2.06520009        -6.23913147E-05
   2.07719994        -6.31212461E-05
   2.08920002        -6.39294522E-05
   2.10120010        -6.48019195E-05
   2.11319995        -6.57242490E-05
   2.12520003        -6.66824853E-05
   2.13720012        -6.76638956E-05
   2.14919996        -6.86576386E-05
   2.16120005        -6.96553179E-05
   2.17319989        -7.06513674E-05
   2.18519998        -7.16432696E-05
   2.19720006        -7.26315775E-05
   2.20919991        -7.36198199E-05
   2.22119999        -7.46142032E-05
   2.23320007        -7.56231166E-05
   2.24519992        -7.66566518E-05
   2.25720000        -7.77258610E-05
   2.26920009        -7.88421385E-05
   2.28119993        -8.00163980E-05
   2.29320002        -8.12584985E-05
   2.30520010        -8.25765092E-05
   2.31719995        -8.39762288E-05
   2.32920003        -8.54607715E-05
   2.34120011        -8.70303484E-05
   2.35319996        -8.86821217E-05
   2.36520004        -9.04103290E-05
   2.37719989        -9.22065592E-05
   2.38919997        -9.40601167E-05
   2.40120006        -9.59586396E-05
   2.41319990        -9.78887183E-05
   2.42519999        -9.98366595E-05
   2.43720007        -1.01789235E-04
   2.44919991        -1.03734412E-04
   2.46120000        -1.05662060E-04
   2.47320008        -1.07564476E-04
   2.48519993        -1.09436864E-04
   2.49720001        -1.11277550E-04
   2.50920010        -1.13088085E-04
   2.52119994        -1.14873168E-04
   2.53320003        -1.16640324E-04
   2.54520011        -1.18399512E-04
   2.55719995        -1.20162600E-04
   2.56920004        -1.21942692E-04
   2.58119988        -1.23753489E-04
   2.59319997        -1.25608683E-04
   2.60520005        -1.27521285E-04
   2.61719990        -1.29503242E-04
   2.62919998        -1.31565015E-04
   2.64120007        -1.33715323E-04
   2.65319991        -1.35961163E-04
   2.66520000        -1.38307776E-04
   2.67720008        -1.40758799E-04
   2.68919992        -1.43316502E-04
   2.70120001        -1.45981830E-04
   2.71320009        -1.48754509E-04
   2.72519994        -1.51632965E-04
   2.73720002        -1.54613997E-04
   2.74920011        -1.57692237E-04
   2.76119995        -1.60859330E-04
   2.77320004        -1.64102836E-04
   2.78520012        -1.67404971E-04
   2.79719996        -1.70741056E-04
   2.80920005        -1.74077970E-04
   2.82119989        -1.77372567E-04
   2.83319998        -1.80570292E-04
   2.84520006        -1.83603974E-04
   2.85719991        -1.86393139E-04
   2.86919999        -1.88843740E-04
   2.88120008        -1.90848761E-04
   2.89319992        -1.92289284E-04
   2.90520000        -1.93036525E-04
   2.91720009        -1.92954569E-04
   2.92919993        -1.91903746E-04
   2.94120002        -1.89744867E-04
   2.95320010        -1.86343794E-04
   2.96519995        -1.81576412E-04
   2.97720003        -1.75333771E-04
   2.98920012        -1.67527178E-04
   3.00119996        -1.58092909E-04
   3.01320004        -1.46996579E-04
   3.02519989        -1.34236616E-04
   3.03719997        -1.19847020E-04
   3.04920006        -1.03898921E-04
   3.06119990        -8.65011461E-05
   3.07319999        -6.77994176E-05
   3.08520007        -4.79745249E-05
   3.09719992        -2.72391862E-05
   3.10920000        -5.83388146E-06
   3.12120008         1.59782776E-05
   3.13319993         3.79174780E-05
   3.14520001         5.96938153E-05
   3.15720010         8.10141719E-05
   3.16919994         1.01589336E-04
   3.18120003         1.21141093E-04
   3.19320011         1.39408949E-04
   3.20519996         1.56156369E-04
   3.21720004         1.71176347E-04
   3.22919989         1.84296063E-04
   3.24119997         1.95380650E-04
   3.25320005         2.04335782E-04
   3.26519990         2.11109160E-04
   3.27719998         2.15690932E-04
   3.28920007         2.18112924E-04
   3.30119991         2.18446759E-04
   3.31320000         2.16801083E-04
   3.32520008         2.13317806E-04
   3.33719993         2.08167708E-04
   3.34920001         2.01545379E-04
   3.36120009         1.93663771E-04
   3.37319994         1.84748555E-04
   3.38520002         1.75032241E-04
   3.39720011         1.64748635E-04
   3.40919995         1.54127250E-04
   3.42120004         1.43388344E-04
   3.43319988         1.32738249E-04
   3.44519997         1.22365309E-04
   3.45720005         1.12436501E-04
   3.46919990         1.03094768E-04
   3.48119998         9.44570274E-05
   3.49320006         8.66129558E-05
   3.50519991         7.96245222E-05
   3.51719999         7.35262438E-05
   3.52920008         6.83261678E-05
   3.54119992         6.40073922E-05
   3.55320001         6.05302630E-05
   3.56520009         5.78350046E-05
   3.57719994         5.58447864E-05
   3.58920002         5.44691429E-05
   3.60120010         5.36075968E-05
   3.61319995         5.31534752E-05
   3.62520003         5.29977624E-05
   3.63720012         5.30328507E-05
   3.64919996         5.31561964E-05
   3.66120005         5.32736303E-05
   3.67319989         5.33023558E-05
   3.68519998         5.31734258E-05
   3.69720006         5.28336750E-05
   3.70919991         5.22470436E-05
   3.72119999         5.13951636E-05
   3.73320007         5.02772527E-05
   3.74519992         4.89092854E-05
   3.75720000         4.73223990E-05
   3.76920009         4.55607005E-05
   3.78119993         4.36784358E-05
   3.79320002         4.17367446E-05
   3.80520010         3.98001030E-05
   3.81719995         3.79326120E-05
   3.82920003         3.61943494E-05
   3.84120011         3.46379420E-05
   3.85319996         3.33055614E-05
   3.86520004         3.22264750E-05
   3.87719989         3.14153258E-05
   3.88919997         3.08712115E-05
   3.90120006         3.05776739E-05
   3.91319990         3.05035301E-05
   3.92519999         3.06046350E-05
   3.93720007         3.08263261E-05
   3.94919991         3.11065924E-05
   3.96120000         3.13796227E-05
   3.97320008         3.15796387E-05
   3.98519993         3.16447222E-05
   3.99720001         3.15204270E-05
   4.00920010         3.11629956E-05
   4.02120018         3.05419126E-05
   4.03319979         2.96417693E-05
   4.04519987         2.84632279E-05
   4.05719995         2.70231067E-05
   4.06920004         2.53535563E-05
   4.08120012         2.35003845E-05
   4.09320021         2.15206364E-05
   4.10519981         1.94795648E-05
   4.11719990         1.74471788E-05
   4.12919998         1.54945701E-05
   4.14120007         1.36902399E-05
   4.15320015         1.20966488E-05
   4.16520023         1.07671631E-05
   4.17719984         9.74358682E-06
   4.18919992         9.05438719E-06
   4.20120001         8.71367865E-06
   4.21320009         8.72101646E-06
   4.22520018         9.06192781E-06
   4.23719978         9.70917245E-06
   4.24919987         1.06245807E-05
   4.26119995         1.17613718E-05
   4.27320004         1.30667977E-05
   4.28520012         1.44849428E-05
   4.29720020         1.59595402E-05
   4.30919981         1.74366269E-05
   4.32119989         1.88669219E-05
   4.33319998         2.02077845E-05
   4.34520006         2.14246775E-05
   4.35720015         2.24921077E-05
   4.36920023         2.33939591E-05
   4.38119984         2.41233320E-05
   4.39319992         2.46818290E-05
   4.40520000         2.50784742E-05
   4.41720009         2.53282615E-05
   4.42920017         2.54504994E-05
   4.44119978         2.54670413E-05
   4.45319986         2.54005045E-05
   4.46519995         2.52726059E-05
   4.47720003         2.51026795E-05
   4.48920012         2.49064869E-05
   4.50120020         2.46953623E-05
   4.51319981         2.44757339E-05
   4.52519989         2.42490623E-05
   4.53719997         2.40121681E-05
   4.54920006         2.37579334E-05
   4.56120014         2.34763302E-05
   4.57320023         2.31556824E-05
   4.58519983         2.27841047E-05
   4.59719992         2.23510051E-05
   4.60920000         2.18485166E-05
   4.62120008         2.12727882E-05
   4.63320017         2.06250133E-05
   4.64519978         1.99121150E-05
   4.65719986         1.91470008E-05
   4.66919994         1.83483753E-05
   4.68120003         1.75400801E-05
   4.69320011         1.67499948E-05
   4.70520020         1.60085456E-05
   4.71719980         1.53468991E-05
   4.72919989         1.47949704E-05
   4.74119997         1.43793395E-05
   4.75320005         1.41212386E-05
   4.76520014         1.40347411E-05
   4.77720022         1.41252840E-05
   4.78919983         1.43886609E-05
   4.80119991         1.48105491E-05
   4.81320000         1.53666660E-05
   4.82520008         1.60235450E-05
   4.83720016         1.67399121E-05
   4.84919977         1.74685993E-05
   4.86119986         1.81588821E-05
   4.87319994         1.87590722E-05
   4.88520002         1.92192310E-05
   4.89720011         1.94938330E-05
   4.90920019         1.95441789E-05
   4.92119980         1.93404539E-05
   4.93319988         1.88632548E-05
   4.94519997         1.81045634E-05
   4.95720005         1.70680360E-05
   4.96920013         1.57686591E-05
   4.98120022         1.42317631E-05
   4.99319983         1.24914632E-05
   5.00519991         1.05886502E-05
   5.01719999         8.56863335E-06
   5.02920008         6.47860907E-06
   5.04120016         4.36511027E-06
   5.05319977         2.27159990E-06
   5.06519985         2.36355064E-07
   5.07719994        -1.70923158E-06
   5.08920002        -3.54184954E-06
   5.10120010        -5.24691131E-06
   5.11320019        -6.81862821E-06
   5.12519979        -8.25954521E-06
   5.13719988        -9.57959583E-06
   5.14919996        -1.07947590E-05
   5.16120005        -1.19254255E-05
   5.17320013        -1.29945784E-05
   5.18520021        -1.40259144E-05
   5.19719982        -1.50420146E-05
   5.20919991        -1.60626787E-05
   5.22119999        -1.71034990E-05
   5.23320007        -1.81747819E-05
   5.24520016        -1.92808220E-05
   5.25719976        -2.04196040E-05
   5.26919985        -2.15829114E-05
   5.28119993        -2.27568107E-05
   5.29320002        -2.39225028E-05
   5.30520010        -2.50574340E-05
   5.31720018        -2.61366240E-05
   5.32919979        -2.71341214E-05
   5.34119987        -2.80244785E-05
   5.35319996        -2.87841794E-05
   5.36520004        -2.93929279E-05
   5.37720013        -2.98347513E-05
   5.38920021        -3.00988104E-05
   5.40119982        -3.01799610E-05
   5.41319990        -3.00789379E-05
   5.42519999        -2.98022860E-05
   5.43720007        -2.93619451E-05
   5.44920015        -2.87745861E-05
   5.46120024        -2.80607346E-05
   5.47319984        -2.72437137E-05
   5.48519993        -2.63484926E-05
   5.49720001        -2.54005172E-05
   5.50920010        -2.44245512E-05
   5.52120018        -2.34436648E-05
   5.53319979        -2.24783544E-05
   5.54519987        -2.15459022E-05
   5.55719995        -2.06599925E-05
   5.56920004        -1.98305843E-05
   5.58120012        -1.90640530E-05
   5.59320021        -1.83635566E-05
   5.60519981        -1.77296042E-05
   5.61719990        -1.71607262E-05
   5.62919998        -1.66542213E-05
   5.64120007        -1.62068827E-05
   5.65320015        -1.58156599E-05
   5.66520023        -1.54781847E-05
   5.67719984        -1.51931335E-05
   5.68919992        -1.49603939E-05
   5.70120001        -1.47810197E-05
   5.71320009        -1.46569828E-05
   5.72520018        -1.45907452E-05
   5.73719978        -1.45846880E-05
   5.74919987        -1.46404545E-05
   5.76119995        -1.47582805E-05
   5.77320004        -1.49363896E-05
   5.78520012        -1.51705126E-05
   5.79720020        -1.54536137E-05
   5.80919981        -1.57758441E-05
   5.82119989        -1.61247717E-05
   5.83319998        -1.64858429E-05
   5.84520006        -1.68430888E-05
   5.85720015        -1.71799875E-05
   5.86920023        -1.74804482E-05
   5.88119984        -1.77298025E-05
   5.89319992        -1.79157450E-05
   5.90520000        -1.80291336E-05
   5.91720009        -1.80645748E-05
   5.92920017        -1.80207371E-05
   5.94119978        -1.79003437E-05
   5.95319986        -1.77098282E-05
   5.96519995        -1.74586839E-05
   5.97720003        -1.71585016E-05
   5.98920012        -1.68217957E-05
   6.00120020        -1.64607172E-05
   6.01319981        -1.60857107E-05
   6.02519989        -1.57042941E-05
   6.03719997        -1.53200290E-05
   6.04920006        -1.49317975E-05
   6.06120014        -1.45334761E-05
   6.07320023        -1.41140481E-05
   6.08519983        -1.36581784E-05
   6.09719992        -1.31472489E-05
   6.10920000        -1.25607921E-05
   6.12120008        -1.18782527E-05
   6.13320017        -1.10809679E-05
   6.14519978        -1.01542228E-05
   6.15719986        -9.08924812E-06
   6.16919994        -7.88498983E-06
   6.18120003        -6.54952282E-06
   6.19320011        -5.10096379E-06
   6.20520020        -3.56780629E-06
   6.21719980        -1.98859129E-06
   6.22919989        -4.10894870E-07
   6.24119997         1.11034558E-06
   6.25320005         2.51512120E-06
   6.26520014         3.74115621E-06
   6.27720022         4.72709689E-06
   6.28919983         5.41592317E-06
   6.30119991         5.75839977E-06
   6.31320000         5.71636610E-06
   6.32520008         5.26566237E-06
   6.33720016         4.39850874E-06
   6.34919977         3.12517091E-06
   6.36119986         1.47478067E-06
   6.37319994        -5.04765239E-07
   6.38520002        -2.74786862E-06
   6.39720011        -5.17324315E-06
   6.40920019        -7.68679911E-06
   6.42119980        -1.01853093E-05
   6.43319988        -1.25606912E-05
   6.44519997        -1.47047158E-05
   6.45720005        -1.65139427E-05
   6.46920013        -1.78946266E-05
   6.48120022        -1.87673613E-05
   6.49319983        -1.90712017E-05
   6.50519991        -1.87670630E-05
   6.51719999        -1.78401951E-05
   6.52920008        -1.63015866E-05
   6.54120016        -1.41882128E-05
   6.55319977        -1.15621333E-05
   6.56519985        -8.50842571E-06
   6.57719994        -5.13207806E-06
   6.58920002        -1.55397049E-06
   6.60120010         2.09389282E-06
   6.61320019         5.67367988E-06
   6.62519979         9.04734497E-06
   6.63719988         1.20823033E-05
   6.64919996         1.46569291E-05
   6.66120005         1.66656228E-05
   6.67320013         1.80232328E-05
   6.68520021         1.86686302E-05
   6.69719982         1.85672689E-05
   6.70919991         1.77126749E-05
   6.72119999         1.61267526E-05
   6.73320007         1.38589621E-05
   6.74520016         1.09844168E-05
   6.75719976         7.60097100E-06
   6.76919985         3.82545477E-06
   6.78119993        -2.10798845E-07
   6.79320002        -4.36696791E-06
   6.80520010        -8.49809203E-06
   6.81720018        -1.24605685E-05
   6.82919979        -1.61175867E-05
   6.84119987        -1.93442957E-05
   6.85319996        -2.20324946E-05
   6.86520004        -2.40946811E-05
   6.87720013        -2.54672814E-05
   6.88920021        -2.61129680E-05
   6.90119982        -2.60219294E-05
   6.91319990        -2.52120917E-05
   6.92519999        -2.37282366E-05
   6.93720007        -2.16400913E-05
   6.94920015        -1.90394221E-05
   6.96120024        -1.60362779E-05
   6.97319984        -1.27544790E-05
   6.98519993        -9.32657804E-06
   6.99720001        -5.88844978E-06
   7.00920010        -2.57374813E-06
   7.02120018         4.91534649E-07
   7.03319979         3.19419723E-06
   7.04519987         5.43840861E-06
   7.05719995         7.14954831E-06
   7.06920004         8.27712483E-06
   7.08120012         8.79665822E-06
   7.09320021         8.71041902E-06
   7.10519981         8.04700630E-06
   7.11719990         6.85977966E-06
   7.12919998         5.22421806E-06
   7.14120007         3.23433937E-06
   7.15320015         9.98347787E-07
   7.16520023        -1.36628398E-06
   7.17719984        -3.73806483E-06
   7.18919992        -5.99683017E-06
   7.20120001        -8.02894283E-06
   7.21320009        -9.73212536E-06
   7.22520018        -1.10197152E-05
   7.23719978        -1.18241705E-05
   7.24919987        -1.20996801E-05
   7.26119995        -1.18237822E-05
   7.27320004        -1.09979355E-05
   7.28520012        -9.64703304E-06
   7.29720020        -7.81791096E-06
   7.30919981        -5.57695057E-06
   7.32119989        -3.00689976E-06
   7.33319998        -2.03086984E-07
   7.34520006         2.73077876E-06
   7.35720015         5.68703490E-06
   7.36920023         8.55851704E-06
   7.38119984         1.12428643E-05
   7.39319992         1.36465123E-05
   7.40520000         1.56882234E-05
   7.41720009         1.73020417E-05
   7.42920017         1.84395703E-05
   7.44119978         1.90714891E-05
   7.45319986         1.91882773E-05
   7.46519995         1.88001250E-05
   7.47720003         1.79360486E-05
   7.48920012         1.66422633E-05
   7.50120020         1.49799280E-05
   7.51319981         1.30223370E-05
   7.52519989         1.08517415E-05
   7.53719997         8.55590770E-06
   7.54920006         6.22458538E-06
   7.56120014         3.94602966E-06
   7.57320023         1.80370319E-06
   7.58519983        -1.26709281E-07
   7.59719992        -1.77987067E-06
   7.60920000        -3.10286418E-06
   7.62120008        -4.05669380E-06
   7.63320017        -4.61718355E-06
   7.64519978        -4.77525236E-06
   7.65719986        -4.53658959E-06
   7.66919994        -3.92076254E-06
   7.68120003        -2.95983841E-06
   7.69320011        -1.69659154E-06
   7.70520020        -1.82406382E-07
   7.71719980         1.52502196E-06
   7.72919989         3.36407925E-06
   7.74119997         5.27161910E-06
   7.75320005         7.18525462E-06
   7.76520014         9.04547687E-06
   7.77720022         1.07975447E-05
   7.78919983         1.23930913E-05
   7.80119991         1.37914367E-05
   7.81320000         1.49605685E-05
   7.82520008         1.58777875E-05
   7.83720016         1.65300389E-05
   7.84919977         1.69139112E-05
   7.86119986         1.70353396E-05
   7.87319994         1.69090126E-05
   7.88520002         1.65575129E-05
   7.89720011         1.60102209E-05
   7.90920019         1.53020010E-05
   7.92119980         1.44717133E-05
   7.93319988         1.35605997E-05
   7.94519997         1.26105797E-05
   7.95720005         1.16625251E-05
   7.96920013         1.07545666E-05
   7.98120022         9.92049809E-06
   7.99319983         9.18834940E-06
   8.00520039         8.57919167E-06
   8.01720047         8.10624169E-06
   8.02919960         7.77432979E-06
   8.04119968         7.57977250E-06
   8.05319977         7.51066727E-06
   8.06519985         7.54762505E-06
   8.07719994         7.66491848E-06
   8.08920002         7.83197720E-06
   8.10120010         8.01517308E-06
   8.11320019         8.17979071E-06
   8.12520027         8.29206874E-06
   8.13720036         8.32120440E-06
   8.14920044         8.24119979E-06
   8.16119957         8.03244347E-06
   8.17319965         7.68293648E-06
   8.18519974         7.18909314E-06
   8.19719982         6.55606300E-06
   8.20919991         5.79755897E-06
   8.22119999         4.93520110E-06
   8.23320007         3.99741612E-06
   8.24520016         3.01796354E-06
   8.25720024         2.03417744E-06
   8.26920033         1.08504253E-06
   8.28120041         2.09214903E-07
   8.29319954        -5.56878774E-07
   8.30519962        -1.18076878E-06
   8.31719971        -1.63539607E-06
   8.32919979        -1.90023184E-06
   8.34119987        -1.96202109E-06
   8.35319996        -1.81514235E-06
   8.36520004        -1.46159562E-06
   8.37720013        -9.10655388E-07
   8.38920021        -1.78244292E-07
   8.40120029         7.13912527E-07
   8.41320038         1.73928254E-06
   8.42520046         2.86760178E-06
   8.43719959         4.06596700E-06
   8.44919968         5.29989620E-06
   8.46119976         6.53431562E-06
   8.47319984         7.73445481E-06
   8.48519993         8.86663202E-06
   8.49720001         9.89896307E-06
   8.50920010         1.08019767E-05
   8.52120018         1.15491939E-05
   8.53320026         1.21176772E-05
   8.54520035         1.24885628E-05
   8.55720043         1.26475916E-05
   8.56919956         1.25856368E-05
   8.58119965         1.22991769E-05
   8.59319973         1.17907284E-05
   8.60519981         1.10691562E-05
   8.61719990         1.01498463E-05
   8.62919998         9.05466459E-06
   8.64120007         7.81169729E-06
   8.65320015         6.45471528E-06
   8.66520023         5.02236207E-06
   8.67720032         3.55706425E-06
   8.68920040         2.10369467E-06
   8.70119953         7.08029518E-07
   8.71319962        -5.84933161E-07
   8.72519970        -1.73271064E-06
   8.73719978        -2.69704174E-06
   8.74919987        -3.44546788E-06
   8.76119995        -3.95270445E-06
   8.77320004        -4.20171864E-06
   8.78520012        -4.18446598E-06
   8.79720020        -3.90223659E-06
   8.80920029        -3.36560220E-06
   8.82120037        -2.59396938E-06
   8.83320045        -1.61476555E-06
   8.84519958        -4.62304399E-07
   8.85719967         8.23602647E-07
   8.86919975         2.19922458E-06
   8.88119984         3.61858747E-06
   8.89319992         5.03517413E-06
   8.90520000         6.40357166E-06
   8.91720009         7.68099380E-06
   8.92920017         8.82862332E-06
   8.94120026         9.81275025E-06
   8.95320034         1.06056668E-05
   8.96520042         1.11863210E-05
   8.97719955         1.15407302E-05
   8.98919964         1.16621632E-05
   9.00119972         1.15511011E-05
   9.01319981         1.12149919E-05
   9.02519989         1.06678226E-05
   9.03719997         9.92950663E-06
   9.04920006         9.02512511E-06
   9.06120014         7.98403289E-06
   9.07320023         6.83886446E-06
   9.08520031         5.62446394E-06