 -0.622799993       0.00000000    
 -0.610800028       0.00000000    
 -0.598800004       0.00000000    
 -0.586799979       0.00000000    
 -0.574800014       0.00000000    
 -0.562799990       6.95089906E-22
 -0.550800025       4.92459029E-21
 -0.538800001       1.57679996E-20
 -0.526799977       2.41074439E-20
 -0.514800012      -1.11208351E-20
 -0.502799988      -1.57005485E-19
 -0.490799993      -4.15920862E-19
 -0.478799999      -5.24105307E-19
 -0.466800004       2.45140661E-19
 -0.454800010       2.94655135E-18
 -0.442799985       8.06789618E-18
 -0.430799991       1.37314496E-17
 -0.418799996       1.36868447E-17
 -0.406800002      -3.04802200E-18
 -0.394800007      -4.83492263E-17
 -0.382800013      -1.25325817E-16
 -0.370799989      -2.14539469E-16
 -0.358799994      -2.63013047E-16
 -0.346799999      -1.87502813E-16
 -0.334800005       9.66417609E-17
 -0.322800010       6.18314305E-16
 -0.310799986       1.27998219E-15
 -0.298799992       1.80926534E-15
 -0.286799997       1.78136683E-15
 -0.274800003       7.51815591E-16
 -0.262800008      -1.50085535E-15
 -0.250800014      -4.68834557E-15
 -0.238800004      -7.81517066E-15
 -0.226799995      -9.23560256E-15
 -0.214800000      -7.08743087E-15
 -0.202800006      -9.21916020E-17
 -0.190799996       1.14863012E-14
 -0.178800002       2.51228329E-14
 -0.166800007       3.60274351E-14
 -0.154799998       3.82103068E-14
 -0.142800003       2.66136380E-14
 -0.130799994      -1.98300564E-16
 -0.118799999      -3.77768665E-14
 -0.106799997      -7.51483701E-14
  -9.48000029E-02  -9.67268935E-14
  -8.28000009E-02  -8.69310930E-14
  -7.07999989E-02  -3.65282620E-14
  -5.88000007E-02   5.13534832E-14
  -4.67999987E-02   1.58148221E-13
  -3.48000005E-02   2.51916841E-13
  -2.28000004E-02   2.95312955E-13
  -1.08000003E-02   2.58033205E-13
   1.20000006E-03   1.30143414E-13
   1.31999999E-02  -6.86312511E-14
   2.52000000E-02  -2.88228100E-13
   3.72000001E-02  -4.58537776E-13
   4.91999984E-02  -5.09386099E-13
   6.12000003E-02  -3.95017813E-13
   7.32000023E-02  -1.15166679E-13
   8.51999968E-02   2.75472218E-13
   9.71999988E-02   6.74844729E-13
  0.109200001       9.58536310E-13
  0.121200003       1.01643075E-12
  0.133200005       7.90420518E-13
  0.145199999       3.00768525E-13
  0.157199994      -3.48992807E-13
  0.169200003      -9.92773246E-13
  0.181199998      -1.44447139E-12
  0.193200007      -1.55123668E-12
  0.205200002      -1.24204575E-12
  0.217199996      -5.56535178E-13
  0.229200006       3.55936634E-13
  0.241200000       1.26874520E-12
  0.253199995       1.93467161E-12
  0.265199989       2.15235121E-12
  0.277200013       1.82484865E-12
  0.289200008       9.94225535E-13
  0.301200002      -1.58300686E-13
  0.313199997      -1.34865871E-12
  0.325199991      -2.25580730E-12
  0.337199986      -2.60281206E-12
  0.349200010      -2.23419937E-12
  0.361200005      -1.17009776E-12
  0.373199999       3.78651646E-13
  0.385199994       2.04257900E-12
  0.397199988       3.37051112E-12
  0.409200013       3.93744282E-12
  0.421200007       3.45956814E-12
  0.433200002       1.88734618E-12
  0.445199996      -5.50818776E-13
  0.457199991      -3.37203139E-12
  0.469199985      -5.93098053E-12
  0.481200010      -7.56310813E-12
  0.493200004      -7.74511705E-12
  0.505200028      -6.23122994E-12
  0.517199993      -3.12757155E-12
  0.529200017       1.11706380E-12
  0.541199982       5.80248263E-12
  0.553200006       1.01251368E-11
  0.565199971       1.33416611E-11
  0.577199996       1.49039166E-11
  0.589200020       1.45332444E-11
  0.601199985       1.22235772E-11
  0.613200009       8.18732148E-12
  0.625199974       2.77546389E-12
  0.637199998      -3.59218146E-12
  0.649200022      -1.04607044E-11
  0.661199987      -1.73320577E-11
  0.673200011      -2.36314735E-11
  0.685199976      -2.86793939E-11
  0.697200000      -3.17015546E-11
  0.709200025      -3.18974742E-11
  0.721199989      -2.85660523E-11
  0.733200014      -2.12646914E-11
  0.745199978      -9.96361760E-12
  0.757200003       4.84451888E-12
  0.769200027       2.21082840E-11
  0.781199992       4.02627966E-11
  0.793200016       5.73442335E-11
  0.805199981       7.11458600E-11
  0.817200005       7.93830002E-11
  0.829200029       7.98402178E-11
  0.841199994       7.04870259E-11
  0.853200018       4.95642867E-11
  0.865199983       1.56573313E-11
  0.877200007      -3.22193591E-11
  0.889199972      -9.44993181E-11
  0.901199996      -1.70882850E-10
  0.913200021      -2.60091032E-10
  0.925199986      -3.59570707E-10
  0.937200010      -4.65192079E-10
  0.949199975      -5.71004855E-10
  0.961199999      -6.69132083E-10
  0.973200023      -7.49871498E-10
  0.985199988      -8.02034217E-10
  0.997200012      -8.13474954E-10
   1.00919998      -7.71668562E-10
   1.02119994      -6.64066302E-10
   1.03320003      -4.77857531E-10
   1.04519999      -1.98669026E-10
   1.05719995       1.92319632E-10
   1.06920004       7.23453519E-10
   1.08120000       1.44054191E-09
   1.09319997       2.41845455E-09
   1.10520005       3.77742460E-09
   1.11720002       5.70541125E-09
   1.12919998       8.48827142E-09
   1.14119995       1.25500099E-08
   1.15320003       1.85057605E-08
   1.16520000       2.72305591E-08
   1.17719996       3.99471141E-08
   1.18920004       5.83358108E-08
   1.20120001       8.46697574E-08
   1.21319997       1.21976896E-07
   1.22520006       1.74230280E-07
   1.23720002       2.46565378E-07
   1.24919999       3.45521670E-07
   1.26119995       4.79302457E-07
   1.27320004       6.58043973E-07
   1.28520000       8.94081097E-07
   1.29719996       1.20219420E-06
   1.30920005       1.59981710E-06
   1.32120001       2.10718486E-06
   1.33319998       2.74740000E-06
   1.34519994       3.54638746E-06
   1.35720003       4.53272469E-06
   1.36919999       5.73731768E-06
   1.38119996       7.19291666E-06
   1.39320004       8.93344713E-06
   1.40520000       1.09931689E-05
   1.41719997       1.34056636E-05
   1.42920005       1.62026572E-05
   1.44120002       1.94127188E-05
   1.45319998       2.30598780E-05
   1.46519995       2.71621848E-05
   1.47720003       3.17303166E-05
   1.48920000       3.67662506E-05
   1.50119996       4.22621160E-05
   1.51320004       4.81992829E-05
   1.52520001       5.45477487E-05
   1.53719997       6.12658914E-05
   1.54920006       6.83006729E-05
   1.56120002       7.55882429E-05
   1.57319999       8.30550416E-05
   1.58519995       9.06193163E-05
   1.59720004       9.81930934E-05
   1.60920000       1.05684478E-04
   1.62119997       1.13000198E-04
   1.63320005       1.20048404E-04
   1.64520001       1.26741434E-04
   1.65719998       1.32998568E-04
   1.66919994       1.38748583E-04
   1.68120003       1.43931960E-04
   1.69319999       1.48502790E-04
   1.70519996       1.52429973E-04
   1.71720004       1.55698057E-04
   1.72920001       1.58307303E-04
   1.74119997       1.60273266E-04
   1.75320005       1.61625707E-04
   1.76520002       1.62407014E-04
   1.77719998       1.62670229E-04
   1.78919995       1.62476616E-04
   1.80120003       1.61893156E-04
   1.81320000       1.60989861E-04
   1.82519996       1.59837262E-04
   1.83720005       1.58503943E-04
   1.84920001       1.57054426E-04
   1.86119998       1.55547576E-04
   1.87320006       1.54035210E-04
   1.88520002       1.52561435E-04
   1.89719999       1.51162312E-04
   1.90919995       1.49866144E-04
   1.92120004       1.48694118E-04
   1.93320000       1.47661282E-04
   1.94519997       1.46777922E-04
   1.95720005       1.46050865E-04
   1.96920002       1.45485115E-04
   1.98119998       1.45085098E-04
   1.99319994       1.44856007E-04
   2.00519991       1.44804668E-04
   2.01719999       1.44940073E-04
   2.02920008       1.45273676E-04
   2.04119992       1.45819053E-04
   2.05320001       1.46591250E-04
   2.06520009       1.47605751E-04
   2.07719994       1.48877283E-04
   2.08920002       1.50418113E-04
   2.10120010       1.52236695E-04
   2.11319995       1.54335925E-04
   2.12520003       1.56711991E-04
   2.13720012       1.59353163E-04
   2.14919996       1.62239230E-04
   2.16120005       1.65341349E-04
   2.17319989       1.68622471E-04
   2.18519998       1.72038213E-04
   2.19720006       1.75538444E-04
   2.20919991       1.79069131E-04
   2.22119999       1.82574760E-04
   2.23320007       1.86000747E-04
   2.24519992       1.89296086E-04
   2.25720000       1.92415930E-04
   2.26920009       1.95323752E-04
   2.28119993       1.97993329E-04
   2.29320002       2.00410126E-04
   2.30520010       2.02572075E-04
   2.31719995       2.04489814E-04
   2.32920003       2.06186232E-04
   2.34120011       2.07695528E-04
   2.35319996       2.09061633E-04
   2.36520004       2.10336395E-04
   2.37719989       2.11577353E-04
   2.38919997       2.12845538E-04
   2.40120006       2.14203174E-04
   2.41319990       2.15711523E-04
   2.42519999       2.17429013E-04
   2.43720007       2.19409631E-04
   2.44919991       2.21701586E-04
   2.46120000       2.24346441E-04
   2.47320008       2.27378434E-04
   2.48519993       2.30824153E-04
   2.49720001       2.34702311E-04
   2.50920010       2.39023735E-04
   2.52119994       2.43791481E-04
   2.53320003       2.49000790E-04
   2.54520011       2.54639308E-04
   2.55719995       2.60687026E-04
   2.56920004       2.67116382E-04
   2.58119988       2.73892336E-04
   2.59319997       2.80972483E-04
   2.60520005       2.88307405E-04
   2.61719990       2.95840960E-04
   2.62919998       3.03511071E-04
   2.64120007       3.11250478E-04
   2.65319991       3.18987761E-04
   2.66520000       3.26648558E-04
   2.67720008       3.34156910E-04
   2.68919992       3.41436535E-04
   2.70120001       3.48412403E-04
   2.71320009       3.55011609E-04
   2.72519994       3.61164653E-04
   2.73720002       3.66806024E-04
   2.74920011       3.71874805E-04
   2.76119995       3.76314769E-04
   2.77320004       3.80074198E-04
   2.78520012       3.83105740E-04
   2.79719996       3.85365798E-04
   2.80920005       3.86814267E-04
   2.82119989       3.87413864E-04
   2.83319998       3.87130160E-04
   2.84520006       3.85931606E-04
   2.85719991       3.83789971E-04
   2.86919999       3.80681158E-04
   2.88120008       3.76586278E-04
   2.89319992       3.71493195E-04
   2.90520000       3.65398126E-04
   2.91720009       3.58307414E-04
   2.92919993       3.50239221E-04
   2.94120002       3.41225008E-04
   2.95320010       3.31310846E-04
   2.96519995       3.20558000E-04
   2.97720003       3.09043215E-04
   2.98920012       2.96858314E-04
   3.00119996       2.84109061E-04
   3.01320004       2.70913413E-04
   3.02519989       2.57399399E-04
   3.03719997       2.43702263E-04
   3.04920006       2.29961399E-04
   3.06119990       2.16317028E-04
   3.07319999       2.02906856E-04
   3.08520007       1.89862694E-04
   3.09719992       1.77307331E-04
   3.10920000       1.65351710E-04
   3.12120008       1.54092530E-04
   3.13319993       1.43610116E-04
   3.14520001       1.33966925E-04
   3.15720010       1.25206570E-04
   3.16919994       1.17353193E-04
   3.18120003       1.10411507E-04
   3.19320011       1.04367136E-04
   3.20519996       9.91875859E-05
   3.21720004       9.48234665E-05
   3.22919989       9.12102696E-05
   3.24119997       8.82704044E-05
   3.25320005       8.59156498E-05
   3.26519990       8.40498906E-05
   3.27719998       8.25721436E-05
   3.28920007       8.13798397E-05
   3.30119991       8.03721923E-05
   3.31320000       7.94536973E-05
   3.32520008       7.85375159E-05
   3.33719993       7.75487060E-05
   3.34920001       7.64270590E-05
   3.36120009       7.51294356E-05
   3.37319994       7.36315124E-05
   3.38520002       7.19286982E-05
   3.39720011       7.00361779E-05
   3.40919995       6.79880904E-05
   3.42120004       6.58357094E-05
   3.43319988       6.36447803E-05
   3.44519997       6.14920136E-05
   3.45720005       5.94609664E-05
   3.46919990       5.76374368E-05
   3.48119998       5.61046327E-05
   3.49320006       5.49383913E-05
   3.50519991       5.42026501E-05
   3.51719999       5.39454995E-05
   3.52920008       5.41959707E-05
   3.54119992       5.49618162E-05
   3.55320001       5.62283640E-05
   3.56520009       5.79585248E-05
   3.57719994       6.00939857E-05
   3.58920002       6.25574539E-05
   3.60120010       6.52559393E-05
   3.61319995       6.80847443E-05
   3.62520003       7.09321539E-05
   3.63720012       7.36843504E-05
   3.64919996       7.62304917E-05
   3.66120005       7.84676085E-05
   3.67319989       8.03051225E-05
   3.68519998       8.16687461E-05
   3.69720006       8.25036113E-05
   3.70919991       8.27765107E-05
   3.72119999       8.24771923E-05
   3.73320007       8.16186948E-05
   3.74519992       8.02366412E-05
   3.75720000       7.83876894E-05
   3.76920009       7.61471965E-05
   3.78119993       7.36061411E-05
   3.79320002       7.08675652E-05
   3.80520010       6.80425583E-05
   3.81719995       6.52460949E-05
   3.82920003       6.25926696E-05
   3.84120011       6.01921092E-05
   3.85319996       5.81455315E-05
   3.86520004       5.65416995E-05
   3.87719989       5.54538165E-05
   3.88919997       5.49369179E-05
   3.90120006       5.50259283E-05
   3.91319990       5.57344611E-05
   3.92519999       5.70543962E-05
   3.93720007       5.89562333E-05
   3.94919991       6.13902375E-05
   3.96120000       6.42883679E-05
   3.97320008       6.75668198E-05
   3.98519993       7.11292014E-05
   3.99720001       7.48701641E-05
   4.00920010       7.86793389E-05
   4.02120018       8.24454546E-05
   4.03319979       8.60603832E-05
   4.04519987       8.94230761E-05
   4.05719995       9.24430715E-05
   4.06920004       9.50434915E-05
   4.08120012       9.71634508E-05
   4.09320021       9.87597305E-05
   4.10519981       9.98075921E-05
   4.11719990       1.00300967E-04
   4.12919998       1.00251789E-04
   4.14120007       9.96886811E-05
   4.15320015       9.86551240E-05
   4.16520023       9.72071575E-05
   4.17719984       9.54107090E-05
   4.18919992       9.33388947E-05
   4.20120001       9.10691597E-05
   4.21320009       8.86806010E-05
   4.22520018       8.62514134E-05
   4.23719978       8.38566702E-05
   4.24919987       8.15663661E-05
   4.26119995       7.94438820E-05
   4.27320004       7.75447043E-05
   4.28520012       7.59155882E-05
   4.29720020       7.45939105E-05
   4.30919981       7.36073780E-05
   4.32119989       7.29739040E-05
   4.33319998       7.27016377E-05
   4.34520006       7.27892257E-05
   4.35720015       7.32261396E-05
   4.36920023       7.39931638E-05
   4.38119984       7.50630061E-05
   4.39319992       7.64011129E-05
   4.40520000       7.79664842E-05
   4.41720009       7.97128378E-05
   4.42920017       8.15897583E-05
   4.44119978       8.35440660E-05
   4.45319986       8.55212493E-05
   4.46519995       8.74669786E-05
   4.47720003       8.93286997E-05
   4.48920012       9.10571107E-05
   4.50120020       9.26076609E-05
   4.51319981       9.39418678E-05
   4.52519989       9.50284448E-05
   4.53719997       9.58442470E-05
   4.54920006       9.63749189E-05
   4.56120014       9.66151711E-05
   4.57320023       9.65688960E-05
   4.58519983       9.62488339E-05
   4.59719992       9.56760487E-05
   4.60920000       9.48790839E-05
   4.62120008       9.38929225E-05
   4.63320017       9.27577785E-05
   4.64519978       9.15177225E-05
   4.65719986       9.02192842E-05
   4.66919994       8.89099465E-05
   4.68120003       8.76366757E-05
   4.69320011       8.64444664E-05
   4.70520020       8.53750098E-05
   4.71719980       8.44653623E-05
   4.72919989       8.37468833E-05
   4.74119997       8.32442456E-05
   4.75320005       8.29747005E-05
   4.76520014       8.29475030E-05
   4.77720022       8.31635989E-05
   4.78919983       8.36156105E-05
   4.80119991       8.42880472E-05
   4.81320000       8.51577497E-05
   4.82520008       8.61947119E-05
   4.83720016       8.73630561E-05
   4.84919977       8.86223133E-05
   4.86119986       8.99288934E-05
   4.87319994       9.12376636E-05
   4.88520002       9.25037020E-05
   4.89720011       9.36839715E-05
   4.90920019       9.47390508E-05
   4.92119980       9.56347067E-05
   4.93319988       9.63432612E-05
   4.94519997       9.68447639E-05
   4.95720005       9.71278278E-05
   4.96920013       9.71901172E-05
   4.98120022       9.70385227E-05
   4.99319983       9.66888547E-05
   5.00519991       9.61652331E-05
   5.01719999       9.54990610E-05
   5.02920008       9.47277440E-05
   5.04120016       9.38931189E-05
   5.05319977       9.30397218E-05
   5.06519985       9.22129548E-05
   5.07719994       9.14572593E-05
   5.08920002       9.08143702E-05
   5.10120010       9.03216569E-05
   5.11320019       9.00107480E-05
   5.12519979       8.99062943E-05
   5.13719988       9.00251325E-05
   5.14919996       9.03756445E-05
   5.16120005       9.09574810E-05
   5.17320013       9.17615907E-05
   5.18520021       9.27705551E-05
   5.19719982       9.39591773E-05
   5.20919991       9.52953487E-05
   5.22119999       9.67410888E-05
   5.23320007       9.82537822E-05
   5.24520016       9.97875468E-05
   5.25719976       1.01294696E-04
   5.26919985       1.02727245E-04
   5.28119993       1.04038474E-04
   5.29320002       1.05184532E-04
   5.30520010       1.06125895E-04
   5.31720018       1.06828884E-04
   5.32919979       1.07266918E-04
   5.34119987       1.07421634E-04
   5.35319996       1.07283704E-04
   5.36520004       1.06853375E-04
   5.37720013       1.06140586E-04
   5.38920021       1.05164734E-04
   5.40119982       1.03954080E-04
   5.41319990       1.02544633E-04
   5.42519999       1.00978861E-04
   5.43720007       9.93040449E-05
   5.44920015       9.75704315E-05
   5.46120024       9.58292949E-05
   5.47319984       9.41310282E-05
   5.48519993       9.25233035E-05
   5.49720001       9.10495219E-05
   5.50920010       8.97474965E-05
   5.52120018       8.86485650E-05
   5.53319979       8.77770872E-05
   5.54519987       8.71503362E-05
   5.55719995       8.67787530E-05
   5.56920004       8.66665141E-05
   5.58120012       8.68122661E-05
   5.59320021       8.72099190E-05
   5.60519981       8.78494830E-05
   5.61719990       8.87176720E-05
   5.62919998       8.97984428E-05
   5.64120007       9.10732124E-05
   5.65320015       9.25208660E-05
   5.66520023       9.41175822E-05
   5.67719984       9.58364908E-05
   5.68919992       9.76473457E-05
   5.70120001       9.95161972E-05
   5.71320009       1.01405320E-04
   5.72520018       1.03273400E-04
   5.73719978       1.05076077E-04
   5.74919987       1.06766965E-04
   5.76119995       1.08299108E-04
   5.77320004       1.09626773E-04
   5.78520012       1.10707631E-04
   5.79720020       1.11504982E-04
   5.80919981       1.11990084E-04
   5.82119989       1.12144233E-04
   5.83319998       1.11960442E-04
   5.84520006       1.11444577E-04
   5.85720015       1.10615845E-04
   5.86920023       1.09506480E-04
   5.88119984       1.08160653E-04
   5.89319992       1.06632622E-04
   5.90520000       1.04984305E-04
   5.91720009       1.03282313E-04
   5.92920017       1.01594713E-04
   5.94119978       9.99877884E-05
   5.95319986       9.85228326E-05
   5.96519995       9.72534763E-05
   5.97720003       9.62234481E-05
   5.98920012       9.54650532E-05
   6.00120020       9.49984023E-05
   6.01319981       9.48313973E-05
   6.02519989       9.49603345E-05
   6.03719997       9.53711351E-05
   6.04920006       9.60409670E-05
   6.06120014       9.69400644E-05
   6.07320023       9.80336263E-05
   6.08519983       9.92835630E-05
   6.09719992       1.00649995E-04
   6.10920000       1.02092432E-04
   6.12120008       1.03570550E-04
   6.13320017       1.05044652E-04
   6.14519978       1.06475745E-04
   6.15719986       1.07825581E-04
   6.16919994       1.09056513E-04
   6.18120003       1.10131528E-04
   6.19320011       1.11014473E-04
   6.20520020       1.11670641E-04
   6.21719980       1.12067748E-04
   6.22919989       1.12177324E-04
   6.24119997       1.11976435E-04
   6.25320005       1.11449670E-04
   6.26520014       1.10591209E-04
   6.27720022       1.09406770E-04
   6.28919983       1.07915141E-04
   6.30119991       1.06149215E-04
   6.31320000       1.04156221E-04
   6.32520008       1.01997095E-04
   6.33720016       9.97448442E-05
   6.34919977       9.74819413E-05
   6.36119986       9.52969058E-05
   6.37319994       9.32800904E-05
   6.38520002       9.15190249E-05
   6.39720011       9.00936211E-05
   6.40920019       8.90714582E-05
   6.42119980       8.85035333E-05
   6.43319988       8.84208857E-05
   6.44519997       8.88321665E-05
   6.45720005       8.97225036E-05
   6.46920013       9.10537055E-05
   6.48120022       9.27659130E-05
   6.49319983       9.47804219E-05
   6.50519991       9.70037217E-05
   6.51719999       9.93323047E-05
   6.52920008       1.01658101E-04
   6.54120016       1.03874008E-04
   6.55319977       1.05879371E-04
   6.56519985       1.07584841E-04
   6.57719994       1.08916560E-04
   6.58920002       1.09819302E-04
   6.60120010       1.10258494E-04
   6.61320019       1.10220986E-04
   6.62519979       1.09714783E-04
   6.63719988       1.08767585E-04
   6.64919996       1.07424581E-04
   6.66120005       1.05745479E-04
   6.67320013       1.03801227E-04
   6.68520021       1.01670412E-04
   6.69719982       9.94358343E-05
   6.70919991       9.71812842E-05
   6.72119999       9.49886235E-05
   6.73320007       9.29353919E-05
   6.74520016       9.10928065E-05
   6.75719976       8.95242774E-05
   6.76919985       8.82843015E-05
   6.78119993       8.74176112E-05
   6.79320002       8.69586074E-05
   6.80520010       8.69308860E-05
   6.81720018       8.73468380E-05
   6.82919979       8.82073582E-05
   6.84119987       8.95015037E-05
   6.85319996       9.12063260E-05
   6.86520004       9.32868352E-05
   6.87720013       9.56961594E-05
   6.88920021       9.83761201E-05
   6.90119982       1.01258171E-04
   6.91319990       1.04264785E-04
   6.92519999       1.07311454E-04
   6.93720007       1.10309113E-04
   6.94920015       1.13166985E-04
   6.96120024       1.15795898E-04
   6.97319984       1.18111675E-04
   6.98519993       1.20038603E-04
   6.99720001       1.21512734E-04
   7.00920010       1.22484766E-04
   7.02120018       1.22922269E-04
   7.03319979       1.22811340E-04
   7.04519987       1.22157231E-04
   7.05719995       1.20984128E-04
   7.06920004       1.19333949E-04
   7.08120012       1.17264412E-04
   7.09320021       1.14846269E-04
   7.10519981       1.12159993E-04
   7.11719990       1.09292188E-04
   7.12919998       1.06331776E-04
   7.14120007       1.03366270E-04
   7.15320015       1.00478399E-04
   7.16520023       9.77431409E-05
   7.17719984       9.52253686E-05
   7.18919992       9.29782109E-05
   7.20120001       9.10421295E-05
   7.21320009       8.94446566E-05
   7.22520018       8.82009044E-05
   7.23719978       8.73144527E-05
   7.24919987       8.67787458E-05
   7.26119995       8.65786787E-05
   7.27320004       8.66923147E-05
   7.28520012       8.70925942E-05
   7.29720020       8.77488783E-05
   7.30919981       8.86283597E-05
   7.32119989       8.96971105E-05
   7.33319998       9.09210867E-05
   7.34520006       9.22665931E-05
   7.35720015       9.37008081E-05
   7.36920023       9.51919574E-05
   7.38119984       9.67094675E-05
   7.39319992       9.82240163E-05
   7.40520000       9.97076204E-05
   7.41720009       1.01133752E-04
   7.42920017       1.02477563E-04
   7.44119978       1.03716142E-04
   7.45319986       1.04828963E-04
   7.46519995       1.05798266E-04
   7.47720003       1.06609514E-04
   7.48920012       1.07251872E-04
   7.50120020       1.07718501E-04
   7.51319981       1.08006883E-04
   7.52519989       1.08118904E-04
   7.53719997       1.08060827E-04
   7.54920006       1.07843131E-04
   7.56120014       1.07480191E-04
   7.57320023       1.06989821E-04
   7.58519983       1.06392668E-04
   7.59719992       1.05711566E-04
   7.60920000       1.04970815E-04
   7.62120008       1.04195373E-04
   7.63320017       1.03410101E-04
   7.64519978       1.02639009E-04
   7.65719986       1.01904545E-04
   7.66919994       1.01226964E-04
   7.68120003       1.00623853E-04
   7.69320011       1.00109719E-04
   7.70520020       9.96957169E-05
   7.71719980       9.93895374E-05
   7.72919989       9.91954439E-05
   7.74119997       9.91144407E-05
   7.75320005       9.91445195E-05
   7.76520014       9.92811183E-05
   7.77720022       9.95176160E-05
   7.78919983       9.98458418E-05
   7.80119991       1.00256737E-04
   7.81320000       1.00740879E-04
   7.82520008       1.01289021E-04
   7.83720016       1.01892496E-04
   7.84919977       1.02543519E-04
   7.86119986       1.03235259E-04
   7.87319994       1.03961836E-04
   7.88520002       1.04718070E-04
   7.89720011       1.05499079E-04
   7.90920019       1.06299827E-04
   7.92119980       1.07114538E-04
   7.93319988       1.07936117E-04
   7.94519997       1.08755659E-04
   7.95720005       1.09562017E-04
   7.96920013       1.10341585E-04
   7.98120022       1.11078298E-04
   7.99319983       1.11753798E-04
   8.00520039       1.12347945E-04
   8.01720047       1.12839472E-04
   8.02919960       1.13206937E-04
   8.04119968       1.13429676E-04
   8.05319977       1.13488946E-04
   8.06519985       1.13368944E-04
   8.07719994       1.13057780E-04
   8.08920002       1.12548245E-04
   8.10120010       1.11838293E-04
   8.11320019       1.10931294E-04
   8.12520027       1.09835913E-04
   8.13720036       1.08565750E-04
   8.14920044       1.07138672E-04
   8.16119957       1.05575964E-04
   8.17319965       1.03901344E-04
   8.18519974       1.02139937E-04
   8.19719982       1.00317331E-04
   8.20919991       9.84587095E-05
   8.22119999       9.65881627E-05
   8.23320007       9.47283188E-05
   8.24520016       9.29002053E-05
   8.25720024       9.11233292E-05
   8.26920033       8.94161058E-05
   8.28120041       8.77963757E-05
   8.29319954       8.62820307E-05
   8.30519962       8.48916388E-05
   8.31719971       8.36449617E-05
   8.32919979       8.25632669E-05
   8.34119987       8.16693646E-05
   8.35319996       8.09872799E-05
   8.36520004       8.05416421E-05
   8.37720013       8.03566654E-05
   8.38920021       8.04549709E-05
   8.40120029       8.08560872E-05
   8.41320038       8.15749008E-05
   8.42520046       8.26201212E-05
   8.43719959       8.39928907E-05
   8.44919968       8.56855550E-05
   8.46119976       8.76809136E-05
   8.47319984       8.99518127E-05
   8.48519993       9.24613632E-05
   8.49720001       9.51635593E-05
   8.50920010       9.80045588E-05
   8.52120018       1.00924350E-04
   8.53320026       1.03858831E-04
   8.54520035       1.06742184E-04
   8.55720043       1.09509281E-04
   8.56919956       1.12098183E-04
   8.58119965       1.14452436E-04
   8.59319973       1.16523079E-04
   8.60519981       1.18270262E-04
   8.61719990       1.19664481E-04
   8.62919998       1.20687175E-04
   8.64120007       1.21330915E-04
   8.65320015       1.21599041E-04
   8.66520023       1.21504847E-04
   8.67720032       1.21070378E-04
   8.68920040       1.20324927E-04
   8.70119953       1.19303368E-04
   8.71319962       1.18044489E-04
   8.72519970       1.16589195E-04
   8.73719978       1.14979026E-04
   8.74919987       1.13254777E-04
   8.76119995       1.11455454E-04
   8.77320004       1.09617424E-04
   8.78520012       1.07773914E-04
   8.79720020       1.05954728E-04
   8.80920029       1.04186220E-04
   8.82120037       1.02491402E-04
   8.83320045       1.00890204E-04
   8.84519958       9.93997819E-05
   8.85719967       9.80348486E-05
   8.86919975       9.68079330E-05
   8.88119984       9.57295779E-05
   8.89319992       9.48083980E-05
   8.90520000       9.40510654E-05
   8.91720009       9.34620839E-05
   8.92920017       9.30435344E-05
   8.94120026       9.27947331E-05
   8.95320034       9.27118381E-05
   8.96520042       9.27875371E-05
   8.97719955       9.30107562E-05
   8.98919964       9.33665069E-05
   9.00119972       9.38358935E-05
   9.01319981       9.43963096E-05
   9.02519989       9.50217873E-05
   9.03719997       9.56836229E-05
   9.04920006       9.63511266E-05
   9.06120014       9.69925823E-05
   9.07320023       9.75763323E-05
   9.08520031       9.80719269E-05
   9.09720039       9.84513754E-05
   9.10919952       9.86903033E-05
   9.12119961       9.87690801E-05
   9.13319969       9.86738160E-05
   9.14519978       9.83971549E-05
   9.15719986       9.79389297E-05
   9.16919994       9.73064525E-05
   9.18120003       9.65146683E-05
   9.19320011       9.55859068E-05
   9.20520020       9.45494467E-05
   9.21720028       9.34407071E-05
   9.22920036       9.23002153E-05
   9.24120045       9.11722818E-05
   9.25319958       9.01035019E-05
   9.26519966       8.91410818E-05
   9.27719975       8.83309622E-05
   9.28919983       8.77160492E-05
   9.30119991       8.73342869E-05
   9.31320000       8.72169549E-05
   9.32520008       8.73870085E-05
   9.33720016       8.78577557E-05
   9.34920025       8.86317503E-05
   9.36120033       8.97001519E-05
   9.37320042       9.10424569E-05
   9.38519955       9.26267530E-05
   9.39719963       9.44105195E-05
   9.40919971       9.63418279E-05
   9.42119980       9.83611608E-05
   9.43319988       1.00403486E-04
   9.44519997       1.02400780E-04
