 -0.622799993         1.00000002E-24
 -0.610800028         1.00000002E-24
 -0.598800004         1.00000002E-24
 -0.586799979         1.00000002E-24
 -0.574800014         1.00000002E-24
 -0.562799990         1.00000002E-24
 -0.550800025         1.00000012E-24
 -0.538800001         1.00000012E-24
 -0.526799977         1.00000012E-24
 -0.514800012         1.00000022E-24
 -0.502799988         1.00000091E-24
 -0.490799993         1.00000939E-24
 -0.478799999         1.00006441E-24
 -0.466800004         1.00029466E-24
 -0.454800010         1.00093709E-24
 -0.442799985         1.00196803E-24
 -0.430799991         1.00158455E-24
 -0.418799996         9.92924430E-25
 -0.406800002         9.60715239E-25
 -0.394800007         8.85445583E-25
 -0.382800013         7.69945204E-25
 -0.370799989         7.01296556E-25
 -0.358799994         9.30523856E-25
 -0.346799999         1.87980426E-24
 -0.334800005         3.89754164E-24
 -0.322800010         6.57772181E-24
 -0.310799986         7.71444513E-24
 -0.298799992         2.60503959E-24
 -0.286799997        -1.47126756E-23
 -0.274800003        -4.63142446E-23
 -0.262800008        -8.07166075E-23
 -0.250800014        -8.23309893E-23
 -0.238800004         9.52525641E-24
 -0.226799995         2.56012980E-22
 -0.214800000         6.55598393E-22
 -0.202800006         1.04986345E-21
 -0.190799996         1.04649142E-21
 -0.178800002         5.53864669E-23
 -0.166800007        -2.44658477E-21
 -0.154799998        -6.36665650E-21
 -0.142800003        -1.02863875E-20
 -0.130799994        -1.09938257E-20
 -0.118799999        -3.91841555E-21
 -0.106799997         1.48651965E-20
  -9.48000029E-02     4.49096388E-20
  -8.28000009E-02     7.69400173E-20
  -7.07999989E-02     9.02147668E-20
  -5.88000007E-02     5.54210493E-20
  -4.67999987E-02    -5.35624359E-20
  -3.48000005E-02    -2.38783080E-19
  -2.28000004E-02    -4.53962614E-19
  -1.08000003E-02    -5.89962997E-19
   1.20000006E-03    -4.87944176E-19
   1.31999999E-02     4.58235522E-21
   2.52000000E-02     9.34320044E-19
   3.72000001E-02     2.12551855E-18
   4.91999984E-02     3.10317923E-18
   6.12000003E-02     3.13277493E-18
   7.32000023E-02     1.44117372E-18
   8.51999968E-02    -2.37513663E-18
   9.71999988E-02    -7.85162236E-18
  0.109200001        -1.32825867E-17
  0.121200003        -1.57653097E-17
  0.133200005        -1.19179273E-17
  0.145199999         6.70785781E-19
  0.157199994         2.15554268E-17
  0.169200003         4.58201811E-17
  0.181199998         6.37333927E-17
  0.193200007         6.26063095E-17
  0.205200002         3.12184448E-17
  0.217199996        -3.39049256E-17
  0.229200006        -1.22386163E-16
  0.241200000        -2.07093123E-16
  0.253199995        -2.47535903E-16
  0.265199989        -2.01259872E-16
  0.277200013        -4.20320314E-17
  0.289200008         2.20128762E-16
  0.301200002         5.25256724E-16
  0.313199997         7.65226664E-16
  0.325199991         8.07422669E-16
  0.337199986         5.39845332E-16
  0.349200010        -7.23874555E-17
  0.361200005        -9.38413403E-16
  0.373199999        -1.82476096E-15
  0.385199994        -2.39031660E-15
  0.397199988        -2.27931992E-15
  0.409200013        -1.25682886E-15
  0.421200007         6.52181753E-16
  0.433200002         3.07451022E-15
  0.445199996         5.30434351E-15
  0.457199991         6.45266777E-15
  0.469199985         5.71741861E-15
  0.481200010         2.70991166E-15
  0.493200004        -2.26878389E-15
  0.505200028        -8.12070815E-15
  0.517199993        -1.31027704E-14
  0.529200017        -1.52549600E-14
  0.541199982        -1.30244995E-14
  0.553200006        -5.91233995E-15
  0.565199971         5.08288590E-15
  0.577199996         1.74288244E-14
  0.589200020         2.75374375E-14
  0.601199985         3.17042636E-14
  0.613200009         2.72836969E-14
  0.625199974         1.37496012E-14
  0.637199998        -6.73340752E-15
  0.649200022        -2.94997012E-14
  0.661199987        -4.83915039E-14
  0.673200011        -5.73804174E-14
  0.685199976        -5.23668023E-14
  0.697200000        -3.26139127E-14
  0.709200025        -1.33751002E-15
  0.721199989         3.47996710E-14
  0.733200014         6.72101196E-14
  0.745199978         8.75219832E-14
  0.757200003         8.97370692E-14
  0.769200027         7.17975552E-14
  0.781199992         3.61415847E-14
  0.793200016        -1.08520675E-14
  0.805199981        -6.02963046E-14
  0.817200005        -1.02645723E-13
  0.829200029        -1.29463470E-13
  0.841199994        -1.34745527E-13
  0.853200018        -1.15687015E-13
  0.865199983        -7.29993323E-14
  0.877200007        -1.09779747E-14
  0.889199972         6.25621855E-14
  0.901199996         1.36577883E-13
  0.913200021         1.97612082E-13
  0.925199986         2.31477733E-13
  0.937200010         2.25949942E-13
  0.949199975         1.74164082E-13
  0.961199999         7.78945457E-14
  0.973200023        -5.04753608E-14
  0.985199988        -1.88454273E-13
  0.997200012        -3.07043399E-13
   1.00919998        -3.77113190E-13
   1.02119994        -3.77148426E-13
   1.03320003        -3.00146382E-13
   1.04519999        -1.57298043E-13
   1.05719995         2.32315879E-14
   1.06920004         2.02700107E-13
   1.08120000         3.41917439E-13
   1.09319997         4.12226161E-13
   1.10520005         4.03853735E-13
   1.11720002         3.28713077E-13
   1.12919998         2.16354522E-13
   1.14119995         1.03981866E-13
   1.15320003         2.35142834E-14
   1.16520000        -1.01337794E-14
   1.17719996        -5.51898547E-15
   1.18920004         6.67513759E-15
   1.20120001        -1.70190773E-14
   1.21319997        -1.17825861E-13
   1.22520006        -3.18171379E-13
   1.23720002        -6.08399886E-13
   1.24919999        -9.40848961E-13
   1.26119995        -1.23361011E-12
   1.27320004        -1.38404804E-12
   1.28520000        -1.29000684E-12
   1.29719996        -8.75023957E-13
   1.30920005        -1.12979491E-13
   1.32120001         9.52661344E-13
   1.33319998         2.19957798E-12
   1.34519994         3.43109525E-12
   1.35720003         4.39681928E-12
   1.36919999         4.82946062E-12
   1.38119996         4.49467113E-12
   1.39320004         3.24690275E-12
   1.40520000         1.08077306E-12
   1.41719997        -1.83456982E-12
   1.42920005        -5.14983065E-12
   1.44120002        -8.36622265E-12
   1.45319998        -1.09026330E-11
   1.46519995        -1.21906539E-11
   1.47720003        -1.17807309E-11
   1.48920000        -9.43804670E-12
   1.50119996        -5.20730204E-12
   1.51320004         5.68266679E-13
   1.52520001         7.27802020E-12
   1.53719997         1.41180800E-11
   1.54920006         2.01923304E-11
   1.56120002         2.46201393E-11
   1.57319999         2.66330378E-11
   1.58519995         2.56501712E-11
   1.59720004         2.13320420E-11
   1.60920000         1.36198266E-11
   1.62119997         2.77033713E-12
   1.63320005        -1.06074437E-11
   1.64520001        -2.55178500E-11
   1.65719998        -4.05614604E-11
   1.66919994        -5.39602980E-11
   1.68120003        -6.36525208E-11
   1.69319999        -6.74769615E-11
   1.70519996        -6.34515565E-11
   1.71720004        -5.01268610E-11
   1.72920001        -2.69714494E-11
   1.74119997         5.27470472E-12
   1.75320005         4.43544299E-11
   1.76520002         8.64295649E-11
   1.77719998         1.26259059E-10
   1.78919995         1.57649865E-10
   1.80120003         1.74172066E-10
   1.81320000         1.70082379E-10
   1.82519996         1.41352194E-10
   1.83720005         8.66540520E-11
   1.84920001         8.13324321E-12
   1.86119998        -8.82125067E-11
   1.87320006        -1.92696720E-10
   1.88520002        -2.92743135E-10
   1.89719999        -3.74324599E-10
   1.90919995        -4.23938495E-10
   1.92120004        -4.30906449E-10
   1.93320000        -3.89690752E-10
   1.94519997        -3.01863784E-10
   1.95720005        -1.77355811E-10
   1.96920002        -3.46569509E-11
   1.98119998         1.00250225E-10
   1.99319994         1.96304917E-10
   2.00519991         2.21037549E-10
   2.01719999         1.45225609E-10
   2.02920008        -5.18922474E-11
   2.04119992        -3.77398446E-10
   2.05320001        -8.20107815E-10
   2.06520009        -1.34725520E-09
   2.07719994        -1.90304883E-09
   2.08920002        -2.40953524E-09
   2.10120010        -2.76999512E-09
   2.11319995        -2.87477819E-09
   2.12520003        -2.60911293E-09
   2.13720012        -1.86200377E-09
   2.14919996        -5.34932765E-10
   2.16120005         1.45129875E-09
   2.17319989         4.15349222E-09
   2.18519998         7.60877938E-09
   2.19720006         1.18450725E-08
   2.20919991         1.69008967E-08
   2.22119999         2.28557138E-08
   2.23320007         2.98711846E-08
   2.24519992         3.82428524E-08
   2.25720000         4.84607625E-08
   2.26920009         6.12765163E-08
   2.28119993         7.77730236E-08
   2.29320002         9.94326754E-08
   2.30520010         1.28198550E-07
   2.31719995         1.66523179E-07
   2.32920003         2.17399332E-07
   2.34120011         2.84367530E-07
   2.35319996         3.71495929E-07
   2.36520004         4.83329529E-07
   2.37719989         6.24806660E-07
   2.38919997         8.01143699E-07
   2.40120006         1.01768853E-06
   2.41319990         1.27974681E-06
   2.42519999         1.59238687E-06
   2.43720007         1.96022802E-06
   2.44919991         2.38722077E-06
   2.46120000         2.87642661E-06
   2.47320008         3.42980684E-06
   2.48519993         4.04802586E-06
   2.49720001         4.73028285E-06
   2.50920010         5.47417085E-06
   2.52119994         6.27557802E-06
   2.53320003         7.12862493E-06
   2.54520011         8.02565864E-06
   2.55719995         8.95728590E-06
   2.56920004         9.91246452E-06
   2.58119988         1.08786398E-05
   2.59319997         1.18419321E-05
   2.60520005         1.27873745E-05
   2.61719990         1.36991921E-05
   2.62919998         1.45611220E-05
   2.64120007         1.53567689E-05
   2.65319991         1.60699910E-05
   2.66520000         1.66853079E-05
   2.67720008         1.71883075E-05
   2.68919992         1.75660716E-05
   2.70120001         1.78075752E-05
   2.71320009         1.79040580E-05
   2.72519994         1.78493628E-05
   2.73720002         1.76402100E-05
   2.74920011         1.72763994E-05
   2.76119995         1.67609305E-05
   2.77320004         1.61000189E-05
   2.78520012         1.53030123E-05
   2.79719996         1.43822008E-05
   2.80920005         1.33525027E-05
   2.82119989         1.22310621E-05
   2.83319998         1.10367500E-05
   2.84520006         9.78958724E-06
   2.85719991         8.51012464E-06
   2.86919999         7.21878541E-06
   2.88120008         5.93521736E-06
   2.89319992         4.67767359E-06
   2.90520000         3.46245292E-06
   2.91720009         2.30342880E-06
   2.92919993         1.21168421E-06
   2.94120002         1.95279682E-07
   2.95320010        -7.40841870E-07
   2.96519995        -1.59481044E-06
   2.97720003        -2.36764481E-06
   2.98920012        -3.06294282E-06
   3.00119996        -3.68646920E-06
   3.01320004        -4.24565997E-06
   3.02519989        -4.74907984E-06
   3.03719997        -5.20586173E-06
   3.04920006        -5.62516016E-06
   3.06119990        -6.01565034E-06
   3.07319999        -6.38510119E-06
   3.08520007        -6.74003968E-06
   3.09719992        -7.08552261E-06
   3.10920000        -7.42502743E-06
   3.12120008        -7.76045636E-06
   3.13319993        -8.09224821E-06
   3.14520001        -8.41957808E-06
   3.15720010        -8.74063880E-06
   3.16919994        -9.05295201E-06
   3.18120003        -9.35371918E-06
   3.19320011        -9.64015544E-06
   3.20519996        -9.90979606E-06
   3.21720004        -1.01607575E-05
   3.22919989        -1.03919328E-05
   3.24119997        -1.06031084E-05
   3.25320005        -1.07950063E-05
   3.26519990        -1.09692455E-05
   3.27719998        -1.11282443E-05
   3.28920007        -1.12750513E-05
   3.30119991        -1.14131581E-05
   3.31320000        -1.15462672E-05
   3.32520008        -1.16780739E-05
   3.33719993        -1.18120533E-05
   3.34920001        -1.19512770E-05
   3.36120009        -1.20982686E-05
   3.37319994        -1.22549081E-05
   3.38520002        -1.24223789E-05
   3.39720011        -1.26011628E-05
   3.40919995        -1.27910871E-05
   3.42120004        -1.29913860E-05
   3.43319988        -1.32008136E-05
   3.44519997        -1.34177562E-05
   3.45720005        -1.36403532E-05
   3.46919990        -1.38666328E-05
   3.48119998        -1.40946195E-05
   3.49320006        -1.43224388E-05
   3.50519991        -1.45483900E-05
   3.51719999        -1.47710070E-05
   3.52920008        -1.49890820E-05
   3.54119992        -1.52016592E-05
   3.55320001        -1.54080135E-05
   3.56520009        -1.56075857E-05
   3.57719994        -1.57999148E-05
   3.58920002        -1.59845331E-05
   3.60120010        -1.61608586E-05
   3.61319995        -1.63280874E-05
   3.62520003        -1.64850699E-05
   3.63720012        -1.66302070E-05
   3.64919996        -1.67613634E-05
   3.66120005        -1.68757942E-05
   3.67319989        -1.69701270E-05
   3.68519998        -1.70403655E-05
   3.69720006        -1.70819549E-05
   3.70919991        -1.70898893E-05
   3.72119999        -1.70588992E-05
   3.73320007        -1.69836585E-05
   3.74519992        -1.68590832E-05
   3.75720000        -1.66806367E-05
   3.76920009        -1.64446792E-05
   3.78119993        -1.61488315E-05
   3.79320002        -1.57923205E-05
   3.80520010        -1.53762976E-05
   3.81719995        -1.49041070E-05
   3.82920003        -1.43814887E-05
   3.84120011        -1.38166752E-05
   3.85319996        -1.32204013E-05
   3.86520004        -1.26057912E-05
   3.87719989        -1.19881370E-05
   3.88919997        -1.13845663E-05
   3.90120006        -1.08136137E-05
   3.91319990        -1.02947133E-05
   3.92519999        -9.84762664E-06
   3.93720007        -9.49183868E-06
   3.94919991        -9.24593951E-06
   3.96120000        -9.12702671E-06
   3.97320008        -9.15012788E-06
   3.98519993        -9.32770399E-06
   3.99720001        -9.66919924E-06
   4.00920010        -1.01807027E-05
   4.02120018        -1.08646882E-05
   4.03319979        -1.17198524E-05
   4.04519987        -1.27410631E-05
   4.05719995        -1.39193880E-05
   4.06920004        -1.52422163E-05
   4.08120012        -1.66934733E-05
   4.09320021        -1.82539115E-05
   4.10519981        -1.99014903E-05
   4.11719990        -2.16118187E-05
   4.12919998        -2.33586925E-05
   4.14120007        -2.51147048E-05
   4.15320015        -2.68519198E-05
   4.16520023        -2.85426304E-05
   4.17719984        -3.01601449E-05
   4.18919992        -3.16796286E-05
   4.20120001        -3.30789589E-05
   4.21320009        -3.43395222E-05
   4.22520018        -3.54470139E-05
   4.23719978        -3.63921099E-05
   4.24919987        -3.71709866E-05
   4.26119995        -3.77857032E-05
   4.27320004        -3.82443432E-05
   4.28520012        -3.85609128E-05
   4.29720020        -3.87549917E-05
   4.30919981        -3.88510707E-05
   4.32119989        -3.88776389E-05
   4.33319998        -3.88659937E-05
   4.34520006        -3.88488479E-05
   4.35720015        -3.88587177E-05
   4.36920023        -3.89261986E-05
   4.38119984        -3.90781752E-05
   4.39319992        -3.93360169E-05
   4.40520000        -3.97138610E-05
   4.41720009        -4.02169935E-05
   4.42920017        -4.08404558E-05
   4.44119978        -4.15678915E-05
   4.45319986        -4.23706879E-05
   4.46519995        -4.32074376E-05
   4.47720003        -4.40238182E-05
   4.48920012        -4.47527964E-05
   4.50120020        -4.53152497E-05
   4.51319981        -4.56210109E-05
   4.52519989        -4.55702393E-05
   4.53719997        -4.50552361E-05
   4.54920006        -4.39625510E-05
   4.56120014        -4.21754412E-05
   4.57320023        -3.95766147E-05
   4.58519983        -3.60511840E-05
   4.59719992        -3.14898134E-05
   4.60920000        -2.57919983E-05
   4.62120008        -1.88693357E-05
   4.63320017        -1.06487769E-05
   4.64519978        -1.07570668E-06
   4.65719986         9.88320789E-06
   4.66919994         2.22375602E-05
   4.68120003         3.59711667E-05
   4.69320011         5.10406098E-05
   4.70520020         6.73744144E-05
   4.71719980         8.48729396E-05
   4.72919989         1.03408966E-04
   4.74119997         1.22829151E-04
   4.75320005         1.42956109E-04
   4.76520014         1.63591292E-04
   4.77720022         1.84518532E-04
   4.78919983         2.05507997E-04
   4.80119991         2.26320713E-04
   4.81320000         2.46713229E-04
   4.82520008         2.66442512E-04
   4.83720016         2.85270769E-04
   4.84919977         3.02970002E-04
   4.86119986         3.19326355E-04
   4.87319994         3.34143959E-04
   4.88520002         3.47248337E-04
   4.89720011         3.58488964E-04
   4.90920019         3.67741450E-04
   4.92119980         3.74908937E-04
   4.93319988         3.79922916E-04
   4.94519997         3.82743485E-04
   4.95720005         3.83358944E-04
   4.96920013         3.81785154E-04
   4.98120022         3.78064404E-04
   4.99319983         3.72263981E-04
   5.00519991         3.64474399E-04
   5.01719999         3.54807853E-04
   5.02920008         3.43395892E-04
   5.04120016         3.30387644E-04
   5.05319977         3.15947545E-04
   5.06519985         3.00253043E-04
   5.07719994         2.83492263E-04
   5.08920002         2.65861629E-04
   5.10120010         2.47563265E-04
   5.11320019         2.28802426E-04
   5.12519979         2.09784674E-04
   5.13719988         1.90713341E-04
   5.14919996         1.71786596E-04
   5.16120005         1.53194866E-04
   5.17320013         1.35118113E-04
   5.18520021         1.17723452E-04
   5.19719982         1.01162921E-04
   5.20919991         8.55715189E-05
   5.22119999         7.10655368E-05
   5.23320007         5.77413593E-05
   5.24520016         4.56745838E-05
   5.25719976         3.49195361E-05
   5.26919985         2.55092164E-05
   5.28119993         1.74556117E-05
   5.29320002         1.07503593E-05
   5.30520010         5.36572543E-06
   5.31720018         1.25587326E-06
   5.32919979        -1.64161554E-06
   5.34119987        -3.40400857E-06
   5.35319996        -4.12154850E-06
   5.36520004        -3.89540219E-06
   5.37720013        -2.83549707E-06
   5.38920021        -1.05829884E-06
   5.40119982         1.31550507E-06
   5.41319990         4.16334524E-06
   5.42519999         7.36310812E-06
   5.43720007         1.07954465E-05
   5.44920015         1.43460375E-05
   5.46120024         1.79076869E-05
   5.47319984         2.13822823E-05
   5.48519993         2.46824911E-05
   5.49720001         2.77331674E-05
   5.50920010         3.04724090E-05
   5.52120018         3.28522110E-05
   5.53319979         3.48386784E-05
   5.54519987         3.64117914E-05
   5.55719995         3.75647433E-05
   5.56920004         3.83028200E-05
   5.58120012         3.86419706E-05
   5.59320021         3.86070133E-05
   5.60519981         3.82296821E-05
   5.61719990         3.75465170E-05
   5.62919998         3.65967826E-05
   5.64120007         3.54204822E-05
   5.65320015         3.40565566E-05
   5.66520023         3.25414076E-05
   5.67719984         3.09077550E-05
   5.68919992         2.91839187E-05
   5.70120001         2.73935148E-05
   5.71320009         2.55555369E-05
   5.72520018         2.36848209E-05
   5.73719978         2.17927918E-05
   5.74919987         1.98884391E-05
   5.76119995         1.79793951E-05
   5.77320004         1.60730560E-05
   5.78520012         1.41776381E-05
   5.79720020         1.23030904E-05
   5.80919981         1.04617893E-05
   5.82119989         8.66897790E-06
   5.83319998         6.94292657E-06
   5.84520006         5.30479065E-06
   5.85720015         3.77821948E-06
   5.86920023         2.38872553E-06
   5.88119984         1.16289232E-06
   5.89319992         1.27459870E-07
   5.90520000        -6.91621722E-07
   5.91720009        -1.27014494E-06
   5.92920017        -1.58653313E-06
   5.94119978        -1.62264075E-06
   5.95319986        -1.36444794E-06
   5.96519995        -8.02636180E-07
   5.97720003         6.69452191E-08
   5.98920012         1.24291455E-06
   6.00120020         2.71808221E-06
   6.01319981         4.47924867E-06
   6.02519989         6.50707261E-06
   6.03719997         8.77599268E-06
   6.04920006         1.12542302E-05
   6.06120014         1.39038775E-05
   6.07320023         1.66810878E-05
   6.08519983         1.95364210E-05
   6.09719992         2.24153719E-05
   6.10920000         2.52591326E-05
   6.12120008         2.80055647E-05
   6.13320017         3.05904796E-05
   6.14519978         3.29491450E-05
   6.15719986         3.50180417E-05
   6.16919994         3.67367829E-05
   6.18120003         3.80501988E-05
   6.19320011         3.89103952E-05
   6.20520020         3.92788170E-05
   6.21719980         3.91280882E-05
   6.22919989         3.84436462E-05
   6.24119997         3.72249888E-05
   6.25320005         3.54864642E-05
   6.26520014         3.32575873E-05
   6.27720022         3.05827780E-05
   6.28919983         2.75205421E-05
   6.30119991         2.41420876E-05
   6.31320000         2.05294546E-05
   6.32520008         1.67731778E-05
   6.33720016         1.29696455E-05
   6.34919977         9.21819174E-06
   6.36119986         5.61807883E-06
   6.37319994         2.26550151E-06
   6.38520002        -7.49310914E-07
   6.39720011        -3.34476795E-06
   6.40920019        -5.45027660E-06
   6.42119980        -7.00822557E-06
   6.43319988        -7.97552002E-06
   6.44519997        -8.32465776E-06
   6.45720005        -8.04431056E-06
   6.46920013        -7.13942882E-06
   6.48120022        -5.63088133E-06
   6.49319983        -3.55467591E-06
   6.50519991        -9.60801572E-07
   6.51719999         2.08825190E-06
   6.52920008         5.51924632E-06
   6.54120016         9.25015138E-06
   6.55319977         1.31922707E-05
   6.56519985         1.72524742E-05
   6.57719994         2.13354888E-05
   6.58920002         2.53462058E-05
   6.60120010         2.91919623E-05
   6.61320019         3.27847374E-05
   6.62519979         3.60432241E-05
   6.63719988         3.88947556E-05
   6.64919996         4.12769550E-05
   6.66120005         4.31392109E-05
   6.67320013         4.44437610E-05
   6.68520021         4.51665073E-05
   6.69719982         4.52974127E-05
   6.70919991         4.48405517E-05
   6.72119999         4.38137249E-05
   6.73320007         4.22477206E-05
   6.74520016         4.01851794E-05
   6.75719976         3.76791359E-05
   6.76919985         3.47912974E-05
   6.78119993         3.15900797E-05
   6.79320002         2.81485318E-05
   6.80520010         2.45422016E-05
   6.81720018         2.08470374E-05
   6.82919979         1.71374140E-05
   6.84119987         1.34843476E-05
   6.85319996         9.95396567E-06
   6.86520004         6.60629030E-06
   6.87720013         3.49432958E-06
   6.88920021         6.63521178E-07
   6.90119982        -1.84851513E-06
   6.91319990        -4.01193347E-06
   6.92519999        -5.80437791E-06
   6.93720007        -7.21051765E-06
   6.94920015        -8.22146376E-06
   6.96120024        -8.83413395E-06
   6.97319984        -9.05062097E-06
   6.98519993        -8.87762144E-06
   6.99720001        -8.32595560E-06
   7.00920010        -7.41020540E-06
   7.02120018        -6.14846931E-06
   7.03319979        -4.56222506E-06
   7.04519987        -2.67626774E-06
   7.05719995        -5.18689774E-07
   7.06920004         1.87914429E-06
   7.08120012         4.48268293E-06
   7.09320021         7.25437121E-06
   7.10519981         1.01539736E-05
   7.11719990         1.31390589E-05
   7.12919998         1.61656553E-05
   7.14120007         1.91890776E-05
   7.15320015         2.21648825E-05
   7.16520023         2.50499343E-05
   7.17719984         2.78035041E-05
   7.18919992         3.03883462E-05
   7.20120001         3.27717025E-05
   7.21320009         3.49261172E-05
   7.22520018         3.68300607E-05
   7.23719978         3.84682571E-05
   7.24919987         3.98317316E-05
   7.26119995         4.09175518E-05
   7.27320004         4.17282317E-05
   7.28520012         4.22709345E-05
   7.29720020         4.25564285E-05
   7.30919981         4.25979160E-05
   7.32119989         4.24098434E-05
   7.33319998         4.20067299E-05
   7.34520006         4.14021124E-05
   7.35720015         4.06077379E-05
   7.36920023         3.96329560E-05
   7.38119984         3.84844752E-05
   7.39319992         3.71663700E-05
   7.40520000         3.56804521E-05
   7.41720009         3.40269071E-05
   7.42920017         3.22051383E-05
   7.44119978         3.02148001E-05
   7.45319986         2.80569129E-05
   7.46519995         2.57349675E-05
   7.47720003         2.32559669E-05
   7.48920012         2.06313143E-05
   7.50120020         1.78774699E-05
   7.51319981         1.50163933E-05
   7.52519989         1.20756531E-05
   7.53719997         9.08829134E-06
   7.54920006         6.09236940E-06
   7.56120014         3.13027772E-06
   7.57320023         2.47811158E-07
   7.58519983        -2.50692415E-06
   7.59719992        -5.08473067E-06
   7.60920000        -7.43661985E-06
   7.62120008        -9.51512902E-06
   7.63320017        -1.12756188E-05
   7.64519978        -1.26775158E-05
   7.65719986        -1.36854542E-05
   7.66919994        -1.42703047E-05
   7.68120003        -1.44100541E-05
   7.69320011        -1.40905322E-05
   7.70520020        -1.33059602E-05
   7.71719980        -1.20593122E-05
   7.72919989        -1.03624752E-05
   7.74119997        -8.23620849E-06
   7.75320005        -5.70987231E-06
   7.76520014        -2.82095652E-06
   7.77720022         3.85627857E-07
   7.78919983         3.85845351E-06
   7.80119991         7.54068788E-06
   7.81320000         1.13713786E-05
   7.82520008         1.52868852E-05
   7.83720016         1.92224252E-05
   7.84919977         2.31136637E-05
   7.86119986         2.68983385E-05
   7.87319994         3.05178146E-05
   7.88520002         3.39185135E-05
   7.89720011         3.70531961E-05
   7.90920019         3.98819939E-05
   7.92119980         4.23731617E-05
   7.93319988         4.45035475E-05
   7.94519997         4.62587232E-05
   7.95720005         4.76328205E-05
   7.96920013         4.86280442E-05
   7.98120022         4.92539584E-05
   7.99319983         4.95265558E-05
   8.00520039         4.94671876E-05
   8.01720047         4.91013707E-05
   8.02919960         4.84576194E-05
   8.04119968         4.75662710E-05
   8.05319977         4.64584591E-05
   8.06519985         4.51651504E-05
   8.07719994         4.37164308E-05
   8.08920002         4.21409386E-05
   8.10120010         4.04654820E-05
   8.11320019         3.87148684E-05
   8.12520027         3.69118752E-05
   8.13720036         3.50773080E-05
   8.14920044         3.32301897E-05
   8.16119957         3.13879464E-05
   8.17319965         2.95665886E-05
   8.18519974         2.77808740E-05
   8.19719982         2.60443903E-05
   8.20919991         2.43695940E-05
   8.22119999         2.27677701E-05
   8.23320007         2.12489485E-05
   8.24520016         1.98217913E-05
   8.25720024         1.84934761E-05
   8.26920033         1.72696182E-05
   8.28120041         1.61542193E-05
   8.29319954         1.51496997E-05
   8.30519962         1.42570098E-05
   8.31719971         1.34758129E-05
   8.32919979         1.28047559E-05
   8.34119987         1.22417796E-05
   8.35319996         1.17844620E-05
   8.36520004         1.14303521E-05
   8.37720013         1.11772515E-05
   8.38920021         1.10234141E-05
   8.40120029         1.09676357E-05
   8.41320038         1.10091996E-05
   8.42520046         1.11476993E-05
   8.43719959         1.13827082E-05
   8.44919968         1.17133659E-05
   8.46119976         1.21378871E-05
   8.47319984         1.26530422E-05
   8.48519993         1.32536788E-05
   8.49720001         1.39323356E-05
   8.50920010         1.46789698E-05
   8.52120018         1.54808858E-05
   8.53320026         1.63228506E-05
   8.54520035         1.71874362E-05
   8.55720043         1.80555580E-05
   8.56919956         1.89072070E-05
   8.58119965         1.97223126E-05
   8.59319973         2.04817024E-05
   8.60519981         2.11680599E-05
   8.61719990         2.17668276E-05
   8.62919998         2.22669951E-05
   8.64120007         2.26616758E-05
   8.65320015         2.29484576E-05
   8.66520023         2.31294653E-05
   8.67720032         2.32111397E-05
   8.68920040         2.32037455E-05
   8.70119953         2.31206213E-05
   8.71319962         2.29772322E-05
   8.72519970         2.27900946E-05
   8.73719978         2.25756394E-05
   8.74919987         2.23491079E-05
   8.76119995         2.21235514E-05
   8.77320004         2.19090180E-05
   8.78520012         2.17119759E-05
   8.79720020         2.15350228E-05
   8.80920029         2.13768890E-05
   8.82120037         2.12327304E-05
   8.83320045         2.10947019E-05
   8.84519958         2.09527225E-05
   8.85719967         2.07954181E-05
   8.86919975         2.06111326E-05
   8.88119984         2.03889576E-05
   8.89319992         2.01196926E-05
   8.90520000         1.97966765E-05
   8.91720009         1.94164350E-05
   8.92920017         1.89790953E-05
   8.94120026         1.84885557E-05
   8.95320034         1.79524013E-05
   8.96520042         1.73815824E-05
   8.97719955         1.67898943E-05
   8.98919964         1.61932967E-05
   9.00119972         1.56091355E-05
   9.01319981         1.50553205E-05
   9.02519989         1.45495133E-05
   9.03719997         1.41083547E-05
   9.04920006         1.37467887E-05
   9.06120014         1.34774755E-05
   9.07320023         1.33103267E-05
   9.08520031         1.32521409E-05