 -0.622799993       0.00000000    
 -0.610800028       0.00000000    
 -0.598800004       0.00000000    
 -0.586799979       0.00000000    
 -0.574800014       0.00000000    
 -0.562799990       0.00000000    
 -0.550800025       0.00000000    
 -0.538800001       0.00000000    
 -0.526799977       0.00000000    
 -0.514800012       0.00000000    
 -0.502799988       0.00000000    
 -0.490799993       0.00000000    
 -0.478799999      -0.00000000    
 -0.466800004      -5.29907460E-38
 -0.454800010      -2.03747496E-37
 -0.442799985      -1.06051855E-36
 -0.430799991      -3.32885163E-36
 -0.418799996      -7.00019298E-36
 -0.406800002      -6.86157806E-36
 -0.394800007       1.08976592E-35
 -0.382800013       5.31287229E-35
 -0.370799989       2.46981895E-35
 -0.358799994      -5.46856778E-34
 -0.346799999      -3.01785822E-33
 -0.334800005      -1.00617019E-32
 -0.322800010      -2.48333908E-32
 -0.310799986      -4.63232642E-32
 -0.298799992      -5.76385141E-32
 -0.286799997      -6.57474562E-33
 -0.274800003       2.12244721E-31
 -0.262800008       7.44962680E-31
 -0.250800014       1.68413113E-30
 -0.238800004       2.83622130E-30
 -0.226799995       3.34936558E-30
 -0.214800000       1.35727910E-30
 -0.202800006      -5.93991326E-30
 -0.190799996      -2.10684097E-29
 -0.178800002      -4.32522729E-29
 -0.166800007      -6.35345270E-29
 -0.154799998      -5.97089500E-29
 -0.142800003       4.65510019E-30
 -0.130799994       1.70301643E-28
 -0.118799999       4.54568819E-28
 -0.106799997       8.04293286E-28
  -9.48000029E-02   1.04100529E-27
  -8.28000009E-02   8.30253088E-28
  -7.07999989E-02  -2.73168342E-28
  -5.88000007E-02  -2.64723366E-27
  -4.67999987E-02  -6.26407405E-27
  -3.48000005E-02  -1.02409006E-26
  -2.28000004E-02  -1.24545837E-26
  -1.08000003E-02  -9.52831114E-27
   1.20000006E-03   2.43063337E-27
   1.31999999E-02   2.60555580E-26
   2.52000000E-02   5.99634498E-26
   3.72000001E-02   9.56778454E-26
   4.91999984E-02   1.15637555E-25
   6.12000003E-02   9.42873486E-26
   7.32000023E-02   4.25291323E-27
   8.51999968E-02  -1.71409478E-25
   9.71999988E-02  -4.22151912E-25
  0.109200001      -6.92590983E-25
  0.121200003      -8.72823118E-25
  0.133200005      -8.06437269E-25
  0.145199999      -3.25264534E-25
  0.157199994       6.85661382E-25
  0.169200003       2.20000626E-24
  0.181199998       3.96011843E-24
  0.193200007       5.42053820E-24
  0.205200002       5.76936855E-24
  0.217199996       4.06911613E-24
  0.229200006      -4.61215170E-25
  0.241200000      -8.04039536E-24
  0.253199995      -1.78695265E-23
  0.265199989      -2.77643540E-23
  0.277200013      -3.40659453E-23
  0.289200008      -3.20385601E-23
  0.301200002      -1.69183022E-23
  0.313199997       1.43572227E-23
  0.325199991       6.09388423E-23
  0.337199986       1.15883616E-22
  0.349200010       1.64827097E-22
  0.361200005       1.86547681E-22
  0.373199999       1.56408386E-22
  0.385199994       5.31890286E-23
  0.397199988      -1.31157743E-22
  0.409200013      -3.80705611E-22
  0.421200007      -6.47131908E-22
  0.433200002      -8.48221212E-22
  0.445199996      -8.77835530E-22
  0.457199991      -6.30103721E-22
  0.469199985      -3.67299286E-23
  0.481200010       8.89178062E-22
  0.493200004       2.01518363E-21
  0.505200028       3.07398006E-21
  0.517199993       3.68658930E-21
  0.529200017       3.43450277E-21
  0.541199982       1.97844901E-21
  0.553200006      -7.95460781E-22
  0.565199971      -4.63846820E-21
  0.577199996      -8.85831676E-21
  0.589200020      -1.23421874E-20
  0.601199985      -1.37158420E-20
  0.613200009      -1.16422771E-20
  0.625199974      -5.22508950E-21
  0.637199998       5.55695008E-21
  0.649200022       1.94875917E-20
  0.661199987       3.39407198E-20
  0.673200011       4.50099538E-20
  0.685199976       4.80261581E-20
  0.697200000       3.85000618E-20
  0.709200025       1.34510739E-20
  0.721199989      -2.70281814E-20
  0.733200014      -7.82729994E-20
  0.745199978      -1.30090036E-19
  0.757200003      -1.66969328E-19
  0.769200027      -1.70122333E-19
  0.781199992      -1.21795004E-19
  0.793200016      -1.17493728E-20
  0.805199981       1.55111862E-19
  0.817200005       3.52134871E-19
  0.829200029       5.28454933E-19
  0.841199994       6.14101265E-19
  0.853200018       5.35077392E-19
  0.865199983       2.38190044E-19
  0.877200007      -2.78692632E-19
  0.889199972      -9.39878284E-19
  0.901199996      -1.58092103E-18
  0.913200021      -1.96597050E-18
  0.925199986      -1.84086212E-18
  0.937200010      -1.01883309E-18
  0.949199975       5.18788345E-19
  0.961199999       2.53892480E-18
  0.973200023       4.53031477E-18
  0.985199988       5.77026678E-18
  0.997200012       5.50012531E-18
   1.00919998       3.18938800E-18
   1.02119994      -1.17446350E-18
   1.03320003      -6.86948518E-18
   1.04519999      -1.24075057E-17
   1.05719995      -1.57724946E-17
   1.06920004      -1.49454133E-17
   1.08120000      -8.63014821E-18
   1.09319997       3.01227126E-18
   1.10520005       1.78878585E-17
   1.11720002       3.20187652E-17
   1.12919998       4.02840763E-17
   1.14119995       3.78227806E-17
   1.15320003       2.18180235E-17
   1.16520000      -6.84882179E-18
   1.17719996      -4.27036425E-17
   1.18920004      -7.61001134E-17
   1.20120001      -9.52130215E-17
   1.21319997      -8.93825760E-17
   1.22520006      -5.30469041E-17
   1.23720002       1.09252907E-17
   1.24919999       8.98134974E-17
   1.26119995       1.62543412E-16
   1.27320004       2.04374637E-16
   1.28520000       1.94025086E-16
   1.29719996       1.21457034E-16
   1.30920005      -6.11327790E-18
   1.32120001      -1.62407212E-16
   1.33319998      -3.06056218E-16
   1.34519994      -3.90361381E-16
   1.35720003      -3.76916718E-16
   1.36919999      -2.49475767E-16
   1.38119996      -2.35969334E-17
   1.39320004       2.51919404E-16
   1.40520000       5.03889365E-16
   1.41719997       6.53020262E-16
   1.42920005       6.37481020E-16
   1.44120002       4.35160556E-16
   1.45319998       7.72446667E-17
   1.46519995      -3.52742503E-16
   1.47720003      -7.36582127E-16
   1.48920000      -9.52811375E-16
   1.50119996      -9.14164226E-16
   1.51320004      -5.99990071E-16
   1.52520001      -7.24914288E-17
   1.53719997       5.30917657E-16
   1.54920006       1.03035163E-15
   1.56120002       1.25462721E-15
   1.57319999       1.09727390E-15
   1.58519995       5.60166393E-16
   1.59720004      -2.31050709E-16
   1.60920000      -1.04893278E-15
   1.62119997      -1.62220860E-15
   1.63320005      -1.71667934E-15
   1.64520001      -1.21674832E-15
   1.65719998      -1.81784441E-16
   1.66919994       1.14427311E-15
   1.68120003       2.38008211E-15
   1.69319999       3.10444140E-15
   1.70519996       2.98116126E-15
   1.71720004       1.87646428E-15
   1.72920001      -6.82789487E-17
   1.74119997      -2.43684094E-15
   1.75320005      -4.62093107E-15
   1.76520002      -5.97081952E-15
   1.77719998      -5.97658655E-15
   1.78919995      -4.42923523E-15
   1.80120003      -1.51165258E-15
   1.81320000       2.21409478E-15
   1.82519996       5.92802742E-15
   1.83720005       8.75406772E-15
   1.84920001       9.98752981E-15
   1.86119998       9.28190731E-15
   1.87320006       6.73775534E-15
   1.88520002       2.86497332E-15
   1.89719999      -1.57019230E-15
   1.90919995      -5.76367550E-15
   1.92120004      -9.08451476E-15
   1.93320000      -1.12064001E-14
   1.94519997      -1.21158568E-14
   1.95720005      -1.19990747E-14
   1.96920002      -1.10579838E-14
   1.98119998      -9.33842813E-15
   1.99319994      -6.65491891E-15
   2.00519991      -2.66278487E-15
   2.01719999       2.93087270E-15
   2.02920008       1.00904748E-14
   2.04119992       1.82259162E-14
   2.05320001       2.61340666E-14
   2.06520009       3.21754274E-14
   2.07719994       3.46664056E-14
   2.08920002       3.23730741E-14
   2.10120010       2.49288098E-14
   2.11319995       1.29989708E-14
   2.12520003      -1.90736637E-15
   2.13720012      -1.79432902E-14
   2.14919996      -3.35647885E-14
   2.16120005      -4.80248674E-14
   2.17319989      -6.14438716E-14
   2.18519998      -7.43084115E-14
   2.19720006      -8.64815557E-14
   2.20919991      -9.60659707E-14
   2.22119999      -9.86473747E-14
   2.23320007      -8.74627045E-14
   2.24519992      -5.48331928E-14
   2.25720000       5.20011526E-15
   2.26920009       9.35977641E-14
   2.28119993       2.03386624E-13
   2.29320002       3.18237000E-13
   2.30520010       4.13534929E-13
   2.31719995       4.60360591E-13
   2.32920003       4.31940887E-13
   2.34120011       3.11260539E-13
   2.35319996       9.78781807E-14
   2.36520004      -1.88147363E-13
   2.37719989      -5.06832315E-13
   2.38919997      -8.03909727E-13
   2.40120006      -1.02074122E-12
   2.41319990      -1.10641064E-12
   2.42519999      -1.02909987E-12
   2.43720007      -7.83811438E-13
   2.44919991      -3.94324628E-13
   2.46120000       9.12226905E-14
   2.47320008       6.09973660E-13
   2.48519993       1.09655915E-12
   2.49720001       1.49447761E-12
   2.50920010       1.76354374E-12
   2.52119994       1.88160251E-12
   2.53320003       1.84064244E-12
   2.54520011       1.63943902E-12
   2.55719995       1.27623682E-12
   2.56920004       7.45248698E-13
   2.58119988       3.96842153E-14
   2.59319997      -8.38141947E-13
   2.60520005      -1.86175858E-12
   2.61719990      -2.96509800E-12
   2.62919998      -4.03254210E-12
   2.64120007      -4.90003697E-12
   2.65319991      -5.37078541E-12
   2.66520000      -5.24560690E-12
   2.67720008      -4.36400482E-12
   2.68919992      -2.64843659E-12
   2.70120001      -1.42109536E-13
   2.71320009       2.96936022E-12
   2.72519994       6.35980808E-12
   2.73720002       9.59106405E-12
   2.74920011       1.21660858E-11
   2.76119995       1.35994358E-11
   2.77320004       1.34940566E-11
   2.78520012       1.16115555E-11
   2.79719996       7.92413878E-12
   2.80920005       2.63943945E-12
   2.82119989      -3.80576300E-12
   2.83319998      -1.07818355E-11
   2.84520006      -1.75270371E-11
   2.85719991      -2.32243478E-11
   2.86919999      -2.70851813E-11
   2.88120008      -2.84317569E-11
   2.89319992      -2.67720169E-11
   2.90520000      -2.18631831E-11
   2.91720009      -1.37615128E-11
   2.92919993      -2.85575513E-12
   2.94120002       1.01193914E-11
   2.95320010       2.40955624E-11
   2.96519995       3.77159970E-11
   2.97720003       4.94206724E-11
   2.98920012       5.75751703E-11
   3.00119996       6.06409506E-11
   3.01320004       5.73761282E-11
   3.02519989       4.70462905E-11
   3.03719997       2.96169374E-11
   3.04920006       5.89428853E-12
   3.06119990      -2.24177916E-11
   3.07319999      -5.27700800E-11
   3.08520007      -8.19421267E-11
   3.09719992      -1.06333907E-10
   3.10920000      -1.22352878E-10
   3.12120008      -1.26857427E-10
   3.13319993      -1.17605647E-10
   3.14520001      -9.36525302E-11
   3.15720010      -5.56397914E-11
   3.16919994      -5.93074765E-12
   3.18120003       5.14425724E-11
   3.19320011       1.11034903E-10
   3.20519996       1.66438655E-10
   3.21720004       2.10901685E-10
   3.22919989       2.38062126E-10
   3.24119997       2.42732251E-10
   3.25320005       2.21650615E-10
   3.26519990       1.74114542E-10
   3.27719998       1.02407222E-10
   3.28920007       1.19453778E-11
   3.30119991      -8.89047863E-11
   3.31320000      -1.89364788E-10
   3.32520008      -2.77117856E-10
   3.33719993      -3.39463402E-10
   3.34920001      -3.64657499E-10
   3.36120009      -3.43313877E-10
   3.37319994      -2.69721051E-10
   3.38520002      -1.42926199E-10
   3.39720011       3.25525475E-11
   3.40919995       2.46497378E-10
   3.42120004       4.83317775E-10
   3.43319988       7.22957361E-10
   3.44519997       9.42348644E-10
   3.45720005       1.11732579E-09
   3.46919990       1.22484844E-09
   3.48119998       1.24533850E-09
   3.49320006       1.16488208E-09
   3.50519991       9.77020020E-10
   3.51719999       6.83831380E-10
   3.52920008       2.96014518E-10
   3.54119992      -1.68296238E-10
   3.55320001      -6.86187829E-10
   3.56520009      -1.23422861E-09
   3.57719994      -1.79434767E-09
   3.58920002      -2.36123832E-09
   3.60120010      -2.95105074E-09
   3.61319995      -3.61103614E-09
   3.62520003      -4.42969439E-09
   3.63720012      -5.54691626E-09
   3.64919996      -7.16356174E-09
   3.66120005      -9.54995460E-09
   3.67319989      -1.30527562E-08
   3.68519998      -1.80997848E-08
   3.69720006      -2.52023771E-08
   3.70919991      -3.49549900E-08
   3.72119999      -4.80317688E-08
   3.73320007      -6.51798899E-08
   3.74519992      -8.72095569E-08
   3.75720000      -1.14980423E-07
   3.76920009      -1.49384675E-07
   3.78119993      -1.91326521E-07
   3.79320002      -2.41698473E-07
   3.80520010      -3.01354504E-07
   3.81719995      -3.71080517E-07
   3.82920003      -4.51562755E-07
   3.84120011      -5.43354645E-07
   3.85319996      -6.46842636E-07
   3.86520004      -7.62212608E-07
   3.87719989      -8.89416810E-07
   3.88919997      -1.02814329E-06
   3.90120006      -1.17778848E-06
   3.91319990      -1.33743401E-06
   3.92519999      -1.50583071E-06
   3.93720007      -1.68138797E-06
   3.94919991      -1.86217414E-06
   3.96120000      -2.04592516E-06
   3.97320008      -2.23006668E-06
   3.98519993      -2.41174575E-06
   3.99720001      -2.58787918E-06
   4.00920010      -2.75521006E-06
   4.02120018      -2.91037941E-06
   4.03319979      -3.05000754E-06
   4.04519987      -3.17078297E-06
   4.05719995      -3.26955865E-06
   4.06920004      -3.34344941E-06
   4.08120012      -3.38992845E-06
   4.09320021      -3.40692031E-06
   4.10519981      -3.39288249E-06
   4.11719990      -3.34687661E-06
   4.12919998      -3.26862028E-06
   4.14120007      -3.15852230E-06
   4.15320015      -3.01769182E-06
   4.16520023      -2.84792736E-06
   4.17719984      -2.65167591E-06
   4.18919992      -2.43197360E-06
   4.20120001      -2.19235949E-06
   4.21320009      -1.93677238E-06
   4.22520018      -1.66943141E-06
   4.23719978      -1.39470660E-06
   4.24919987      -1.11698421E-06
   4.26119995      -8.40532834E-07
   4.27320004      -5.69377448E-07
   4.28520012      -3.07185587E-07
   4.29720020      -5.71703147E-08
   4.30919981       1.77984845E-07
   4.32119989       3.96176915E-07
   4.33319998       5.95909967E-07
   4.34520006       7.76295394E-07
   4.35720015       9.37028858E-07
   4.36920023       1.07834535E-06
   4.38119984       1.20095672E-06
   4.39319992       1.30597687E-06
   4.40520000       1.39483780E-06
   4.41720009       1.46920343E-06
   4.42920017       1.53088467E-06
   4.44119978       1.58176249E-06
   4.45319986       1.62371964E-06
   4.46519995       1.65858660E-06
   4.47720003       1.68810118E-06
   4.48920012       1.71388251E-06
   4.50120020       1.73741921E-06
   4.51319981       1.76006779E-06
   4.52519989       1.78305913E-06
   4.53719997       1.80751101E-06
   4.54920006       1.83443979E-06
   4.56120014       1.86477178E-06
   4.57320023       1.89934735E-06
   4.58519983       1.93891833E-06
   4.59719992       1.98413682E-06
   4.60920000       2.03553623E-06
   4.62120008       2.09350219E-06
   4.63320017       2.15824070E-06
   4.64519978       2.22974427E-06
   4.65719986       2.30775618E-06
   4.66919994       2.39174551E-06
   4.68120003       2.48088941E-06
   4.69320011       2.57407123E-06
   4.70520020       2.66989446E-06
   4.71719980       2.76671858E-06
   4.72919989       2.86271211E-06
   4.74119997       2.95592736E-06
   4.75320005       3.04438777E-06
   4.76520014       3.12619022E-06
   4.77720022       3.19961123E-06
   4.78919983       3.26321242E-06
   4.80119991       3.31593856E-06
   4.81320000       3.35720074E-06
   4.82520008       3.38693781E-06
   4.83720016       3.40565293E-06
   4.84919977       3.41441955E-06
   4.86119986       3.41485406E-06
   4.87319994       3.40906013E-06
   4.88520002       3.39954022E-06
   4.89720011       3.38908421E-06
   4.90920019       3.38063523E-06
   4.92119980       3.37714596E-06
   4.93319988       3.38142831E-06
   4.94519997       3.39600911E-06
   4.95720005       3.42299768E-06
   4.96920013       3.46397269E-06
   4.98120022       3.51989729E-06
   4.99319983       3.59106252E-06
   5.00519991       3.67706548E-06
   5.01719999       3.77681909E-06
   5.02920008       3.88859280E-06
   5.04120016       4.01007992E-06
   5.05319977       4.13848738E-06
   5.06519985       4.27064197E-06
   5.07719994       4.40310760E-06
   5.08920002       4.53230496E-06
   5.10120010       4.65463518E-06
   5.11320019       4.76659170E-06
   5.12519979       4.86487261E-06
   5.13719988       4.94647111E-06
   5.14919996       5.00876604E-06
   5.16120005       5.04958734E-06
   5.17320013       5.06727793E-06
   5.18520021       5.06073411E-06
   5.19719982       5.02944204E-06
   5.20919991       4.97349811E-06
   5.22119999       4.89361673E-06
   5.23320007       4.79113305E-06
   5.24520016       4.66798883E-06
   5.25719976       4.52670656E-06
   5.26919985       4.37035214E-06
   5.28119993       4.20247943E-06
   5.29320002       4.02705973E-06
   5.30520010       3.84839268E-06
   5.31720018       3.67100438E-06
   5.32919979       3.49952961E-06
   5.34119987       3.33858634E-06
   5.35319996       3.19264313E-06
   5.36520004       3.06588981E-06
   5.37720013       2.96211601E-06
   5.38920021       2.88460546E-06
   5.40119982       2.83604936E-06
   5.41319990       2.81848793E-06
   5.42519999       2.83328313E-06
   5.43720007       2.88112142E-06
   5.44920015       2.96205076E-06
   5.46120024       3.07554637E-06
   5.47319984       3.22060487E-06
   5.48519993       3.39585495E-06
   5.49720001       3.59968021E-06
   5.50920010       3.83034376E-06
   5.52120018       4.08610322E-06
   5.53319979       4.36530445E-06
   5.54519987       4.66645270E-06
   5.55719995       4.98824147E-06
   5.56920004       5.32954846E-06
   5.58120012       5.68938685E-06
   5.59320021       6.06682397E-06
   5.60519981       6.46086210E-06
   5.61719990       6.87030433E-06
   5.62919998       7.29360772E-06
   5.64120007       7.72874137E-06
   5.65320015       8.17306500E-06
   5.66520023       8.62323577E-06
   5.67719984       9.07517187E-06
   5.68919992       9.52406026E-06
   5.70120001       9.96444123E-06
   5.71320009       1.03903458E-05
   5.72520018       1.07955093E-05
   5.73719978       1.11736372E-05
   5.74919987       1.15187131E-05
   5.76119995       1.18253374E-05
   5.77320004       1.20890782E-05
   5.78520012       1.23067903E-05
   5.79720020       1.24769085E-05
   5.80919981       1.25996694E-05
   5.82119989       1.26772529E-05
   5.83319998       1.27138155E-05
   5.84520006       1.27154181E-05
   5.85720015       1.26898403E-05
   5.86920023       1.26462783E-05
   5.88119984       1.25949509E-05
   5.89319992       1.25466213E-05
   5.90520000       1.25120687E-05
   5.91720009       1.25015204E-05
   5.92920017       1.25241086E-05
   5.94119978       1.25873439E-05
   5.95319986       1.26966770E-05
   5.96519995       1.28551428E-05
   5.97720003       1.30631315E-05
   5.98920012       1.33182948E-05
   6.00120020       1.36155941E-05
   6.01319981       1.39475051E-05
   6.02519989       1.43043435E-05
   6.03719997       1.46747261E-05
   6.04920006       1.50461165E-05
   6.06120014       1.54054469E-05
   6.07320023       1.57397699E-05
   6.08519983       1.60369109E-05
   6.09719992       1.62860833E-05
   6.10920000       1.64784433E-05
   6.12120008       1.66075533E-05
   6.13320017       1.66697300E-05
   6.14519978       1.66642621E-05
   6.15719986       1.65934998E-05
   6.16919994       1.64628073E-05
   6.18120003       1.62803753E-05
   6.19320011       1.60569343E-05
   6.20520020       1.58053317E-05
   6.21719980       1.55400594E-05
   6.22919989       1.52766843E-05
   6.24119997       1.50312753E-05
   6.25320005       1.48197787E-05
   6.26520014       1.46574357E-05
   6.27720022       1.45582089E-05
   6.28919983       1.45342692E-05
   6.30119991       1.45955464E-05
   6.31320000       1.47493492E-05
   6.32520008       1.50000842E-05
   6.33720016       1.53490619E-05
   6.34919977       1.57943996E-05
   6.36119986       1.63310360E-05
   6.37319994       1.69508257E-05
   6.38520002       1.76427511E-05
   6.39720011       1.83932170E-05
   6.40920019       1.91864219E-05
   6.42119980       2.00048289E-05
   6.43319988       2.08296660E-05
   6.44519997       2.16414974E-05
   6.45720005       2.24208288E-05
   6.46920013       2.31487211E-05
   6.48120022       2.38074063E-05
   6.49319983       2.43808972E-05
   6.50519991       2.48555461E-05
   6.51719999       2.52205591E-05
   6.52920008       2.54684346E-05
   6.54120016       2.55953146E-05
   6.55319977       2.56012336E-05
   6.56519985       2.54902643E-05
   6.57719994       2.52705158E-05
   6.58920002       2.49540371E-05
   6.60120010       2.45565843E-05
   6.61320019       2.40972386E-05
   6.62519979       2.35979478E-05
   6.63719988       2.30829355E-05
   6.64919996       2.25780132E-05
   6.66120005       2.21098417E-05
   6.67320013       2.17051129E-05
   6.68520021       2.13897183E-05
   6.69719982       2.11879033E-05
   6.70919991       2.11214465E-05
   6.72119999       2.12089053E-05
   6.73320007       2.14649153E-05
   6.74520016       2.18996247E-05
   6.75719976       2.25182412E-05
   6.76919985       2.33207302E-05
   6.78119993       2.43017112E-05
   6.79320002       2.54504885E-05
   6.80520010       2.67513078E-05
   6.81720018       2.81837765E-05
   6.82919979       2.97234692E-05
   6.84119987       3.13426717E-05
   6.85319996       3.30112998E-05
   6.86520004       3.46978813E-05
   6.87720013       3.63706349E-05
   6.88920021       3.79985649E-05
   6.90119982       3.95525349E-05
   6.91319990       4.10062930E-05
   6.92519999       4.23373895E-05
   6.93720007       4.35279580E-05
   6.94920015       4.45652804E-05
   6.96120024       4.54422006E-05
   6.97319984       4.61572672E-05
   6.98519993       4.67146601E-05
   6.99720001       4.71238673E-05
   7.00920010       4.73991568E-05
   7.02120018       4.75588058E-05
   7.03319979       4.76241948E-05
   7.04519987       4.76187452E-05
   7.05719995       4.75667439E-05
   7.06920004       4.74921617E-05
   7.08120012       4.74174740E-05
   7.09320021       4.73625041E-05
   7.10519981       4.73434193E-05
   7.11719990       4.73718646E-05
   7.12919998       4.74542685E-05
   7.14120007       4.75913803E-05
   7.15320015       4.77780341E-05
   7.16520023       4.80031813E-05
   7.17719984       4.82501127E-05
   7.18919992       4.84969605E-05
   7.20120001       4.87174002E-05
   7.21320009       4.88815240E-05
   7.22520018       4.89568811E-05
   7.23719978       4.89096092E-05
   7.24919987       4.87056241E-05
   7.26119995       4.83118638E-05
   7.27320004       4.76974601E-05
   7.28520012       4.68348553E-05
   7.29720020       4.57008100E-05
   7.30919981       4.42772507E-05
   7.32119989       4.25519647E-05
   7.33319998       4.05190549E-05
   7.34520006       3.81792270E-05
   7.35720015       3.55398333E-05
   7.36920023       3.26146837E-05
   7.38119984       2.94236725E-05
   7.39319992       2.59921962E-05
   7.40520000       2.23504067E-05
   7.41720009       1.85323206E-05
   7.42920017       1.45748136E-05
   7.44119978       1.05165500E-05
   7.45319986       6.39690279E-06
   7.46519995       2.25486178E-06
   7.47720003      -1.87198168E-06
   7.48920012      -5.94837275E-06
   7.50120020      -9.94220045E-06
   7.51319981      -1.38251544E-05
   7.52519989      -1.75732021E-05
   7.53719997      -2.11668848E-05
   7.54920006      -2.45914271E-05
   7.56120014      -2.78366660E-05
   7.57320023      -3.08968156E-05
   7.58519983      -3.37700912E-05
   7.59719992      -3.64582120E-05
   7.60920000      -3.89658417E-05
   7.62120008      -4.12999616E-05
   7.63320017      -4.34692556E-05
   7.64519978      -4.54835026E-05
   7.65719986      -4.73530272E-05
   7.66919994      -4.90882157E-05
   7.68120003      -5.06991273E-05
   7.69320011      -5.21951988E-05
   7.70520020      -5.35850486E-05
   7.71719980      -5.48763674E-05
   7.72919989      -5.60759036E-05
   7.74119997      -5.71895034E-05
   7.75320005      -5.82221946E-05
   7.76520014      -5.91783064E-05
   7.77720022      -6.00615895E-05
   7.78919983      -6.08753362E-05
   7.80119991      -6.16224934E-05
   7.81320000      -6.23057495E-05
   7.82520008      -6.29275964E-05
   7.83720016      -6.34903699E-05
   7.84919977      -6.39963037E-05
   7.86119986      -6.44475149E-05
   7.87319994      -6.48460773E-05
   7.88520002      -6.51940427E-05
   7.89720011      -6.54934847E-05
   7.90920019      -6.57465644E-05
   7.92119980      -6.59556172E-05
   7.93319988      -6.61232480E-05
   7.94519997      -6.62524180E-05
   7.95720005      -6.63465107E-05
   7.96920013      -6.64094259E-05
   7.98120022      -6.64456165E-05
   7.99319983      -6.64600375E-05
   8.00520039      -6.64581385E-05
   8.01720047      -6.64457111E-05
   8.02919960      -6.64287800E-05
   8.04119968      -6.64133331E-05
   8.05319977      -6.64051258E-05
   8.06519985      -6.64094041E-05
   8.07719994      -6.64305990E-05
   8.08920002      -6.64721229E-05
   8.10120010      -6.65360712E-05
   8.11320019      -6.66230189E-05
   8.12520027      -6.67319182E-05
   8.13720036      -6.68599605E-05
   8.14920044      -6.70025693E-05
   8.16119957      -6.71534362E-05
   8.17319965      -6.73046234E-05
   8.18519974      -6.74467301E-05
   8.19719982      -6.75691117E-05
   8.20919991      -6.76601412E-05
   8.22119999      -6.77075077E-05
   8.23320007      -6.76985364E-05
   8.24520016      -6.76205018E-05
   8.25720024      -6.74610055E-05
   8.26920033      -6.72082751E-05
   8.28120041      -6.68515204E-05
   8.29319954      -6.63812752E-05
   8.30519962      -6.57896599E-05
   8.31719971      -6.50707807E-05
   8.32919979      -6.42209197E-05
   8.34119987      -6.32388474E-05
   8.35319996      -6.21260187E-05
   8.36520004      -6.08867667E-05
   8.37720013      -5.95283745E-05
   8.38920021      -5.80611049E-05
   8.40120029      -5.64981528E-05
   8.41320038      -5.48554272E-05
   8.42520046      -5.31512924E-05
   8.43719959      -5.14061212E-05
   8.44919968      -4.96417852E-05
   8.46119976      -4.78809925E-05
   8.47319984      -4.61465897E-05
   8.48519993      -4.44607431E-05
   8.49720001      -4.28441454E-05
   8.50920010      -4.13151829E-05
   8.52120018      -3.98891862E-05
   8.53320026      -3.85777639E-05
   8.54520035      -3.73882758E-05
   8.55720043      -3.63234722E-05
   8.56919956      -3.53813593E-05
   8.58119965      -3.45552471E-05
   8.59319973      -3.38340506E-05
   8.60519981      -3.32028212E-05
   8.61719990      -3.26434238E-05
   8.62919998      -3.21354346E-05
   8.64120007      -3.16571204E-05
   8.65320015      -3.11865115E-05
   8.66520023      -3.07024347E-05
   8.67720032      -3.01855598E-05
   8.68920040      -2.96192684E-05
   8.70119953      -2.89904019E-05
   8.71319962      -2.82897981E-05
   8.72519970      -2.75125858E-05
   8.73719978      -2.66582374E-05
   8.74919987      -2.57303836E-05
   8.76119995      -2.47363860E-05
   8.77320004      -2.36867145E-05
   8.78520012      -2.25941858E-05
   8.79720020      -2.14730808E-05
   8.80920029      -2.03382442E-05
   8.82120037      -1.92041807E-05
   8.83320045      -1.80842544E-05
   8.84519958      -1.69900031E-05
   8.85719967      -1.59306310E-05
   8.86919975      -1.49126981E-05
   8.88119984      -1.39400381E-05
   8.89319992      -1.30138715E-05
   8.90520000      -1.21331350E-05
   8.91720009      -1.12949592E-05
   8.92920017      -1.04952851E-05
   8.94120026      -9.72954422E-06
   8.95320034      -8.99336828E-06
   8.96520042      -8.28325119E-06
   8.97719955      -7.59714112E-06
   8.98919964      -6.93488664E-06
   9.00119972      -6.29853457E-06
   9.01319981      -5.69242684E-06
   9.02519989      -5.12310635E-06
   9.03719997      -4.59902185E-06
   9.04920006      -4.13005228E-06
   9.06120014      -3.72687964E-06
   9.07320023      -3.40024894E-06
   9.08520031      -3.16015871E-06
   9.09720039      -3.01503860E-06
   9.10919952      -2.97096608E-06
   9.12119961      -3.03096863E-06
   9.13319969      -3.19445871E-06
   9.14519978      -3.45683497E-06
   9.15719986      -3.80927690E-06
   9.16919994      -4.23874462E-06
   9.18120003      -4.72819102E-06
   9.19320011      -5.25697988E-06
   9.20520020      -5.80149253E-06
   9.21720028      -6.33589798E-06
   9.22920036      -6.83306280E-06
   9.24120045      -7.26554617E-06
   9.25319958      -7.60664989E-06
   9.26519966      -7.83147607E-06
   9.27719975      -7.91793082E-06
   9.28919983      -7.84765507E-06
   9.30119991      -7.60681451E-06
   9.31320000      -7.18674164E-06
   9.32520008      -6.58438466E-06
   9.33720016      -5.80255164E-06
   9.34920025      -4.84994189E-06
   9.36120033      -3.74096066E-06
   9.37320042      -2.49531809E-06
   9.38519955      -1.13743329E-06
   9.39719963       3.04341768E-07
   9.40919971       1.79864730E-06
   9.42119980       3.31215892E-06
   9.43319988       4.81070902E-06
   9.44519997       6.26044357E-06
