 -0.622799993         1.00000002E-24
 -0.610800028         1.00000002E-24
 -0.598800004         1.00000002E-24
 -0.586799979         1.00000002E-24
 -0.574800014         1.00000002E-24
 -0.562799990         1.00000002E-24
 -0.550800025         1.00000002E-24
 -0.538800001         1.00000041E-24
 -0.526799977         1.00000160E-24
 -0.514800012         9.99997949E-25
 -0.502799988         9.99998738E-25
 -0.490799993         1.00028657E-24
 -0.478799999         1.00244894E-24
 -0.466800004         1.01169005E-24
 -0.454800010         1.03936201E-24
 -0.442799985         1.10071922E-24
 -0.430799991         1.19867572E-24
 -0.418799996         1.28704086E-24
 -0.406800002         1.22591134E-24
 -0.394800007         7.78434974E-25
 -0.382800013        -2.71178085E-25
 -0.370799989        -1.82471968E-24
 -0.358799994        -3.08237932E-24
 -0.346799999        -2.37003201E-24
 -0.334800005         2.32391165E-24
 -0.322800010         1.17258557E-23
 -0.310799986         2.28479504E-23
 -0.298799992         2.71643527E-23
 -0.286799997         1.18195968E-23
 -0.274800003        -3.38829359E-23
 -0.262800008        -1.06853343E-22
 -0.250800014        -1.78184645E-22
 -0.238800004        -1.90369024E-22
 -0.226799995        -7.48937286E-23
 -0.214800000         2.04664446E-22
 -0.202800006         5.93905582E-22
 -0.190799996         9.02972450E-22
 -0.178800002         8.20034214E-22
 -0.166800007         2.17195069E-23
 -0.154799998        -1.61547485E-21
 -0.142800003        -3.76103757E-21
 -0.130799994        -5.46151775E-21
 -0.118799999        -5.22589447E-21
 -0.106799997        -1.50650946E-21
  -9.48000029E-02     6.40691289E-21
  -8.28000009E-02     1.72771114E-20
  -7.07999989E-02     2.70454440E-20
  -5.88000007E-02     2.88482502E-20
  -4.67999987E-02     1.45966730E-20
  -3.48000005E-02    -2.15057573E-20
  -2.28000004E-02    -7.78448042E-20
  -1.08000003E-02    -1.40116382E-19
   1.20000006E-03    -1.78589264E-19
   1.31999999E-02    -1.51495880E-19
   2.52000000E-02    -1.78308943E-20
   3.72000001E-02     2.39572004E-19
   4.91999984E-02     5.84795600E-19
   6.12000003E-02     9.04474230E-19
   7.32000023E-02     1.00583425E-18
   8.51999968E-02     6.56519397E-19
   9.71999988E-02    -3.22172657E-19
  0.109200001        -1.91760215E-18
  0.121200003        -3.78423012E-18
  0.133200005        -5.17185579E-18
  0.145199999        -5.01406033E-18
  0.157199994        -2.24663971E-18
  0.169200003         3.64754886E-18
  0.181199998         1.19928277E-17
  0.193200007         2.04372821E-17
  0.205200002         2.49852452E-17
  0.217199996         2.08647293E-17
  0.229200006         4.32964158E-18
  0.241200000        -2.49062709E-17
  0.253199995        -6.13990493E-17
  0.265199989        -9.30505066E-17
  0.277200013        -1.02746102E-16
  0.289200008        -7.32398883E-17
  0.301200002         5.17092645E-18
  0.313199997         1.26170296E-16
  0.325199991         2.61536537E-16
  0.337199986         3.61799509E-16
  0.349200010         3.66450461E-16
  0.361200005         2.23984257E-16
  0.373199999        -8.20924083E-17
  0.385199994        -5.09502706E-16
  0.397199988        -9.46687115E-16
  0.409200013        -1.22584916E-15
  0.421200007        -1.16457078E-15
  0.433200002        -6.31415787E-16
  0.445199996         3.80679953E-16
  0.457199991         1.69909124E-15
  0.469199985         2.96317028E-15
  0.481200010         3.68449888E-15
  0.493200004         3.37887838E-15
  0.505200028         1.74682662E-15
  0.517199993        -1.14737336E-15
  0.529200017        -4.76497326E-15
  0.541199982        -8.11475012E-15
  0.553200006        -9.94466740E-15
  0.565199971        -9.09048380E-15
  0.577199996        -4.90801764E-15
  0.589200020         2.33663208E-15
  0.601199985         1.12676143E-14
  0.613200009         1.95162219E-14
  0.625199974         2.42061840E-14
  0.637199998         2.27477491E-14
  0.649200022         1.37602044E-14
  0.661199987        -2.14797730E-15
  0.673200011        -2.20335106E-14
  0.685199976        -4.09286591E-14
  0.697200000        -5.28680019E-14
  0.709200025        -5.24747245E-14
  0.721199989        -3.67357342E-14
  0.733200014        -6.45515169E-15
  0.745199978         3.31295253E-14
  0.757200003         7.29268601E-14
  0.769200027         1.01825944E-13
  0.781199992         1.09474089E-13
  0.793200016         8.93479016E-14
  0.805199981         4.12729475E-14
  0.817200005        -2.74203996E-14
  0.829200029        -1.02638079E-13
  0.841199994        -1.66218588E-13
  0.853200018        -2.00093007E-13
  0.865199983        -1.90951191E-13
  0.877200007        -1.34221166E-13
  0.889199972        -3.62524850E-14
  0.901199996         8.60035581E-14
  0.913200021         2.07907137E-13
  0.925199986         3.02062357E-13
  0.937200010         3.44178299E-13
  0.949199975         3.18542718E-13
  0.961199999         2.21914921E-13
  0.973200023         6.50521846E-14
  0.985199988        -1.28357774E-13
  0.997200012        -3.25074115E-13
   1.00919998        -4.87363080E-13
   1.02119994        -5.79001419E-13
   1.03320003        -5.71535332E-13
   1.04519999        -4.50179688E-13
   1.05719995        -2.18713827E-13
   1.06920004         9.74645576E-14
   1.08120000         4.51226486E-13
   1.09319997         7.77734810E-13
   1.10520005         1.00345632E-12
   1.11720002         1.06004723E-12
   1.12919998         9.01433225E-13
   1.14119995         5.20626727E-13
   1.15320003        -3.85619881E-14
   1.16520000        -6.80009272E-13
   1.17719996        -1.26761026E-12
   1.18920004        -1.65190951E-12
   1.20120001        -1.70707036E-12
   1.21319997        -1.36982808E-12
   1.22520006        -6.69195981E-13
   1.23720002         2.64206273E-13
   1.24919999         1.21657144E-12
   1.26119995         1.93735197E-12
   1.27320004         2.20527958E-12
   1.28520000         1.89759428E-12
   1.29719996         1.04188760E-12
   1.30920005        -1.68517733E-13
   1.32120001        -1.40684599E-12
   1.33319998        -2.29116205E-12
   1.34519994        -2.49246804E-12
   1.35720003        -1.84448182E-12
   1.36919999        -4.21863987E-13
   1.38119996         1.44198087E-12
   1.39320004         3.21257842E-12
   1.40520000         4.28217401E-12
   1.41719997         4.14064182E-12
   1.42920005         2.54599033E-12
   1.44120002        -3.54989231E-13
   1.45319998        -3.99768890E-12
   1.46519995        -7.48362049E-12
   1.47720003        -9.76999818E-12
   1.48920000        -9.92809741E-12
   1.50119996        -7.41115155E-12
   1.51320004        -2.26404008E-12
   1.52520001         4.78454082E-12
   1.53719997         1.23825655E-11
   1.54920006         1.87687175E-11
   1.56120002         2.21047954E-11
   1.57319999         2.08624073E-11
   1.58519995         1.41852008E-11
   1.59720004         2.15063340E-12
   1.60920000        -1.41255948E-11
   1.62119997        -3.25690447E-11
   1.63320005        -5.04027445E-11
   1.64520001        -6.45430723E-11
   1.65719998        -7.20782461E-11
   1.66919994        -7.07641862E-11
   1.68120003        -5.94746821E-11
   1.69319999        -3.85514329E-11
   1.70519996        -1.00090622E-11
   1.71720004         2.24429537E-11
   1.72920001         5.35966618E-11
   1.74119997         7.71946881E-11
   1.75320005         8.66618097E-11
   1.76520002         7.61362778E-11
   1.77719998         4.17910012E-11
   1.78919995        -1.66043516E-11
   1.80120003        -9.39792272E-11
   1.81320000        -1.78263182E-10
   1.82519996        -2.48877474E-10
   1.83720005        -2.75613810E-10
   1.84920001        -2.18073268E-10
   1.86119998        -2.57706478E-11
   1.87320006         3.61102731E-10
   1.88520002         1.01043329E-09
   1.89719999         1.99683359E-09
   1.90919995         3.40081452E-09
   1.92120004         5.30939159E-09
   1.93320000         7.81936738E-09
   1.94519997         1.10448370E-08
   1.95720005         1.51307997E-08
   1.96920002         2.02750119E-08
   1.98119998         2.67603681E-08
   1.99319994         3.49999567E-08
   2.00519991         4.55968490E-08
   2.01719999         5.94198433E-08
   2.02920008         7.76957947E-08
   2.04119992         1.02117561E-07
   2.05320001         1.34965703E-07
   2.06520009         1.79239919E-07
   2.07719994         2.38794712E-07
   2.08920002         3.18472672E-07
   2.10120010         4.24226897E-07
   2.11319995         5.63222500E-07
   2.12520003         7.43907322E-07
   2.13720012         9.76041633E-07
   2.14919996         1.27067528E-06
   2.16120005         1.64006281E-06
   2.17319989         2.09750829E-06
   2.18519998         2.65713447E-06
   2.19720006         3.33356843E-06
   2.20919991         4.14155011E-06
   2.22119999         5.09546044E-06
   2.23320007         6.20878791E-06
   2.24519992         7.49353421E-06
   2.25720000         8.95958965E-06
   2.26920009         1.06140933E-05
   2.28119993         1.24608168E-05
   2.29320002         1.44995811E-05
   2.30520010         1.67257567E-05
   2.31719995         1.91298732E-05
   2.32920003         2.16973549E-05
   2.34120011         2.44084222E-05
   2.35319996         2.72381749E-05
   2.36520004         3.01568543E-05
   2.37719989         3.31303272E-05
   2.38919997         3.61207422E-05
   2.40120006         3.90873902E-05
   2.41319990         4.19877033E-05
   2.42519999         4.47784005E-05
   2.43720007         4.74167136E-05
   2.44919991         4.98616719E-05
   2.46120000         5.20753601E-05
   2.47320008         5.40241417E-05
   2.48519993         5.56797168E-05
   2.49720001         5.70200791E-05
   2.50920010         5.80302112E-05
   2.52119994         5.87025752E-05
   2.53320003         5.90372947E-05
   2.54520011         5.90420968E-05
   2.55719995         5.87319482E-05
   2.56920004         5.81284512E-05
   2.58119988         5.72589852E-05
   2.59319997         5.61556844E-05
   2.60520005         5.48542412E-05
   2.61719990         5.33926359E-05
   2.62919998         5.18098350E-05
   2.64120007         5.01445211E-05
   2.65319991         4.84338889E-05
   2.66520000         4.67126047E-05
   2.67720008         4.50119078E-05
   2.68919992         4.33589557E-05
   2.70120001         4.17763440E-05
   2.71320009         4.02819096E-05
   2.72519994         3.88887092E-05
   2.73720002         3.76052267E-05
   2.74920011         3.64357475E-05
   2.76119995         3.53808755E-05
   2.77320004         3.44381260E-05
   2.78520012         3.36026314E-05
   2.79719996         3.28677816E-05
   2.80920005         3.22259075E-05
   2.82119989         3.16688675E-05
   2.83319998         3.11885597E-05
   2.84520006         3.07773516E-05
   2.85719991         3.04283622E-05
   2.86919999         3.01356686E-05
   2.88120008         2.98943778E-05
   2.89319992         2.97006391E-05
   2.90520000         2.95515401E-05
   2.91720009         2.94449801E-05
   2.92919993         2.93795038E-05
   2.94120002         2.93540943E-05
   2.95320010         2.93680077E-05
   2.96519995         2.94205965E-05
   2.97720003         2.95111513E-05
   2.98920012         2.96388043E-05
   3.00119996         2.98024243E-05
   3.01320004         3.00005686E-05
   3.02519989         3.02314384E-05
   3.03719997         3.04928744E-05
   3.04920006         3.07823429E-05
   3.06119990         3.10969517E-05
   3.07319999         3.14334611E-05
   3.08520007         3.17883023E-05
   3.09719992         3.21575717E-05
   3.10920000         3.25370638E-05
   3.12120008         3.29222712E-05
   3.13319993         3.33084099E-05
   3.14520001         3.36904304E-05
   3.15720010         3.40630759E-05
   3.16919994         3.44209584E-05
   3.18120003         3.47586392E-05
   3.19320011         3.50707887E-05
   3.20519996         3.53523246E-05
   3.21720004         3.55986194E-05
   3.22919989         3.58057223E-05
   3.24119997         3.59705955E-05
   3.25320005         3.60913691E-05
   3.26519990         3.61675993E-05
   3.27719998         3.62005303E-05
   3.28920007         3.61933271E-05
   3.30119991         3.61512830E-05
   3.31320000         3.60820231E-05
   3.32520008         3.59955775E-05
   3.33719993         3.59045007E-05
   3.34920001         3.58237667E-05
   3.36120009         3.57706849E-05
   3.37319994         3.57646168E-05
   3.38520002         3.58266079E-05
   3.39720011         3.59788828E-05
   3.40919995         3.62442115E-05
   3.42120004         3.66451495E-05
   3.43319988         3.72032009E-05
   3.44519997         3.79378762E-05
   3.45720005         3.88657863E-05
   3.46919990         3.99996716E-05
   3.48119998         4.13475391E-05
   3.49320006         4.29118991E-05
   3.50519991         4.46891972E-05
   3.51719999         4.66693964E-05
   3.52920008         4.88358673E-05
   3.54119992         5.11655417E-05
   3.55320001         5.36293519E-05
   3.56520009         5.61929555E-05
   3.57719994         5.88177572E-05
   3.58920002         6.14621313E-05
   3.60120010         6.40828293E-05
   3.61319995         6.66365231E-05
   3.62520003         6.90813686E-05
   3.63720012         7.13785121E-05
   3.64919996         7.34934874E-05
   3.66120005         7.53974164E-05
   3.67319989         7.70679617E-05
   3.68519998         7.84899530E-05
   3.69720006         7.96556487E-05
   3.70919991         8.05647214E-05
   3.72119999         8.12238286E-05
   3.73320007         8.16459069E-05
   3.74519992         8.18492044E-05
   3.75720000         8.18560438E-05
   3.76920009         8.16914908E-05
   3.78119993         8.13819497E-05
   3.79320002         8.09537087E-05
   3.80520010         8.04316151E-05
   3.81719995         7.98378460E-05
   3.82920003         7.91908897E-05
   3.84120011         7.85047960E-05
   3.85319996         7.77886162E-05
   3.86520004         7.70462357E-05
   3.87719989         7.62764612E-05
   3.88919997         7.54733483E-05
   3.90120006         7.46268997E-05
   3.91319990         7.37239461E-05
   3.92519999         7.27491788E-05
   3.93720007         7.16864379E-05
   3.94919991         7.05200000E-05
   3.96120000         6.92359463E-05
   3.97320008         6.78235447E-05
   3.98519993         6.62764651E-05
   3.99720001         6.45939945E-05
   4.00920010         6.27819754E-05
   4.02120018         6.08536029E-05
   4.03319979         5.88299190E-05
   4.04519987         5.67400566E-05
   4.05719995         5.46212177E-05
   4.06920004         5.25183204E-05
   4.08120012         5.04833770E-05
   4.09320021         4.85746095E-05
   4.10519981         4.68553008E-05
   4.11719990         4.53924367E-05
   4.12919998         4.42551682E-05
   4.14120007         4.35131187E-05
   4.15320015         4.32346205E-05
   4.16520023         4.34849026E-05
   4.17719984         4.43242607E-05
   4.18919992         4.58062968E-05
   4.20120001         4.79762602E-05
   4.21320009         5.08695521E-05
   4.22520018         5.45103794E-05
   4.23719978         5.89106676E-05
   4.24919987         6.40692306E-05
   4.26119995         6.99712255E-05
   4.27320004         7.65878576E-05
   4.28520012         8.38764972E-05
   4.29720020         9.17810248E-05
   4.30919981         1.00232501E-04
   4.32119989         1.09150198E-04
   4.33319998         1.18442869E-04
   4.34520006         1.28010273E-04
   4.35720015         1.37744923E-04
   4.36920023         1.47533981E-04
   4.38119984         1.57261398E-04
   4.39319992         1.66809914E-04
   4.40520000         1.76063259E-04
   4.41720009         1.84908218E-04
   4.42920017         1.93236701E-04
   4.44119978         2.00947528E-04
   4.45319986         2.07948164E-04
   4.46519995         2.14156229E-04
   4.47720003         2.19500682E-04
   4.48920012         2.23922776E-04
   4.50120020         2.27376731E-04
   4.51319981         2.29830213E-04
   4.52519989         2.31264305E-04
   4.53719997         2.31673490E-04
   4.54920006         2.31065176E-04
   4.56120014         2.29459052E-04
   4.57320023         2.26886361E-04
   4.58519983         2.23388794E-04
   4.59719992         2.19017442E-04
   4.60920000         2.13831503E-04
   4.62120008         2.07897028E-04
   4.63320017         2.01285613E-04
   4.64519978         1.94072971E-04
   4.65719986         1.86337813E-04
   4.66919994         1.78160495E-04
   4.68120003         1.69621970E-04
   4.69320011         1.60802665E-04
   4.70520020         1.51781656E-04
   4.71719980         1.42635836E-04
   4.72919989         1.33439229E-04
   4.74119997         1.24262573E-04
   4.75320005         1.15172894E-04
   4.76520014         1.06233201E-04
   4.77720022         9.75024595E-05
   4.78919983         8.90354568E-05
   4.80119991         8.08828700E-05
   4.81320000         7.30913162E-05
   4.82520008         6.57034616E-05
   4.83720016         5.87580580E-05
   4.84919977         5.22899791E-05
   4.86119986         4.63301876E-05
   4.87319994         4.09056047E-05
   4.88520002         3.60389167E-05
   4.89720011         3.17482445E-05
   4.90920019         2.80467520E-05
   4.92119980         2.49421755E-05
   4.93319988         2.24362902E-05
   4.94519997         2.05243905E-05
   4.95720005         1.91947602E-05
   4.96920013         1.84282471E-05
   4.98120022         1.81979522E-05
   4.99319983         1.84690925E-05
   5.00519991         1.91991021E-05
   5.01719999         2.03379859E-05
   5.02920008         2.18289624E-05
   5.04120016         2.36093820E-05
   5.05319977         2.56119602E-05
   5.06519985         2.77662457E-05
   5.07719994         3.00003067E-05
   5.08920002         3.22425549E-05
   5.10120010         3.44236578E-05
   5.11320019         3.64784246E-05
   5.12519979         3.83476108E-05
   5.13719988         3.99795426E-05
   5.14919996         4.13314701E-05
   5.16120005         4.23706224E-05
   5.17320013         4.30748914E-05
   5.18520021         4.34331159E-05
   5.19719982         4.34450194E-05
   5.20919991         4.31207009E-05
   5.22119999         4.24798491E-05
   5.23320007         4.15506474E-05
   5.24520016         4.03684426E-05
   5.25719976         3.89742891E-05
   5.26919985         3.74133524E-05
   5.28119993         3.57333447E-05
   5.29320002         3.39829785E-05
   5.30520010         3.22104970E-05
   5.31720018         3.04623409E-05
   5.32919979         2.87819730E-05
   5.34119987         2.72088491E-05
   5.35319996         2.57776028E-05
   5.36520004         2.45173833E-05
   5.37720013         2.34513864E-05
   5.38920021         2.25965559E-05
   5.40119982         2.19634694E-05
   5.41319990         2.15563687E-05
   5.42519999         2.13733838E-05
   5.43720007         2.14068787E-05
   5.44920015         2.16439639E-05
   5.46120024         2.20671336E-05
   5.47319984         2.26550073E-05
   5.48519993         2.33831997E-05
   5.49720001         2.42252172E-05
   5.50920010         2.51534457E-05
   5.52120018         2.61401037E-05
   5.53319979         2.71581976E-05
   5.54519987         2.81824123E-05
   5.55719995         2.91898832E-05
   5.56920004         3.01608561E-05
   5.58120012         3.10791766E-05
   5.59320021         3.19325845E-05
   5.60519981         3.27128546E-05
   5.61719990         3.34156648E-05
   5.62919998         3.40403640E-05
   5.64120007         3.45894987E-05
   5.65320015         3.50682167E-05
   5.66520023         3.54835574E-05
   5.67719984         3.58436555E-05
   5.68919992         3.61569037E-05
   5.70120001         3.64311454E-05
   5.71320009         3.66729000E-05
   5.72520018         3.68866786E-05
   5.73719978         3.70744856E-05
   5.74919987         3.72354334E-05
   5.76119995         3.73656330E-05
   5.77320004         3.74582669E-05
   5.78520012         3.75039490E-05
   5.79720020         3.74913034E-05
   5.80919981         3.74077681E-05
   5.82119989         3.72406175E-05
   5.83319998         3.69780828E-05
   5.84520006         3.66106178E-05
   5.85720015         3.61321036E-05
   5.86920023         3.55410193E-05
   5.88119984         3.48414178E-05
   5.89319992         3.40436600E-05
   5.90520000         3.31648080E-05
   5.91720009         3.22286323E-05
   5.92920017         3.12651646E-05
   5.94119978         3.03098459E-05
   5.95319986         2.94021866E-05
   5.96519995         2.85840979E-05
   5.97720003         2.78978987E-05
   5.98920012         2.73841324E-05
   6.00120020         2.70793080E-05
   6.01319981         2.70137298E-05
   6.02519989         2.72094858E-05
   6.03719997         2.76788123E-05
   6.04920006         2.84228827E-05
   6.06120014         2.94311358E-05
   6.07320023         3.06811817E-05
   6.08519983         3.21393381E-05
   6.09719992         3.37617312E-05
   6.10920000         3.54959448E-05
   6.12120008         3.72831273E-05
   6.13320017         3.90603964E-05
   6.14519978         4.07634870E-05
   6.15719986         4.23294441E-05
   6.16919994         4.36992523E-05
   6.18120003         4.48202481E-05
   6.19320011         4.56482594E-05
   6.20520020         4.61493073E-05
   6.21719980         4.63009055E-05
   6.22919989         4.60927949E-05
   6.24119997         4.55272420E-05
   6.25320005         4.46188315E-05
   6.26520014         4.33937894E-05
   6.27720022         4.18889504E-05
   6.28919983         4.01503967E-05
   6.30119991         3.82318212E-05
   6.31320000         3.61927123E-05
   6.32520008         3.40964434E-05
   6.33720016         3.20082618E-05
   6.34919977         2.99932908E-05
   6.36119986         2.81145949E-05
   6.37319994         2.64312839E-05
   6.38520002         2.49967507E-05
   6.39720011         2.38570829E-05
   6.40920019         2.30496371E-05
   6.42119980         2.26018619E-05
   6.43319988         2.25303556E-05
   6.44519997         2.28402332E-05
   6.45720005         2.35248135E-05
   6.46920013         2.45656174E-05
   6.48120022         2.59327589E-05
   6.49319983         2.75856819E-05
   6.50519991         2.94742513E-05
   6.51719999         3.15401921E-05
   6.52920008         3.37188467E-05
   6.54120016         3.59411642E-05
   6.55319977         3.81359168E-05
   6.56519985         4.02320293E-05
   6.57719994         4.21609584E-05
   6.58920002         4.38589996E-05
   6.60120010         4.52695094E-05
   6.61320019         4.63448632E-05
   6.62519979         4.70481282E-05
   6.63719988         4.73543805E-05
   6.64919996         4.72516076E-05
   6.66120005         4.67411519E-05
   6.67320013         4.58376708E-05
   6.68520021         4.45686564E-05
   6.69719982         4.29735046E-05
   6.70919991         4.11021501E-05
   6.72119999         3.90133937E-05
   6.73320007         3.67729190E-05
   6.74520016         3.44511136E-05
   6.75719976         3.21207699E-05
   6.76919985         2.98547620E-05
   6.78119993         2.77237486E-05
   6.79320002         2.57939864E-05
   6.80520010         2.41253674E-05
   6.81720018         2.27696582E-05
   6.82919979         2.17690595E-05
   6.84119987         2.11550796E-05
   6.85319996         2.09477803E-05
   6.86520004         2.11553779E-05
   6.87720013         2.17742236E-05
   6.88920021         2.27891360E-05
   6.90119982         2.41740672E-05
   6.91319990         2.58930704E-05
   6.92519999         2.79015167E-05
   6.93720007         3.01475338E-05
   6.94920015         3.25735964E-05
   6.96120024         3.51182025E-05
   6.97319984         3.77176293E-05
   6.98519993         4.03076228E-05
   6.99720001         4.28250605E-05
   7.00920010         4.52094646E-05
   7.02120018         4.74043845E-05
   7.03319979         4.93585794E-05
   7.04519987         5.10269529E-05
   7.05719995         5.23713243E-05
   7.06920004         5.33609127E-05
   7.08120012         5.39726570E-05
   7.09320021         5.41913141E-05
   7.10519981         5.40093824E-05
   7.11719990         5.34269238E-05
   7.12919998         5.24512652E-05
   7.14120007         5.10966129E-05
   7.15320015         4.93836778E-05
   7.16520023         4.73392865E-05
   7.17719984         4.49960280E-05
   7.18919992         4.23919046E-05
   7.20120001         3.95700517E-05
   7.21320009         3.65784726E-05
   7.22520018         3.34696997E-05
   7.23719978         3.03004690E-05
   7.24919987         2.71312656E-05
   7.26119995         2.40256977E-05
   7.27320004         2.10497183E-05
   7.28520012         1.82705753E-05
   7.29720020         1.57555460E-05
   7.30919981         1.35703940E-05
   7.32119989         1.17776026E-05
   7.33319998         1.04344335E-05
   7.34520006         9.59084628E-06
   7.35720015         9.28740246E-06
   7.36920023         9.55325413E-06
   7.38119984         1.04043320E-05
   7.39319992         1.18418666E-05
   7.40520000         1.38513460E-05
   7.41720009         1.64020166E-05
   7.42920017         1.94470031E-05
   7.44119978         2.29240704E-05
   7.45319986         2.67570576E-05
   7.46519995         3.08579147E-05
   7.47720003         3.51293129E-05
   7.48920012         3.94676645E-05
   7.50120020         4.37664785E-05
   7.51319981         4.79198497E-05
   7.52519989         5.18259221E-05
   7.53719997         5.53902028E-05
   7.54920006         5.85284870E-05
   7.56120014         6.11693758E-05
   7.57320023         6.32561860E-05
   7.58519983         6.47482157E-05
   7.59719992         6.56214106E-05
   7.60920000         6.58683275E-05
   7.62120008         6.54975447E-05
   7.63320017         6.45325490E-05
   7.64519978         6.30101858E-05
   7.65719986         6.09788549E-05
   7.66919994         5.84964655E-05
   7.68120003         5.56283485E-05
   7.69320011         5.24451752E-05
   7.70520020         4.90210114E-05
   7.71719980         4.54315232E-05
   7.72919989         4.17524025E-05
   7.74119997         3.80580241E-05
   7.75320005         3.44203072E-05
   7.76520014         3.09078059E-05
   7.77720022         2.75849161E-05
   7.78919983         2.45112096E-05
   7.80119991         2.17408433E-05
   7.81320000         1.93220003E-05
   7.82520008         1.72963119E-05
   7.83720016         1.56983187E-05
   7.84919977         1.45549075E-05
   7.86119986         1.38847709E-05
   7.87319994         1.36979352E-05
   7.88520002         1.39953618E-05
   7.89720011         1.47686987E-05
   7.90920019         1.60002110E-05
   7.92119980         1.76629255E-05
   7.93319988         1.97210502E-05
   7.94519997         2.21306673E-05
   7.95720005         2.48406886E-05
   7.96920013         2.77941181E-05
   7.98120022         3.09294992E-05
   7.99319983         3.41825435E-05
   8.00520039         3.74878509E-05
   8.01720047         4.07806474E-05
   8.02919960         4.39984397E-05
   8.04119968         4.70825216E-05
   8.05319977         4.99792586E-05
   8.06519985         5.26410913E-05
   8.07719994         5.50272671E-05
   8.08920002         5.71042074E-05
   8.10120010         5.88456278E-05
   8.11320019         6.02323671E-05
   8.12520027         6.12519580E-05
   8.13720036         6.18980994E-05
   8.14920044         6.21700092E-05
   8.16119957         6.20716746E-05
   8.17319965         6.16112593E-05
   8.18519974         6.08005139E-05
   8.19719982         5.96543323E-05
   8.20919991         5.81904387E-05
   8.22119999         5.64292386E-05
   8.23320007         5.43937749E-05
   8.24520016         5.21098154E-05
   8.25720024         4.96059474E-05
   8.26920033         4.69136903E-05
   8.28120041         4.40675722E-05
   8.29319954         4.11051114E-05
   8.30519962         3.80666497E-05
   8.31719971         3.49950351E-05
   8.32919979         3.19351675E-05
   8.34119987         2.89333057E-05
   8.35319996         2.60363031E-05
   8.36520004         2.32906623E-05
   8.37720013         2.07415287E-05
   8.38920021         1.84316377E-05
   8.40120029         1.64002722E-05
   8.41320038         1.46822540E-05
   8.42520046         1.33070453E-05
   8.43719959         1.22979582E-05
   8.44919968         1.16715264E-05
   8.46119976         1.14370387E-05
   8.47319984         1.15962612E-05
   8.48519993         1.21433595E-05
   8.49720001         1.30650033E-05
   8.50920010         1.43406642E-05
   8.52120018         1.59430947E-05
   8.53320026         1.78389564E-05
   8.54520035         1.99895967E-05
   8.55720043         2.23519164E-05
   8.56919956         2.48793385E-05
   8.58119965         2.75228103E-05
   8.59319973         3.02318294E-05
   8.60519981         3.29554678E-05
   8.61719990         3.56433702E-05
   8.62919998         3.82466787E-05
   8.64120007         4.07189145E-05
   8.65320015         4.30167529E-05
   8.66520023         4.51007108E-05
   8.67720032         4.69357183E-05
   8.68920040         4.84916309E-05
   8.70119953         4.97435867E-05
   8.71319962         5.06723627E-05
   8.72519970         5.12646038E-05
   8.73719978         5.15130523E-05
   8.74919987         5.14167150E-05
   8.76119995         5.09810270E-05
   8.77320004         5.02179755E-05
   8.78520012         4.91461360E-05
   8.79720020         4.77906869E-05
   8.80920029         4.61832860E-05
   8.82120037         4.43618010E-05
   8.83320045         4.23698912E-05
   8.84519958         4.02563492E-05
   8.85719967         3.80742276E-05
   8.86919975         3.58796970E-05
   8.88119984         3.37306774E-05
   8.89319992         3.16851947E-05
   8.90520000         2.97995557E-05
   8.91720009         2.81263747E-05
   8.92920017         2.67125070E-05
   8.94120026         2.55970372E-05
   8.95320034         2.48093711E-05
   8.96520042         2.43676059E-05
   8.97719955         2.42772476E-05
   8.98919964         2.45304163E-05
   9.00119972         2.51055953E-05
   9.01319981         2.59680000E-05
   9.02519989         2.70705914E-05
   9.03719997         2.83557019E-05
   9.04920006         2.97572642E-05
   9.06120014         3.12035154E-05
   9.07320023         3.26200789E-05
   9.08520031         3.39332801E-05