 -0.622799993         1.00000002E-24
 -0.610800028         1.00000002E-24
 -0.598800004         1.00000002E-24
 -0.586799979         1.00000002E-24
 -0.574800014         1.00000002E-24
 -0.562799990         1.00000002E-24
 -0.550800025         1.00000002E-24
 -0.538800001         9.99998540E-25
 -0.526799977         9.99988778E-25
 -0.514800012         9.99972705E-25
 -0.502799988         1.00007358E-24
 -0.490799993         1.00086037E-24
 -0.478799999         1.00387214E-24
 -0.466800004         1.01199909E-24
 -0.454800010         1.02927070E-24
 -0.442799985         1.06048613E-24
 -0.430799991         1.11286462E-24
 -0.418799996         1.20162034E-24
 -0.406800002         1.35361984E-24
 -0.394800007         1.58597527E-24
 -0.382800013         1.82183482E-24
 -0.370799989         1.72706837E-24
 -0.358799994         5.47384321E-25
 -0.346799999        -2.80988744E-24
 -0.334800005        -9.08348010E-24
 -0.322800010        -1.71413495E-23
 -0.310799986        -2.20793790E-23
 -0.298799992        -1.44856288E-23
 -0.286799997         1.66355256E-23
 -0.274800003         7.52276881E-23
 -0.262800008         1.44863324E-22
 -0.250800014         1.77544229E-22
 -0.238800004         9.74391839E-23
 -0.226799995        -1.66620474E-22
 -0.214800000        -6.16131568E-22
 -0.202800006        -1.10512168E-21
 -0.190799996        -1.29950832E-21
 -0.178800002        -7.42417117E-22
 -0.166800007         9.22940501E-22
 -0.154799998         3.59218771E-21
 -0.142800003         6.33663970E-21
 -0.130799994         7.29028120E-21
 -0.118799999         4.07425751E-21
 -0.106799997        -5.08155468E-21
  -9.48000029E-02    -1.96834493E-20
  -8.28000009E-02    -3.53986386E-20
  -7.07999989E-02    -4.35639904E-20
  -5.88000007E-02    -3.28538465E-20
  -4.67999987E-02     6.29553755E-21
  -3.48000005E-02     7.49971057E-20
  -2.28000004E-02     1.58946852E-19
  -1.08000003E-02     2.24569300E-19
   1.20000006E-03     2.22288530E-19
   1.31999999E-02     1.00098942E-19
   2.52000000E-02    -1.72134683E-19
   3.72000001E-02    -5.71832232E-19
   4.91999984E-02    -9.96260569E-19
   6.12000003E-02    -1.25375786E-18
   7.32000023E-02    -1.09115607E-18
   8.51999968E-02    -2.70867323E-19
   9.71999988E-02     1.30245161E-18
  0.109200001         3.42995962E-18
  0.121200003         5.49699361E-18
  0.133200005         6.46511959E-18
  0.145199999         5.06757933E-18
  0.157199994         2.61832778E-19
  0.169200003        -8.09950771E-18
  0.181199998        -1.85597045E-17
  0.193200007        -2.76419177E-17
  0.205200002        -3.01413730E-17
  0.217199996        -2.04657917E-17
  0.229200006         4.93981674E-18
  0.241200000         4.45728358E-17
  0.253199995         8.93597194E-17
  0.265199989         1.22192854E-16
  0.277200013         1.20994315E-16
  0.289200008         6.59425605E-17
  0.301200002        -5.01422461E-17
  0.313199997        -2.11340001E-16
  0.325199991        -3.72918828E-16
  0.337199986        -4.65558478E-16
  0.349200010        -4.12811698E-16
  0.361200005        -1.60725441E-16
  0.373199999         2.87502146E-16
  0.385199994         8.44663531E-16
  0.397199988         1.33590426E-15
  0.409200013         1.53062432E-15
  0.421200007         1.21231855E-15
  0.433200002         2.73515065E-16
  0.445199996        -1.19313664E-15
  0.457199991        -2.84690251E-15
  0.469199985        -4.13122659E-15
  0.481200010        -4.40484068E-15
  0.493200004        -3.15719630E-15
  0.505200028        -2.54421407E-16
  0.517199993         3.86945445E-15
  0.529200017         8.16935580E-15
  0.541199982         1.11613862E-14
  0.553200006         1.13168167E-14
  0.565199971         7.60182255E-15
  0.577199996         8.63904371E-18
  0.589200020        -1.01189122E-14
  0.601199985        -2.01438157E-14
  0.613200009        -2.66663285E-14
  0.625199974        -2.64686734E-14
  0.637199998        -1.76538031E-14
  0.649200022        -6.34942515E-16
  0.661199987         2.13984680E-14
  0.673200011         4.28198194E-14
  0.685199976         5.67813076E-14
  0.697200000         5.71011405E-14
  0.709200025         4.03531104E-14
  0.721199989         7.53236246E-15
  0.733200014        -3.53099033E-14
  0.745199978        -7.78528175E-14
  0.757200003        -1.07727114E-13
  0.769200027        -1.13747933E-13
  0.781199992        -8.93654183E-14
  0.793200016        -3.53584824E-14
  0.805199981         3.91179534E-14
  0.817200005         1.17668746E-13
  0.829200029         1.79966068E-13
  0.841199994         2.06615066E-13
  0.853200018         1.84467337E-13
  0.865199983         1.11024349E-13
  0.877200007        -3.33987738E-15
  0.889199972        -1.36184697E-13
  0.901199996        -2.57005246E-13
  0.913200021        -3.33811212E-13
  0.925199986        -3.40946184E-13
  0.937200010        -2.66347979E-13
  0.949199975        -1.16371105E-13
  0.961199999         8.33354653E-14
  0.973200023         2.91614823E-13
  0.985199988         4.59903871E-13
  0.997200012         5.43172929E-13
   1.00919998         5.11315057E-13
   1.02119994         3.58174699E-13
   1.03320003         1.05655841E-13
   1.04519999        -1.98683084E-13
   1.05719995        -4.90624143E-13
   1.06920004        -7.03221010E-13
   1.08120000        -7.82536742E-13
   1.09319997        -7.01296876E-13
   1.10520005        -4.66811919E-13
   1.11720002        -1.20820522E-13
   1.12919998         2.69050542E-13
   1.14119995         6.24261005E-13
   1.15320003         8.73030814E-13
   1.16520000         9.66207366E-13
   1.17719996         8.87338759E-13
   1.18920004         6.54624467E-13
   1.20120001         3.14707760E-13
   1.21319997        -6.95185690E-14
   1.22520006        -4.33478259E-13
   1.23720002        -7.23967544E-13
   1.24919999        -9.07702895E-13
   1.26119995        -9.74004948E-13
   1.27320004        -9.32035048E-13
   1.28520000        -8.04299878E-13
   1.29719996        -6.18647711E-13
   1.30920005        -4.00714672E-13
   1.32120001        -1.68106184E-13
   1.33319998         7.30356124E-14
   1.34519994         3.28713510E-13
   1.35720003         6.14573659E-13
   1.36919999         9.49700821E-13
   1.38119996         1.34654842E-12
   1.39320004         1.79794927E-12
   1.40520000         2.26391627E-12
   1.41719997         2.66271467E-12
   1.42920005         2.87153656E-12
   1.44120002         2.74111007E-12
   1.45319998         2.12534179E-12
   1.46519995         9.22177048E-13
   1.47720003        -8.83382180E-13
   1.48920000        -3.18671630E-12
   1.50119996        -5.75420961E-12
   1.51320004        -8.24547548E-12
   1.52520001        -1.02674822E-11
   1.53719997        -1.14509409E-11
   1.54920006        -1.15306497E-11
   1.56120002        -1.04073330E-11
   1.57319999        -8.17089452E-12
   1.58519995        -5.07455016E-12
   1.59720004        -1.46388348E-12
   1.60920000         2.31883631E-12
   1.62119997         6.02164542E-12
   1.63320005         9.52170721E-12
   1.64520001         1.27808718E-11
   1.65719998         1.56979603E-11
   1.66919994         1.78622395E-11
   1.68120003         1.82421526E-11
   1.69319999         1.48743760E-11
   1.70519996         4.64241406E-12
   1.71720004        -1.67518048E-11
   1.72920001        -5.45203535E-11
   1.74119997        -1.14141960E-10
   1.75320005        -2.00285871E-10
   1.76520002        -3.15309195E-10
   1.77719998        -4.57386601E-10
   1.78919995        -6.18389118E-10
   1.80120003        -7.81676668E-10
   1.81320000        -9.19991694E-10
   1.82519996        -9.93641835E-10
   1.83720005        -9.49117673E-10
   1.84920001        -7.18219539E-10
   1.86119998        -2.17650314E-10
   1.87320006         6.51156518E-10
   1.88520002         2.00239803E-09
   1.89719999         3.96722610E-09
   1.90919995         6.69718325E-09
   1.92120004         1.03714539E-08
   1.93320000         1.52101833E-08
   1.94519997         2.14969216E-08
   1.95720005         2.96138118E-08
   1.96920002         4.00938589E-08
   1.98119998         5.36949969E-08
   1.99319994         7.15006507E-08
   2.00519991         9.50512558E-08
   2.01719999         1.26509718E-07
   2.02920008         1.68862883E-07
   2.04119992         2.26157340E-07
   2.05320001         3.03767138E-07
   2.06520009         4.08685281E-07
   2.07719994         5.49828599E-07
   2.08920002         7.38341384E-07
   2.10120010         9.87879616E-07
   2.11319995         1.31485501E-06
   2.12520003         1.73861520E-06
   2.13720012         2.28153272E-06
   2.14919996         2.96898133E-06
   2.16120005         3.82917506E-06
   2.17319989         4.89284457E-06
   2.18519998         6.19274306E-06
   2.19720006         7.76296201E-06
   2.20919991         9.63807361E-06
   2.22119999         1.18520802E-05
   2.23320007         1.44372325E-05
   2.24519992         1.74226952E-05
   2.25720000         2.08331530E-05
   2.26920009         2.46873769E-05
   2.28119993         2.89968175E-05
   2.29320002         3.37642850E-05
   2.30520010         3.89828201E-05
   2.31719995         4.46347512E-05
   2.32920003         5.06910801E-05
   2.34120011         5.71111996E-05
   2.35319996         6.38429847E-05
   2.36520004         7.08233565E-05
   2.37719989         7.79791662E-05
   2.38919997         8.52286394E-05
   2.40120006         9.24830892E-05
   2.41319990         9.96490344E-05
   2.42519999         1.06630599E-04
   2.43720007         1.13332077E-04
   2.44919991         1.19660610E-04
   2.46120000         1.25528895E-04
   2.47320008         1.30857792E-04
   2.48519993         1.35578623E-04
   2.49720001         1.39635289E-04
   2.50920010         1.42985984E-04
   2.52119994         1.45604368E-04
   2.53320003         1.47480212E-04
   2.54520011         1.48619671E-04
   2.55719995         1.49044819E-04
   2.56920004         1.48792751E-04
   2.58119988         1.47914136E-04
   2.59319997         1.46471430E-04
   2.60520005         1.44536622E-04
   2.61719990         1.42188859E-04
   2.62919998         1.39511743E-04
   2.64120007         1.36590781E-04
   2.65319991         1.33510664E-04
   2.66520000         1.30352972E-04
   2.67720008         1.27193853E-04
   2.68919992         1.24102196E-04
   2.70120001         1.21138160E-04
   2.71320009         1.18352029E-04
   2.72519994         1.15783667E-04
   2.73720002         1.13462258E-04
   2.74920011         1.11406589E-04
   2.76119995         1.09625609E-04
   2.77320004         1.08119384E-04
   2.78520012         1.06880310E-04
   2.79719996         1.05894462E-04
   2.80920005         1.05143088E-04
   2.82119989         1.04604129E-04
   2.83319998         1.04253733E-04
   2.84520006         1.04067556E-04
   2.85719991         1.04022016E-04
   2.86919999         1.04095277E-04
   2.88120008         1.04268023E-04
   2.89319992         1.04523970E-04
   2.90520000         1.04850136E-04
   2.91720009         1.05236919E-04
   2.92919993         1.05677966E-04
   2.94120002         1.06169806E-04
   2.95320010         1.06711479E-04
   2.96519995         1.07303975E-04
   2.97720003         1.07949694E-04
   2.98920012         1.08651817E-04
   3.00119996         1.09413784E-04
   3.01320004         1.10238805E-04
   3.02519989         1.11129360E-04
   3.03719997         1.12086876E-04
   3.04920006         1.13111470E-04
   3.06119990         1.14201714E-04
   3.07319999         1.15354553E-04
   3.08520007         1.16565279E-04
   3.09719992         1.17827527E-04
   3.10920000         1.19133358E-04
   3.12120008         1.20473378E-04
   3.13319993         1.21836900E-04
   3.14520001         1.23212114E-04
   3.15720010         1.24586339E-04
   3.16919994         1.25946244E-04
   3.18120003         1.27278210E-04
   3.19320011         1.28568703E-04
   3.20519996         1.29804641E-04
   3.21720004         1.30973916E-04
   3.22919989         1.32065936E-04
   3.24119997         1.33072172E-04
   3.25320005         1.33986861E-04
   3.26519990         1.34807589E-04
   3.27719998         1.35535942E-04
   3.28920007         1.36178132E-04
   3.30119991         1.36745497E-04
   3.31320000         1.37254887E-04
   3.32520008         1.37728857E-04
   3.33719993         1.38195741E-04
   3.34920001         1.38689400E-04
   3.36120009         1.39248674E-04
   3.37319994         1.39916621E-04
   3.38520002         1.40739401E-04
   3.39720011         1.41764904E-04
   3.40919995         1.43041296E-04
   3.42120004         1.44615085E-04
   3.43319988         1.46529361E-04
   3.44519997         1.48821942E-04
   3.45720005         1.51523505E-04
   3.46919990         1.54656067E-04
   3.48119998         1.58231589E-04
   3.49320006         1.62251061E-04
   3.50519991         1.66703961E-04
   3.51719999         1.71568216E-04
   3.52920008         1.76810616E-04
   3.54119992         1.82387768E-04
   3.55320001         1.88247475E-04
   3.56520009         1.94330394E-04
   3.57719994         2.00572031E-04
   3.58920002         2.06904981E-04
   3.60120010         2.13260966E-04
   3.61319995         2.19573063E-04
   3.62520003         2.25777418E-04
   3.63720012         2.31815007E-04
   3.64919996         2.37632761E-04
   3.66120005         2.43184375E-04
   3.67319989         2.48430733E-04
   3.68519998         2.53339793E-04
   3.69720006         2.57886277E-04
   3.70919991         2.62050889E-04
   3.72119999         2.65819515E-04
   3.73320007         2.69182259E-04
   3.74519992         2.72132282E-04
   3.75720000         2.74665159E-04
   3.76920009         2.76777893E-04
   3.78119993         2.78468535E-04
   3.79320002         2.79735861E-04
   3.80520010         2.80579319E-04
   3.81719995         2.80999375E-04
   3.82920003         2.80997891E-04
   3.84120011         2.80578766E-04
   3.85319996         2.79748783E-04
   3.86520004         2.78518157E-04
   3.87719989         2.76901497E-04
   3.88919997         2.74918275E-04
   3.90120006         2.72593461E-04
   3.91319990         2.69957731E-04
   3.92519999         2.67047406E-04
   3.93720007         2.63904396E-04
   3.94919991         2.60575733E-04
   3.96120000         2.57112697E-04
   3.97320008         2.53570004E-04
   3.98519993         2.50004668E-04
   3.99720001         2.46474490E-04
   4.00920010         2.43036717E-04
   4.02120018         2.39746441E-04
   4.03319979         2.36655032E-04
   4.04519987         2.33808503E-04
   4.05719995         2.31245998E-04
   4.06920004         2.28998440E-04
   4.08120012         2.27087221E-04
   4.09320021         2.25523356E-04
   4.10519981         2.24306670E-04
   4.11719990         2.23425435E-04
   4.12919998         2.22856412E-04
   4.14120007         2.22565024E-04
   4.15320015         2.22506191E-04
   4.16520023         2.22625240E-04
   4.17719984         2.22859424E-04
   4.18919992         2.23139446E-04
   4.20120001         2.23391413E-04
   4.21320009         2.23538853E-04
   4.22520018         2.23504860E-04
   4.23719978         2.23214302E-04
   4.24919987         2.22595845E-04
   4.26119995         2.21583963E-04
   4.27320004         2.20120710E-04
   4.28520012         2.18157234E-04
   4.29720020         2.15655076E-04
   4.30919981         2.12586994E-04
   4.32119989         2.08937709E-04
   4.33319998         2.04704193E-04
   4.34520006         1.99895585E-04
   4.35720015         1.94533030E-04
   4.36920023         1.88649050E-04
   4.38119984         1.82286749E-04
   4.39319992         1.75498790E-04
   4.40520000         1.68346261E-04
   4.41720009         1.60897252E-04
   4.42920017         1.53225425E-04
   4.44119978         1.45408441E-04
   4.45319986         1.37526440E-04
   4.46519995         1.29660228E-04
   4.47720003         1.21889760E-04
   4.48920012         1.14292481E-04
   4.50120020         1.06941734E-04
   4.51319981         9.99053154E-05
   4.52519989         9.32441326E-05
   4.53719997         8.70110453E-05
   4.54920006         8.12499056E-05
   4.56120014         7.59948161E-05
   4.57320023         7.12696492E-05
   4.58519983         6.70877926E-05
   4.59719992         6.34522294E-05
   4.60920000         6.03558146E-05
   4.62120008         5.77818319E-05
   4.63320017         5.57047788E-05
   4.64519978         5.40913716E-05
   4.65719986         5.29016834E-05
   4.66919994         5.20904905E-05
   4.68120003         5.16086548E-05
   4.69320011         5.14046151E-05
   4.70520020         5.14258645E-05
   4.71719980         5.16203982E-05
   4.72919989         5.19380919E-05
   4.74119997         5.23319759E-05
   4.75320005         5.27593547E-05
   4.76520014         5.31827245E-05
   4.77720022         5.35705040E-05
   4.78919983         5.38975000E-05
   4.80119991         5.41451409E-05
   4.81320000         5.43014394E-05
   4.82520008         5.43606875E-05
   4.83720016         5.43229071E-05
   4.84919977         5.41930858E-05
   4.86119986         5.39802422E-05
   4.87319994         5.36963416E-05
   4.88520002         5.33551247E-05
   4.89720011         5.29709796E-05
   4.90920019         5.25578143E-05
   4.92119980         5.21280526E-05
   4.93319988         5.16918008E-05
   4.94519997         5.12562438E-05
   4.95720005         5.08252742E-05
   4.96920013         5.03994052E-05
   4.98120022         4.99759371E-05
   4.99319983         4.95494387E-05
   5.00519991         4.91123865E-05
   5.01719999         4.86560530E-05
   5.02920008         4.81714451E-05
   5.04120016         4.76503374E-05
   5.05319977         4.70862287E-05
   5.06519985         4.64751975E-05
   5.07719994         4.58166214E-05
   5.08920002         4.51135857E-05
   5.10120010         4.43731224E-05
   5.11320019         4.36060800E-05
   5.12519979         4.28267776E-05
   5.13719988         4.20523502E-05
   5.14919996         4.13019261E-05
   5.16120005         4.05956052E-05
   5.17320013         3.99533965E-05
   5.18520021         3.93941118E-05
   5.19719982         3.89343732E-05
   5.20919991         3.85877429E-05
   5.22119999         3.83640909E-05
   5.23320007         3.82692051E-05
   5.24520016         3.83046681E-05
   5.25719976         3.84680534E-05
   5.26919985         3.87533400E-05
   5.28119993         3.91515387E-05
   5.29320002         3.96515134E-05
   5.30520010         4.02408441E-05
   5.31720018         4.09066961E-05
   5.32919979         4.16366456E-05
   5.34119987         4.24193313E-05
   5.35319996         4.32449342E-05
   5.36520004         4.41053853E-05
   5.37720013         4.49943836E-05
   5.38920021         4.59070870E-05
   5.40119982         4.68396502E-05
   5.41319990         4.77885696E-05
   5.42519999         4.87499346E-05
   5.43720007         4.97186447E-05
   5.44920015         5.06877332E-05
   5.46120024         5.16477703E-05
   5.47319984         5.25865144E-05
   5.48519993         5.34888131E-05
   5.49720001         5.43368078E-05
   5.50920010         5.51104567E-05
   5.52120018         5.57883250E-05
   5.53319979         5.63486719E-05
   5.54519987         5.67706920E-05
   5.55719995         5.70359298E-05
   5.56920004         5.71296696E-05
   5.58120012         5.70423144E-05
   5.59320021         5.67705465E-05
   5.60519981         5.63182766E-05
   5.61719990         5.56972554E-05
   5.62919998         5.49272991E-05
   5.64120007         5.40360925E-05
   5.65320015         5.30585603E-05
   5.66520023         5.20358408E-05
   5.67719984         5.10138525E-05
   5.68919992         5.00415663E-05
   5.70120001         4.91690116E-05
   5.71320009         4.84451484E-05
   5.72520018         4.79156915E-05
   5.73719978         4.76210007E-05
   5.74919987         4.75941306E-05
   5.76119995         4.78591755E-05
   5.77320004         4.84299562E-05
   5.78520012         4.93091648E-05
   5.79720020         5.04879536E-05
   5.80919981         5.19460737E-05
   5.82119989         5.36525076E-05
   5.83319998         5.55665574E-05
   5.84520006         5.76394232E-05
   5.85720015         5.98161132E-05
   5.86920023         6.20376159E-05
   5.88119984         6.42432715E-05
   5.89319992         6.63731844E-05
   5.90520000         6.83705293E-05
   5.91720009         7.01837271E-05
   5.92920017         7.17683652E-05
   5.94119978         7.30886895E-05
   5.95319986         7.41186814E-05
   5.96519995         7.48427556E-05
   5.97720003         7.52558699E-05
   5.98920012         7.53632412E-05
   6.00120020         7.51796688E-05
   6.01319981         7.47284212E-05
   6.02519989         7.40398973E-05
   6.03719997         7.31501132E-05
   6.04920006         7.20990138E-05
   6.06120014         7.09288506E-05
   6.07320023         6.96825591E-05
   6.08519983         6.84023835E-05
   6.09719992         6.71285597E-05
   6.10920000         6.58983263E-05
   6.12120008         6.47451598E-05
   6.13320017         6.36981858E-05
   6.14519978         6.27818517E-05
   6.15719986         6.20158171E-05
   6.16919994         6.14149103E-05
   6.18120003         6.09892704E-05
   6.19320011         6.07445218E-05
   6.20520020         6.06820213E-05
   6.21719980         6.07990660E-05
   6.22919989         6.10891730E-05
   6.24119997         6.15423123E-05
   6.25320005         6.21451909E-05
   6.26520014         6.28814960E-05
   6.27720022         6.37322446E-05
   6.28919983         6.46761473E-05
   6.30119991         6.56900447E-05
   6.31320000         6.67494751E-05
   6.32520008         6.78292490E-05
   6.33720016         6.89041699E-05
   6.34919977         6.99497323E-05
   6.36119986         7.09429150E-05
   6.37319994         7.18629017E-05
   6.38520002         7.26917497E-05
   6.39720011         7.34149871E-05
   6.40920019         7.40220421E-05
   6.42119980         7.45064244E-05
   6.43319988         7.48657985E-05
   6.44519997         7.51017433E-05
   6.45720005         7.52193591E-05
   6.46920013         7.52266133E-05
   6.48120022         7.51335974E-05
   6.49319983         7.49516184E-05
   6.50519991         7.46923179E-05
   6.51719999         7.43668061E-05
   6.52920008         7.39848911E-05
   6.54120016         7.35545254E-05
   6.55319977         7.30814645E-05
   6.56519985         7.25692153E-05
   6.57719994         7.20193711E-05
   6.58920002         7.14321504E-05
   6.60120010         7.08072403E-05
   6.61320019         7.01448880E-05
   6.62519979         6.94470800E-05
   6.63719988         6.87187203E-05
   6.64919996         6.79687582E-05
   6.66120005         6.72110400E-05
   6.67320013         6.64648542E-05
   6.68520021         6.57550991E-05
   6.69719982         6.51118971E-05
   6.70919991         6.45697510E-05
   6.72119999         6.41661536E-05
   6.73320007         6.39397840E-05
   6.74520016         6.39283535E-05
   6.75719976         6.41661100E-05
   6.76919985         6.46813787E-05
   6.78119993         6.54941468E-05
   6.79320002         6.66138512E-05
   6.80520010         6.80377052E-05
   6.81720018         6.97495125E-05
   6.82919979         7.17192306E-05
   6.84119987         7.39032475E-05
   6.85319996         7.62454438E-05
   6.86520004         7.86789897E-05
   6.87720013         8.11288191E-05
   6.88920021         8.35146129E-05
   6.90119982         8.57541527E-05
   6.91319990         8.77669008E-05
   6.92519999         8.94775367E-05
   6.93720007         9.08192524E-05
   6.94920015         9.17367870E-05
   6.96120024         9.21888350E-05
   6.97319984         9.21497776E-05
   6.98519993         9.16107965E-05
   6.99720001         9.05801571E-05
   7.00920010         8.90828233E-05
   7.02120018         8.71593147E-05
   7.03319979         8.48640848E-05
   7.04519987         8.22633592E-05
   7.05719995         7.94326261E-05
   7.06920004         7.64539291E-05
   7.08120012         7.34130663E-05
   7.09320021         7.03967744E-05
   7.10519981         6.74900657E-05
   7.11719990         6.47737470E-05
   7.12919998         6.23222295E-05
   7.14120007         6.02015534E-05
   7.15320015         5.84678783E-05
   7.16520023         5.71661585E-05
   7.17719984         5.63292015E-05
   7.18919992         5.59770415E-05
   7.20120001         5.61165944E-05
   7.21320009         5.67415918E-05
   7.22520018         5.78328327E-05
   7.23719978         5.93586665E-05
   7.24919987         6.12758158E-05
   7.26119995         6.35303950E-05
   7.27320004         6.60592705E-05
   7.28520012         6.87916108E-05
   7.29720020         7.16506911E-05
   7.30919981         7.45558937E-05
   7.32119989         7.74248547E-05
   7.33319998         8.01757560E-05
   7.34520006         8.27296244E-05
   7.35720015         8.50126817E-05
   7.36920023         8.69586001E-05
   7.38119984         8.85105910E-05
   7.39319992         8.96232596E-05
   7.40520000         9.02641696E-05
   7.41720009         9.04149565E-05
   7.42920017         9.00721207E-05
   7.44119978         8.92472017E-05
   7.45319986         8.79665604E-05
   7.46519995         8.62706438E-05
   7.47720003         8.42127192E-05
   7.48920012         8.18572298E-05
   7.50120020         7.92777500E-05
   7.51319981         7.65546210E-05
   7.52519989         7.37723385E-05
   7.53719997         7.10169188E-05
   7.54920006         6.83730832E-05
   7.56120014         6.59217039E-05
   7.57320023         6.37372723E-05
   7.58519983         6.18857375E-05
   7.59719992         6.04225897E-05
   7.60920000         5.93914083E-05
   7.62120008         5.88227449E-05
   7.63320017         5.87334580E-05
   7.64519978         5.91264761E-05
   7.65719986         5.99909727E-05
   7.66919994         6.13029042E-05
   7.68120003         6.30258946E-05
   7.69320011         6.51124647E-05
   7.70520020         6.75055053E-05
   7.71719980         7.01399404E-05
   7.72919989         7.29446401E-05
   7.74119997         7.58443784E-05
   7.75320005         7.87618992E-05
   7.76520014         8.16200481E-05
   7.77720022         8.43438247E-05
   7.78919983         8.68624556E-05
   7.80119991         8.91113013E-05
   7.81320000         9.10336021E-05
   7.82520008         9.25820859E-05
   7.83720016         9.37202494E-05
   7.84919977         9.44233034E-05
   7.86119986         9.46788714E-05
   7.87319994         9.44871426E-05
   7.88520002         9.38607482E-05
   7.89720011         9.28240988E-05
   7.90920019         9.14124466E-05
   7.92119980         8.96704951E-05
   7.93319988         8.76507693E-05
   7.94519997         8.54117243E-05
   7.95720005         8.30157369E-05
   7.96920013         8.05270029E-05
   7.98120022         7.80095215E-05
   7.99319983         7.55251604E-05
   8.00520039         7.31319742E-05
   8.01720047         7.08827429E-05
   8.02919960         6.88238433E-05
   8.04119968         6.69944639E-05
   8.05319977         6.54261457E-05
   8.06519985         6.41426232E-05
   8.07719994         6.31599542E-05
   8.08920002         6.24868699E-05
   8.10120010         6.21253130E-05
   8.11320019         6.20710416E-05
   8.12520027         6.23143060E-05
   8.13720036         6.28405251E-05
   8.14920044         6.36308614E-05
   8.16119957         6.46628032E-05
   8.17319965         6.59106445E-05
   8.18519974         6.73458417E-05
   8.19719982         6.89374283E-05
   8.20919991         7.06522842E-05
   8.22119999         7.24555721E-05
   8.23320007         7.43110431E-05
   8.24520016         7.61815754E-05
   8.25720024         7.80297123E-05
   8.26920033         7.98183464E-05
   8.28120041         8.15114618E-05
   8.29319954         8.30750432E-05
   8.30519962         8.44779133E-05
   8.31719971         8.56927072E-05
   8.32919979         8.66967821E-05
   8.34119987         8.74730104E-05
   8.35319996         8.80104999E-05
   8.36520004         8.83051180E-05
   8.37720013         8.83598259E-05
   8.38920021         8.81847518E-05
   8.40120029         8.77970233E-05
   8.41320038         8.72204037E-05
   8.42520046         8.64846006E-05
   8.43719959         8.56244587E-05
   8.44919968         8.46789262E-05
   8.46119976         8.36898544E-05
   8.47319984         8.27007752E-05
   8.48519993         8.17555265E-05
   8.49720001         8.08968616E-05
   8.50920010         8.01651549E-05
   8.52120018         7.95970191E-05
   8.53320026         7.92241408E-05
   8.54520035         7.90721388E-05
   8.55720043         7.91596249E-05
   8.56919956         7.94974403E-05
   8.58119965         8.00880734E-05
   8.59319973         8.09253543E-05
   8.60519981         8.19943598E-05
   8.61719990         8.32716687E-05
   8.62919998         8.47258561E-05
   8.64120007         8.63183668E-05
   8.65320015         8.80046864E-05
   8.66520023         8.97358041E-05
   8.67720032         9.14600023E-05
   8.68920040         9.31247923E-05
   8.70119953         9.46790387E-05
   8.71319962         9.60751058E-05
   8.72519970         9.72709386E-05
   8.73719978         9.82319470E-05
   8.74919987         9.89326145E-05
   8.76119995         9.93577050E-05
   8.77320004         9.95029550E-05
   8.78520012         9.93752328E-05
   8.79720020         9.89921391E-05
   8.80920029         9.83809805E-05
   8.82120037         9.75772637E-05
   8.83320045         9.66226944E-05
   8.84519958         9.55628348E-05
   8.85719967         9.44447020E-05
   8.86919975         9.33141273E-05
   8.88119984         9.22134932E-05
   8.89319992         9.11795505E-05
   8.90520000         9.02418615E-05
   8.91720009         8.94216282E-05
   8.92920017         8.87311835E-05
   8.94120026         8.81740343E-05
   8.95320034         8.77455168E-05
   8.96520042         8.74338803E-05
   8.97719955         8.72218297E-05
   8.98919964         8.70882432E-05
   9.00119972         8.70100484E-05
   9.01319981         8.69640498E-05
   9.02519989         8.69284995E-05
   9.03719997         8.68845091E-05
   9.04920006         8.68169227E-05
   9.06120014         8.67148701E-05
   9.07320023         8.65718248E-05
   9.08520031         8.63852474E-05