 -0.622799993         1.00000002E-24
 -0.610800028         1.00000002E-24
 -0.598800004         1.00000002E-24
 -0.586799979         1.00000002E-24
 -0.574800014         1.00000002E-24
 -0.562799990         1.00000002E-24
 -0.550800025         1.00000002E-24
 -0.538800001         1.00000002E-24
 -0.526799977         1.00000002E-24
 -0.514800012         1.00000012E-24
 -0.502799988         1.00000022E-24
 -0.490799993         1.00000032E-24
 -0.478799999         1.00000041E-24
 -0.466800004         1.00000041E-24
 -0.454800010         1.00000041E-24
 -0.442799985         1.00000041E-24
 -0.430799991         1.00000041E-24
 -0.418799996         1.00000032E-24
 -0.406800002         1.00000022E-24
 -0.394800007         1.00000012E-24
 -0.382800013         1.00000002E-24
 -0.370799989         9.99999921E-25
 -0.358799994         9.99999822E-25
 -0.346799999         9.99999822E-25
 -0.334800005         9.99999822E-25
 -0.322800010         9.99999921E-25
 -0.310799986         1.00000002E-24
 -0.298799992         1.00000012E-24
 -0.286799997         1.00000022E-24
 -0.274800003         1.00000022E-24
 -0.262800008         9.99999822E-25
 -0.250800014         9.99998935E-25
 -0.238800004         9.99997653E-25
 -0.226799995         9.99996568E-25
 -0.214800000         9.99999033E-25
 -0.202800006         1.00001096E-24
 -0.190799996         1.00004242E-24
 -0.178800002         1.00010277E-24
 -0.166800007         1.00018954E-24
 -0.154799998         1.00026518E-24
 -0.142800003         1.00022593E-24
 -0.130799994         9.99876267E-25
 -0.118799999         9.98949257E-25
 -0.106799997         9.97223821E-25
  -9.48000029E-02     9.94799750E-25
  -8.28000009E-02     9.92532859E-25
  -7.07999989E-02     9.92511659E-25
  -5.88000007E-02     9.98246678E-25
  -4.67999987E-02     1.01402360E-24
  -3.48000005E-02     1.04278202E-24
  -2.28000004E-02     1.08216353E-24
  -1.08000003E-02     1.11926534E-24
   1.20000006E-03     1.12619824E-24
   1.31999999E-02     1.06044412E-24
   2.52000000E-02     8.75294422E-25
   3.72000001E-02     5.44811401E-25
   4.91999984E-02     1.03136155E-25
   6.12000003E-02    -3.11252466E-25
   7.32000023E-02    -4.28242412E-25
   8.51999968E-02     1.31119135E-25
   9.71999988E-02     1.74671219E-24
  0.109200001         4.58816018E-24
  0.121200003         8.32458171E-24
  0.133200005         1.18447812E-23
  0.145199999         1.31480441E-23
  0.157199994         9.60716699E-24
  0.169200003        -1.22798329E-24
  0.181199998        -2.02657041E-23
  0.193200007        -4.51960374E-23
  0.205200002        -6.90950203E-23
  0.217199996        -8.01951389E-23
  0.229200006        -6.37706889E-23
  0.241200000        -6.73343980E-24
  0.253199995         9.53382454E-23
  0.265199989         2.30321106E-22
  0.277200013         3.63804272E-22
  0.289200008         4.39369170E-22
  0.301200002         3.88477014E-22
  0.313199997         1.51480113E-22
  0.325199991        -2.92630086E-22
  0.337199986        -8.95167750E-22
  0.349200010        -1.51742578E-21
  0.361200005        -1.93510584E-21
  0.373199999        -1.87873033E-21
  0.385199994        -1.11252167E-21
  0.397199988         4.59785496E-22
  0.409200013         2.68974174E-21
  0.421200007         5.11972858E-21
  0.433200002         7.00204026E-21
  0.445199996         7.43180744E-21
  0.457199991         5.59480006E-21
  0.469199985         1.08963496E-21
  0.481200010        -5.75945221E-21
  0.493200004        -1.37127772E-20
  0.505200028        -2.06620718E-20
  0.517199993        -2.39879615E-20
  0.529200017        -2.12222282E-20
  0.541199982        -1.09034643E-20
  0.553200006         6.58828880E-21
  0.565199971         2.84977906E-20
  0.577199996         4.97354751E-20
  0.589200020         6.36691386E-20
  0.601199985         6.36591737E-20
  0.613200009         4.50933957E-20
  0.625199974         7.44675405E-21
  0.637199998        -4.42591162E-20
  0.649200022        -9.92262663E-20
  0.661199987        -1.42326945E-19
  0.673200011        -1.57301098E-19
  0.685199976        -1.31280491E-19
  0.697200000        -5.96905356E-20
  0.709200025         4.98211885E-20
  0.721199989         1.75915402E-19
  0.733200014         2.85774617E-19
  0.745199978         3.41517879E-19
  0.757200003         3.10238173E-19
  0.769200027         1.75777625E-19
  0.781199992        -5.08356609E-20
  0.793200016        -3.26040554E-19
  0.805199981        -5.76978330E-19
  0.817200005        -7.15318393E-19
  0.829200029        -6.60967406E-19
  0.841199994        -3.71400347E-19
  0.853200018         1.31161700E-19
  0.865199983         7.44761629E-19
  0.877200007         1.29460797E-18
  0.889199972         1.56770682E-18
  0.901199996         1.37356732E-18
  0.913200021         6.19437924E-19
  0.925199986        -6.21133954E-19
  0.937200010        -2.07343967E-18
  0.949199975        -3.28571297E-18
  0.961199999        -3.72583241E-18
  0.973200023        -2.94311172E-18
  0.985199988        -7.61217456E-19
  0.997200012         2.55583837E-18
   1.00919998         6.23446731E-18
   1.02119994         9.07948099E-18
   1.03320003         9.74492133E-18
   1.04519999         7.15644737E-18
   1.05719995         9.88604496E-19
   1.06920004        -7.95334159E-18
   1.08120000        -1.76148111E-17
   1.09319997        -2.49674492E-17
   1.10520005        -2.67136606E-17
   1.11720002        -2.03150198E-17
   1.12919998        -5.09224586E-18
   1.14119995         1.69594608E-17
   1.15320003         4.10059569E-17
   1.16520000         6.01107320E-17
   1.17719996         6.68849177E-17
   1.18920004         5.57518476E-17
   1.20120001         2.52339089E-17
   1.21319997        -2.05003728E-17
   1.22520006        -7.15403763E-17
   1.23720002        -1.13989922E-16
   1.24919999        -1.33448307E-16
   1.26119995        -1.19470741E-16
   1.27320004        -6.97480082E-17
   1.28520000         7.45285348E-18
   1.29719996         9.37935398E-17
   1.30920005         1.64787878E-16
   1.32120001         1.96556616E-16
   1.33319998         1.73731421E-16
   1.34519994         9.60723761E-17
   1.35720003        -1.87054372E-17
   1.36919999        -1.37618978E-16
   1.38119996        -2.20791658E-16
   1.39320004        -2.33762776E-16
   1.40520000        -1.60268652E-16
   1.41719997        -1.11860056E-17
   1.42920005         1.74184252E-16
   1.44120002         3.36392200E-16
   1.45319998         4.12611295E-16
   1.46519995         3.57682929E-16
   1.47720003         1.62916967E-16
   1.48920000        -1.34311592E-16
   1.50119996        -4.55211441E-16
   1.51320004        -6.99464297E-16
   1.52520001        -7.76185312E-16
   1.53719997        -6.37123677E-16
   1.54920006        -3.00821263E-16
   1.56120002         1.42485063E-16
   1.57319999         5.50603603E-16
   1.58519995         7.71532083E-16
   1.59720004         6.97488857E-16
   1.60920000         3.14135959E-16
   1.62119997        -2.73272258E-16
   1.63320005        -8.50681489E-16
   1.64520001        -1.14688865E-15
   1.65719998        -9.16899613E-16
   1.66919994        -3.54681481E-17
   1.68120003         1.42811121E-15
   1.69319999         3.18205503E-15
   1.70519996         4.74898255E-15
   1.71720004         5.56811169E-15
   1.72920001         5.14282026E-15
   1.74119997         3.19651769E-15
   1.75320005        -2.08149585E-16
   1.76520002        -4.62673070E-15
   1.77719998        -9.28898089E-15
   1.78919995        -1.32485092E-14
   1.80120003        -1.55927924E-14
   1.81320000        -1.56592963E-14
   1.82519996        -1.31971689E-14
   1.83720005        -8.42603134E-15
   1.84920001        -1.97158459E-15
   1.86119998         5.30507958E-15
   1.87320006         1.25326969E-14
   1.88520002         1.90366437E-14
   1.89719999         2.44553506E-14
   1.90919995         2.87195736E-14
   1.92120004         3.18917493E-14
   1.93320000         3.39133866E-14
   1.94519997         3.43501845E-14
   1.95720005         3.22423024E-14
   1.96920002         2.61524404E-14
   1.98119998         1.44563842E-14
   1.99319994        -4.14975375E-15
   2.00519991        -3.00262948E-14
   2.01719999        -6.20091069E-14
   2.02920008        -9.70504533E-14
   2.04119992        -1.30234921E-13
   2.05320001        -1.55252045E-13
   2.06520009        -1.65304239E-13
   2.07719994        -1.54319605E-13
   2.08920002        -1.18250733E-13
   2.10120010        -5.61989318E-14
   2.11319995         2.88800898E-14
   2.12520003         1.30057626E-13
   2.13720012         2.36954120E-13
   2.14919996         3.36827463E-13
   2.16120005         4.16045074E-13
   2.17319989         4.61696707E-13
   2.18519998         4.63104381E-13
   2.19720006         4.13044571E-13
   2.20919991         3.08593944E-13
   2.22119999         1.51609587E-13
   2.23320007        -5.10703269E-14
   2.24519992        -2.87602841E-13
   2.25720000        -5.41235893E-13
   2.26920009        -7.90560976E-13
   2.28119993        -1.01007451E-12
   2.29320002        -1.17128594E-12
   2.30520010        -1.24462311E-12
   2.31719995        -1.20230301E-12
   2.32920003        -1.02213734E-12
   2.34120011        -6.91980436E-13
   2.35319996        -2.14232982E-13
   2.36520004         3.90414589E-13
   2.37719989         1.08091943E-12
   2.38919997         1.79634270E-12
   2.40120006         2.45937949E-12
   2.41319990         2.98306280E-12
   2.42519999         3.28018754E-12
   2.43720007         3.27445449E-12
   2.44919991         2.91191897E-12
   2.46120000         2.17111659E-12
   2.47320008         1.07031560E-12
   2.48519993        -3.29323022E-13
   2.49720001        -1.92536243E-12
   2.50920010        -3.58051739E-12
   2.52119994        -5.13333126E-12
   2.53320003        -6.41205578E-12
   2.54520011        -7.25042335E-12
   2.55719995        -7.50393931E-12
   2.56920004        -7.06543808E-12
   2.58119988        -5.87881566E-12
   2.59319997        -3.95002043E-12
   2.60520005        -1.35444520E-12
   2.61719990         1.76016732E-12
   2.62919998         5.17627824E-12
   2.64120007         8.61553277E-12
   2.65319991         1.17549382E-11
   2.66520000         1.42504819E-11
   2.67720008         1.57675244E-11
   2.68919992         1.60161103E-11
   2.70120001         1.47880683E-11
   2.71320009         1.19916316E-11
   2.72519994         7.67863204E-12
   2.73720002         2.05951120E-12
   2.74920011        -4.49774896E-12
   2.76119995        -1.14868037E-11
   2.77320004        -1.82999102E-11
   2.78520012        -2.42797987E-11
   2.79719996        -2.87812638E-11
   2.80920005        -3.12357570E-11
   2.82119989        -3.12117276E-11
   2.83319998        -2.84640575E-11
   2.84520006        -2.29674595E-11
   2.85719991        -1.49309211E-11
   2.86919999        -4.79255654E-12
   2.88120008         6.80384004E-12
   2.89319992         1.90477929E-11
   2.90520000         3.10135181E-11
   2.91720009         4.17204153E-11
   2.92919993         5.01999345E-11
   2.94120002         5.55662009E-11
   2.95320010         5.70878379E-11
   2.96519995         5.42574943E-11
   2.97720003         4.68544717E-11
   2.98920012         3.49944830E-11
   3.00119996         1.91594501E-11
   3.01320004         2.00397411E-13
   3.02519989        -2.06923628E-11
   3.03719997        -4.20544294E-11
   3.04920006        -6.22466106E-11
   3.06119990        -7.95820285E-11
   3.07319999        -9.24701149E-11
   3.08520007        -9.95627539E-11
   3.09719992        -9.98864949E-11
   3.10920000        -9.29451655E-11
   3.12120008        -7.87803225E-11
   3.13319993        -5.79821642E-11
   3.14520001        -3.16497176E-11
   3.15720010        -1.30537443E-12
   3.16919994         3.12255881E-11
   3.18120003         6.39561251E-11
   3.19320011         9.48832818E-11
   3.20519996         1.22123506E-10
   3.21720004         1.44024681E-10
   3.22919989         1.59246116E-10
   3.24119997         1.66802447E-10
   3.25320005         1.66071906E-10
   3.26519990         1.56773872E-10
   3.27719998         1.38924094E-10
   3.28920007         1.12778203E-10
   3.30119991         7.87759233E-11
   3.31320000         3.74986431E-11
   3.32520008        -1.03479716E-11
   3.33719993        -6.39168579E-11
   3.34920001        -1.22162086E-10
   3.36120009        -1.83740634E-10
   3.37319994        -2.46879656E-10
   3.38520002        -3.09223286E-10
   3.39720011        -3.67681136E-10
   3.40919995        -4.18308194E-10
   3.42120004        -4.56250565E-10
   3.43319988        -4.75794792E-10
   3.44519997        -4.70554817E-10
   3.45720005        -4.33823755E-10
   3.46919990        -3.59104552E-10
   3.48119998        -2.40813453E-10
   3.49320006        -7.51303741E-11
   3.50519991         1.39056086E-10
   3.51719999         3.99184380E-10
   3.52920008         6.98129943E-10
   3.54119992         1.02349829E-09
   3.55320001         1.35721134E-09
   3.56520009         1.67549175E-09
   3.57719994         1.94933003E-09
   3.58920002         2.14549112E-09
   3.60120010         2.22807639E-09
   3.61319995         2.16061702E-09
   3.62520003         1.90862237E-09
   3.63720012         1.44246870E-09
   3.64919996         7.40467632E-10
   3.66120005        -2.08072129E-10
   3.67319989        -1.40000700E-09
   3.68519998        -2.81597012E-09
   3.69720006        -4.41866632E-09
   3.70919991        -6.15207441E-09
   3.72119999        -7.94177879E-09
   3.73320007        -9.69662750E-09
   3.74519992        -1.13118936E-08
   3.75720000        -1.26741062E-08
   3.76920009        -1.36676501E-08
   3.78119993        -1.41832714E-08
   3.79320002        -1.41285215E-08
   3.80520010        -1.34401805E-08
   3.81719995        -1.20986599E-08
   3.82920003        -1.01442987E-08
   3.84120011        -7.69550557E-09
   3.85319996        -4.96847985E-09
   3.86520004        -2.29832486E-09
   3.87719989        -1.61105088E-10
   3.88919997         8.03654920E-10
   3.90120006        -2.29366803E-10
   3.91319990        -4.29253433E-09
   3.92519999        -1.26443398E-08
   3.93720007        -2.67853029E-08
   3.94919991        -4.84689693E-08
   3.96120000        -7.97069788E-08
   3.97320008        -1.22766011E-07
   3.98519993        -1.80155737E-07
   3.99720001        -2.54605538E-07
   4.00920010        -3.49029705E-07
   4.02120018        -4.66479463E-07
   4.03319979        -6.10081770E-07
   4.04519987        -7.82965344E-07
   4.05719995        -9.88173610E-07
   4.06920004        -1.22856818E-06
   4.08120012        -1.50672270E-06
   4.09320021        -1.82481176E-06
   4.10519981        -2.18449873E-06
   4.11719990        -2.58682485E-06
   4.12919998        -3.03210641E-06
   4.14120007        -3.51984318E-06
   4.15320015        -4.04864340E-06
   4.16520023        -4.61617083E-06
   4.17719984        -5.21911443E-06
   4.18919992        -5.85318912E-06
   4.20120001        -6.51316304E-06
   4.21320009        -7.19292120E-06
   4.22520018        -7.88555462E-06
   4.23719978        -8.58347994E-06
   4.24919987        -9.27859219E-06
   4.26119995        -9.96242761E-06
   4.27320004        -1.06263533E-05
   4.28520012        -1.12617690E-05
   4.29720020        -1.18603048E-05
   4.30919981        -1.24140261E-05
   4.32119989        -1.29156260E-05
   4.33319998        -1.33586045E-05
   4.34520006        -1.37374218E-05
   4.35720015        -1.40476332E-05
   4.36920023        -1.42859908E-05
   4.38119984        -1.44505102E-05
   4.39319992        -1.45405129E-05
   4.40520000        -1.45566200E-05
   4.41720009        -1.45007261E-05
   4.42920017        -1.43759407E-05
   4.44119978        -1.41864930E-05
   4.45319986        -1.39376198E-05
   4.46519995        -1.36354274E-05
   4.47720003        -1.32867453E-05
   4.48920012        -1.28989541E-05
   4.50120020        -1.24798244E-05
   4.51319981        -1.20373297E-05
   4.52519989        -1.15794810E-05
   4.53719997        -1.11141508E-05
   4.54920006        -1.06489124E-05
   4.56120014        -1.01908881E-05
   4.57320023        -9.74661452E-06
   4.58519983        -9.32192233E-06
   4.59719992        -8.92183925E-06
   4.60920000        -8.55050894E-06
   4.62120008        -8.21113917E-06
   4.63320017        -7.90597733E-06
   4.64519978        -7.63630487E-06
   4.65719986        -7.40246060E-06
   4.66919994        -7.20389562E-06
   4.68120003        -7.03924070E-06
   4.69320011        -6.90640309E-06
   4.70520020        -6.80268067E-06
   4.71719980        -6.72488659E-06
   4.72919989        -6.66948608E-06
   4.74119997        -6.63273977E-06
   4.75320005        -6.61084096E-06
   4.76520014        -6.60005117E-06
   4.77720022        -6.59682064E-06
   4.78919983        -6.59789612E-06
   4.80119991        -6.60040632E-06
   4.81320000        -6.60192700E-06
   4.82520008        -6.60052137E-06
   4.83720016        -6.59475654E-06
   4.84919977        -6.58369891E-06
   4.86119986        -6.56688508E-06
   4.87319994        -6.54428095E-06
   4.88520002        -6.51622213E-06
   4.89720011        -6.48334708E-06
   4.90920019        -6.44652937E-06
   4.92119980        -6.40680219E-06
   4.93319988        -6.36529148E-06
   4.94519997        -6.32315459E-06
   4.95720005        -6.28152475E-06
   4.96920013        -6.24146742E-06
   4.98120022        -6.20394667E-06
   4.99319983        -6.16979878E-06
   5.00519991        -6.13971724E-06
   5.01719999        -6.11424002E-06
   5.02920008        -6.09374456E-06
   5.04120016        -6.07844504E-06
   5.05319977        -6.06838921E-06
   5.06519985        -6.06345793E-06
   5.07719994        -6.06335971E-06
   5.08920002        -6.06763479E-06
   5.10120010        -6.07564834E-06
   5.11320019        -6.08659457E-06
   5.12519979        -6.09950484E-06
   5.13719988        -6.11325731E-06
   5.14919996        -6.12660051E-06
   5.16120005        -6.13818474E-06
   5.17320013        -6.14660576E-06
   5.18520021        -6.15045519E-06
   5.19719982        -6.14838837E-06
   5.20919991        -6.13919519E-06
   5.22119999        -6.12187750E-06
   5.23320007        -6.09573226E-06
   5.24520016        -6.06042659E-06
   5.25719976        -6.01607144E-06
   5.26919985        -5.96328618E-06
   5.28119993        -5.90324316E-06
   5.29320002        -5.83769997E-06
   5.30520010        -5.76900811E-06
   5.31720018        -5.70010161E-06
   5.32919979        -5.63446292E-06
   5.34119987        -5.57606654E-06
   5.35319996        -5.52930487E-06
   5.36520004        -5.49889455E-06
   5.37720013        -5.48976732E-06
   5.38920021        -5.50695313E-06
   5.40119982        -5.55545148E-06
   5.41319990        -5.64009997E-06
   5.42519999        -5.76544289E-06
   5.43720007        -5.93559662E-06
   5.44920015        -6.15412318E-06
   5.46120024        -6.42390842E-06
   5.47319984        -6.74704916E-06
   5.48519993        -7.12475003E-06
   5.49720001        -7.55723568E-06
   5.50920010        -8.04367573E-06
   5.52120018        -8.58213207E-06
   5.53319979        -9.16952376E-06
   5.54519987        -9.80162440E-06
   5.55719995        -1.04730761E-05
   5.56920004        -1.11774480E-05
   5.58120012        -1.19073147E-05
   5.59320021        -1.26543873E-05
   5.60519981        -1.34096599E-05
   5.61719990        -1.41636010E-05
   5.62919998        -1.49063708E-05
   5.64120007        -1.56280621E-05
   5.65320015        -1.63189561E-05
   5.66520023        -1.69697978E-05
   5.67719984        -1.75720579E-05
   5.68919992        -1.81181786E-05
   5.70120001        -1.86018187E-05
   5.71320009        -1.90180363E-05
   5.72520018        -1.93634460E-05
   5.73719978        -1.96363271E-05
   5.74919987        -1.98366579E-05
   5.76119995        -1.99661026E-05
   5.77320004        -2.00279337E-05
   5.78520012        -2.00268933E-05
   5.79720020        -1.99690130E-05
   5.80919981        -1.98613725E-05
   5.82119989        -1.97118352E-05
   5.83319998        -1.95287612E-05
   5.84520006        -1.93207161E-05
   5.85720015        -1.90961619E-05
   5.86920023        -1.88631966E-05
   5.88119984        -1.86292909E-05
   5.89319992        -1.84010878E-05
   5.90520000        -1.81842297E-05
   5.91720009        -1.79832296E-05
   5.92920017        -1.78014216E-05
   5.94119978        -1.76409339E-05
   5.95319986        -1.75027217E-05
   5.96519995        -1.73866483E-05
   5.97720003        -1.72915989E-05
   5.98920012        -1.72156251E-05
   6.00120020        -1.71561169E-05
   6.01319981        -1.71099873E-05
   6.02519989        -1.70738585E-05
   6.03719997        -1.70442527E-05
   6.04920006        -1.70177755E-05
   6.06120014        -1.69912764E-05
   6.07320023        -1.69619943E-05
   6.08519983        -1.69276682E-05
   6.09719992        -1.68866263E-05
   6.10920000        -1.68378428E-05
   6.12120008        -1.67809649E-05
   6.13320017        -1.67162871E-05
   6.14519978        -1.66447262E-05
   6.15719986        -1.65677375E-05
   6.16919994        -1.64872399E-05
   6.18120003        -1.64054818E-05
   6.19320011        -1.63249333E-05
   6.20520020        -1.62481374E-05
   6.21719980        -1.61775715E-05
   6.22919989        -1.61155167E-05
   6.24119997        -1.60639302E-05
   6.25320005        -1.60243380E-05
   6.26520014        -1.59977517E-05
   6.27720022        -1.59846059E-05
   6.28919983        -1.59847386E-05
   6.30119991        -1.59974006E-05
   6.31320000        -1.60212894E-05
   6.32520008        -1.60546315E-05
   6.33720016        -1.60952804E-05
   6.34919977        -1.61408479E-05
   6.36119986        -1.61888438E-05
   6.37319994        -1.62368287E-05
   6.38520002        -1.62825690E-05
   6.39720011        -1.63241748E-05
   6.40920019        -1.63602253E-05
   6.42119980        -1.63898603E-05
   6.43319988        -1.64128560E-05
   6.44519997        -1.64296398E-05
   6.45720005        -1.64412868E-05
   6.46920013        -1.64494595E-05
   6.48120022        -1.64563207E-05
   6.49319983        -1.64644116E-05
   6.50519991        -1.64764951E-05
   6.51719999        -1.64953908E-05
   6.52920008        -1.65237998E-05
   6.54120016        -1.65641213E-05
   6.55319977        -1.66182963E-05
   6.56519985        -1.66876598E-05
   6.57719994        -1.67728267E-05
   6.58920002        -1.68736315E-05
   6.60120010        -1.69890918E-05
   6.61320019        -1.71174306E-05
   6.62519979        -1.72561286E-05
   6.63719988        -1.74020424E-05
   6.64919996        -1.75515397E-05
   6.66120005        -1.77006532E-05
   6.67320013        -1.78452829E-05
   6.68520021        -1.79813651E-05
   6.69719982        -1.81050727E-05
   6.70919991        -1.82129588E-05
   6.72119999        -1.83021148E-05
   6.73320007        -1.83702650E-05
   6.74520016        -1.84158271E-05
   6.75719976        -1.84379423E-05
   6.76919985        -1.84364544E-05
   6.78119993        -1.84118435E-05
   6.79320002        -1.83651464E-05
   6.80520010        -1.82978383E-05
   6.81720018        -1.82116983E-05
   6.82919979        -1.81086762E-05
   6.84119987        -1.79907547E-05
   6.85319996        -1.78598275E-05
   6.86520004        -1.77175843E-05
   6.87720013        -1.75654422E-05
   6.88920021        -1.74044781E-05
   6.90119982        -1.72354121E-05
   6.91319990        -1.70586045E-05
   6.92519999        -1.68740844E-05
   6.93720007        -1.66816026E-05
   6.94920015        -1.64806988E-05
   6.96120024        -1.62707820E-05
   6.97319984        -1.60512063E-05
   6.98519993        -1.58213752E-05
   6.99720001        -1.55807957E-05
   7.00920010        -1.53291749E-05
   7.02120018        -1.50664537E-05
   7.03319979        -1.47928649E-05
   7.04519987        -1.45089480E-05
   7.05719995        -1.42155650E-05
   7.06920004        -1.39138856E-05
   7.08120012        -1.36053677E-05
   7.09320021        -1.32917130E-05
   7.10519981        -1.29748187E-05
   7.11719990        -1.26567020E-05
   7.12919998        -1.23394339E-05
   7.14120007        -1.20250525E-05
   7.15320015        -1.17154705E-05
   7.16520023        -1.14123914E-05
   7.17719984        -1.11172203E-05
   7.18919992        -1.08309951E-05
   7.20120001        -1.05543222E-05
   7.21320009        -1.02873501E-05
   7.22520018        -1.00297566E-05
   7.23719978        -9.78077605E-06
   7.24919987        -9.53927338E-06
   7.26119995        -9.30383430E-06
   7.27320004        -9.07291724E-06
   7.28520012        -8.84501151E-06
   7.29720020        -8.61884473E-06
   7.30919981        -8.39358381E-06
   7.32119989        -8.16905504E-06
   7.33319998        -7.94593961E-06
   7.34520006        -7.72595195E-06
   7.35720015        -7.51197194E-06
   7.36920023        -7.30811598E-06
   7.38119984        -7.11975281E-06
   7.39319992        -6.95342487E-06
   7.40520000        -6.81670144E-06
   7.41720009        -6.71793941E-06
   7.42920017        -6.66597089E-06
   7.44119978        -6.66972255E-06
   7.45319986        -6.73777913E-06
   7.46519995        -6.87792362E-06
   7.47720003        -7.09666529E-06
   7.48920012        -7.39879306E-06
   7.50120020        -7.78697813E-06
   7.51319981        -8.26145515E-06
   7.52519989        -8.81980486E-06
   7.53719997        -9.45687043E-06
   7.54920006        -1.01647956E-05
   7.56120014        -1.09332268E-05
   7.57320023        -1.17496365E-05
   7.58519983        -1.25997976E-05
   7.59719992        -1.34683460E-05
   7.60920000        -1.43394436E-05
   7.62120008        -1.51974746E-05
   7.63320017        -1.60277523E-05
   7.64519978        -1.68171991E-05
   7.65719986        -1.75549540E-05
   7.66919994        -1.82328549E-05
   7.68120003        -1.88458107E-05
   7.69320011        -1.93919932E-05
   7.70520020        -1.98728558E-05
   7.71719980        -2.02929841E-05
   7.72919989        -2.06597706E-05
   7.74119997        -2.09829250E-05
   7.75320005        -2.12738669E-05
   7.76520014        -2.15450127E-05
   7.77720022        -2.18090045E-05
   7.78919983        -2.20779057E-05
   7.80119991        -2.23624302E-05
   7.81320000        -2.26712364E-05
   7.82520008        -2.30102887E-05
   7.83720016        -2.33823830E-05
   7.84919977        -2.37868098E-05
   7.86119986        -2.42191873E-05
   7.87319994        -2.46714771E-05
   7.88520002        -2.51321962E-05
   7.89720011        -2.55867781E-05
   7.90920019        -2.60181096E-05
   7.92119980        -2.64072005E-05
   7.93319988        -2.67339510E-05
   7.94519997        -2.69780103E-05
   7.95720005        -2.71196568E-05
   7.96920013        -2.71406898E-05
   7.98120022        -2.70252694E-05
   7.99319983        -2.67606920E-05
   8.00520039        -2.63380225E-05
   8.01720047        -2.57526008E-05
   8.02919960        -2.50043522E-05
   8.04119968        -2.40979189E-05
   8.05319977        -2.30425667E-05
   8.06519985        -2.18519253E-05
   8.07719994        -2.05435008E-05
   8.08920002        -1.91380477E-05
   8.10120010        -1.76587910E-05
   8.11320019        -1.61305579E-05
   8.12520027        -1.45788463E-05
   8.13720036        -1.30289018E-05
   8.14920044        -1.15048006E-05
   8.16119957        -1.00286552E-05
   8.17319965        -8.61990884E-06
   8.18519974        -7.29479598E-06
   8.19719982        -6.06597678E-06
   8.20919991        -4.94235337E-06
   8.22119999        -3.92907441E-06
   8.23320007        -3.02771150E-06
   8.24520016        -2.23658822E-06
   8.25720024        -1.55123053E-06
   8.26920033        -9.64909077E-07
   8.28120041        -4.69230059E-07
   8.29319954        -5.47388765E-08
   8.30519962         2.88497887E-07
   8.31719971         5.70370673E-07
   8.32919979         8.00286443E-07
   8.34119987         9.86834266E-07
   8.35319996         1.13756846E-06
   8.36520004         1.25891358E-06
   8.37720013         1.35618450E-06
   8.38920021         1.43371005E-06
   8.40120029         1.49504137E-06
   8.41320038         1.54321663E-06
   8.42520046         1.58105672E-06
   8.43719959         1.61146318E-06
   8.44919968         1.63769027E-06
   8.46119976         1.66356870E-06
   8.47319984         1.69366126E-06
   8.48519993         1.73333422E-06
   8.49720001         1.78873847E-06
   8.50920010         1.86669536E-06
   8.52120018         1.97448958E-06
   8.53320026         2.11958081E-06
   8.54520035         2.30924502E-06
   8.55720043         2.55016448E-06
   8.56919956         2.84798944E-06
   8.58119965         3.20689765E-06
   8.59319973         3.62917694E-06
   8.60519981         4.11485553E-06
   8.61719990         4.66141182E-06
   8.62919998         5.26358008E-06
   8.64120007         5.91327716E-06
   8.65320015         6.59965917E-06
   8.66520023         7.30932106E-06
   8.67720032         8.02663999E-06
   8.68920040         8.73426052E-06
   8.70119953         9.41369672E-06
   8.71319962         1.00460538E-05
   8.72519970         1.06128091E-05
   8.73719978         1.10966466E-05
   8.74919987         1.14822888E-05
   8.76119995         1.17572827E-05
   8.77320004         1.19126989E-05
   8.78520012         1.19437054E-05
   8.79720020         1.18499638E-05
   8.80920029         1.16358342E-05
   8.82120037         1.13103470E-05
   8.83320045         1.08869499E-05
   8.84519958         1.03830189E-05
   8.85719967         9.81915309E-06
   8.86919975         9.21828814E-06
   8.88119984         8.60466207E-06
   8.89319992         8.00269663E-06
   8.90520000         7.43585042E-06
   8.91720009         6.92549884E-06
   8.92920017         6.48992182E-06
   8.94120026         6.14344117E-06
   8.95320034         5.89576075E-06
   8.96520042         5.75154991E-06
   8.97719955         5.71028295E-06
   8.98919964         5.76635330E-06
   9.00119972         5.90944046E-06
   9.01319981         6.12511985E-06
   9.02519989         6.39566906E-06
   9.03719997         6.70102827E-06
   9.04920006         7.01986119E-06
   9.06120014         7.33065599E-06
   9.07320023         7.61280899E-06
   9.08520031         7.84763233E-06