 -0.622799993         1.00000002E-24
 -0.610800028         1.00000002E-24
 -0.598800004         1.00000002E-24
 -0.586799979         1.00000002E-24
 -0.574800014         1.00000002E-24
 -0.562799990         1.33519362E-24
 -0.550800025        -3.05110863E-25
 -0.538800001        -3.55024515E-23
 -0.526799977        -2.64394343E-22
 -0.514800012        -1.21195298E-21
 -0.502799988        -4.16401832E-21
 -0.490799993        -1.16334318E-20
 -0.478799999        -2.76994999E-20
 -0.466800004        -5.80760923E-20
 -0.454800010        -1.10048522E-19
 -0.442799985        -1.92695950E-19
 -0.430799991        -3.17489238E-19
 -0.418799996        -4.97934398E-19
 -0.406800002        -7.44970440E-19
 -0.394800007        -1.05461609E-18
 -0.382800013        -1.38923061E-18
 -0.370799989        -1.66523079E-18
 -0.358799994        -1.77383258E-18
 -0.346799999        -1.66505429E-18
 -0.334800005        -1.50254567E-18
 -0.322800010        -1.83959323E-18
 -0.310799986        -3.69053496E-18
 -0.298799992        -8.32488548E-18
 -0.286799997        -1.66619586E-17
 -0.274800003        -2.83404750E-17
 -0.262800008        -4.08544306E-17
 -0.250800014        -4.94429311E-17
 -0.238800004        -4.84616567E-17
 -0.226799995        -3.45189848E-17
 -0.214800000        -1.06780547E-17
 -0.202800006         1.02102931E-17
 -0.190799996         5.82490413E-18
 -0.178800002        -4.92348654E-17
 -0.166800007        -1.70681824E-16
 -0.154799998        -3.48771136E-16
 -0.142800003        -5.36849641E-16
 -0.130799994        -6.53570146E-16
 -0.118799999        -6.05924860E-16
 -0.106799997        -3.32745061E-16
  -9.48000029E-02     1.43167137E-16
  -8.28000009E-02     6.77316873E-16
  -7.07999989E-02     1.00795227E-15
  -5.88000007E-02     8.22865456E-16
  -4.67999987E-02    -1.13002599E-16
  -3.48000005E-02    -1.80217822E-15
  -2.28000004E-02    -3.89415859E-15
  -1.08000003E-02    -5.67465657E-15
   1.20000006E-03    -6.22062267E-15
   1.31999999E-02    -4.72325392E-15
   2.52000000E-02    -9.03695005E-16
   3.72000001E-02     4.62806097E-15
   4.91999984E-02     1.02557106E-14
   6.12000003E-02     1.36303415E-14
   7.32000023E-02     1.23698777E-14
   8.51999968E-02     5.04574054E-15
   9.71999988E-02    -7.85674135E-15
  0.109200001        -2.34189482E-14
  0.121200003        -3.65841526E-14
  0.133200005        -4.14275412E-14
  0.145199999        -3.32108235E-14
  0.157199994        -1.06461699E-14
  0.169200003         2.24749351E-14
  0.181199998         5.71401243E-14
  0.193200007         8.09777457E-14
  0.205200002         8.19921049E-14
  0.217199996         5.32589855E-14
  0.229200006        -2.97898078E-15
  0.241200000        -7.35899650E-14
  0.253199995        -1.36546143E-13
  0.265199989        -1.66893680E-13
  0.277200013        -1.45474588E-13
  0.289200008        -6.77613076E-14
  0.301200002         5.06028935E-14
  0.313199997         1.74603997E-13
  0.325199991         2.58393811E-13
  0.337199986         2.60312198E-13
  0.349200010         1.60270912E-13
  0.361200005        -2.66650614E-14
  0.373199999        -2.46845594E-13
  0.385199994        -4.18859365E-13
  0.397199988        -4.58273664E-13
  0.409200013        -3.10439988E-13
  0.421200007         1.92104904E-14
  0.433200002         4.49863589E-13
  0.445199996         8.35102658E-13
  0.457199991         1.00096830E-12
  0.469199985         8.05554733E-13
  0.481200010         2.03412916E-13
  0.493200004        -7.08237342E-13
  0.505200028        -1.68373952E-12
  0.517199993        -2.37670864E-12
  0.529200017        -2.43790144E-12
  0.541199982        -1.64078744E-12
  0.553200006         3.24191527E-15
  0.565199971         2.18362329E-12
  0.577199996         4.31815955E-12
  0.589200020         5.68104591E-12
  0.601199985         5.61077703E-12
  0.613200009         3.74529574E-12
  0.625199974         2.11260249E-13
  0.637199998        -4.30524540E-12
  0.649200022        -8.65404016E-12
  0.661199987        -1.14838746E-11
  0.673200011        -1.16202230E-11
  0.685199976        -8.45843968E-12
  0.697200000        -2.25135405E-12
  0.709200025         5.81532262E-12
  0.721199989         1.38156916E-11
  0.733200014         1.95248227E-11
  0.745199978         2.10095760E-11
  0.757200003         1.72124676E-11
  0.769200027         8.35640758E-12
  0.781199992        -3.96589359E-12
  0.793200016        -1.70730131E-11
  0.805199981        -2.77969887E-11
  0.817200005        -3.32601099E-11
  0.829200029        -3.16209871E-11
  0.841199994        -2.25844708E-11
  0.853200018        -7.53175300E-12
  0.865199983         1.07665456E-11
  0.877200007         2.87720212E-11
  0.889199972         4.29576166E-11
  0.901199996         5.05270270E-11
  0.913200021         4.98856477E-11
  0.925199986         4.07620118E-11
  0.937200010         2.39968843E-11
  0.949199975         1.12628787E-12
  0.961199999        -2.60519523E-11
  0.973200023        -5.57418695E-11
  0.985199988        -8.61243438E-11
  0.997200012        -1.15029701E-10
   1.00919998        -1.39396175E-10
   1.02119994        -1.54658716E-10
   1.03320003        -1.54197363E-10
   1.04519999        -1.28883945E-10
   1.05719995        -6.66252886E-11
   1.06920004         4.83457337E-11
   1.08120000         2.36788394E-10
   1.09319997         5.26779786E-10
   1.10520005         9.57422253E-10
   1.11720002         1.58425018E-09
   1.12919998         2.48663445E-09
   1.14119995         3.77757159E-09
   1.15320003         5.61647040E-09
   1.16520000         8.22598345E-09
   1.17719996         1.19144179E-08
   1.18920004         1.71058900E-08
   1.20120001         2.43807712E-08
   1.21319997         3.45293252E-08
   1.22520006         4.86213168E-08
   1.23720002         6.80941596E-08
   1.24919999         9.48612708E-08
   1.26119995         1.31441823E-07
   1.27320004         1.81111702E-07
   1.28520000         2.48074855E-07
   1.29719996         3.37652779E-07
   1.30920005         4.56488891E-07
   1.32120001         6.12763131E-07
   1.33319998         8.16409340E-07
   1.34519994         1.07932726E-06
   1.35720003         1.41557507E-06
   1.36919999         1.84152896E-06
   1.38119996         2.37598738E-06
   1.39320004         3.04020023E-06
   1.40520000         3.85779867E-06
   1.41719997         4.85460032E-06
   1.42920005         6.05826654E-06
   1.44120002         7.49779656E-06
   1.45319998         9.20284856E-06
   1.46519995         1.12028747E-05
   1.47720003         1.35260943E-05
   1.48920000         1.61983098E-05
   1.50119996         1.92415991E-05
   1.51320004         2.26729371E-05
   1.52520001         2.65027993E-05
   1.53719997         3.07337759E-05
   1.54920006         3.53593459E-05
   1.56120002         4.03627782E-05
   1.57319999         4.57163733E-05
   1.58519995         5.13809646E-05
   1.59720004         5.73058751E-05
   1.60920000         6.34293174E-05
   1.62119997         6.96793068E-05
   1.63320005         7.59750328E-05
   1.64520001         8.22287329E-05
   1.65719998         8.83480607E-05
   1.66919994         9.42387051E-05
   1.68120003         9.98073738E-05
   1.69319999         1.04964893E-04
   1.70519996         1.09629240E-04
   1.71720004         1.13728544E-04
   1.72920001         1.17203708E-04
   1.74119997         1.20010649E-04
   1.75320005         1.22121928E-04
   1.76520002         1.23527803E-04
   1.77719998         1.24236554E-04
   1.78919995         1.24273953E-04
   1.80120003         1.23682141E-04
   1.81320000         1.22517784E-04
   1.82519996         1.20849523E-04
   1.83720005         1.18755102E-04
   1.84920001         1.16318035E-04
   1.86119998         1.13624199E-04
   1.87320006         1.10758432E-04
   1.88520002         1.07801359E-04
   1.89719999         1.04826533E-04
   1.90919995         1.01898157E-04
   1.92120004         9.90694462E-05
   1.93320000         9.63815837E-05
   1.94519997         9.38635494E-05
   1.95720005         9.15325072E-05
   1.96920002         8.93949764E-05
   1.98119998         8.74484249E-05
   1.99319994         8.56833576E-05
   2.00519991         8.40856083E-05
   2.01719999         8.26388059E-05
   2.02920008         8.13266088E-05
   2.04119992         8.01348942E-05
   2.05320001         7.90534323E-05
   2.06520009         7.80771297E-05
   2.07719994         7.72067651E-05
   2.08920002         7.64490906E-05
   2.10120010         7.58163951E-05
   2.11319995         7.53255736E-05
   2.12520003         7.49967585E-05
   2.13720012         7.48515886E-05
   2.14919996         7.49113460E-05
   2.16120005         7.51949847E-05
   2.17319989         7.57172529E-05
   2.18519998         7.64870420E-05
   2.19720006         7.75059598E-05
   2.20919991         7.87674580E-05
   2.22119999         8.02563081E-05
   2.23320007         8.19486741E-05
   2.24519992         8.38126216E-05
   2.25720000         8.58091589E-05
   2.26920009         8.78936844E-05
   2.28119993         9.00177256E-05
   2.29320002         9.21309693E-05
   2.30520010         9.41833787E-05
   2.31719995         9.61272672E-05
   2.32920003         9.79194156E-05
   2.34120011         9.95228547E-05
   2.35319996         1.00908444E-04
   2.36520004         1.02056147E-04
   2.37719989         1.02955884E-04
   2.38919997         1.03608058E-04
   2.40120006         1.04023682E-04
   2.41319990         1.04224164E-04
   2.42519999         1.04240797E-04
   2.43720007         1.04113918E-04
   2.44919991         1.03891922E-04
   2.46120000         1.03630002E-04
   2.47320008         1.03388782E-04
   2.48519993         1.03232836E-04
   2.49720001         1.03229097E-04
   2.50920010         1.03445236E-04
   2.52119994         1.03947918E-04
   2.53320003         1.04801067E-04
   2.54520011         1.06064115E-04
   2.55719995         1.07790220E-04
   2.56920004         1.10024550E-04
   2.58119988         1.12802649E-04
   2.59319997         1.16148884E-04
   2.60520005         1.20075274E-04
   2.61719990         1.24580387E-04
   2.62919998         1.29648848E-04
   2.64120007         1.35251219E-04
   2.65319991         1.41344455E-04
   2.66520000         1.47873056E-04
   2.67720008         1.54770736E-04
   2.68919992         1.61962904E-04
   2.70120001         1.69369479E-04
   2.71320009         1.76908477E-04
   2.72519994         1.84499630E-04
   2.73720002         1.92068430E-04
   2.74920011         1.99549861E-04
   2.76119995         2.06892146E-04
   2.77320004         2.14059866E-04
   2.78520012         2.21036287E-04
   2.79719996         2.27825076E-04
   2.80920005         2.34450825E-04
   2.82119989         2.40958441E-04
   2.83319998         2.47411634E-04
   2.84520006         2.53890117E-04
   2.85719991         2.60485744E-04
   2.86919999         2.67298194E-04
   2.88120008         2.74429563E-04
   2.89319992         2.81978864E-04
   2.90520000         2.90036376E-04
   2.91720009         2.98678118E-04
   2.92919993         3.07960610E-04
   2.94120002         3.17916478E-04
   2.95320010         3.28550814E-04
   2.96519995         3.39838560E-04
   2.97720003         3.51722876E-04
   2.98920012         3.64114851E-04
   3.00119996         3.76894430E-04
   3.01320004         3.89912078E-04
   3.02519989         4.02992038E-04
   3.03719997         4.15936025E-04
   3.04920006         4.28528117E-04
   3.06119990         4.40540025E-04
   3.07319999         4.51736647E-04
   3.08520007         4.61882446E-04
   3.09719992         4.70747444E-04
   3.10920000         4.78113274E-04
   3.12120008         4.83779440E-04
   3.13319993         4.87568585E-04
   3.14520001         4.89331724E-04
   3.15720010         4.88952966E-04
   3.16919994         4.86353121E-04
   3.18120003         4.81492782E-04
   3.19320011         4.74374276E-04
   3.20519996         4.65042714E-04
   3.21720004         4.53586021E-04
   3.22919989         4.40133532E-04
   3.24119997         4.24853759E-04
   3.25320005         4.07950778E-04
   3.26519990         3.89659603E-04
   3.27719998         3.70240567E-04
   3.28920007         3.49972950E-04
   3.30119991         3.29147646E-04
   3.31320000         3.08059709E-04
   3.32520008         2.87000526E-04
   3.33719993         2.66250048E-04
   3.34920001         2.46069365E-04
   3.36120009         2.26694232E-04
   3.37319994         2.08328944E-04
   3.38520002         1.91141880E-04
   3.39720011         1.75262147E-04
   3.40919995         1.60777723E-04
   3.42120004         1.47735162E-04
   3.43319988         1.36140923E-04
   3.44519997         1.25964012E-04
   3.45720005         1.17140029E-04
   3.46919990         1.09576315E-04
   3.48119998         1.03157960E-04
   3.49320006         9.77543314E-05
   3.50519991         9.32258263E-05
   3.51719999         8.94305485E-05
   3.52920008         8.62306115E-05
   3.54119992         8.34976745E-05
   3.55320001         8.11176287E-05
   3.56520009         7.89941478E-05
   3.57719994         7.70510815E-05
   3.58920002         7.52335764E-05
   3.60120010         7.35079302E-05
   3.61319995         7.18604351E-05
   3.62520003         7.02951293E-05
   3.63720012         6.88309083E-05
   3.64919996         6.74979383E-05
   3.66120005         6.63338797E-05
   3.67319989         6.53799507E-05
   3.68519998         6.46771077E-05
   3.69720006         6.42625819E-05
   3.70919991         6.41668375E-05
   3.72119999         6.44111205E-05
   3.73320007         6.50056318E-05
   3.74519992         6.59483994E-05
   3.75720000         6.72248207E-05
   3.76920009         6.88078435E-05
   3.78119993         7.06587234E-05
   3.79320002         7.27283259E-05
   3.80520010         7.49588144E-05
   3.81719995         7.72857238E-05
   3.82920003         7.96402237E-05
   3.84120011         8.19515699E-05
   3.85319996         8.41496003E-05
   3.86520004         8.61672306E-05
   3.87719989         8.79428626E-05
   3.88919997         8.94226250E-05
   3.90120006         9.05623674E-05
   3.91319990         9.13294134E-05
   3.92519999         9.17039652E-05
   3.93720007         9.16800855E-05
   3.94919991         9.12662799E-05
   3.96120000         9.04855697E-05
   3.97320008         8.93750475E-05
   3.98519993         8.79849395E-05
   3.99720001         8.63771347E-05
   4.00920010         8.46232288E-05
   4.02120018         8.28021221E-05
   4.03319979         8.09972262E-05
   4.04519987         7.92934734E-05
   4.05719995         7.77740570E-05
   4.06920004         7.65172008E-05
   4.08120012         7.55929650E-05
   4.09320021         7.50603358E-05
   4.10519981         7.49646279E-05
   4.11719990         7.53354034E-05
   4.12919998         7.61849224E-05
   4.14120007         7.75073422E-05
   4.15320015         7.92785286E-05
   4.16520023         8.14566883E-05
   4.17719984         8.39836648E-05
   4.18919992         8.67869094E-05
   4.20120001         8.97820792E-05
   4.21320009         9.28760855E-05
   4.22520018         9.59705139E-05
   4.23719978         9.89653781E-05
   4.24919987         1.01762787E-04
   4.26119995         1.04270723E-04
   4.27320004         1.06406544E-04
   4.28520012         1.08100103E-04
   4.29720020         1.09296474E-04
   4.30919981         1.09957975E-04
   4.32119989         1.10065601E-04
   4.33319998         1.09619665E-04
   4.34520006         1.08639630E-04
   4.35720015         1.07163243E-04
   4.36920023         1.05244828E-04
   4.38119984         1.02952989E-04
   4.39319992         1.00367746E-04
   4.40520000         9.75771909E-05
   4.41720009         9.46738801E-05
   4.42920017         9.17511425E-05
   4.44119978         8.88993600E-05
   4.45319986         8.62025481E-05
   4.46519995         8.37352709E-05
   4.47720003         8.15601015E-05
   4.48920012         7.97257235E-05
   4.50120020         7.82658026E-05
   4.51319981         7.71986452E-05
   4.52519989         7.65275981E-05
   4.53719997         7.62422787E-05
   4.54920006         7.63203279E-05
   4.56120014         7.67298479E-05
   4.57320023         7.74320215E-05
   4.58519983         7.83840514E-05
   4.59719992         7.95418819E-05
   4.60920000         8.08629047E-05
   4.62120008         8.23080991E-05
   4.63320017         8.38437554E-05
   4.64519978         8.54424870E-05
   4.65719986         8.70836593E-05
   4.66919994         8.87530841E-05
   4.68120003         9.04421031E-05
   4.69320011         9.21462270E-05
   4.70520020         9.38633239E-05
   4.71719980         9.55917203E-05
   4.72919989         9.73281494E-05
   4.74119997         9.90660265E-05
   4.75320005         1.00794008E-04
   4.76520014         1.02495091E-04
   4.77720022         1.04146260E-04
   4.78919983         1.05718820E-04
   4.80119991         1.07179338E-04
   4.81320000         1.08491215E-04
   4.82520008         1.09616631E-04
   4.83720016         1.10518879E-04
   4.84919977         1.11164773E-04
   4.86119986         1.11527006E-04
   4.87319994         1.11586283E-04
   4.88520002         1.11332978E-04
   4.89720011         1.10768255E-04
   4.90920019         1.09904620E-04
   4.92119980         1.08765707E-04
   4.93319988         1.07385429E-04
   4.94519997         1.05806575E-04
   4.95720005         1.04078877E-04
   4.96920013         1.02256781E-04
   4.98120022         1.00397046E-04
   4.99319983         9.85563966E-05
   5.00519991         9.67892047E-05
   5.01719999         9.51456168E-05
   5.02920008         9.36699798E-05
   5.04120016         9.23997650E-05
   5.05319977         9.13649201E-05
   5.06519985         9.05876732E-05
   5.07719994         9.00826708E-05
   5.08920002         8.98574508E-05
   5.10120010         8.99129882E-05
   5.11320019         9.02443862E-05
   5.12519979         9.08414513E-05
   5.13719988         9.16892677E-05
   5.14919996         9.27685687E-05
   5.16120005         9.40559548E-05
   5.17320013         9.55241267E-05
   5.18520021         9.71419504E-05
   5.19719982         9.88746397E-05
   5.20919991         1.00684047E-04
   5.22119999         1.02529120E-04
   5.23320007         1.04366751E-04
   5.24520016         1.06152758E-04
   5.25719976         1.07843298E-04
   5.26919985         1.09396526E-04
   5.28119993         1.10774352E-04
   5.29320002         1.11944370E-04
   5.30520010         1.12881622E-04
   5.31720018         1.13570168E-04
   5.32919979         1.14004215E-04
   5.34119987         1.14188741E-04
   5.35319996         1.14139482E-04
   5.36520004         1.13882197E-04
   5.37720013         1.13451279E-04
   5.38920021         1.12887705E-04
   5.40119982         1.12236550E-04
   5.41319990         1.11544046E-04
   5.42519999         1.10854649E-04
   5.43720007         1.10208093E-04
   5.44920015         1.09636771E-04
   5.46120024         1.09163688E-04
   5.47319984         1.08801083E-04
   5.48519993         1.08549830E-04
   5.49720001         1.08399749E-04
   5.50920010         1.08330765E-04
   5.52120018         1.08314831E-04
   5.53319979         1.08318534E-04
   5.54519987         1.08306020E-04
   5.55719995         1.08242239E-04
   5.56920004         1.08095985E-04
   5.58120012         1.07842759E-04
   5.59320021         1.07466978E-04
   5.60519981         1.06963511E-04
   5.61719990         1.06338426E-04
   5.62919998         1.05608822E-04
   5.64120007         1.04801817E-04
   5.65320015         1.03952814E-04
   5.66520023         1.03103128E-04
   5.67719984         1.02297206E-04
   5.68919992         1.01579695E-04
   5.70120001         1.00992460E-04
   5.71320009         1.00571902E-04
   5.72520018         1.00346784E-04
   5.73719978         1.00336438E-04
   5.74919987         1.00549827E-04
   5.76119995         1.00985191E-04
   5.77320004         1.01630438E-04
   5.78520012         1.02464051E-04
   5.79720020         1.03456565E-04
   5.80919981         1.04572297E-04
   5.82119989         1.05771331E-04
   5.83319998         1.07011496E-04
   5.84520006         1.08250184E-04
   5.85720015         1.09446039E-04
   5.86920023         1.10560213E-04
   5.88119984         1.11557398E-04
   5.89319992         1.12406400E-04
   5.90520000         1.13080561E-04
   5.91720009         1.13557871E-04
   5.92920017         1.13821021E-04
   5.94119978         1.13857437E-04
   5.95319986         1.13659320E-04
   5.96519995         1.13223905E-04
   5.97720003         1.12553840E-04
   5.98920012         1.11657631E-04
   6.00120020         1.10550362E-04
   6.01319981         1.09254252E-04
   6.02519989         1.07799293E-04
   6.03719997         1.06223597E-04
   6.04920006         1.04573417E-04
   6.06120014         1.02902872E-04
   6.07320023         1.01272948E-04
   6.08519983         9.97501047E-05
   6.09719992         9.84042417E-05
   6.10920000         9.73061251E-05
   6.12120008         9.65244108E-05
   6.13320017         9.61223559E-05
   6.14519978         9.61545084E-05
   6.15719986         9.66633888E-05
   6.16919994         9.76765878E-05
   6.18120003         9.92043060E-05
   6.19320011         1.01237696E-04
   6.20520020         1.03747981E-04
   6.21719980         1.06686566E-04
   6.22919989         1.09986133E-04
   6.24119997         1.13562674E-04
   6.25320005         1.17318414E-04
   6.26520014         1.21145342E-04
   6.27720022         1.24929444E-04
   6.28919983         1.28555024E-04
   6.30119991         1.31909110E-04
   6.31320000         1.34885704E-04
   6.32520008         1.37389565E-04
   6.33720016         1.39339376E-04
   6.34919977         1.40670221E-04
   6.36119986         1.41335317E-04
   6.37319994         1.41306897E-04
   6.38520002         1.40576318E-04
   6.39720011         1.39153577E-04
   6.40920019         1.37066148E-04
   6.42119980         1.34357368E-04
   6.43319988         1.31084584E-04
   6.44519997         1.27317006E-04
   6.45720005         1.23133534E-04
   6.46920013         1.18620570E-04
   6.48120022         1.13869879E-04
   6.49319983         1.08976594E-04
   6.50519991         1.04037281E-04
   6.51719999         9.91481793E-05
   6.52920008         9.44033818E-05
   6.54120016         8.98932194E-05
   6.55319977         8.57025298E-05
   6.56519985         8.19090128E-05
   6.57719994         7.85816956E-05
   6.58920002         7.57793969E-05
   6.60120010         7.35494104E-05
   6.61320019         7.19264426E-05
   6.62519979         7.09317974E-05
   6.63719988         7.05730199E-05
   6.64919996         7.08439038E-05
   6.66120005         7.17250514E-05
   6.67320013         7.31848850E-05
   6.68520021         7.51811167E-05
   6.69719982         7.76626621E-05
   6.70919991         8.05718009E-05
   6.72119999         8.38465785E-05
   6.73320007         8.74232646E-05
   6.74520016         9.12386240E-05
   6.75719976         9.52320042E-05
   6.76919985         9.93469948E-05
   6.78119993         1.03532540E-04
   6.79320002         1.07743537E-04
   6.80520010         1.11940804E-04
   6.81720018         1.16090479E-04
   6.82919979         1.20163022E-04
   6.84119987         1.24131766E-04
   6.85319996         1.27971318E-04
   6.86520004         1.31655921E-04
   6.87720013         1.35157985E-04
   6.88920021         1.38446849E-04
   6.90119982         1.41488141E-04
   6.91319990         1.44243488E-04
   6.92519999         1.46670980E-04
   6.93720007         1.48726132E-04
   6.94920015         1.50363427E-04
   6.96120024         1.51538319E-04
   6.97319984         1.52209526E-04
   6.98519993         1.52341425E-04
   6.99720001         1.51906483E-04
   7.00920010         1.50887470E-04
   7.02120018         1.49279193E-04
   7.03319979         1.47089901E-04
   7.04519987         1.44341917E-04
   7.05719995         1.41071723E-04
   7.06920004         1.37329363E-04
   7.08120012         1.33177149E-04
   7.09320021         1.28688029E-04
   7.10519981         1.23943348E-04
   7.11719990         1.19030483E-04
   7.12919998         1.14040282E-04
   7.14120007         1.09064640E-04
   7.15320015         1.04194121E-04
   7.16520023         9.95158844E-05
   7.17719984         9.51119218E-05
   7.18919992         9.10576637E-05
   7.20120001         8.74208781E-05
   7.21320009         8.42609224E-05
   7.22520018         8.16281608E-05
   7.23719978         7.95637025E-05
   7.24919987         7.80990958E-05
   7.26119995         7.72561689E-05
   7.27320004         7.70468978E-05
   7.28520012         7.74732107E-05
   7.29720020         7.85267839E-05
   7.30919981         8.01889328E-05
   7.32119989         8.24304516E-05
   7.33319998         8.52116063E-05
   7.34520006         8.84823166E-05
   7.35720015         9.21825558E-05
   7.36920023         9.62429694E-05
   7.38119984         1.00585959E-04
   7.39319992         1.05126892E-04
   7.40520000         1.09775807E-04
   7.41720009         1.14439274E-04
   7.42920017         1.19022559E-04
   7.44119978         1.23431775E-04
   7.45319986         1.27576161E-04
   7.46519995         1.31370296E-04
   7.47720003         1.34736081E-04
   7.48920012         1.37604497E-04
   7.50120020         1.39917072E-04
   7.51319981         1.41626981E-04
   7.52519989         1.42699806E-04
   7.53719997         1.43114070E-04
   7.54920006         1.42861230E-04
   7.56120014         1.41945653E-04
   7.57320023         1.40384145E-04
   7.58519983         1.38205636E-04
   7.59719992         1.35450391E-04
   7.60920000         1.32169444E-04
   7.62120008         1.28423795E-04
   7.63320017         1.24283571E-04
   7.64519978         1.19827222E-04
   7.65719986         1.15140443E-04
   7.66919994         1.10315108E-04
   7.68120003         1.05447929E-04
   7.69320011         1.00638936E-04
   7.70520020         9.59897734E-05
   7.71719980         9.16016434E-05
   7.72919989         8.75731785E-05
   7.74119997         8.39980057E-05
   7.75320005         8.09623234E-05
   7.76520014         7.85424345E-05
   7.77720022         7.68023601E-05
   7.78919983         7.57917223E-05
   7.80119991         7.55439250E-05
   7.81320000         7.60747716E-05
   7.82520008         7.73817155E-05
   7.83720016         7.94435764E-05
   7.84919977         8.22209477E-05
   7.86119986         8.56573024E-05
   7.87319994         8.96806014E-05
   7.88520002         9.42054976E-05
   7.89720011         9.91359702E-05
   7.90920019         1.04368242E-04
   7.92119980         1.09793946E-04
   7.93319988         1.15303214E-04
   7.94519997         1.20787779E-04
   7.95720005         1.26143801E-04
   7.96920013         1.31274312E-04
   7.98120022         1.36091316E-04
   7.99319983         1.40517455E-04
   8.00520039         1.44487101E-04
   8.01720047         1.47947067E-04
   8.02919960         1.50856882E-04
   8.04119968         1.53188710E-04
   8.05319977         1.54926907E-04
   8.06519985         1.56067428E-04
   8.07719994         1.56616908E-04
   8.08920002         1.56591821E-04
   8.10120010         1.56017297E-04
   8.11320019         1.54926194E-04
   8.12520027         1.53357891E-04
   8.13720036         1.51357337E-04
   8.14920044         1.48973952E-04
   8.16119957         1.46260616E-04
   8.17319965         1.43272744E-04
   8.18519974         1.40067306E-04
   8.19719982         1.36701827E-04
   8.20919991         1.33233552E-04
   8.22119999         1.29718392E-04
   8.23320007         1.26210158E-04
   8.24520016         1.22759579E-04
   8.25720024         1.19413577E-04
   8.26920033         1.16214556E-04
   8.28120041         1.13199778E-04
   8.29319954         1.10400855E-04
   8.30519962         1.07843414E-04
   8.31719971         1.05546860E-04
   8.32919979         1.03524311E-04
   8.34119987         1.01782636E-04
   8.35319996         1.00322643E-04
   8.36520004         9.91394481E-05
   8.37720013         9.82229612E-05
   8.38920021         9.75584626E-05
   8.40120029         9.71274276E-05
   8.41320038         9.69083267E-05
   8.42520046         9.68776367E-05
   8.43719959         9.70108231E-05
   8.44919968         9.72834750E-05
   8.46119976         9.76722877E-05
   8.47319984         9.81561388E-05
   8.48519993         9.87168823E-05
   8.49720001         9.93401190E-05
   8.50920010         1.00015663E-04
   8.52120018         1.00737692E-04
   8.53320026         1.01504644E-04
   8.54520035         1.02318729E-04
   8.55720043         1.03185143E-04
   8.56919956         1.04110928E-04
   8.58119965         1.05103631E-04
   8.59319973         1.06169726E-04
   8.60519981         1.07313041E-04
   8.61719990         1.08533219E-04
   8.62919998         1.09824316E-04
   8.64120007         1.11173715E-04
   8.65320015         1.12561494E-04
   8.66520023         1.13960254E-04
   8.67720032         1.15335461E-04
   8.68920040         1.16646457E-04
   8.70119953         1.17847987E-04
   8.71319962         1.18892160E-04
   8.72519970         1.19730845E-04
   8.73719978         1.20318313E-04
   8.74919987         1.20613855E-04
   8.76119995         1.20584366E-04
   8.77320004         1.20206641E-04
   8.78520012         1.19469150E-04
   8.79720020         1.18373246E-04
   8.80920029         1.16933727E-04
   8.82120037         1.15178620E-04
   8.83320045         1.13148199E-04
   8.84519958         1.10893430E-04
   8.85719967         1.08473716E-04
   8.86919975         1.05954263E-04
   8.88119984         1.03403159E-04
   8.89319992         1.00888392E-04
   8.90520000         9.84749277E-05
   8.91720009         9.62221602E-05
   8.92920017         9.41816761E-05
   8.94120026         9.23957123E-05
   8.95320034         9.08961374E-05
   8.96520042         8.97041318E-05
   8.97719955         8.88304639E-05
   8.98919964         8.82762979E-05
   9.00119972         8.80344087E-05
   9.01319981         8.80907173E-05
   9.02519989         8.84259280E-05
   9.03719997         8.90170923E-05
   9.04920006         8.98390354E-05
   9.06120014         9.08654692E-05
   9.07320023         9.20698076E-05
   9.08520031         9.34254567E-05