 -0.622799993         1.00000002E-24
 -0.610800028         1.00000002E-24
 -0.598800004         1.00000002E-24
 -0.586799979         1.00000002E-24
 -0.574800014         1.00000002E-24
 -0.562799990         7.49584655E-25
 -0.550800025         3.31858400E-24
 -0.538800001         4.00966291E-23
 -0.526799977         2.50939658E-22
 -0.514800012         1.05508422E-21
 -0.502799988         3.42677986E-21
 -0.490799993         9.25232696E-21
 -0.478799999         2.16964062E-20
 -0.466800004         4.54166133E-20
 -0.454800010         8.63065711E-20
 -0.442799985         1.50311590E-19
 -0.430799991         2.41058603E-19
 -0.418799996         3.56967467E-19
 -0.406800002         4.90143907E-19
 -0.394800007         6.30701901E-19
 -0.382800013         7.79291353E-19
 -0.370799989         9.65887531E-19
 -0.358799994         1.26517399E-18
 -0.346799999         1.79299980E-18
 -0.334800005         2.67195944E-18
 -0.322800010         3.97218624E-18
 -0.310799986         5.66132172E-18
 -0.298799992         7.61762207E-18
 -0.286799997         9.74755011E-18
 -0.274800003         1.21894766E-17
 -0.262800008         1.54944974E-17
 -0.250800014         2.06091404E-17
 -0.238800004         2.85172898E-17
 -0.226799995         3.95749906E-17
 -0.214800000         5.28495520E-17
 -0.202800006         6.60016080E-17
 -0.190799996         7.62112336E-17
 -0.178800002         8.21995183E-17
 -0.166800007         8.66060020E-17
 -0.154799998         9.72188616E-17
 -0.142800003         1.25390721E-16
 -0.130799994         1.80886626E-16
 -0.118799999         2.64396729E-16
 -0.106799997         3.61255132E-16
  -9.48000029E-02     4.41160673E-16
  -8.28000009E-02     4.67501201E-16
  -7.07999989E-02     4.15739282E-16
  -5.88000007E-02     2.94395989E-16
  -4.67999987E-02     1.57359796E-16
  -3.48000005E-02     9.60833213E-17
  -2.28000004E-02     2.06973546E-16
  -1.08000003E-02     5.41879693E-16
   1.20000006E-03     1.06289241E-15
   1.31999999E-02     1.62887570E-15
   2.52000000E-02     2.03346946E-15
   3.72000001E-02     2.09160959E-15
   4.91999984E-02     1.74153881E-15
   6.12000003E-02     1.10717445E-15
   7.32000023E-02     4.68463906E-16
   8.51999968E-02     1.23821248E-16
   9.71999988E-02     1.90775868E-16
  0.109200001         4.51408104E-16
  0.121200003         3.69894841E-16
  0.133200005        -6.40257011E-16
  0.145199999        -2.74412269E-15
  0.157199994        -5.20839035E-15
  0.169200003        -6.23028647E-15
  0.181199998        -3.36388187E-15
  0.193200007         5.36401740E-15
  0.205200002         1.99067888E-14
  0.217199996         3.68558875E-14
  0.229200006         4.91527358E-14
  0.241200000         4.75664159E-14
  0.253199995         2.40807266E-14
  0.265199989        -2.35575431E-14
  0.277200013        -8.77836690E-14
  0.289200008        -1.49792315E-13
  0.301200002        -1.82554845E-13
  0.313199997        -1.58786043E-13
  0.325199991        -6.23514979E-14
  0.337199986         1.00472263E-13
  0.349200010         2.94707130E-13
  0.361200005         4.59748125E-13
  0.373199999         5.23767282E-13
  0.385199994         4.27394909E-13
  0.397199988         1.50240023E-13
  0.409200013        -2.69233529E-13
  0.421200007        -7.30057616E-13
  0.433200002        -1.08725106E-12
  0.445199996        -1.19143454E-12
  0.457199991        -9.40296994E-13
  0.469199985        -3.25954866E-13
  0.481200010         5.39922057E-13
  0.493200004         1.43720582E-12
  0.505200028         2.08840866E-12
  0.517199993         2.23990748E-12
  0.529200017         1.75073508E-12
  0.541199982         6.59499636E-13
  0.553200006        -7.97518193E-13
  0.565199971        -2.23151207E-12
  0.577199996        -3.20428645E-12
  0.589200020        -3.36323786E-12
  0.601199985        -2.56716415E-12
  0.613200009        -9.59197674E-13
  0.625199974         1.04478123E-12
  0.637199998         2.85928529E-12
  0.649200022         3.90082975E-12
  0.661199987         3.77897540E-12
  0.673200011         2.44545768E-12
  0.685199976         2.47113934E-13
  0.697200000        -2.14555240E-12
  0.709200025        -3.92401259E-12
  0.721199989        -4.39259870E-12
  0.733200014        -3.20938675E-12
  0.745199978        -5.37991147E-13
  0.757200003         2.94697925E-12
  0.769200027         6.21562914E-12
  0.781199992         8.16390705E-12
  0.793200016         7.94172193E-12
  0.805199981         5.22942974E-12
  0.817200005         3.74449576E-13
  0.829200029        -5.66078261E-12
  0.841199994        -1.15311051E-11
  0.853200018        -1.58555634E-11
  0.865199983        -1.75750369E-11
  0.877200007        -1.62104739E-11
  0.889199972        -1.19411044E-11
  0.901199996        -5.47859718E-12
  0.913200021         2.22080340E-12
  0.925199986         1.03101356E-11
  0.937200010         1.83515529E-11
  0.949199975         2.64560977E-11
  0.961199999         3.52045407E-11
  0.973200023         4.53543314E-11
  0.985199988         5.73953732E-11
  0.997200012         7.10484727E-11
   1.00919998         8.47924300E-11
   1.02119994         9.54601884E-11
   1.03320003         9.78749304E-11
   1.04519999         8.44234335E-11
   1.05719995         4.44069330E-11
   1.06920004        -3.70251607E-11
   1.08120000        -1.80565937E-10
   1.09319997        -4.15285611E-10
   1.10520005        -7.82265197E-10
   1.11720002        -1.33967659E-09
   1.12919998        -2.16979679E-09
   1.14119995        -3.38866601E-09
   1.15320003        -5.15934895E-09
   1.16520000        -7.71006992E-09
   1.17719996        -1.13587584E-08
   1.18920004        -1.65458580E-08
   1.20120001        -2.38774689E-08
   1.21319997        -3.41811379E-08
   1.22520006        -4.85768545E-08
   1.23720002        -6.85657611E-08
   1.24919999        -9.61389830E-08
   1.26119995        -1.33908742E-07
   1.27320004        -1.85263033E-07
   1.28520000        -2.54544005E-07
   1.29719996        -3.47248516E-07
   1.30920005        -4.70247585E-07
   1.32120001        -6.32017361E-07
   1.33319998        -8.42874158E-07
   1.34519994        -1.11520058E-06
   1.35720003        -1.46364755E-06
   1.36919999        -1.90529670E-06
   1.38119996        -2.45976207E-06
   1.39320004        -3.14921090E-06
   1.40520000        -3.99828423E-06
   1.41719997        -5.03389128E-06
   1.42920005        -6.28486350E-06
   1.44120002        -7.78145386E-06
   1.45319998        -9.55466658E-06
   1.46519995        -1.16354131E-05
   1.47720003        -1.40535112E-05
   1.48920000        -1.68365277E-05
   1.50119996        -2.00085051E-05
   1.51320004        -2.35886000E-05
   1.52520001        -2.75896909E-05
   1.53719997        -3.20170111E-05
   1.54920006        -3.68668771E-05
   1.56120002        -4.21255754E-05
   1.57319999        -4.77685062E-05
   1.58519995        -5.37596134E-05
   1.59720004        -6.00512176E-05
   1.60920000        -6.65842454E-05
   1.62119997        -7.32889675E-05
   1.63320005        -8.00861817E-05
   1.64520001        -8.68888892E-05
   1.65719998        -9.36043871E-05
   1.66919994        -1.00136807E-04
   1.68120003        -1.06389845E-04
   1.69319999        -1.12269823E-04
   1.70519996        -1.17688680E-04
   1.71720004        -1.22567028E-04
   1.72920001        -1.26836967E-04
   1.74119997        -1.30444503E-04
   1.75320005        -1.33351568E-04
   1.76520002        -1.35537513E-04
   1.77719998        -1.36999864E-04
   1.78919995        -1.37754294E-04
   1.80120003        -1.37834184E-04
   1.81320000        -1.37289127E-04
   1.82519996        -1.36182964E-04
   1.83720005        -1.34591217E-04
   1.84920001        -1.32598201E-04
   1.86119998        -1.30293658E-04
   1.87320006        -1.27769410E-04
   1.88520002        -1.25115956E-04
   1.89719999        -1.22419369E-04
   1.90919995        -1.19758428E-04
   1.92120004        -1.17202340E-04
   1.93320000        -1.14808914E-04
   1.94519997        -1.12623471E-04
   1.95720005        -1.10678367E-04
   1.96920002        -1.08993205E-04
   1.98119998        -1.07575557E-04
   1.99319994        -1.06422332E-04
   2.00519991        -1.05521482E-04
   2.01719999        -1.04854014E-04
   2.02920008        -1.04396175E-04
   2.04119992        -1.04121682E-04
   2.05320001        -1.04003811E-04
   2.06520009        -1.04017279E-04
   2.07719994        -1.04139792E-04
   2.08920002        -1.04353261E-04
   2.10120010        -1.04644554E-04
   2.11319995        -1.05005834E-04
   2.12520003        -1.05434476E-04
   2.13720012        -1.05932617E-04
   2.14919996        -1.06506413E-04
   2.16120005        -1.07165062E-04
   2.17319989        -1.07919623E-04
   2.18519998        -1.08781853E-04
   2.19720006        -1.09762965E-04
   2.20919991        -1.10872519E-04
   2.22119999        -1.12117457E-04
   2.23320007        -1.13501294E-04
   2.24519992        -1.15023548E-04
   2.25720000        -1.16679432E-04
   2.26920009        -1.18459720E-04
   2.28119993        -1.20350931E-04
   2.29320002        -1.22335652E-04
   2.30520010        -1.24393104E-04
   2.31719995        -1.26499901E-04
   2.32920003        -1.28630927E-04
   2.34120011        -1.30760265E-04
   2.35319996        -1.32862391E-04
   2.36520004        -1.34913193E-04
   2.37719989        -1.36891147E-04
   2.38919997        -1.38778472E-04
   2.40120006        -1.40562144E-04
   2.41319990        -1.42234800E-04
   2.42519999        -1.43795565E-04
   2.43720007        -1.45250553E-04
   2.44919991        -1.46613296E-04
   2.46120000        -1.47904662E-04
   2.47320008        -1.49152693E-04
   2.48519993        -1.50391992E-04
   2.49720001        -1.51662738E-04
   2.50920010        -1.53009561E-04
   2.52119994        -1.54479887E-04
   2.53320003        -1.56122260E-04
   2.54520011        -1.57984367E-04
   2.55719995        -1.60110954E-04
   2.56920004        -1.62541895E-04
   2.58119988        -1.65310223E-04
   2.59319997        -1.68440441E-04
   2.60520005        -1.71947089E-04
   2.61719990        -1.75833673E-04
   2.62919998        -1.80092058E-04
   2.64120007        -1.84702236E-04
   2.65319991        -1.89632672E-04
   2.66520000        -1.94840934E-04
   2.67720008        -2.00274779E-04
   2.68919992        -2.05873526E-04
   2.70120001        -2.11569728E-04
   2.71320009        -2.17290784E-04
   2.72519994        -2.22960836E-04
   2.73720002        -2.28502264E-04
   2.74920011        -2.33837287E-04
   2.76119995        -2.38889246E-04
   2.77320004        -2.43583287E-04
   2.78520012        -2.47847260E-04
   2.79719996        -2.51611869E-04
   2.80920005        -2.54810875E-04
   2.82119989        -2.57381005E-04
   2.83319998        -2.59261695E-04
   2.84520006        -2.60395289E-04
   2.85719991        -2.60726636E-04
   2.86919999        -2.60203844E-04
   2.88120008        -2.58778600E-04
   2.89319992        -2.56407424E-04
   2.90520000        -2.53052771E-04
   2.91720009        -2.48685014E-04
   2.92919993        -2.43284507E-04
   2.94120002        -2.36843858E-04
   2.95320010        -2.29370315E-04
   2.96519995        -2.20888120E-04
   2.97720003        -2.11440492E-04
   2.98920012        -2.01091345E-04
   3.00119996        -1.89926184E-04
   3.01320004        -1.78052360E-04
   3.02519989        -1.65598467E-04
   3.03719997        -1.52712819E-04
   3.04920006        -1.39560841E-04
   3.06119990        -1.26321858E-04
   3.07319999        -1.13184804E-04
   3.08520007        -1.00343495E-04
   3.09719992        -8.79913423E-05
   3.10920000        -7.63158168E-05
   3.12120008        -6.54928881E-05
   3.13319993        -5.56816958E-05
   3.14520001        -4.70196501E-05
   3.15720010        -3.96181640E-05
   3.16919994        -3.35592631E-05
   3.18120003        -2.88931187E-05
   3.19320011        -2.56366511E-05
   3.20519996        -2.37732402E-05
   3.21720004        -2.32534894E-05
   3.22919989        -2.39970486E-05
   3.24119997        -2.58953642E-05
   3.25320005        -2.88152678E-05
   3.26519990        -3.26032532E-05
   3.27719998        -3.70903072E-05
   3.28920007        -4.20971119E-05
   3.30119991        -4.74394474E-05
   3.31320000        -5.29336721E-05
   3.32520008        -5.84020490E-05
   3.33719993        -6.36778423E-05
   3.34920001        -6.86099083E-05
   3.36120009        -7.30668544E-05
   3.37319994        -7.69403559E-05
   3.38520002        -8.01479400E-05
   3.39720011        -8.26347168E-05
   3.40919995        -8.43743328E-05
   3.42120004        -8.53689562E-05
   3.43319988        -8.56483166E-05
   3.44519997        -8.52678058E-05
   3.45720005        -8.43056914E-05
   3.46919990        -8.28595512E-05
   3.48119998        -8.10419806E-05
   3.49320006        -7.89758778E-05
   3.50519991        -7.67892270E-05
   3.51719999        -7.46098449E-05
   3.52920008        -7.25600912E-05
   3.54119992        -7.07518557E-05
   3.55320001        -6.92819885E-05
   3.56520009        -6.82284299E-05
   3.57719994        -6.76470881E-05
   3.58920002        -6.75697011E-05
   3.60120010        -6.80027297E-05
   3.61319995        -6.89273729E-05
   3.62520003        -7.03006444E-05
   3.63720012        -7.20574753E-05
   3.64919996        -7.41137483E-05
   3.66120005        -7.63700955E-05
   3.67319989        -7.87163735E-05
   3.68519998        -8.10363563E-05
   3.69720006        -8.32128644E-05
   3.70919991        -8.51326113E-05
   3.72119999        -8.66910486E-05
   3.73320007        -8.77965867E-05
   3.74519992        -8.83743633E-05
   3.75720000        -8.83692192E-05
   3.76920009        -8.77478524E-05
   3.78119993        -8.65001493E-05
   3.79320002        -8.46394687E-05
   3.80520010        -8.22021902E-05
   3.81719995        -7.92462379E-05
   3.82920003        -7.58489550E-05
   3.84120011        -7.21041724E-05
   3.85319996        -6.81188321E-05
   3.86520004        -6.40090075E-05
   3.87719989        -5.98957486E-05
   3.88919997        -5.59006912E-05
   3.90120006        -5.21417242E-05
   3.91319990        -4.87287398E-05
   3.92519999        -4.57597562E-05
   3.93720007        -4.33174137E-05
   3.94919991        -4.14661190E-05
   3.96120000        -4.02498190E-05
   3.97320008        -3.96905925E-05
   3.98519993        -3.97880503E-05
   3.99720001        -4.05196333E-05
   4.00920010        -4.18417476E-05
   4.02120018        -4.36917326E-05
   4.03319979        -4.59905532E-05
   4.04519987        -4.86461176E-05
   4.05719995        -5.15570609E-05
   4.06920004        -5.46168412E-05
   4.08120012        -5.77179308E-05
   4.09320021        -6.07559232E-05
   4.10519981        -6.36333934E-05
   4.11719990        -6.62632228E-05
   4.12919998        -6.85714331E-05
   4.14120007        -7.04991908E-05
   4.15320015        -7.20041062E-05
   4.16520023        -7.30606043E-05
   4.17719984        -7.36595830E-05
   4.18919992        -7.38073068E-05
   4.20120001        -7.35236754E-05
   4.21320009        -7.28400410E-05
   4.22520018        -7.17967196E-05
   4.23719978        -7.04403647E-05
   4.24919987        -6.88214495E-05
   4.26119995        -6.69918809E-05
   4.27320004        -6.50030197E-05
   4.28520012        -6.29040514E-05
   4.29720020        -6.07408729E-05
   4.30919981        -5.85554044E-05
   4.32119989        -5.63853864E-05
   4.33319998        -5.42644957E-05
   4.34520006        -5.22228038E-05
   4.35720015        -5.02874100E-05
   4.36920023        -4.84831362E-05
   4.38119984        -4.68331964E-05
   4.39319992        -4.53597386E-05
   4.40520000        -4.40841213E-05
   4.41720009        -4.30269902E-05
   4.42920017        -4.22079756E-05
   4.44119978        -4.16451221E-05
   4.45319986        -4.13541165E-05
   4.46519995        -4.13472662E-05
   4.47720003        -4.16324983E-05
   4.48920012        -4.22122794E-05
   4.50120020        -4.30827422E-05
   4.51319981        -4.42329474E-05
   4.52519989        -4.56444905E-05
   4.53719997        -4.72913744E-05
   4.54920006        -4.91402643E-05
   4.56120014        -5.11511280E-05
   4.57320023        -5.32782069E-05
   4.58519983        -5.54713042E-05
   4.59719992        -5.76773673E-05
   4.60920000        -5.98421939E-05
   4.62120008        -6.19123311E-05
   4.63320017        -6.38369165E-05
   4.64519978        -6.55694967E-05
   4.65719986        -6.70696463E-05
   4.66919994        -6.83043982E-05
   4.68120003        -6.92493340E-05
   4.69320011        -6.98894146E-05
   4.70520020        -7.02193502E-05
   4.71719980        -7.02436664E-05
   4.72919989        -6.99763987E-05
   4.74119997        -6.94403279E-05
   4.75320005        -6.86659623E-05
   4.76520014        -6.76901618E-05
   4.77720022        -6.65545740E-05
   4.78919983        -6.53037787E-05
   4.80119991        -6.39834980E-05
   4.81320000        -6.26386391E-05
   4.82520008        -6.13115626E-05
   4.83720016        -6.00404237E-05
   4.84919977        -5.88578187E-05
   4.86119986        -5.77896863E-05
   4.87319994        -5.68546639E-05
   4.88520002        -5.60637782E-05
   4.89720011        -5.54206199E-05
   4.90920019        -5.49219258E-05
   4.92119980        -5.45585899E-05
   4.93319988        -5.43170027E-05
   4.94519997        -5.41806730E-05
   4.95720005        -5.41319860E-05
   4.96920013        -5.41539848E-05
   4.98120022        -5.42320668E-05
   4.99319983        -5.43554306E-05
   5.00519991        -5.45181611E-05
   5.01719999        -5.47198906E-05
   5.02920008        -5.49659489E-05
   5.04120016        -5.52669990E-05
   5.05319977        -5.56380946E-05
   5.06519985        -5.60973276E-05
   5.07719994        -5.66640556E-05
   5.08920002        -5.73568577E-05
   5.10120010        -5.81913773E-05
   5.11320019        -5.91782045E-05
   5.12519979        -6.03209737E-05
   5.13719988        -6.16148172E-05
   5.14919996        -6.30453578E-05
   5.16120005        -6.45882756E-05
   5.17320013        -6.62095918E-05
   5.18520021        -6.78666111E-05
   5.19719982        -6.95094786E-05
   5.20919991        -7.10833629E-05
   5.22119999        -7.25310383E-05
   5.23320007        -7.37957162E-05
   5.24520016        -7.48240855E-05
   5.25719976        -7.55691508E-05
   5.26919985        -7.59928807E-05
   5.28119993        -7.60684270E-05
   5.29320002        -7.57817033E-05
   5.30520010        -7.51323678E-05
   5.31720018        -7.41340555E-05
   5.32919979        -7.28138839E-05
   5.34119987        -7.12112960E-05
   5.35319996        -6.93762777E-05
   5.36520004        -6.73671748E-05
   5.37720013        -6.52480812E-05
   5.38920021        -6.30861323E-05
   5.40119982        -6.09487579E-05
   5.41319990        -5.89010597E-05
   5.42519999        -5.70034281E-05
   5.43720007        -5.53095488E-05
   5.44920015        -5.38648528E-05
   5.46120024        -5.27054108E-05
   5.47319984        -5.18573252E-05
   5.48519993        -5.13365885E-05
   5.49720001        -5.11493090E-05
   5.50920010        -5.12922743E-05
   5.52120018        -5.17537446E-05
   5.53319979        -5.25144060E-05
   5.54519987        -5.35483996E-05
   5.55719995        -5.48243806E-05
   5.56920004        -5.63065150E-05
   5.58120012        -5.79554726E-05
   5.59320021        -5.97293438E-05
   5.60519981        -6.15844401E-05
   5.61719990        -6.34761454E-05
   5.62919998        -6.53596944E-05
   5.64120007        -6.71909511E-05
   5.65320015        -6.89272711E-05
   5.66520023        -7.05283819E-05
   5.67719984        -7.19573436E-05
   5.68919992        -7.31815817E-05
   5.70120001        -7.41738477E-05
   5.71320009        -7.49133033E-05
   5.72520018        -7.53863133E-05
   5.73719978        -7.55872243E-05
   5.74919987        -7.55188521E-05
   5.76119995        -7.51926054E-05
   5.77320004        -7.46283549E-05
   5.78520012        -7.38538438E-05
   5.79720020        -7.29037129E-05
   5.80919981        -7.18181618E-05
   5.82119989        -7.06412757E-05
   5.83319998        -6.94190312E-05
   5.84520006        -6.81972233E-05
   5.85720015        -6.70192749E-05
   5.86920023        -6.59241559E-05
   5.88119984        -6.49445356E-05
   5.89319992        -6.41052538E-05
   5.90520000        -6.34223034E-05
   5.91720009        -6.29022761E-05
   5.92920017        -6.25424291E-05
   5.94119978        -6.23312153E-05
   5.95319986        -6.22494335E-05
   5.96519995        -6.22717052E-05
   5.97720003        -6.23682718E-05
   5.98920012        -6.25070679E-05
   6.00120020        -6.26557594E-05
   6.01319981        -6.27837289E-05
   6.02519989        -6.28638882E-05
   6.03719997        -6.28741473E-05
   6.04920006        -6.27984482E-05
   6.06120014        -6.26274268E-05
   6.07320023        -6.23585147E-05
   6.08519983        -6.19956481E-05
   6.09719992        -6.15485478E-05
   6.10920000        -6.10317657E-05
   6.12120008        -6.04634552E-05
   6.13320017        -5.98641709E-05
   6.14519978        -5.92556207E-05
   6.15719986        -5.86596398E-05
   6.16919994        -5.80972228E-05
   6.18120003        -5.75878985E-05
   6.19320011        -5.71492819E-05
   6.20520020        -5.67968527E-05
   6.21719980        -5.65438640E-05
   6.22919989        -5.64014299E-05
   6.24119997        -5.63786125E-05
   6.25320005        -5.64824841E-05
   6.26520014        -5.67181414E-05
   6.27720022        -5.70885350E-05
   6.28919983        -5.75942031E-05
   6.30119991        -5.82328103E-05
   6.31320000        -5.89985611E-05
   6.32520008        -5.98816041E-05
   6.33720016        -6.08673581E-05
   6.34919977        -6.19360435E-05
   6.36119986        -6.30623399E-05
   6.37319994        -6.42154264E-05
   6.38520002        -6.53593015E-05
   6.39720011        -6.64536274E-05
   6.40920019        -6.74549228E-05
   6.42119980        -6.83182079E-05
   6.43319988        -6.89989829E-05
   6.44519997        -6.94555129E-05
   6.45720005        -6.96511197E-05
   6.46920013        -6.95565541E-05
   6.48120022        -6.91521054E-05
   6.49319983        -6.84293773E-05
   6.50519991        -6.73925970E-05
   6.51719999        -6.60592850E-05
   6.52920008        -6.44601823E-05
   6.54120016        -6.26385881E-05
   6.55319977        -6.06487592E-05
   6.56519985        -5.85538692E-05
   6.57719994        -5.64232105E-05
   6.58920002        -5.43291062E-05
   6.60120010        -5.23435629E-05
   6.61320019        -5.05348653E-05
   6.62519979        -4.89644117E-05
   6.63719988        -4.76839086E-05
   6.64919996        -4.67330829E-05
   6.66120005        -4.61381351E-05
   6.67320013        -4.59108960E-05
   6.68520021        -4.60488191E-05
   6.69719982        -4.65357007E-05
   6.70919991        -4.73431501E-05
   6.72119999        -4.84326229E-05
   6.73320007        -4.97579058E-05
   6.74520016        -5.12678780E-05
   6.75719976        -5.29094032E-05
   6.76919985        -5.46300580E-05
   6.78119993        -5.63806534E-05
   6.79320002        -5.81172862E-05
   6.80520010        -5.98028601E-05
   6.81720018        -6.14079690E-05
   6.82919979        -6.29112110E-05
   6.84119987        -6.42988452E-05
   6.85319996        -6.55639160E-05
   6.86520004        -6.67050335E-05
   6.87720013        -6.77248245E-05
   6.88920021        -6.86282583E-05
   6.90119982        -6.94210103E-05
   6.91319990        -7.01078970E-05
   6.92519999        -7.06916253E-05
   6.93720007        -7.11718239E-05
   6.94920015        -7.15444985E-05
   6.96120024        -7.18019510E-05
   6.97319984        -7.19331147E-05
   6.98519993        -7.19242962E-05
   6.99720001        -7.17603325E-05
   7.00920010        -7.14259295E-05
   7.02120018        -7.09070955E-05
   7.03319979        -7.01926983E-05
   7.04519987        -6.92758185E-05
   7.05719995        -6.81549063E-05
   7.06920004        -6.68346038E-05
   7.08120012        -6.53263050E-05
   7.09320021        -6.36482800E-05
   7.10519981        -6.18254126E-05
   7.11719990        -5.98886581E-05
   7.12919998        -5.78741456E-05
   7.14120007        -5.58220199E-05
   7.15320015        -5.37751439E-05
   7.16520023        -5.17776352E-05
   7.17719984        -4.98734153E-05
   7.18919992        -4.81048155E-05
   7.20120001        -4.65112607E-05
   7.21320009        -4.51282031E-05
   7.22520018        -4.39862561E-05
   7.23719978        -4.31105400E-05
   7.24919987        -4.25202888E-05
   7.26119995        -4.22286903E-05
   7.27320004        -4.22428529E-05
   7.28520012        -4.25639591E-05
   7.29720020        -4.31874760E-05
   7.30919981        -4.41034645E-05
   7.32119989        -4.52968816E-05
   7.33319998        -4.67479003E-05
   7.34520006        -4.84321718E-05
   7.35720015        -5.03210831E-05
   7.36920023        -5.23819763E-05
   7.38119984        -5.45783696E-05
   7.39319992        -5.68701798E-05
   7.40520000        -5.92140277E-05
   7.41720009        -6.15636236E-05
   7.42920017        -6.38703059E-05
   7.44119978        -6.60837759E-05
   7.45319986        -6.81529709E-05
   7.46519995        -7.00271630E-05
   7.47720003        -7.16572395E-05
   7.48920012        -7.29970998E-05
   7.50120020        -7.40052201E-05
   7.51319981        -7.46462174E-05
   7.52519989        -7.48923921E-05
   7.53719997        -7.47252634E-05
   7.54920006        -7.41368203E-05
   7.56120014        -7.31305990E-05
   7.57320023        -7.17223738E-05
   7.58519983        -6.99404045E-05
   7.59719992        -6.78253127E-05
   7.60920000        -6.54292744E-05
   7.62120008        -6.28148628E-05
   7.63320017        -6.00532148E-05
   7.64519978        -5.72218851E-05
   7.65719986        -5.44022296E-05
   7.66919994        -5.16765576E-05
   7.68120003        -4.91250539E-05
   7.69320011        -4.68227263E-05
   7.70520020        -4.48363826E-05
   7.71719980        -4.32218731E-05
   7.72919989        -4.20216857E-05
   7.74119997        -4.12630725E-05
   7.75320005        -4.09567438E-05
   7.76520014        -4.10962930E-05
   7.77720022        -4.16583716E-05
   7.78919983        -4.26036240E-05
   7.80119991        -4.38783973E-05
   7.81320000        -4.54170913E-05
   7.82520008        -4.71451021E-05
   7.83720016        -4.89821869E-05
   7.84919977        -5.08461053E-05
   7.86119986        -5.26563235E-05
   7.87319994        -5.43376336E-05
   7.88520002        -5.58235261E-05
   7.89720011        -5.70590310E-05
   7.90920019        -5.80030974E-05
   7.92119980        -5.86301867E-05
   7.93319988        -5.89311348E-05
   7.94519997        -5.89132324E-05
   7.95720005        -5.85994676E-05
   7.96920013        -5.80270935E-05
   7.98120022        -5.72455137E-05
   7.99319983        -5.63136600E-05
   8.00520039        -5.52970196E-05
   8.01720047        -5.42644557E-05
   8.02919960        -5.32850136E-05
   8.04119968        -5.24248280E-05
   8.05319977        -5.17443623E-05
   8.06519985        -5.12960250E-05
   8.07719994        -5.11222934E-05
   8.08920002        -5.12543702E-05
   8.10120010        -5.17114531E-05
   8.11320019        -5.25005162E-05
   8.12520027        -5.36166845E-05
   8.13720036        -5.50439690E-05
   8.14920044        -5.67564821E-05
   8.16119957        -5.87198883E-05
   8.17319965        -6.08930532E-05
   8.18519974        -6.32297742E-05
   8.19719982        -6.56805350E-05
   8.20919991        -6.81941456E-05
   8.22119999        -7.07192667E-05
   8.23320007        -7.32057742E-05
   8.24520016        -7.56058507E-05
   8.25720024        -7.78750327E-05
   8.26920033        -7.99729387E-05
   8.28120041        -8.18639601E-05
   8.29319954        -8.35177416E-05
   8.30519962        -8.49096177E-05
   8.31719971        -8.60209329E-05
   8.32919979        -8.68392963E-05
   8.34119987        -8.73587196E-05
   8.35319996        -8.75797268E-05
   8.36520004        -8.75093101E-05
   8.37720013        -8.71608645E-05
   8.38920021        -8.65538750E-05
   8.40120029        -8.57136038E-05
   8.41320038        -8.46705225E-05
   8.42520046        -8.34595994E-05
   8.43719959        -8.21194262E-05
   8.44919968        -8.06911266E-05
   8.46119976        -7.92171995E-05
   8.47319984        -7.77401801E-05
   8.48519993        -7.63012576E-05
   8.49720001        -7.49390092E-05
   8.50920010        -7.36881120E-05
   8.52120018        -7.25782666E-05
   8.53320026        -7.16333598E-05
   8.54520035        -7.08708030E-05
   8.55720043        -7.03012265E-05
   8.56919956        -6.99283701E-05
   8.58119965        -6.97493451E-05
   8.59319973        -6.97550495E-05
   8.60519981        -6.99308366E-05
   8.61719990        -7.02573743E-05
   8.62919998        -7.07116342E-05
   8.64120007        -7.12678448E-05
   8.65320015        -7.18985684E-05
   8.66520023        -7.25756545E-05
   8.67720032        -7.32710323E-05
   8.68920040        -7.39574098E-05
   8.70119953        -7.46087971E-05
   8.71319962        -7.52008491E-05
   8.72519970        -7.57110611E-05
   8.73719978        -7.61188712E-05
   8.74919987        -7.64057477E-05
   8.76119995        -7.65552177E-05
   8.77320004        -7.65529403E-05
   8.78520012        -7.63868884E-05
   8.79720020        -7.60475305E-05
   8.80920029        -7.55281726E-05
   8.82120037        -7.48253151E-05
   8.83320045        -7.39390525E-05
   8.84519958        -7.28735904E-05
   8.85719967        -7.16376671E-05
   8.86919975        -7.02449324E-05
   8.88119984        -6.87143038E-05
   8.89319992        -6.70700465E-05
   8.90520000        -6.53417374E-05
   8.91720009        -6.35638935E-05
   8.92920017        -6.17754413E-05
   8.94120026        -6.00187668E-05
   8.95320034        -5.83385554E-05
   8.96520042        -5.67803691E-05
   8.97719955        -5.53890386E-05
   8.98919964        -5.42069465E-05
   9.00119972        -5.32722443E-05
   9.01319981        -5.26171571E-05
   9.02519989        -5.22664050E-05
   9.03719997        -5.22358860E-05
   9.04920006        -5.25316427E-05
   9.06120014        -5.31492369E-05
   9.07320023        -5.40735600E-05
   9.08520031        -5.52790807E-05