 -0.622799993         1.00000002E-24
 -0.610800028         1.00000002E-24
 -0.598800004         1.00000002E-24
 -0.586799979         1.00000002E-24
 -0.574800014         9.99999921E-25
 -0.562799990         9.77965039E-26
 -0.550800025        -6.89512157E-24
 -0.538800001        -4.14681017E-23
 -0.526799977        -1.95201561E-22
 -0.514800012        -8.24871535E-22
 -0.502799988        -3.05501771E-21
 -0.490799993        -9.67722476E-21
 -0.478799999        -2.61273704E-20
 -0.466800004        -6.04923386E-20
 -0.454800010        -1.20965225E-19
 -0.442799985        -2.09895840E-19
 -0.430799991        -3.16525314E-19
 -0.418799996        -4.15148766E-19
 -0.406800002        -4.78631931E-19
 -0.394800007        -5.13504832E-19
 -0.382800013        -6.08017610E-19
 -0.370799989        -9.61231745E-19
 -0.358799994        -1.84348242E-18
 -0.346799999        -3.44943414E-18
 -0.334800005        -5.66340663E-18
 -0.322800010        -7.85627774E-18
 -0.310799986        -8.92547733E-18
 -0.298799992        -7.78887327E-18
 -0.286799997        -4.36822211E-18
 -0.274800003        -7.40237623E-19
 -0.262800008        -1.72243436E-18
 -0.250800014        -1.39670654E-17
 -0.238800004        -4.29713876E-17
 -0.226799995        -8.84294257E-17
 -0.214800000        -1.39825896E-16
 -0.202800006        -1.75412040E-16
 -0.190799996        -1.67711941E-16
 -0.178800002        -9.66695277E-17
 -0.166800007         3.25306875E-17
 -0.154799998         1.74745557E-16
 -0.142800003         2.44046365E-16
 -0.130799994         1.35923245E-16
 -0.118799999        -2.26289696E-16
 -0.106799997        -8.32641169E-16
  -9.48000029E-02    -1.54073737E-15
  -8.28000009E-02    -2.07460349E-15
  -7.07999989E-02    -2.09245577E-15
  -5.88000007E-02    -1.32349374E-15
  -4.67999987E-02     2.61745701E-16
  -3.48000005E-02     2.31652606E-15
  -2.28000004E-02     4.10109382E-15
  -1.08000003E-02     4.64464714E-15
   1.20000006E-03     3.08629732E-15
   1.31999999E-02    -8.89454581E-16
   2.52000000E-02    -6.68430291E-15
   3.72000001E-02    -1.26764638E-14
   4.91999984E-02    -1.65141812E-14
   6.12000003E-02    -1.58281608E-14
   7.32000023E-02    -9.20093774E-15
   8.51999968E-02     2.93113380E-15
   9.71999988E-02     1.78382750E-14
  0.109200001         3.08379387E-14
  0.121200003         3.65023021E-14
  0.133200005         3.04925085E-14
  0.145199999         1.14709555E-14
  0.157199994        -1.76176602E-14
  0.169200003        -4.95219473E-14
  0.181199998        -7.41997677E-14
  0.193200007        -8.16452822E-14
  0.205200002        -6.52824081E-14
  0.217199996        -2.48562784E-14
  0.229200006         3.22355125E-14
  0.241200000         9.18510331E-14
  0.253199995         1.36284091E-13
  0.265199989         1.49034959E-13
  0.277200013         1.19940787E-13
  0.289200008         4.92241644E-14
  0.301200002        -5.07936554E-14
  0.313199997        -1.57049314E-13
  0.325199991        -2.40199001E-13
  0.337199986        -2.71508320E-13
  0.349200010        -2.30886816E-13
  0.361200005        -1.14345707E-13
  0.373199999         6.10772758E-14
  0.385199994         2.56842534E-13
  0.397199988         4.18343013E-13
  0.409200013         4.86674557E-13
  0.421200007         4.15487279E-13
  0.433200002         1.89534681E-13
  0.445199996        -1.60470690E-13
  0.457199991        -5.53091318E-13
  0.469199985        -8.66942260E-13
  0.481200010        -9.69023689E-13
  0.493200004        -7.56954395E-13
  0.505200028        -2.04927438E-13
  0.517199993         6.01889090E-13
  0.529200017         1.46088144E-12
  0.541199982         2.08507105E-12
  0.553200006         2.17663236E-12
  0.565199971         1.52725879E-12
  0.577199996         1.17945746E-13
  0.589200020        -1.81704977E-12
  0.601199985        -3.79448903E-12
  0.613200009        -5.17189460E-12
  0.625199974        -5.31479895E-12
  0.637199998        -3.80508862E-12
  0.649200022        -6.31560125E-13
  0.661199987         3.70347329E-12
  0.673200011         8.21422357E-12
  0.685199976         1.16172905E-11
  0.697200000         1.26465496E-11
  0.709200025         1.04250939E-11
  0.721199989         4.79278032E-12
  0.733200014        -3.51418048E-12
  0.745199978        -1.29055317E-11
  0.757200003        -2.12195261E-11
  0.769200027        -2.61968884E-11
  0.781199992        -2.60381577E-11
  0.793200016        -1.99036898E-11
  0.805199981        -8.22099246E-12
  0.817200005         7.29222325E-12
  0.829200029         2.39097023E-11
  0.841199994         3.84249819E-11
  0.853200018         4.78043473E-11
  0.865199983         4.98109609E-11
  0.877200007         4.34561276E-11
  0.889199972         2.91795407E-11
  0.901199996         8.72948328E-12
  0.913200021        -1.52139707E-11
  0.925199986        -3.95728519E-11
  0.937200010        -6.14334139E-11
  0.949199975        -7.85100665E-11
  0.961199999        -8.94125468E-11
  0.973200023        -9.36606279E-11
  0.985199988        -9.14347209E-11
  0.997200012        -8.30876548E-11
   1.00919998        -6.84653237E-11
   1.02119994        -4.60923938E-11
   1.03320003        -1.22736769E-11
   1.04519999         3.98583354E-11
   1.05719995         1.21352928E-10
   1.06920004         2.48567777E-10
   1.08120000         4.44556780E-10
   1.09319997         7.40975337E-10
   1.10520005         1.18090848E-09
   1.11720002         1.82321280E-09
   1.12919998         2.74915801E-09
   1.14119995         4.07238288E-09
   1.15320003         5.95342486E-09
   1.16520000         8.62032401E-09
   1.17719996         1.23970842E-08
   1.18920004         1.77420354E-08
   1.20120001         2.52985082E-08
   1.21319997         3.59603831E-08
   1.22520006         5.09554710E-08
   1.23720002         7.19496995E-08
   1.24919999         1.01175083E-07
   1.26119995         1.41584067E-07
   1.27320004         1.97032165E-07
   1.28520000         2.72489331E-07
   1.29719996         3.74278841E-07
   1.30920005         5.10340044E-07
   1.32120001         6.90508159E-07
   1.33319998         9.26800283E-07
   1.34519994         1.23369455E-06
   1.35720003         1.62838262E-06
   1.36919999         2.13097724E-06
   1.38119996         2.76464675E-06
   1.39320004         3.55565476E-06
   1.40520000         4.53327766E-06
   1.41719997         5.72957606E-06
   1.42920005         7.17900184E-06
   1.44120002         8.91781656E-06
   1.45319998         1.09833254E-05
   1.46519995         1.34129132E-05
   1.47720003         1.62429060E-05
   1.48920000         1.95072498E-05
   1.50119996         2.32360890E-05
   1.51320004         2.74542308E-05
   1.52520001         3.21795887E-05
   1.53719997         3.74216797E-05
   1.54920006         4.31801818E-05
   1.56120002         4.94437554E-05
   1.57319999         5.61890593E-05
   1.58519995         6.33801610E-05
   1.59720004         7.09683445E-05
   1.60920000         7.88924081E-05
   1.62119997         8.70793956E-05
   1.63320005         9.54459174E-05
   1.64520001         1.03899962E-04
   1.65719998         1.12343114E-04
   1.66919994         1.20673227E-04
   1.68120003         1.28787375E-04
   1.69319999         1.36585018E-04
   1.70519996         1.43971178E-04
   1.71720004         1.50859560E-04
   1.72920001         1.57175469E-04
   1.74119997         1.62858327E-04
   1.75320005         1.67863647E-04
   1.76520002         1.72164378E-04
   1.77719998         1.75751673E-04
   1.78919995         1.78634713E-04
   1.80120003         1.80839939E-04
   1.81320000         1.82409509E-04
   1.82519996         1.83399054E-04
   1.83720005         1.83875149E-04
   1.84920001         1.83912067E-04
   1.86119998         1.83588694E-04
   1.87320006         1.82985168E-04
   1.88520002         1.82179836E-04
   1.89719999         1.81246505E-04
   1.90919995         1.80252144E-04
   1.92120004         1.79255134E-04
   1.93320000         1.78304297E-04
   1.94519997         1.77438487E-04
   1.95720005         1.76686808E-04
   1.96920002         1.76069501E-04
   1.98119998         1.75599256E-04
   1.99319994         1.75282854E-04
   2.00519991         1.75122943E-04
   2.01719999         1.75119960E-04
   2.02920008         1.75273817E-04
   2.04119992         1.75585374E-04
   2.05320001         1.76057525E-04
   2.06520009         1.76695903E-04
   2.07719994         1.77509122E-04
   2.08920002         1.78508475E-04
   2.10120010         1.79707306E-04
   2.11319995         1.81119991E-04
   2.12520003         1.82760632E-04
   2.13720012         1.84641744E-04
   2.14919996         1.86772741E-04
   2.16120005         1.89158629E-04
   2.17319989         1.91798899E-04
   2.18519998         1.94686727E-04
   2.19720006         1.97808404E-04
   2.20919991         2.01143266E-04
   2.22119999         2.04664073E-04
   2.23320007         2.08337602E-04
   2.24519992         2.12125684E-04
   2.25720000         2.15986598E-04
   2.26920009         2.19876456E-04
   2.28119993         2.23751020E-04
   2.29320002         2.27567230E-04
   2.30520010         2.31285012E-04
   2.31719995         2.34868756E-04
   2.32920003         2.38288703E-04
   2.34120011         2.41522095E-04
   2.35319996         2.44554074E-04
   2.36520004         2.47378135E-04
   2.37719989         2.49996694E-04
   2.38919997         2.52420956E-04
   2.40120006         2.54670536E-04
   2.41319990         2.56773375E-04
   2.42519999         2.58764689E-04
   2.43720007         2.60686327E-04
   2.44919991         2.62585701E-04
   2.46120000         2.64514791E-04
   2.47320008         2.66528921E-04
   2.48519993         2.68685661E-04
   2.49720001         2.71043595E-04
   2.50920010         2.73661164E-04
   2.52119994         2.76595441E-04
   2.53320003         2.79901025E-04
   2.54520011         2.83628789E-04
   2.55719995         2.87824922E-04
   2.56920004         2.92529614E-04
   2.58119988         2.97776074E-04
   2.59319997         3.03589331E-04
   2.60520005         3.09985335E-04
   2.61719990         3.16969876E-04
   2.62919998         3.24537454E-04
   2.64120007         3.32670723E-04
   2.65319991         3.41339211E-04
   2.66520000         3.50498885E-04
   2.67720008         3.60091450E-04
   2.68919992         3.70043563E-04
   2.70120001         3.80266516E-04
   2.71320009         3.90655856E-04
   2.72519994         4.01091384E-04
   2.73720002         4.11437068E-04
   2.74920011         4.21541481E-04
   2.76119995         4.31238528E-04
   2.77320004         4.40348231E-04
   2.78520012         4.48678300E-04
   2.79719996         4.56026028E-04
   2.80920005         4.62180556E-04
   2.82119989         4.66926052E-04
   2.83319998         4.70045139E-04
   2.84520006         4.71323321E-04
   2.85719991         4.70553554E-04
   2.86919999         4.67541802E-04
   2.88120008         4.62112657E-04
   2.89319992         4.54115478E-04
   2.90520000         4.43430443E-04
   2.91720009         4.29974723E-04
   2.92919993         4.13707981E-04
   2.94120002         3.94637609E-04
   2.95320010         3.72822862E-04
   2.96519995         3.48377856E-04
   2.97720003         3.21473373E-04
   2.98920012         2.92337063E-04
   3.00119996         2.61251727E-04
   3.01320004         2.28552221E-04
   3.02519989         1.94620196E-04
   3.03719997         1.59877192E-04
   3.04920006         1.24776270E-04
   3.06119990         8.97920545E-05
   3.07319999         5.54097933E-05
   3.08520007         2.21135469E-05
   3.09719992        -9.62596096E-06
   3.10920000        -3.93635637E-05
   3.12120008        -6.66913911E-05
   3.13319993        -9.12497489E-05
   3.14520001        -1.12736838E-04
   3.15720010        -1.30916655E-04
   3.16919994        -1.45625250E-04
   3.18120003        -1.56774491E-04
   3.19320011        -1.64353769E-04
   3.20519996        -1.68429091E-04
   3.21720004        -1.69140083E-04
   3.22919989        -1.66694430E-04
   3.24119997        -1.61360571E-04
   3.25320005        -1.53458343E-04
   3.26519990        -1.43348472E-04
   3.27719998        -1.31420878E-04
   3.28920007        -1.18082273E-04
   3.30119991        -1.03743747E-04
   3.31320000        -8.88085051E-05
   3.32520008        -7.36603106E-05
   3.33719993        -5.86530114E-05
   3.34920001        -4.41014636E-05
   3.36120009        -3.02741755E-05
   3.37319994        -1.73878780E-05
   3.38520002        -5.60412764E-06
   3.39720011         4.97194469E-06
   3.40919995         1.42907602E-05
   3.42120004         2.23554307E-05
   3.43319988         2.92170153E-05
   3.44519997         3.49681613E-05
   3.45720005         3.97354124E-05
   3.46919990         4.36705777E-05
   3.48119998         4.69414772E-05
   3.49320006         4.97225374E-05
   3.50519991         5.21855945E-05
   3.51719999         5.44913673E-05
   3.52920008         5.67818715E-05
   3.54119992         5.91741591E-05
   3.55320001         6.17555997E-05
   3.56520009         6.45808905E-05
   3.57719994         6.76708587E-05
   3.58920002         7.10131426E-05
   3.60120010         7.45645521E-05
   3.61319995         7.82550123E-05
   3.62520003         8.19928537E-05
   3.63720012         8.56711340E-05
   3.64919996         8.91745512E-05
   3.66120005         9.23866610E-05
   3.67319989         9.51969414E-05
   3.68519998         9.75073926E-05
   3.69720006         9.92382702E-05
   3.70919991         1.00332676E-04
   3.72119999         1.00759884E-04
   3.73320007         1.00517143E-04
   3.74519992         9.96300441E-05
   3.75720000         9.81512640E-05
   3.76920009         9.61580954E-05
   3.78119993         9.37486184E-05
   3.79320002         9.10369490E-05
   3.80520010         8.81477899E-05
   3.81719995         8.52105077E-05
   3.82920003         8.23531882E-05
   3.84120011         7.96967724E-05
   3.85319996         7.73497450E-05
   3.86520004         7.54035791E-05
   3.87719989         7.39290044E-05
   3.88919997         7.29734529E-05
   3.90120006         7.25595892E-05
   3.91319990         7.26850922E-05
   3.92519999         7.33235938E-05
   3.93720007         7.44266945E-05
   3.94919991         7.59270115E-05
   3.96120000         7.77419773E-05
   3.97320008         7.97782923E-05
   3.98519993         8.19367124E-05
   3.99720001         8.41170404E-05
   4.00920010         8.62230372E-05
   4.02120018         8.81669112E-05
   4.03319979         8.98734070E-05
   4.04519987         9.12830365E-05
   4.05719995         9.23545376E-05
   4.06920004         9.30663009E-05
   4.08120012         9.34167983E-05
   4.09320021         9.34239652E-05
   4.10519981         9.31235700E-05
   4.11719990         9.25667555E-05
   4.12919998         9.18167934E-05
   4.14120007         9.09452501E-05
   4.15320015         9.00277955E-05
   4.16520023         8.91398740E-05
   4.17719984         8.83524845E-05
   4.18919992         8.77282291E-05
   4.20120001         8.73179088E-05
   4.21320009         8.71579177E-05
   4.22520018         8.72684323E-05
   4.23719978         8.76525301E-05
   4.24919987         8.82964014E-05
   4.26119995         8.91704476E-05
   4.27320004         9.02312677E-05
   4.28520012         9.14244592E-05
   4.29720020         9.26879657E-05
   4.30919981         9.39558304E-05
   4.32119989         9.51620677E-05
   4.33319998         9.62445556E-05
   4.34520006         9.71486370E-05
   4.35720015         9.78301323E-05
   4.36920023         9.82578640E-05
   4.38119984         9.84152866E-05
   4.39319992         9.83012505E-05
   4.40520000         9.79299512E-05
   4.41720009         9.73299757E-05
   4.42920017         9.65425425E-05
   4.44119978         9.56191579E-05
   4.45319986         9.46186701E-05
   4.46519995         9.36040888E-05
   4.47720003         9.26392167E-05
   4.48920012         9.17852958E-05
   4.50120020         9.10979143E-05
   4.51319981         9.06242713E-05
   4.52519989         9.04009139E-05
   4.53719997         9.04520639E-05
   4.54920006         9.07886133E-05
   4.56120014         9.14077755E-05
   4.57320023         9.22933395E-05
   4.58519983         9.34166092E-05
   4.59719992         9.47377994E-05
   4.60920000         9.62078775E-05
   4.62120008         9.77707678E-05
   4.63320017         9.93657522E-05
   4.64519978         1.00930032E-04
   4.65719986         1.02401267E-04
   4.66919994         1.03720085E-04
   4.68120003         1.04832397E-04
   4.69320011         1.05691513E-04
   4.70520020         1.06259875E-04
   4.71719980         1.06510437E-04
   4.72919989         1.06427637E-04
   4.74119997         1.06007872E-04
   4.75320005         1.05259533E-04
   4.76520014         1.04202561E-04
   4.77720022         1.02867598E-04
   4.78919983         1.01294732E-04
   4.80119991         9.95318915E-05
   4.81320000         9.76329757E-05
   4.82520008         9.56557924E-05
   4.83720016         9.36598735E-05
   4.84919977         9.17043362E-05
   4.86119986         8.98457365E-05
   4.87319994         8.81362212E-05
   4.88520002         8.66218616E-05
   4.89720011         8.53413294E-05
   4.90920019         8.43249654E-05
   4.92119980         8.35942337E-05
   4.93319988         8.31614961E-05
   4.94519997         8.30301869E-05
   4.95720005         8.31952784E-05
   4.96920013         8.36439940E-05
   4.98120022         8.43566813E-05
   4.99319983         8.53078600E-05
   5.00519991         8.64673348E-05
   5.01719999         8.78012870E-05
   5.02920008         8.92733951E-05
   5.04120016         9.08458751E-05
   5.05319977         9.24804481E-05
   5.06519985         9.41391627E-05
   5.07719994         9.57852826E-05
   5.08920002         9.73839342E-05
   5.10120010         9.89028267E-05
   5.11320019         1.00312835E-04
   5.12519979         1.01588696E-04
   5.13719988         1.02709477E-04
   5.14919996         1.03659186E-04
   5.16120005         1.04427178E-04
   5.17320013         1.05008505E-04
   5.18520021         1.05404099E-04
   5.19719982         1.05620777E-04
   5.20919991         1.05671010E-04
   5.22119999         1.05572457E-04
   5.23320007         1.05347273E-04
   5.24520016         1.05021129E-04
   5.25719976         1.04622042E-04
   5.26919985         1.04179089E-04
   5.28119993         1.03720900E-04
   5.29320002         1.03274273E-04
   5.30520010         1.02862730E-04
   5.31720018         1.02505306E-04
   5.32919979         1.02215527E-04
   5.34119987         1.02000718E-04
   5.35319996         1.01861624E-04
   5.36520004         1.01792517E-04
   5.37720013         1.01781567E-04
   5.38920021         1.01811667E-04
   5.40119982         1.01861522E-04
   5.41319990         1.01906997E-04
   5.42519999         1.01922611E-04
   5.43720007         1.01883132E-04
   5.44920015         1.01765145E-04
   5.46120024         1.01548481E-04
   5.47319984         1.01217505E-04
   5.48519993         1.00762096E-04
   5.49720001         1.00178382E-04
   5.50920010         9.94690708E-05
   5.52120018         9.86435043E-05
   5.53319979         9.77173622E-05
   5.54519987         9.67120286E-05
   5.55719995         9.56537697E-05
   5.56920004         9.45726570E-05
   5.58120012         9.35013741E-05
   5.59320021         9.24738924E-05
   5.60519981         9.15241690E-05
   5.61719990         9.06847927E-05
   5.62919998         8.99857114E-05
   5.64120007         8.94530531E-05
   5.65320015         8.91080417E-05
   5.66520023         8.89660805E-05
   5.67719984         8.90360388E-05
   5.68919992         8.93197866E-05
   5.70120001         8.98118378E-05
   5.71320009         9.04994231E-05
   5.72520018         9.13626791E-05
   5.73719978         9.23752814E-05
   5.74919987         9.35051721E-05
   5.76119995         9.47157532E-05
   5.77320004         9.59671597E-05
   5.78520012         9.72178532E-05
   5.79720020         9.84263024E-05
   5.80919981         9.95528026E-05
   5.82119989         1.00561207E-04
   5.83319998         1.01420614E-04
   5.84520006         1.02106882E-04
   5.85720015         1.02603801E-04
   5.86920023         1.02903970E-04
   5.88119984         1.03009224E-04
   5.89319992         1.02930608E-04
   5.90520000         1.02687933E-04
   5.91720009         1.02308841E-04
   5.92920017         1.01827412E-04
   5.94119978         1.01282509E-04
   5.95319986         1.00715697E-04
   5.96519995         1.00169062E-04
   5.97720003         9.96829112E-05
   5.98920012         9.92934438E-05
   6.00120020         9.90306871E-05
   6.01319981         9.89166219E-05
   6.02519989         9.89637410E-05
   6.03719997         9.91740235E-05
   6.04920006         9.95385344E-05
   6.06120014         1.00037527E-04
   6.07320023         1.00641126E-04
   6.08519983         1.01310594E-04
   6.09719992         1.02000013E-04
   6.10920000         1.02658494E-04
   6.12120008         1.03232567E-04
   6.13320017         1.03668899E-04
   6.14519978         1.03916973E-04
   6.15719986         1.03931758E-04
   6.16919994         1.03676146E-04
   6.18120003         1.03123013E-04
   6.19320011         1.02256861E-04
   6.20520020         1.01074918E-04
   6.21719980         9.95875380E-05
   6.22919989         9.78180688E-05
   6.24119997         9.58020246E-05
   6.25320005         9.35856806E-05
   6.26520014         9.12241958E-05
   6.27720022         8.87793285E-05
   6.28919983         8.63168389E-05
   6.30119991         8.39038112E-05
   6.31320000         8.16060201E-05
   6.32520008         7.94853622E-05
   6.33720016         7.75977169E-05
   6.34919977         7.59910909E-05
   6.36119986         7.47043232E-05
   6.37319994         7.37662340E-05
   6.38520002         7.31953187E-05
   6.39720011         7.29999520E-05
   6.40920019         7.31789260E-05
   6.42119980         7.37223090E-05
   6.43319988         7.46125734E-05
   6.44519997         7.58257956E-05
   6.45720005         7.73327920E-05
   6.46920013         7.91002458E-05
   6.48120022         8.10916827E-05
   6.49319983         8.32681326E-05
   6.50519991         8.55887556E-05
   6.51719999         8.80111402E-05
   6.52920008         9.04915287E-05
   6.54120016         9.29849703E-05
   6.55319977         9.54454081E-05
   6.56519985         9.78259486E-05
   6.57719994         1.00079247E-04
   6.58920002         1.02158076E-04
   6.60120010         1.04016239E-04
   6.61320019         1.05609695E-04
   6.62519979         1.06897889E-04
   6.63719988         1.07845321E-04
   6.64919996         1.08423141E-04
   6.66120005         1.08610730E-04
   6.67320013         1.08397115E-04
   6.68520021         1.07782122E-04
   6.69719982         1.06777101E-04
   6.70919991         1.05405183E-04
   6.72119999         1.03700957E-04
   6.73320007         1.01709578E-04
   6.74520016         9.94853181E-05
   6.75719976         9.70895780E-05
   6.76919985         9.45885622E-05
   6.78119993         9.20506354E-05
   6.79320002         8.95435878E-05
   6.80520010         8.71319644E-05
   6.81720018         8.48746131E-05
   6.82919979         8.28226330E-05
   6.84119987         8.10177517E-05
   6.85319996         7.94912849E-05
   6.86520004         7.82637944E-05
   6.87720013         7.73451902E-05
   6.88920021         7.67355086E-05
   6.90119982         7.64260840E-05
   6.91319990         7.64010256E-05
   6.92519999         7.66389348E-05
   6.93720007         7.71146151E-05
   6.94920015         7.78007015E-05
   6.96120024         7.86690944E-05
   6.97319984         7.96920431E-05
   6.98519993         8.08429031E-05
   6.99720001         8.20964415E-05
   7.00920010         8.34288803E-05
   7.02120018         8.48175987E-05
   7.03319979         8.62406378E-05
   7.04519987         8.76760896E-05
   7.05719995         8.91014934E-05
   7.06920004         9.04934204E-05
   7.08120012         9.18272199E-05
   7.09320021         9.30770766E-05
   7.10519981         9.42164042E-05
   7.11719990         9.52185437E-05
   7.12919998         9.60577381E-05
   7.14120007         9.67103406E-05
   7.15320015         9.71560221E-05
   7.16520023         9.73791393E-05
   7.17719984         9.73698188E-05
   7.18919992         9.71248810E-05
   7.20120001         9.66484222E-05
   7.21320009         9.59519748E-05
   7.22520018         9.50543254E-05
   7.23719978         9.39807505E-05
   7.24919987         9.27620422E-05
   7.26119995         9.14330303E-05
   7.27320004         9.00310188E-05
   7.28520012         8.85940754E-05
   7.29720020         8.71593293E-05
   7.30919981         8.57614068E-05
   7.32119989         8.44312017E-05
   7.33319998         8.31949801E-05
   7.34520006         8.20738642E-05
   7.35720015         8.10837955E-05
   7.36920023         8.02358409E-05
   7.38119984         7.95369342E-05
   7.39319992         7.89908299E-05
   7.40520000         7.85991651E-05
   7.41720009         7.83626601E-05
   7.42920017         7.82821735E-05
   7.44119978         7.83595387E-05
   7.45319986         7.85981392E-05
   7.46519995         7.90031554E-05
   7.47720003         7.95813830E-05
   7.48920012         8.03407020E-05
   7.50120020         8.12892176E-05
   7.51319981         8.24341696E-05
   7.52519989         8.37807020E-05
   7.53719997         8.53305610E-05
   7.54920006         8.70810254E-05
   7.56120014         8.90239171E-05
   7.57320023         9.11449824E-05
   7.58519983         9.34237178E-05
   7.59719992         9.58334931E-05
   7.60920000         9.83421633E-05
   7.62120008         1.00912985E-04
   7.63320017         1.03505889E-04
   7.64519978         1.06078907E-04
   7.65719986         1.08589673E-04
   7.66919994         1.10996909E-04
   7.68120003         1.13261754E-04
   7.69320011         1.15348841E-04
   7.70520020         1.17227086E-04
   7.71719980         1.18870084E-04
   7.72919989         1.20256234E-04
   7.74119997         1.21368568E-04
   7.75320005         1.22194309E-04
   7.76520014         1.22724450E-04
   7.77720022         1.22953177E-04
   7.78919983         1.22877391E-04
   7.80119991         1.22496553E-04
   7.81320000         1.21812525E-04
   7.82520008         1.20829769E-04
   7.83720016         1.19555742E-04
   7.84919977         1.18001517E-04
   7.86119986         1.16182404E-04
   7.87319994         1.14118673E-04
   7.88520002         1.11836125E-04
   7.89720011         1.09366403E-04
   7.90920019         1.06747073E-04
   7.92119980         1.04021223E-04
   7.93319988         1.01236670E-04
   7.94519997         9.84447906E-05
   7.95720005         9.56988515E-05
   7.96920013         9.30522219E-05
   7.98120022         9.05562702E-05
   7.99319983         8.82583627E-05
   8.00520039         8.61998706E-05
   8.01720047         8.44145834E-05
   8.02919960         8.29274213E-05
   8.04119968         8.17536638E-05
   8.05319977         8.08987315E-05
   8.06519985         8.03585135E-05
   8.07719994         8.01202041E-05
   8.08920002         8.01635761E-05
   8.10120010         8.04626397E-05
   8.11320019         8.09874473E-05
   8.12520027         8.17059845E-05
   8.13720036         8.25859752E-05
   8.14920044         8.35964165E-05
   8.16119957         8.47088813E-05
   8.17319965         8.58983258E-05
   8.18519974         8.71435477E-05
   8.19719982         8.84272013E-05
   8.20919991         8.97354548E-05
   8.22119999         9.10574236E-05
   8.23320007         9.23843472E-05
   8.24520016         9.37087971E-05
   8.25720024         9.50238100E-05
   8.26920033         9.63222556E-05
   8.28120041         9.75963339E-05
   8.29319954         9.88373504E-05
   8.30519962         1.00035679E-04
   8.31719971         1.01181089E-04
   8.32919979         1.02263133E-04
   8.34119987         1.03271770E-04
   8.35319996         1.04197999E-04
   8.36520004         1.05034436E-04
   8.37720013         1.05775864E-04
   8.38920021         1.06419509E-04
   8.40120029         1.06965141E-04
   8.41320038         1.07414933E-04
   8.42520046         1.07773019E-04
   8.43719959         1.08044842E-04
   8.44919968         1.08236381E-04
   8.46119976         1.08353212E-04
   8.47319984         1.08399516E-04
   8.48519993         1.08377280E-04
   8.49720001         1.08285465E-04
   8.50920010         1.08119559E-04
   8.52120018         1.07871259E-04
   8.53320026         1.07528627E-04
   8.54520035         1.07076412E-04
   8.55720043         1.06496896E-04
   8.56919956         1.05770887E-04
   8.58119965         1.04879029E-04
   8.59319973         1.03803301E-04
   8.60519981         1.02528538E-04
   8.61719990         1.01044025E-04
   8.62919998         9.93448411E-05
   8.64120007         9.74330469E-05
   8.65320015         9.53185881E-05
   8.66520023         9.30197639E-05
   8.67720032         9.05632696E-05
   8.68920040         8.79838190E-05
   8.70119953         8.53233141E-05
   8.71319962         8.26296091E-05
   8.72519970         7.99548943E-05
   8.73719978         7.73538995E-05
   8.74919987         7.48818857E-05
   8.76119995         7.25926438E-05
   8.77320004         7.05366110E-05
   8.78520012         6.87591237E-05
   8.79720020         6.72990936E-05
   8.80920029         6.61878948E-05
   8.82120037         6.54488322E-05
   8.83320045         6.50969378E-05
   8.84519958         6.51391820E-05
   8.85719967         6.55750628E-05
   8.86919975         6.63974279E-05
   8.88119984         6.75935080E-05
   8.89319992         6.91459936E-05
   8.90520000         7.10340755E-05
   8.91720009         7.32343469E-05
   8.92920017         7.57215457E-05
   8.94120026         7.84689328E-05
   8.95320034         8.14484592E-05
   8.96520042         8.46306430E-05
   8.97719955         8.79841973E-05
   8.98919964         9.14755074E-05
   9.00119972         9.50679823E-05
   9.01319981         9.87215390E-05
   9.02519989         1.02392143E-04
   9.03719997         1.06031643E-04
   9.04920006         1.09587920E-04
   9.06120014         1.13005473E-04
   9.07320023         1.16226438E-04
   9.08520031         1.19191987E-04