 -0.622799993       0.00000000    
 -0.610800028       0.00000000    
 -0.598800004       0.00000000    
 -0.586799979       0.00000000    
 -0.574800014       0.00000000    
 -0.562799990       0.00000000    
 -0.550800025      -4.52963470E-27
 -0.538800001      -5.42454470E-26
 -0.526799977      -3.44677562E-25
 -0.514800012      -1.53903311E-24
 -0.502799988      -5.39562045E-24
 -0.490799993      -1.57319154E-23
 -0.478799999      -3.94600594E-23
 -0.466800004      -8.69891751E-23
 -0.454800010      -1.70990663E-22
 -0.442799985      -3.02937178E-22
 -0.430799991      -4.88509222E-22
 -0.418799996      -7.25788787E-22
 -0.406800002      -1.01258267E-21
 -0.394800007      -1.36821934E-21
 -0.382800013      -1.86745050E-21
 -0.370799989      -2.66892975E-21
 -0.358799994      -4.00319510E-21
 -0.346799999      -6.07815141E-21
 -0.334800005      -8.88263539E-21
 -0.322800010      -1.19371953E-20
 -0.310799986      -1.41538083E-20
 -0.298799992      -1.40820051E-20
 -0.286799997      -1.08439590E-20
 -0.274800003      -5.86190508E-21
 -0.262800008      -4.94856884E-21
 -0.250800014      -1.95060627E-20
 -0.238800004      -6.47982208E-20
 -0.226799995      -1.53222426E-19
 -0.214800000      -2.82086580E-19
 -0.202800006      -4.19117656E-19
 -0.190799996      -4.94143688E-19
 -0.178800002      -4.09592697E-19
 -0.166800007      -8.13847366E-20
 -0.154799998       4.88907272E-19
 -0.142800003       1.13134133E-18
 -0.130799994       1.46185934E-18
 -0.118799999       9.38574751E-19
 -0.106799997      -9.26967959E-19
  -9.48000029E-02  -4.20915321E-18
  -8.28000009E-02  -8.16723809E-18
  -7.07999989E-02  -1.10279190E-17
  -5.88000007E-02  -1.02360797E-17
  -4.67999987E-02  -3.38373305E-18
  -3.48000005E-02   1.02344146E-17
  -2.28000004E-02   2.79103378E-17
  -1.08000003E-02   4.25596601E-17
   1.20000006E-03   4.35985030E-17
   1.31999999E-02   2.04275329E-17
   2.52000000E-02  -3.16916252E-17
   3.72000001E-02  -1.05070573E-16
   4.91999984E-02  -1.75502633E-16
   6.12000003E-02  -2.04410279E-16
   7.32000023E-02  -1.49904265E-16
   8.51999968E-02   1.37298507E-17
   9.71999988E-02   2.73283084E-16
  0.109200001       5.60342576E-16
  0.121200003       7.53227595E-16
  0.133200005       7.06017843E-16
  0.145199999       3.04792206E-16
  0.157199994      -4.61965628E-16
  0.169200003      -1.44502540E-15
  0.181199998      -2.32121248E-15
  0.193200007      -2.65281190E-15
  0.205200002      -2.02613203E-15
  0.217199996      -2.42822641E-16
  0.229200006       2.49735086E-15
  0.241200000       5.50536137E-15
  0.253199995       7.68030100E-15
  0.265199989       7.79015016E-15
  0.277200013       4.91802957E-15
  0.289200008      -1.04710658E-15
  0.301200002      -9.05818728E-15
  0.313199997      -1.68863845E-14
  0.325199991      -2.15486588E-14
  0.337199986      -2.01705074E-14
  0.349200010      -1.10930510E-14
  0.361200005       5.11852862E-15
  0.373199999       2.51713662E-14
  0.385199994       4.33781327E-14
  0.397199988       5.29407010E-14
  0.409200013       4.79819126E-14
  0.421200007       2.58043590E-14
  0.433200002      -1.13500611E-14
  0.445199996      -5.57592235E-14
  0.457199991      -9.53589218E-14
  0.469199985      -1.16551910E-13
  0.481200010      -1.08125890E-13
  0.493200004      -6.52529788E-14
  0.505200028       7.66518400E-15
  0.517199993       9.63893001E-14
  0.529200017       1.79039929E-13
  0.541199982       2.30913596E-13
  0.553200006       2.30936987E-13
  0.565199971       1.68181224E-13
  0.577199996       4.66437090E-14
  0.589200020      -1.13235227E-13
  0.601199985      -2.77164983E-13
  0.613200009      -4.03583932E-13
  0.625199974      -4.53087546E-13
  0.637199998      -3.98741234E-13
  0.649200022      -2.34872207E-13
  0.661199987       1.80054912E-14
  0.673200011       3.13889214E-13
  0.685199976       5.88313740E-13
  0.697200000       7.71044470E-13
  0.709200025       8.02325329E-13
  0.721199989       6.49331500E-13
  0.733200014       3.18779779E-13
  0.745199978      -1.38188072E-13
  0.757200003      -6.31538116E-13
  0.769200027      -1.04878833E-12
  0.781199992      -1.28001863E-12
  0.793200016      -1.24628335E-12
  0.805199981      -9.24296880E-13
  0.817200005      -3.59969324E-13
  0.829200029       3.34786018E-13
  0.841199994       1.00367804E-12
  0.853200018       1.48269418E-12
  0.865199983       1.64342021E-12
  0.877200007       1.43142811E-12
  0.889199972       8.87954695E-13
  0.901199996       1.46505990E-13
  0.913200021      -5.97533416E-13
  0.925199986      -1.13833292E-12
  0.937200010      -1.31913133E-12
  0.949199975      -1.08302408E-12
  0.961199999      -4.99035763E-13
  0.973200023       2.46787996E-13
  0.985199988       8.96236264E-13
  0.997200012       1.19030979E-12
   1.00919998       9.49205775E-13
   1.02119994       1.38969836E-13
   1.03320003      -1.09533400E-12
   1.04519999      -2.44274457E-12
   1.05719995      -3.48752559E-12
   1.06920004      -3.80792967E-12
   1.08120000      -3.09211554E-12
   1.09319997      -1.24487497E-12
   1.10520005       1.54154760E-12
   1.11720002       4.77419840E-12
   1.12919998       7.71581844E-12
   1.14119995       9.51057375E-12
   1.15320003       9.36520479E-12
   1.16520000       6.75884262E-12
   1.17719996       1.64457738E-12
   1.18920004      -5.39951243E-12
   1.20120001      -1.31105751E-11
   1.21319997      -1.96028263E-11
   1.22520006      -2.25617407E-11
   1.23720002      -1.95537753E-11
   1.24919999      -8.40348537E-12
   1.26119995       1.24391070E-11
   1.27320004       4.36369621E-11
   1.28520000       8.49087675E-11
   1.29719996       1.35256653E-10
   1.30920005       1.93522892E-10
   1.32120001       2.59270605E-10
   1.33319998       3.33933020E-10
   1.34519994       4.22136243E-10
   1.35720003       5.33083855E-10
   1.36919999       6.81902812E-10
   1.38119996       8.90890806E-10
   1.39320004       1.19067323E-09
   1.40520000       1.62136293E-09
   1.41719997       2.23391727E-09
   1.42920005       3.09200021E-09
   1.44120002       4.27480362E-09
   1.45319998       5.88142957E-09
   1.46519995       8.03765676E-09
   1.47720003       1.09061480E-08
   1.48920000       1.47014063E-08
   1.50119996       1.97110452E-08
   1.51320004       2.63251216E-08
   1.52520001       3.50753382E-08
   1.53719997       4.66857983E-08
   1.54920006       6.21367562E-08
   1.56120002       8.27420692E-08
   1.57319999       1.10240485E-07
   1.58519995       1.46899708E-07
   1.59720004       1.95631102E-07
   1.60920000       2.60111477E-07
   1.62119997       3.44907363E-07
   1.63320005       4.55595426E-07
   1.64520001       5.98871566E-07
   1.65719998       7.82639972E-07
   1.66919994       1.01607361E-06
   1.68120003       1.30963429E-06
   1.69319999       1.67504425E-06
   1.70519996       2.12519944E-06
   1.71720004       2.67401560E-06
   1.72920001       3.33620119E-06
   1.74119997       4.12695726E-06
   1.75320005       5.06159995E-06
   1.76520002       6.15511317E-06
   1.77719998       7.42164275E-06
   1.78919995       8.87393344E-06
   1.80120003       1.05227437E-05
   1.81320000       1.23762402E-05
   1.82519996       1.44394035E-05
   1.83720005       1.67134694E-05
   1.84920001       1.91954350E-05
   1.86119998       2.18776422E-05
   1.87320006       2.47474782E-05
   1.88520002       2.77872041E-05
   1.89719999       3.09739553E-05
   1.90919995       3.42798739E-05
   1.92120004       3.76724674E-05
   1.93320000       4.11151086E-05
   1.94519997       4.45677251E-05
   1.95720005       4.79876799E-05
   1.96920002       5.13307641E-05
   1.98119998       5.45523253E-05
   1.99319994       5.76084894E-05
   2.00519991       6.04574270E-05
   2.01719999       6.30606301E-05
   2.02920008       6.53841344E-05
   2.04119992       6.73996474E-05
   2.05320001       6.90855595E-05
   2.06520009       7.04277336E-05
   2.07719994       7.14200796E-05
   2.08920002       7.20648968E-05
   2.10120010       7.23728735E-05
   2.11319995       7.23628327E-05
   2.12520003       7.20612079E-05
   2.13720012       7.15011629E-05
   2.14919996       7.07215077E-05
   2.16120005       6.97654323E-05
   2.17319989       6.86790008E-05
   2.18519998       6.75096162E-05
   2.19720006       6.63043975E-05
   2.20919991       6.51086448E-05
   2.22119999       6.39643549E-05
   2.23320007       6.29089191E-05
   2.24519992       6.19740676E-05
   2.25720000       6.11850410E-05
   2.26920009       6.05600871E-05
   2.28119993       6.01102511E-05
   2.29320002       5.98394727E-05
   2.30520010       5.97449944E-05
   2.31719995       5.98180304E-05
   2.32920003       6.00446510E-05
   2.34120011       6.04068518E-05
   2.35319996       6.08837290E-05
   2.36520004       6.14527307E-05
   2.37719989       6.20909195E-05
   2.38919997       6.27761183E-05
   2.40120006       6.34880198E-05
   2.41319990       6.42091181E-05
   2.42519999       6.49254289E-05
   2.43720007       6.56270277E-05
   2.44919991       6.63083119E-05
   2.46120000       6.69680740E-05
   2.47320008       6.76092823E-05
   2.48519993       6.82387035E-05
   2.49720001       6.88662476E-05
   2.50920010       6.95042327E-05
   2.52119994       7.01664612E-05
   2.53320003       7.08672887E-05
   2.54520011       7.16205832E-05
   2.55719995       7.24387646E-05
   2.56920004       7.33319175E-05
   2.58119988       7.43070123E-05
   2.59319997       7.53673667E-05
   2.60520005       7.65121949E-05
   2.61719990       7.77365422E-05
   2.62919998       7.90314662E-05
   2.64120007       8.03843577E-05
   2.65319991       8.17796827E-05
   2.66520000       8.31998186E-05
   2.67720008       8.46261682E-05
   2.68919992       8.60402870E-05
   2.70120001       8.74251782E-05
   2.71320009       8.87664210E-05
   2.72519994       9.00533123E-05
   2.73720002       9.12797841E-05
   2.74920011       9.24450724E-05
   2.76119995       9.35540811E-05
   2.77320004       9.46174405E-05
   2.78520012       9.56512304E-05
   2.79719996       9.66763037E-05
   2.80920005       9.77173768E-05
   2.82119989       9.88018292E-05
   2.83319998       9.99582408E-05
   2.84520006       1.01214959E-04
   2.85719991       1.02598555E-04
   2.86919999       1.04132319E-04
   2.88120008       1.05834988E-04
   2.89319992       1.07719643E-04
   2.90520000       1.09792934E-04
   2.91720009       1.12054600E-04
   2.92919993       1.14497365E-04
   2.94120002       1.17107236E-04
   2.95320010       1.19864111E-04
   2.96519995       1.22742669E-04
   2.97720003       1.25713676E-04
   2.98920012       1.28745261E-04
   3.00119996       1.31804569E-04
   3.01320004       1.34859292E-04
   3.02519989       1.37879280E-04
   3.03719997       1.40838034E-04
   3.04920006       1.43714060E-04
   3.06119990       1.46491919E-04
   3.07319999       1.49163083E-04
   3.08520007       1.51726359E-04
   3.09719992       1.54188019E-04
   3.10920000       1.56561524E-04
   3.12120008       1.58866751E-04
   3.13319993       1.61128992E-04
   3.14520001       1.63377365E-04
   3.15720010       1.65643156E-04
   3.16919994       1.67957667E-04
   3.18120003       1.70349973E-04
   3.19320011       1.72844564E-04
   3.20519996       1.75458990E-04
   3.21720004       1.78201488E-04
   3.22919989       1.81069045E-04
   3.24119997       1.84045406E-04
   3.25320005       1.87099897E-04
   3.26519990       1.90186343E-04
   3.27719998       1.93242915E-04
   3.28920007       1.96192283E-04
   3.30119991       1.98942609E-04
   3.31320000       2.01389033E-04
   3.32520008       2.03415868E-04
   3.33719993       2.04899246E-04
   3.34920001       2.05710239E-04
   3.36120009       2.05718301E-04
   3.37319994       2.04794924E-04
   3.38520002       2.02817551E-04
   3.39720011       1.99673275E-04
   3.40919995       1.95262561E-04
   3.42120004       1.89502665E-04
   3.43319988       1.82330768E-04
   3.44519997       1.73706503E-04
   3.45720005       1.63614255E-04
   3.46919990       1.52064618E-04
   3.48119998       1.39095297E-04
   3.49320006       1.24771468E-04
   3.50519991       1.09185290E-04
   3.51719999       9.24549167E-05
   3.52920008       7.47227314E-05
   3.54119992       5.61530833E-05
   3.55320001       3.69293157E-05
   3.56520009       1.72503605E-05
   3.57719994      -2.67311998E-06
   3.58920002      -2.26229586E-05
   3.60120010      -4.23779529E-05
   3.61319995      -6.17184560E-05
   3.62520003      -8.04309384E-05
   3.63720012      -9.83124337E-05
   3.64919996      -1.15174735E-04
   3.66120005      -1.30848173E-04
   3.67319989      -1.45184822E-04
   3.68519998      -1.58061244E-04
   3.69720006      -1.69380393E-04
   3.70919991      -1.79073002E-04
   3.72119999      -1.87097961E-04
   3.73320007      -1.93442160E-04
   3.74519992      -1.98119509E-04
   3.75720000      -2.01169416E-04
   3.76920009      -2.02654584E-04
   3.78119993      -2.02658470E-04
   3.79320002      -2.01282339E-04
   3.80520010      -1.98642156E-04
   3.81719995      -1.94865323E-04
   3.82920003      -1.90087463E-04
   3.84120011      -1.84449411E-04
   3.85319996      -1.78094138E-04
   3.86520004      -1.71164153E-04
   3.87719989      -1.63799094E-04
   3.88919997      -1.56133552E-04
   3.90120006      -1.48295381E-04
   3.91319990      -1.40404183E-04
   3.92519999      -1.32570174E-04
   3.93720007      -1.24893340E-04
   3.94919991      -1.17462718E-04
   3.96120000      -1.10356006E-04
   3.97320008      -1.03639293E-04
   3.98519993      -9.73669594E-05
   3.99720001      -9.15817145E-05
   4.00920010      -8.63147434E-05
   4.02120018      -8.15859894E-05
   4.03319979      -7.74045329E-05
   4.04519987      -7.37690862E-05
   4.05719995      -7.06686042E-05
   4.06920004      -6.80829471E-05
   4.08120012      -6.59837169E-05
   4.09320021      -6.43351086E-05
   4.10519981      -6.30948634E-05
   4.11719990      -6.22153530E-05
   4.12919998      -6.16446050E-05
   4.14120007      -6.13275115E-05
   4.15320015      -6.12070726E-05
   4.16520023      -6.12255462E-05
   4.17719984      -6.13257507E-05
   4.18919992      -6.14522942E-05
   4.20120001      -6.15527460E-05
   4.21320009      -6.15787940E-05
   4.22520018      -6.14873134E-05
   4.23719978      -6.12413569E-05
   4.24919987      -6.08109804E-05
   4.26119995      -6.01740030E-05
   4.27320004      -5.93165460E-05
   4.28520012      -5.82334324E-05
   4.29720020      -5.69283147E-05
   4.30919981      -5.54135622E-05
   4.32119989      -5.37099004E-05
   4.33319998      -5.18457382E-05
   4.34520006      -4.98562295E-05
   4.35720015      -4.77820722E-05
   4.36920023      -4.56680427E-05
   4.38119984      -4.35613474E-05
   4.39319992      -4.15098330E-05
   4.40520000      -3.95600800E-05
   4.41720009      -3.77555079E-05
   4.42920017      -3.61344864E-05
   4.44119978      -3.47286368E-05
   4.45319986      -3.35613076E-05
   4.46519995      -3.26463924E-05
   4.47720003      -3.19874744E-05
   4.48920012      -3.15774378E-05
   4.50120020      -3.13984856E-05
   4.51319981      -3.14226854E-05
   4.52519989      -3.16129153E-05
   4.53719997      -3.19242718E-05
   4.54920006      -3.23058230E-05
   4.56120014      -3.27026319E-05
   4.57320023      -3.30580624E-05
   4.58519983      -3.33161042E-05
   4.59719992      -3.34238030E-05
   4.60920000      -3.33335593E-05
   4.62120008      -3.30052717E-05
   4.63320017      -3.24081775E-05
   4.64519978      -3.15223806E-05
   4.65719986      -3.03399011E-05
   4.66919994      -2.88652864E-05
   4.68120003      -2.71156732E-05
   4.69320011      -2.51203764E-05
   4.70520020      -2.29199395E-05
   4.71719980      -2.05647357E-05
   4.72919989      -1.81131636E-05
   4.74119997      -1.56294936E-05
   4.75320005      -1.31814686E-05
   4.76520014      -1.08377353E-05
   4.77720022      -8.66522259E-06
   4.78919983      -6.72655551E-06
   4.80119991      -5.07761752E-06
   4.81320000      -3.76536605E-06
   4.82520008      -2.82597239E-06
   4.83720016      -2.28337444E-06
   4.84919977      -2.14829083E-06
   4.86119986      -2.41772659E-06
   4.87319994      -3.07498112E-06
   4.88520002      -4.09015365E-06
   4.89720011      -5.42110547E-06
   4.90920019      -7.01484078E-06
   4.92119980      -8.80924017E-06
   4.93319988      -1.07350834E-05
   4.94519997      -1.27182748E-05
   4.95720005      -1.46822067E-05
   4.96920013      -1.65501770E-05
   4.98120022      -1.82477816E-05
   4.99319983      -1.97052141E-05
   5.00519991      -2.08594320E-05
   5.01719999      -2.16560948E-05
   5.02920008      -2.20512829E-05
   5.04120016      -2.20128913E-05
   5.05319977      -2.15217351E-05
   5.06519985      -2.05722918E-05
   5.07719994      -1.91730742E-05
   5.08920002      -1.73466360E-05
   5.10120010      -1.51291424E-05
   5.11320019      -1.25695706E-05
   5.12519979      -9.72848557E-06
   5.13719988      -6.67642689E-06
   5.14919996      -3.49192328E-06
   5.16120005      -2.59168075E-07
   5.17320013       2.93458834E-06
   5.18520021       6.00186240E-06
   5.19719982       8.85788904E-06
   5.20919991       1.14235963E-05
   5.22119999       1.36284943E-05
   5.23320007       1.54133522E-05
   5.24520016       1.67325252E-05
   5.25719976       1.75558453E-05
   5.26919985       1.78699611E-05
   5.28119993       1.76790327E-05
   5.29320002       1.70047606E-05
   5.30520010       1.58857056E-05
   5.31720018       1.43759098E-05
   5.32919979       1.25429060E-05
   5.34119987       1.04651135E-05
   5.35319996       8.22879883E-06
   5.36520004       5.92467859E-06
   5.37720013       3.64433913E-06
   5.38920021       1.47661081E-06
   5.40119982      -4.95930465E-07
   5.41319990      -2.20018410E-06
   5.42519999      -3.57532326E-06
   5.43720007      -4.57505212E-06
   5.44920015      -5.16922228E-06
   5.46120024      -5.34475339E-06
   5.47319984      -5.10582413E-06
   5.48519993      -4.47334605E-06
   5.49720001      -3.48375693E-06
   5.50920010      -2.18720425E-06
   5.52120018      -6.45208843E-07
   5.53319979       1.07207404E-06
   5.54519987       2.88886827E-06
   5.55719995       4.72693409E-06
   5.56920004       6.50873335E-06
   5.58120012       8.16045940E-06
   5.59320021       9.61482692E-06
   5.60519981       1.08134909E-05
   5.61719990       1.17090331E-05
   5.62919998       1.22664187E-05
   5.64120007       1.24639064E-05
   5.65320015       1.22933816E-05
   5.66520023       1.17601239E-05
   5.67719984       1.08820577E-05
   5.68919992       9.68852783E-06
   5.70120001       8.21868798E-06
   5.71320009       6.51960863E-06
   5.72520018       4.64418554E-06
   5.73719978       2.64897812E-06
   5.74919987       5.92059678E-07
   5.76119995      -1.46901789E-06
   5.77320004      -3.47907599E-06
   5.78520012      -5.38691438E-06
   5.79720020      -7.14662929E-06
   5.80919981      -8.71861994E-06
   5.82119989      -1.00702746E-05
   5.83319998      -1.11763293E-05
   5.84520006      -1.20189470E-05
   5.85720015      -1.25875194E-05
   5.86920023      -1.28782613E-05
   5.88119984      -1.28936472E-05
   5.89319992      -1.26417308E-05
   5.90520000      -1.21354278E-05
   5.91720009      -1.13918068E-05
   5.92920017      -1.04314031E-05
   5.94119978      -9.27762085E-06
   5.95319986      -7.95619599E-06
   5.96519995      -6.49475123E-06
   5.97720003      -4.92239769E-06
   5.98920012      -3.26940290E-06
   6.00120020      -1.56687463E-06
   6.01319981       1.53540725E-07
   6.02519989       1.85997578E-06
   6.03719997       3.52069560E-06
   6.04920006       5.10450536E-06
   6.06120014       6.58122735E-06
   6.07320023       7.92226365E-06
   6.08519983       9.10123890E-06
   6.09719992       1.00947236E-05
   6.10920000       1.08830118E-05
   6.12120008       1.14509194E-05
   6.13320017       1.17885675E-05
   6.14519978       1.18920916E-05
   6.15719986       1.17642421E-05
   6.16919994       1.14148124E-05
   6.18120003       1.08608647E-05
   6.19320011       1.01267169E-05
   6.20520020       9.24365304E-06
   6.21719980       8.24935069E-06
   6.22919989       7.18702131E-06
   6.24119997       6.10426378E-06
   6.25320005       5.05166554E-06
   6.26520014       4.08117330E-06
   6.27720022       3.24430675E-06
   6.28919983       2.59026478E-06
   6.30119991       2.16401099E-06
   6.31320000       2.00441491E-06
   6.32520008       2.14253782E-06
   6.33720016       2.60014053E-06
   6.34919977       3.38848758E-06
   6.36119986       4.50751168E-06
   6.37319994       5.94539324E-06
   6.38520002       7.67858910E-06
   6.39720011       9.67232791E-06
   6.40920019       1.18815733E-05
   6.42119980       1.42524341E-05
   6.43319988       1.67239668E-05
   6.44519997       1.92303196E-05
   6.45720005       2.17031229E-05
   6.46920013       2.40740246E-05
   6.48120022       2.62772828E-05
   6.49319983       2.82522869E-05
   6.50519991       2.99459189E-05
   6.51719999       3.13146447E-05
   6.52920008       3.23262575E-05
   6.54120016       3.29611648E-05
   6.55319977       3.32132186E-05
   6.56519985       3.30899675E-05
   6.57719994       3.26123809E-05
   6.58920002       3.18139973E-05
   6.60120010       3.07395530E-05
   6.61320019       2.94431575E-05
   6.62519979       2.79860797E-05
   6.63719988       2.64342470E-05
   6.64919996       2.48555680E-05
   6.66120005       2.33172159E-05
   6.67320013       2.18829591E-05
   6.68520021       2.06106852E-05
   6.69719982       1.95501743E-05
   6.70919991       1.87412588E-05
   6.72119999       1.82124095E-05
   6.73320007       1.79798008E-05
   6.74520016       1.80469215E-05
   6.75719976       1.84047058E-05
   6.76919985       1.90321734E-05
   6.78119993       1.98975777E-05
   6.79320002       2.09599275E-05
   6.80520010       2.21708979E-05
   6.81720018       2.34769323E-05
   6.82919979       2.48215219E-05
   6.84119987       2.61475179E-05
   6.85319996       2.73993755E-05
   6.86520004       2.85252972E-05
   6.87720013       2.94791134E-05
   6.88920021       3.02219159E-05
   6.90119982       3.07233422E-05
   6.91319990       3.09624920E-05
   6.92519999       3.09284405E-05
   6.93720007       3.06203510E-05
   6.94920015       3.00471838E-05
   6.96120024       2.92270342E-05
   6.97319984       2.81861412E-05
   6.98519993       2.69576267E-05
   6.99720001       2.55800151E-05
   7.00920010       2.40955869E-05
   7.02120018       2.25486983E-05
   7.03319979       2.09840491E-05
   7.04519987       1.94450367E-05
   7.05719995       1.79722192E-05
   7.06920004       1.66019508E-05
   7.08120012       1.53652309E-05
   7.09320021       1.42868457E-05
   7.10519981       1.33847616E-05
   7.11719990       1.26698551E-05
   7.12919998       1.21459407E-05
   7.14120007       1.18101016E-05
   7.15320015       1.16533047E-05
   7.16520023       1.16612446E-05
   7.17719984       1.18153830E-05
   7.18919992       1.20941222E-05
   7.20120001       1.24740427E-05
   7.21320009       1.29311402E-05
   7.22520018       1.34420097E-05
   7.23719978       1.39849062E-05
   7.24919987       1.45406384E-05
   7.26119995       1.50932574E-05
   7.27320004       1.56305141E-05
   7.28520012       1.61440730E-05
   7.29720020       1.66294740E-05
   7.30919981       1.70858730E-05
   7.32119989       1.75155492E-05
   7.33319998       1.79232466E-05
   7.34520006       1.83153916E-05
   7.35720015       1.86992020E-05
   7.36920023       1.90817937E-05
   7.38119984       1.94693184E-05
   7.39319992       1.98662037E-05
   7.40520000       2.02745287E-05
   7.41720009       2.06935874E-05
   7.42920017       2.11196912E-05
   7.44119978       2.15461605E-05
   7.45319986       2.19635458E-05
   7.46519995       2.23600473E-05
   7.47720003       2.27220844E-05
   7.48920012       2.30349851E-05
   7.50120020       2.32837592E-05
   7.51319981       2.34539002E-05
   7.52519989       2.35321531E-05
   7.53719997       2.35072475E-05
   7.54920006       2.33705068E-05
   7.56120014       2.31163303E-05
   7.57320023       2.27424771E-05
   7.58519983       2.22502058E-05
   7.59719992       2.16441731E-05
   7.60920000       2.09321606E-05
   7.62120008       2.01246512E-05
   7.63320017       1.92342432E-05
   7.64519978       1.82749900E-05
   7.65719986       1.72616801E-05
   7.66919994       1.62091092E-05
   7.68120003       1.51313952E-05
   7.69320011       1.40413558E-05
   7.70520020       1.29500077E-05
   7.71719980       1.18662010E-05
   7.72919989       1.07964115E-05
   7.74119997       9.74471914E-06
   7.75320005       8.71296015E-06
   7.76520014       7.70106635E-06
   7.77720022       6.70755435E-06
   7.78919983       5.73014449E-06
   7.80119991       4.76648165E-06
   7.81320000       3.81489372E-06
   7.82520008       2.87514695E-06
   7.83720016       1.94914946E-06
   7.84919977       1.04154606E-06
   7.86119986       1.60163452E-07
   7.87319994      -6.83734299E-07
   7.88520002      -1.47541596E-06
   7.89720011      -2.19690060E-06
   7.90920019      -2.82742235E-06
   7.92119980      -3.34415017E-06
   7.93319988      -3.72312979E-06
   7.94519997      -3.94040944E-06
   7.95720005      -3.97330450E-06
   7.96920013      -3.80173014E-06
   7.98120022      -3.40953079E-06
   7.99319983      -2.78573930E-06
   8.00520039      -1.92569655E-06
   8.01720047      -8.31965792E-07
   8.02919960       4.85012379E-07
   8.04119968       2.00656655E-06
   8.05319977       3.70577732E-06
   8.06519985       5.54781445E-06
   8.07719994       7.49062974E-06
   8.08920002       9.48599973E-06
   8.10120010       1.14808809E-05
   8.11320019       1.34190377E-05
   8.12520027       1.52428893E-05
   8.13720036       1.68954775E-05
   8.14920044       1.83225184E-05
   8.16119957       1.94744189E-05
   8.17319965       2.03082000E-05
   8.18519974       2.07892481E-05
   8.19719982       2.08928104E-05
   8.20919991       2.06052173E-05
   8.22119999       1.99247006E-05
   8.23320007       1.88618869E-05
   8.24520016       1.74398338E-05
   8.25720024       1.56936567E-05
   8.26920033       1.36697654E-05
   8.28120041       1.14246623E-05
   8.29319954       9.02341981E-06
   8.30519962       6.53782354E-06
   8.31719971       4.04427101E-06
   8.32919979       1.62147114E-06
   8.34119987      -6.51951950E-07
   8.35319996      -2.69989778E-06
   8.36520004      -4.45116711E-06
   8.37720013      -5.84170903E-06
   8.38920021      -6.81664460E-06
   8.40120029      -7.33201614E-06
   8.41320038      -7.35618733E-06
   8.42520046      -6.87085276E-06
   8.43719959      -5.87164550E-06
   8.44919968      -4.36829941E-06
   8.46119976      -2.38440043E-06
   8.47319984       4.32864198E-08
   8.48519993       2.86587556E-06
   8.49720001       6.02377486E-06
   8.50920010       9.44839849E-06
   8.52120018       1.30641292E-05
   8.53320026       1.67904509E-05
   8.54520035       2.05441975E-05
   8.55720043       2.42417991E-05
   8.56919956       2.78015177E-05
   8.58119965       3.11455369E-05
   8.59319973       3.42018939E-05
   8.60519981       3.69062182E-05
   8.61719990       3.92031616E-05
   8.62919998       4.10476277E-05
   8.64120007       4.24056270E-05
   8.65320015       4.32548986E-05
   8.66520023       4.35851252E-05
   8.67720032       4.33978712E-05
   8.68920040       4.27062041E-05
   8.70119953       4.15339782E-05
   8.71319962       3.99148630E-05
   8.72519970       3.78911609E-05
   8.73719978       3.55123993E-05
   8.74919987       3.28338465E-05
   8.76119995       2.99148633E-05
   8.77320004       2.68172989E-05
   8.78520012       2.36038268E-05
   8.79720020       2.03363397E-05
   8.80920029       1.70744242E-05
   8.82120037       1.38739433E-05
   8.83320045       1.07857868E-05
   8.84519958       7.85481643E-06
   8.85719967       5.11904864E-06
   8.86919975       2.60909019E-06
   8.88119984       3.47843866E-07
   8.89319992      -1.64951723E-06
   8.90520000      -3.37532174E-06
   8.91720009      -4.82894166E-06
   8.92920017      -6.01612965E-06
   8.94120026      -6.94819528E-06
   8.95320034      -7.64104334E-06
   8.96520042      -8.11412519E-06
   8.97719955      -8.38934466E-06
   8.98919964      -8.48995660E-06
   9.00119972      -8.43951511E-06
   9.01319981      -8.26091764E-06
   9.02519989      -7.97558732E-06
   9.03719997      -7.60281955E-06
   9.04920006      -7.15933129E-06
   9.06120014      -6.65900598E-06
   9.07320023      -6.11283940E-06
   9.08520031      -5.52907204E-06
   9.09720039      -4.91348237E-06
   9.10919952      -4.26982297E-06
   9.12119961      -3.60035801E-06
   9.13319969      -2.90647313E-06
   9.14519978      -2.18932223E-06
   9.15719986      -1.45046408E-06
   9.16919994      -6.92453398E-07
   9.18120003       8.06544946E-08
   9.19320011       8.62919762E-07
   9.20520020       1.64627795E-06
   9.21720028       2.42045530E-06
   9.22920036       3.17304239E-06
   9.24120045       3.88971830E-06
   9.25319958       4.55460531E-06
   9.26519966       5.15074680E-06
   9.27719975       5.66067138E-06
   9.28919983       6.06703588E-06
   9.30119991       6.35332481E-06
   9.31320000       6.50456968E-06
   9.32520008       6.50808443E-06
   9.33720016       6.35416882E-06
   9.34920025       6.03676244E-06
   9.36120033       5.55401448E-06
   9.37320042       4.90874390E-06
   9.38519955       4.10876419E-06
   9.39719963       3.16705791E-06
   9.40919971       2.10178519E-06
   9.42119980       9.36115441E-07
   9.43319988      -3.02120696E-07
   9.44519997      -1.58097112E-06
