 -0.622799993         1.00000002E-24
 -0.610800028         1.00000002E-24
 -0.598800004         1.00000002E-24
 -0.586799979         1.00000002E-24
 -0.574800014         1.00000002E-24
 -0.562799990         9.99204256E-25
 -0.550800025         9.89506099E-25
 -0.538800001         9.18629116E-25
 -0.526799977         5.36772169E-25
 -0.514800012        -1.07569606E-24
 -0.502799988        -6.59947031E-24
 -0.490799993        -2.23390672E-23
 -0.478799999        -6.03210948E-23
 -0.466800004        -1.38865293E-22
 -0.454800010        -2.78969994E-22
 -0.442799985        -4.95245210E-22
 -0.430799991        -7.85838344E-22
 -0.418799996        -1.13520533E-21
 -0.406800002        -1.55007982E-21
 -0.394800007        -2.13956142E-21
 -0.382800013        -3.21233874E-21
 -0.370799989        -5.30137591E-21
 -0.358799994        -8.97617546E-21
 -0.346799999        -1.43376783E-20
 -0.334800005        -2.02850471E-20
 -0.322800010        -2.39973691E-20
 -0.310799986        -2.14294369E-20
 -0.298799992        -9.64198638E-21
 -0.286799997         8.91849819E-21
 -0.274800003         2.16535366E-20
 -0.262800008         4.00594766E-21
 -0.250800014        -7.48200761E-20
 -0.238800004        -2.35523704E-19
 -0.226799995        -4.63963486E-19
 -0.214800000        -6.88604440E-19
 -0.202800006        -7.78546580E-19
 -0.190799996        -5.81438953E-19
 -0.178800002        -8.42451142E-21
 -0.166800007         8.53534587E-19
 -0.154799998         1.65545796E-18
 -0.142800003         1.80276094E-18
 -0.130799994         6.39733317E-19
 -0.118799999        -2.19378431E-18
 -0.106799997        -6.33513974E-18
  -9.48000029E-02    -1.04145662E-17
  -8.28000009E-02    -1.21793470E-17
  -7.07999989E-02    -9.21479533E-18
  -5.88000007E-02    -2.13215600E-19
  -4.67999987E-02     1.36073088E-17
  -3.48000005E-02     2.76518124E-17
  -2.28000004E-02     3.44696154E-17
  -1.08000003E-02     2.61308192E-17
   1.20000006E-03    -1.82299068E-18
   1.31999999E-02    -4.61435426E-17
   2.52000000E-02    -9.34644940E-17
   3.72000001E-02    -1.21911335E-16
   4.91999984E-02    -1.07891371E-16
   6.12000003E-02    -3.70806474E-17
   7.32000023E-02     8.39967170E-17
   8.51999968E-02     2.21352394E-16
   9.71999988E-02     3.17419747E-16
  0.109200001         3.08166177E-16
  0.121200003         1.50796521E-16
  0.133200005        -1.46859856E-16
  0.145199999        -5.08640744E-16
  0.157199994        -7.97145989E-16
  0.169200003        -8.52160991E-16
  0.181199998        -5.54757188E-16
  0.193200007         1.02614693E-16
  0.205200002         9.69728528E-16
  0.217199996         1.74554866E-15
  0.229200006         2.05476831E-15
  0.241200000         1.58487382E-15
  0.253199995         2.45031253E-16
  0.265199989        -1.71434990E-15
  0.277200013        -3.68578552E-15
  0.289200008        -4.83399712E-15
  0.301200002        -4.36429194E-15
  0.313199997        -1.86498698E-15
  0.325199991         2.39109185E-15
  0.337199986         7.31930233E-15
  0.349200010         1.11744423E-14
  0.361200005         1.20079473E-14
  0.373199999         8.35033370E-15
  0.385199994        -6.84512339E-17
  0.397199988        -1.18141911E-14
  0.409200013        -2.37052809E-14
  0.421200007        -3.13825300E-14
  0.433200002        -3.04727557E-14
  0.445199996        -1.81205572E-14
  0.457199991         5.52119707E-15
  0.469199985         3.63503308E-14
  0.481200010         6.63946572E-14
  0.493200004         8.51892883E-14
  0.505200028         8.23990263E-14
  0.517199993         5.12285831E-14
  0.529200017        -8.21639492E-15
  0.541199982        -8.66900884E-14
  0.553200006        -1.65741498E-13
  0.565199971        -2.20527915E-13
  0.577199996        -2.25537945E-13
  0.589200020        -1.62358232E-13
  0.601199985        -2.77029850E-14
  0.613200009         1.60721886E-13
  0.625199974         3.63037535E-13
  0.637199998         5.22524027E-13
  0.649200022         5.77805924E-13
  0.661199987         4.80167338E-13
  0.673200011         2.12128763E-13
  0.685199976        -1.98125370E-13
  0.697200000        -6.72134169E-13
  0.709200025        -1.09053923E-12
  0.721199989        -1.31739097E-12
  0.733200014        -1.23590851E-12
  0.745199978        -7.87757609E-13
  0.757200003        -4.83343427E-15
  0.769200027         9.77836410E-13
  0.781199992         1.93636903E-12
  0.793200016         2.60141821E-12
  0.805199981         2.72428759E-12
  0.817200005         2.15122755E-12
  0.829200029         8.86043084E-13
  0.841199994        -8.79294847E-13
  0.853200018        -2.78076455E-12
  0.865199983        -4.34897778E-12
  0.877200007        -5.11642248E-12
  0.889199972        -4.74211078E-12
  0.901199996        -3.12201068E-12
  0.913200021        -4.52991648E-13
  0.925199986         2.77354485E-12
  0.937200010         5.85596285E-12
  0.949199975         8.03188419E-12
  0.961199999         8.66102329E-12
  0.973200023         7.39706907E-12
  0.985199988         4.30281462E-12
  0.997200012        -1.26487118E-13
   1.00919998        -5.04528580E-12
   1.02119994        -9.43243487E-12
   1.03320003        -1.23201354E-11
   1.04519999        -1.30219655E-11
   1.05719995        -1.13016176E-11
   1.06920004        -7.43615152E-12
   1.08120000        -2.15288573E-12
   1.09319997         3.54869020E-12
   1.10520005         8.64747076E-12
   1.11720002         1.23599160E-11
   1.12919998         1.43385087E-11
   1.14119995         1.47528934E-11
   1.15320003         1.42255201E-11
   1.16520000         1.36311327E-11
   1.17719996         1.38066798E-11
   1.18920004         1.52457248E-11
   1.20120001         1.78621007E-11
   1.21319997         2.08982137E-11
   1.22520006         2.30262961E-11
   1.23720002         2.26522308E-11
   1.24919999         1.83907490E-11
   1.26119995         9.64719190E-12
   1.27320004        -2.77761971E-12
   1.28520000        -1.61429689E-11
   1.29719996        -2.53495887E-11
   1.30920005        -2.26802448E-11
   1.32120001         2.30512788E-12
   1.33319998         6.27622260E-11
   1.34519994         1.74516276E-10
   1.35720003         3.56071311E-10
   1.36919999         6.28780195E-10
   1.38119996         1.01728770E-09
   1.39320004         1.55037128E-09
   1.40520000         2.26232721E-09
   1.41719997         3.19510018E-09
   1.42920005         4.40145431E-09
   1.44120002         5.94961413E-09
   1.45319998         7.93000865E-09
   1.46519995         1.04649933E-08
   1.47720003         1.37227234E-08
   1.48920000         1.79366459E-08
   1.50119996         2.34323529E-08
   1.51320004         3.06637808E-08
   1.52520001         4.02607903E-08
   1.53719997         5.30901438E-08
   1.54920006         7.03315663E-08
   1.56120002         9.35701507E-08
   1.57319999         1.24905441E-07
   1.58519995         1.67076720E-07
   1.59720004         2.23602470E-07
   1.60920000         2.98930928E-07
   1.62119997         3.98596143E-07
   1.63320005         5.29373665E-07
   1.64520001         6.99426039E-07
   1.65719998         9.18428327E-07
   1.66919994         1.19766196E-06
   1.68120003         1.55006194E-06
   1.69319999         1.99020610E-06
   1.70519996         2.53423036E-06
   1.71720004         3.19965716E-06
   1.72920001         4.00512818E-06
   1.74119997         4.97003111E-06
   1.75320005         6.11402265E-06
   1.76520002         7.45644002E-06
   1.77719998         9.01562544E-06
   1.78919995         1.08081576E-05
   1.80120003         1.28480351E-05
   1.81320000         1.51458144E-05
   1.82519996         1.77077709E-05
   1.83720005         2.05350752E-05
   1.84920001         2.36230717E-05
   1.86119998         2.69606644E-05
   1.87320006         3.05298745E-05
   1.88520002         3.43056017E-05
   1.89719999         3.82556027E-05
   1.90919995         4.23407437E-05
   1.92120004         4.65155208E-05
   1.93320000         5.07288423E-05
   1.94519997         5.49251017E-05
   1.95720005         5.90454911E-05
   1.96920002         6.30295035E-05
   1.98119998         6.68166249E-05
   1.99319994         7.03481273E-05
   2.00519991         7.35688882E-05
   2.01719999         7.64292054E-05
   2.02920008         7.88864272E-05
   2.04119992         8.09064659E-05
   2.05320001         8.24650706E-05
   2.06520009         8.35486499E-05
   2.07719994         8.41548972E-05
   2.08920002         8.42928930E-05
   2.10120010         8.39828645E-05
   2.11319995         8.32554724E-05
   2.12520003         8.21508220E-05
   2.13720012         8.07169854E-05
   2.14919996         7.90083868E-05
   2.16120005         7.70838451E-05
   2.17319989         7.50045874E-05
   2.18519998         7.28321538E-05
   2.19720006         7.06263745E-05
   2.20919991         6.84434563E-05
   2.22119999         6.63343162E-05
   2.23320007         6.43431122E-05
   2.24519992         6.25061730E-05
   2.25720000         6.08512673E-05
   2.26920009         5.93972436E-05
   2.28119993         5.81540662E-05
   2.29320002         5.71232085E-05
   2.30520010         5.62983842E-05
   2.31719995         5.56665400E-05
   2.32920003         5.52091042E-05
   2.34120011         5.49033430E-05
   2.35319996         5.47238524E-05
   2.36520004         5.46440242E-05
   2.37719989         5.46374868E-05
   2.38919997         5.46794436E-05
   2.40120006         5.47478339E-05
   2.41319990         5.48243079E-05
   2.42519999         5.48949902E-05
   2.43720007         5.49509787E-05
   2.44919991         5.49885917E-05
   2.46120000         5.50094010E-05
   2.47320008         5.50199838E-05
   2.48519993         5.50314326E-05
   2.49720001         5.50587065E-05
   2.50920010         5.51197336E-05
   2.52119994         5.52343918E-05
   2.53320003         5.54233775E-05
   2.54520011         5.57069543E-05
   2.55719995         5.61037159E-05
   2.56920004         5.66293529E-05
   2.58119988         5.72954777E-05
   2.59319997         5.81086315E-05
   2.60520005         5.90694544E-05
   2.61719990         6.01721295E-05
   2.62919998         6.14040982E-05
   2.64120007         6.27461704E-05
   2.65319991         6.41729275E-05
   2.66520000         6.56535703E-05
   2.67720008         6.71530797E-05
   2.68919992         6.86337007E-05
   2.70120001         7.00566670E-05
   2.71320009         7.13841728E-05
   2.72519994         7.25813661E-05
   2.73720002         7.36183210E-05
   2.74920011         7.44718782E-05
   2.76119995         7.51272601E-05
   2.77320004         7.55792425E-05
   2.78520012         7.58330352E-05
   2.79719996         7.59045288E-05
   2.80920005         7.58201641E-05
   2.82119989         7.56162044E-05
   2.83319998         7.53375862E-05
   2.84520006         7.50364197E-05
   2.85719991         7.47701342E-05
   2.86919999         7.45995058E-05
   2.88120008         7.45865254E-05
   2.89319992         7.47924278E-05
   2.90520000         7.52757333E-05
   2.91720009         7.60905896E-05
   2.92919993         7.72853164E-05
   2.94120002         7.89012702E-05
   2.95320010         8.09719495E-05
   2.96519995         8.35223254E-05
   2.97720003         8.65683905E-05
   2.98920012         9.01168678E-05
   3.00119996         9.41649487E-05
   3.01320004         9.87000749E-05
   3.02519989         1.03699793E-04
   3.03719997         1.09131550E-04
   3.04920006         1.14952505E-04
   3.06119990         1.21109508E-04
   3.07319999         1.27539039E-04
   3.08520007         1.34167451E-04
   3.09719992         1.40911463E-04
   3.10920000         1.47678933E-04
   3.12120008         1.54370035E-04
   3.13319993         1.60878961E-04
   3.14520001         1.67095815E-04
   3.15720010         1.72909102E-04
   3.16919994         1.78208458E-04
   3.18120003         1.82887670E-04
   3.19320011         1.86847785E-04
   3.20519996         1.90000239E-04
   3.21720004         1.92269872E-04
   3.22919989         1.93597632E-04
   3.24119997         1.93942906E-04
   3.25320005         1.93285407E-04
   3.26519990         1.91626343E-04
   3.27719998         1.88989041E-04
   3.28920007         1.85418889E-04
   3.30119991         1.80982563E-04
   3.31320000         1.75766632E-04
   3.32520008         1.69875493E-04
   3.33719993         1.63428849E-04
   3.34920001         1.56558584E-04
   3.36120009         1.49405387E-04
   3.37319994         1.42114892E-04
   3.38520002         1.34833812E-04
   3.39720011         1.27705789E-04
   3.40919995         1.20867415E-04
   3.42120004         1.14444272E-04
   3.43319988         1.08547305E-04
   3.44519997         1.03269515E-04
   3.45720005         9.86832456E-05
   3.46919990         9.48380475E-05
   3.48119998         9.17592770E-05
   3.49320006         8.94475961E-05
   3.50519991         8.78792489E-05
   3.51719999         8.70073927E-05
   3.52920008         8.67642084E-05
   3.54119992         8.70638687E-05
   3.55320001         8.78062710E-05
   3.56520009         8.88812428E-05
   3.57719994         9.01732274E-05
   3.58920002         9.15660494E-05
   3.60120010         9.29475864E-05
   3.61319995         9.42142215E-05
   3.62520003         9.52746632E-05
   3.63720012         9.60531470E-05
   3.64919996         9.64917272E-05
   3.66120005         9.65516374E-05
   3.67319989         9.62137201E-05
   3.68519998         9.54778734E-05
   3.69720006         9.43616105E-05
   3.70919991         9.28979571E-05
   3.72119999         9.11327006E-05
   3.73320007         8.91212840E-05
   3.74519992         8.69254582E-05
   3.75720000         8.46099356E-05
   3.76920009         8.22391958E-05
   3.78119993         7.98745386E-05
   3.79320002         7.75715671E-05
   3.80520010         7.53781642E-05
   3.81719995         7.33329507E-05
   3.82920003         7.14643029E-05
   3.84120011         6.97899450E-05
   3.85319996         6.83169565E-05
   3.86520004         6.70422960E-05
   3.87719989         6.59537109E-05
   3.88919997         6.50309594E-05
   3.90120006         6.42473169E-05
   3.91319990         6.35712931E-05
   3.92519999         6.29684728E-05
   3.93720007         6.24034437E-05
   3.94919991         6.18416962E-05
   3.96120000         6.12514632E-05
   3.97320008         6.06054564E-05
   3.98519993         5.98822917E-05
   3.99720001         5.90677155E-05
   4.00920010         5.81554195E-05
   4.02120018         5.71474957E-05
   4.03319979         5.60544213E-05
   4.04519987         5.48946118E-05
   4.05719995         5.36935368E-05
   4.06920004         5.24823954E-05
   4.08120012         5.12965125E-05
   4.09320021         5.01734139E-05
   4.10519981         4.91507890E-05
   4.11719990         4.82644027E-05
   4.12919998         4.75460802E-05
   4.14120007         4.70219275E-05
   4.15320015         4.67108403E-05
   4.16520023         4.66234123E-05
   4.17719984         4.67613463E-05
   4.18919992         4.71173335E-05
   4.20120001         4.76754358E-05
   4.21320009         4.84119773E-05
   4.22520018         4.92968138E-05
   4.23719978         5.02949551E-05
   4.24919987         5.13683844E-05
   4.26119995         5.24780444E-05
   4.27320004         5.35857835E-05
   4.28520012         5.46562078E-05
   4.29720020         5.56583182E-05
   4.30919981         5.65668597E-05
   4.32119989         5.73632751E-05
   4.33319998         5.80363012E-05
   4.34520006         5.85820890E-05
   4.35720015         5.90039308E-05
   4.36920023         5.93116056E-05
   4.38119984         5.95203492E-05
   4.39319992         5.96495993E-05
   4.40520000         5.97215185E-05
   4.41720009         5.97594626E-05
   4.42920017         5.97864309E-05
   4.44119978         5.98236475E-05
   4.45319986         5.98893093E-05
   4.46519995         5.99976265E-05
   4.47720003         6.01581851E-05
   4.48920012         6.03756853E-05
   4.50120020         6.06500398E-05
   4.51319981         6.09768795E-05
   4.52519989         6.13483498E-05
   4.53719997         6.17542464E-05
   4.54920006         6.21832587E-05
   4.56120014         6.26243927E-05
   4.57320023         6.30682844E-05
   4.58519983         6.35084580E-05
   4.59719992         6.39423233E-05
   4.60920000         6.43717649E-05
   4.62120008         6.48034038E-05
   4.63320017         6.52483432E-05
   4.64519978         6.57214332E-05
   4.65719986         6.62400489E-05
   4.66919994         6.68225111E-05
   4.68120003         6.74862094E-05
   4.69320011         6.82454556E-05
   4.70520020         6.91094683E-05
   4.71719980         7.00803648E-05
   4.72919989         7.11516332E-05
   4.74119997         7.23069606E-05
   4.75320005         7.35197464E-05
   4.76520014         7.47533777E-05
   4.77720022         7.59621689E-05
   4.78919983         7.70932020E-05
   4.80119991         7.80887349E-05
   4.81320000         7.88892721E-05
   4.82520008         7.94371081E-05
   4.83720016         7.96799359E-05
   4.84919977         7.95745655E-05
   4.86119986         7.90903141E-05
   4.87319994         7.82118877E-05
   4.88520002         7.69415856E-05
   4.89720011         7.53005734E-05
   4.90920019         7.33291454E-05
   4.92119980         7.10859094E-05
   4.93319988         6.86459534E-05
   4.94519997         6.60979713E-05
   4.95720005         6.35405813E-05
   4.96920013         6.10779680E-05
   4.98120022         5.88151634E-05
   4.99319983         5.68531432E-05
   5.00519991         5.52840902E-05
   5.01719999         5.41870322E-05
   5.02920008         5.36241459E-05
   5.04120016         5.36378648E-05
   5.05319977         5.42490016E-05
   5.06519985         5.54558937E-05
   5.07719994         5.72346689E-05
   5.08920002         5.95404890E-05
   5.10120010         6.23097440E-05
   5.11320019         6.54630276E-05
   5.12519979         6.89086519E-05
   5.13719988         7.25466380E-05
   5.14919996         7.62727723E-05
   5.16120005         7.99827976E-05
   5.17320013         8.35762039E-05
   5.18520021         8.69598371E-05
   5.19719982         9.00509331E-05
   5.20919991         9.27795554E-05
   5.22119999         9.50904941E-05
   5.23320007         9.69443427E-05
   5.24520016         9.83180944E-05
   5.25719976         9.92049972E-05
   5.26919985         9.96138697E-05
   5.28119993         9.95679511E-05
   5.29320002         9.91033157E-05
   5.30520010         9.82669226E-05
   5.31720018         9.71144909E-05
   5.32919979         9.57082302E-05
   5.34119987         9.41144463E-05
   5.35319996         9.24012784E-05
   5.36520004         9.06364730E-05
   5.37720013         8.88853610E-05
   5.38920021         8.72091114E-05
   5.40119982         8.56631377E-05
   5.41319990         8.42959562E-05
   5.42519999         8.31482757E-05
   5.43720007         8.22524307E-05
   5.44920015         8.16321262E-05
   5.46120024         8.13024890E-05
   5.47319984         8.12703292E-05
   5.48519993         8.15346430E-05
   5.49720001         8.20872519E-05
   5.50920010         8.29135533E-05
   5.52120018         8.39933273E-05
   5.53319979         8.53015081E-05
   5.54519987         8.68089846E-05
   5.55719995         8.84832625E-05
   5.56920004         9.02891261E-05
   5.58120012         9.21891915E-05
   5.59320021         9.41443941E-05
   5.60519981         9.61144906E-05
   5.61719990         9.80585683E-05
   5.62919998         9.99354961E-05
   5.64120007         1.01704587E-04
   5.65320015         1.03326180E-04
   5.66520023         1.04762454E-04
   5.67719984         1.05978281E-04
   5.68919992         1.06942069E-04
   5.70120001         1.07626831E-04
   5.71320009         1.08011089E-04
   5.72520018         1.08079817E-04
   5.73719978         1.07825297E-04
   5.74919987         1.07247724E-04
   5.76119995         1.06355677E-04
   5.77320004         1.05166306E-04
   5.78520012         1.03705170E-04
   5.79720020         1.02005790E-04
   5.80919981         1.00108955E-04
   5.82119989         9.80615514E-05
   5.83319998         9.59152530E-05
   5.84520006         9.37249715E-05
   5.85720015         9.15471246E-05
   5.86920023         8.94377517E-05
   5.88119984         8.74507386E-05
   5.89319992         8.56360130E-05
   5.90520000         8.40378998E-05
   5.91720009         8.26937103E-05
   5.92920017         8.16325191E-05
   5.94119978         8.08743789E-05
   5.95319986         8.04297015E-05
   5.96519995         8.02991199E-05
   5.97720003         8.04735682E-05
   5.98920012         8.09348203E-05
   6.00120020         8.16561078E-05
   6.01319981         8.26031901E-05
   6.02519989         8.37354455E-05
   6.03719997         8.50072756E-05
   6.04920006         8.63695022E-05
   6.06120014         8.77709390E-05
   6.07320023         8.91599411E-05
   6.08519983         9.04860572E-05
   6.09719992         9.17015495E-05
   6.10920000         9.27629808E-05
   6.12120008         9.36326687E-05
   6.13320017         9.42800252E-05
   6.14519978         9.46827058E-05
   6.15719986         9.48276574E-05
   6.16919994         9.47117587E-05
   6.18120003         9.43422710E-05
   6.19320011         9.37368968E-05
   6.20520020         9.29234157E-05
   6.21719980         9.19390004E-05
   6.22919989         9.08289803E-05
   6.24119997         8.96453130E-05
   6.25320005         8.84445981E-05
   6.26520014         8.72858218E-05
   6.27720022         8.62278466E-05
   6.28919983         8.53268066E-05
   6.30119991         8.46334588E-05
   6.31320000         8.41907240E-05
   6.32520008         8.40314824E-05
   6.33720016         8.41768269E-05
   6.34919977         8.46347612E-05
   6.36119986         8.53996244E-05
   6.37319994         8.64521571E-05
   6.38520002         8.77602724E-05
   6.39720011         8.92805037E-05
   6.40920019         9.09600640E-05
   6.42119980         9.27393994E-05
   6.43319988         9.45550710E-05
   6.44519997         9.63428029E-05
   6.45720005         9.80405021E-05
   6.46920013         9.95911250E-05
   6.48120022         1.00945064E-04
   6.49319983         1.02062164E-04
   6.50519991         1.02912985E-04
   6.51719999         1.03479491E-04
   6.52920008         1.03754988E-04
   6.54120016         1.03743427E-04
   6.55319977         1.03458187E-04
   6.56519985         1.02920349E-04
   6.57719994         1.02156773E-04
   6.58920002         1.01197948E-04
   6.60120010         1.00075995E-04
   6.61320019         9.88227403E-05
   6.62519979         9.74682043E-05
   6.63719988         9.60394682E-05
   6.64919996         9.45599459E-05
   6.66120005         9.30492024E-05
   6.67320013         9.15231431E-05
   6.68520021         8.99945662E-05
   6.69719982         8.84740439E-05
   6.70919991         8.69708820E-05
   6.72119999         8.54941536E-05
   6.73320007         8.40536813E-05
   6.74520016         8.26608448E-05
   6.75719976         8.13291117E-05
   6.76919985         8.00742637E-05
   6.78119993         7.89143814E-05
   6.79320002         7.78694302E-05
   6.80520010         7.69606195E-05
   6.81720018         7.62095879E-05
   6.82919979         7.56373702E-05
   6.84119987         7.52634005E-05
   6.85319996         7.51045518E-05
   6.86520004         7.51742045E-05
   6.87720013         7.54815701E-05
   6.88920021         7.60312032E-05
   6.90119982         7.68227037E-05
   6.91319990         7.78506728E-05
   6.92519999         7.91049024E-05
   6.93720007         8.05706732E-05
   6.94920015         8.22292859E-05
   6.96120024         8.40585635E-05
   6.97319984         8.60334912E-05
   6.98519993         8.81267333E-05
   6.99720001         9.03092077E-05
   7.00920010         9.25505010E-05
   7.02120018         9.48192246E-05
   7.03319979         9.70833353E-05
   7.04519987         9.93102876E-05
   7.05719995         1.01467274E-04
   7.06920004         1.03521415E-04
   7.08120012         1.05440005E-04
   7.09320021         1.07190885E-04
   7.10519981         1.08742912E-04
   7.11719990         1.10066605E-04
   7.12919998         1.11134948E-04
   7.14120007         1.11924361E-04
   7.15320015         1.12415721E-04
   7.16520023         1.12595553E-04
   7.17719984         1.12457084E-04
   7.18919992         1.12001311E-04
   7.20120001         1.11237765E-04
   7.21320009         1.10185065E-04
   7.22520018         1.08870991E-04
   7.23719978         1.07332213E-04
   7.24919987         1.05613435E-04
   7.26119995         1.03766091E-04
   7.27320004         1.01846548E-04
   7.28520012         9.99139447E-05
   7.29720020         9.80277182E-05
   7.30919981         9.62449703E-05
   7.32119989         9.46178407E-05
   7.33319998         9.31910254E-05
   7.34520006         9.19996237E-05
   7.35720015         9.10674498E-05
   7.36920023         9.04059198E-05
   7.38119984         9.00136001E-05
   7.39319992         8.98764847E-05
   7.40520000         8.99689476E-05
   7.41720009         9.02553293E-05
   7.42920017         9.06920832E-05
   7.44119978         9.12302276E-05
   7.45319986         9.18180667E-05
   7.46519995         9.24039632E-05
   7.47720003         9.29388625E-05
   7.48920012         9.33786141E-05
   7.50120020         9.36858123E-05
   7.51319981         9.38311350E-05
   7.52519989         9.37940713E-05
   7.53719997         9.35631833E-05
   7.54920006         9.31357572E-05
   7.56120014         9.25171116E-05
   7.57320023         9.17195430E-05
   7.58519983         9.07611466E-05
   7.59719992         8.96644779E-05
   7.60920000         8.84553810E-05
   7.62120008         8.71618831E-05
   7.63320017         8.58133426E-05
   7.64519978         8.44398310E-05
   7.65719986         8.30716963E-05
   7.66919994         8.17394393E-05
   7.68120003         8.04735464E-05
   7.69320011         7.93045183E-05
   7.70520020         7.82627103E-05
   7.71719980         7.73781940E-05
   7.72919989         7.66802768E-05
   7.74119997         7.61968986E-05
   7.75320005         7.59537725E-05
   7.76520014         7.59732502E-05
   7.77720022         7.62731797E-05
   7.78919983         7.68655591E-05
   7.80119991         7.77553578E-05
   7.81320000         7.89394908E-05
   7.82520008         8.04060328E-05
   7.83720016         8.21339127E-05
   7.84919977         8.40929788E-05
   7.86119986         8.62446614E-05
   7.87319994         8.85430782E-05
   7.88520002         9.09365990E-05
   7.89720011         9.33698902E-05
   7.90920019         9.57860539E-05
   7.92119980         9.81290723E-05
   7.93319988         1.00346078E-04
   7.94519997         1.02389531E-04
   7.95720005         1.04219020E-04
   7.96920013         1.05802610E-04
   7.98120022         1.07117776E-04
   7.99319983         1.08151580E-04
   8.00520039         1.08900487E-04
   8.01720047         1.09369568E-04
   8.02919960         1.09571360E-04
   8.04119968         1.09524415E-04
   8.05319977         1.09251720E-04
   8.06519985         1.08779102E-04
   8.07719994         1.08133776E-04
   8.08920002         1.07343170E-04
   8.10120010         1.06433996E-04
   8.11320019         1.05431842E-04
   8.12520027         1.04360981E-04
   8.13720036         1.03244645E-04
   8.14920044         1.02105514E-04
   8.16119957         1.00966354E-04
   8.17319965         9.98507239E-05
   8.18519974         9.87835156E-05
   8.19719982         9.77913587E-05
   8.20919991         9.69026005E-05
   8.22119999         9.61469195E-05
   8.23320007         9.55545402E-05
   8.24520016         9.51549373E-05
   8.25720024         9.49752575E-05
   8.26920033         9.50384565E-05
   8.28120041         9.53613271E-05
   8.29319954         9.59526660E-05
   8.30519962         9.68114982E-05
   8.31719971         9.79259275E-05
   8.32919979         9.92723290E-05
   8.34119987         1.00815363E-04
   8.35319996         1.02508602E-04
   8.36520004         1.04295897E-04
   8.37720013         1.06113454E-04
   8.38920021         1.07892396E-04
   8.40120029         1.09561784E-04
   8.41320038         1.11051886E-04
   8.42520046         1.12297421E-04
   8.43719959         1.13240669E-04
   8.44919968         1.13834154E-04
   8.46119976         1.14042923E-04
   8.47319984         1.13846050E-04
   8.48519993         1.13237496E-04
   8.49720001         1.12226182E-04
   8.50920010         1.10835339E-04
   8.52120018         1.09101282E-04
   8.53320026         1.07071493E-04
   8.54520035         1.04802471E-04
   8.55720043         1.02357168E-04
   8.56919956         9.98024116E-05
   8.58119965         9.72063426E-05
   8.59319973         9.46360087E-05
   8.60519981         9.21552128E-05
   8.61719990         8.98226644E-05
   8.62919998         8.76905178E-05
   8.64120007         8.58031999E-05
   8.65320015         8.41966466E-05
   8.66520023         8.28977645E-05
   8.67720032         8.19242268E-05
   8.68920040         8.12843864E-05
   8.70119953         8.09774428E-05
   8.71319962         8.09936973E-05
   8.72519970         8.13149236E-05
   8.73719978         8.19149573E-05
   8.74919987         8.27602780E-05
   8.76119995         8.38109117E-05
   8.77320004         8.50213837E-05
   8.78520012         8.63419409E-05
   8.79720020         8.77199200E-05
   8.80920029         8.91013697E-05
   8.82120037         9.04327608E-05
   8.83320045         9.16628560E-05
   8.84519958         9.27445508E-05
   8.85719967         9.36366414E-05
   8.86919975         9.43054911E-05
   8.88119984         9.47263616E-05
   8.89319992         9.48844172E-05
   8.90520000         9.47753142E-05
   8.91720009         9.44052590E-05
   8.92920017         9.37906079E-05
   8.94120026         9.29569724E-05
   8.95320034         9.19378435E-05
   8.96520042         9.07728463E-05
   8.97719955         8.95057237E-05
   8.98919964         8.81821907E-05
   9.00119972         8.68477000E-05
   9.01319981         8.55453982E-05
   9.02519989         8.43142479E-05
   9.03719997         8.31875150E-05
   9.04920006         8.21916838E-05
   9.06120014         8.13458537E-05
   9.07320023         8.06615644E-05
   9.08520031         8.01431452E-05