 -0.622799993       0.00000000    
 -0.610800028       0.00000000    
 -0.598800004       0.00000000    
 -0.586799979      -7.36160243E-19
 -0.574800014      -9.10131360E-18
 -0.562799990      -5.01406910E-17
 -0.550800025      -1.77220442E-16
 -0.538800001      -4.60182201E-16
 -0.526799977      -9.32199357E-16
 -0.514800012      -1.50201864E-15
 -0.502799988      -1.88708183E-15
 -0.490799993      -1.66949389E-15
 -0.478799999      -5.77641106E-16
 -0.466800004       9.88190670E-16
 -0.454800010       1.34077226E-15
 -0.442799985      -2.84238698E-15
 -0.430799991      -1.61361775E-14
 -0.418799996      -4.29147108E-14
 -0.406800002      -8.49255020E-14
 -0.394800007      -1.38666558E-13
 -0.382800013      -1.94001011E-13
 -0.370799989      -2.35686335E-13
 -0.358799994      -2.48944745E-13
 -0.346799999      -2.28726191E-13
 -0.334800005      -1.90221279E-13
 -0.322800010      -1.76250697E-13
 -0.310799986      -2.56455095E-13
 -0.298799992      -5.14652177E-13
 -0.286799997      -1.02456303E-12
 -0.274800003      -1.81952587E-12
 -0.262800008      -2.86691699E-12
 -0.250800014      -4.06032282E-12
 -0.238800004      -5.23996905E-12
 -0.226799995      -6.24386653E-12
 -0.214800000      -6.98021545E-12
 -0.202800006      -7.49959903E-12
 -0.190799996      -8.03847093E-12
 -0.178800002      -9.00775548E-12
 -0.166800007      -1.09138419E-11
 -0.154799998      -1.42214652E-11
 -0.142800003      -1.91924844E-11
 -0.130799994      -2.57522476E-11
 -0.118799999      -3.34378497E-11
 -0.106799997      -4.14654457E-11
  -9.48000029E-02  -4.89193790E-11
  -8.28000009E-02  -5.50233296E-11
  -7.07999989E-02  -5.94170060E-11
  -5.88000007E-02  -6.23456148E-11
  -4.67999987E-02  -6.46827453E-11
  -3.48000005E-02  -6.77504025E-11
  -2.28000004E-02  -7.29621849E-11
  -1.08000003E-02  -8.13784318E-11
   1.20000006E-03  -9.33037328E-11
   1.31999999E-02  -1.08061185E-10
   2.52000000E-02  -1.24037683E-10
   3.72000001E-02  -1.39019851E-10
   4.91999984E-02  -1.50750218E-10
   6.12000003E-02  -1.57557162E-10
   7.32000023E-02  -1.58874497E-10
   8.51999968E-02  -1.55483362E-10
   9.71999988E-02  -1.49379564E-10
  0.109200001      -1.43275725E-10
  0.121200003      -1.39859666E-10
  0.133200005      -1.41015144E-10
  0.145199999      -1.47238582E-10
  0.157199994      -1.57445113E-10
  0.169200003      -1.69253792E-10
  0.181199998      -1.79702100E-10
  0.193200007      -1.86202775E-10
  0.205200002      -1.87462657E-10
  0.217199996      -1.84067137E-10
  0.229200006      -1.78506265E-10
  0.241200000      -1.74568776E-10
  0.253199995      -1.76218470E-10
  0.265199989      -1.86241286E-10
  0.277200013      -2.05054973E-10
  0.289200008      -2.30066632E-10
  0.301200002      -2.55836657E-10
  0.313199997      -2.75090256E-10
  0.325199991      -2.80370116E-10
  0.337199986      -2.65923478E-10
  0.349200010      -2.29333816E-10
  0.361200005      -1.72477699E-10
  0.373199999      -1.01593012E-10
  0.385199994      -2.65226712E-11
  0.397199988       4.05523184E-11
  0.409200013       8.64546629E-11
  0.421200007       9.80524689E-11
  0.433200002       6.28651159E-11
  0.445199996      -3.05681487E-11
  0.457199991      -1.92055816E-10
  0.469199985      -4.28225455E-10
  0.481200010      -7.39591999E-10
  0.493200004      -1.11609599E-09
  0.505200028      -1.53152946E-09
  0.517199993      -1.93779459E-09
  0.529200017      -2.26027974E-09
  0.541199982      -2.39563414E-09
  0.553200006      -2.21287899E-09
  0.565199971      -1.55815816E-09
  0.577199996      -2.62708105E-10
  0.589200020       1.84700244E-09
  0.601199985       4.93840080E-09
  0.613200009       9.16281717E-09
  0.625199974       1.46479726E-08
  0.637199998       2.14946567E-08
  0.649200022       2.97795690E-08
  0.661199987       3.95669630E-08
  0.673200011       5.09326092E-08
  0.685199976       6.40044462E-08
  0.697200000       7.90249217E-08
  0.709200025       9.64396634E-08
  0.721199989       1.17016334E-07
  0.733200014       1.41995343E-07
  0.745199978       1.73271275E-07
  0.757200003       2.13601197E-07
  0.769200027       2.66832302E-07
  0.781199992       3.38139017E-07
  0.793200016       4.34257174E-07
  0.805199981       5.63700610E-07
  0.817200005       7.36944742E-07
  0.829200029       9.66559810E-07
  0.841199994       1.26727559E-06
  0.853200018       1.65596157E-06
  0.865199983       2.15150453E-06
  0.877200007       2.77457139E-06
  0.889199972       3.54724898E-06
  0.901199996       4.49255958E-06
  0.913200021       5.63385538E-06
  0.925199986       6.99411476E-06
  0.937200010       8.59515148E-06
  0.949199975       1.04567816E-05
  0.961199999       1.25959750E-05
  0.973200023       1.50260385E-05
  0.985199988       1.77558632E-05
  0.997200012       2.07892863E-05
   1.00919998       2.41246016E-05
   1.02119994       2.77542404E-05
   1.03320003       3.16646474E-05
   1.04519999       3.58363723E-05
   1.05719995       4.02443657E-05
   1.06920004       4.48584578E-05
   1.08120000       4.96440443E-05
   1.09319997       5.45628682E-05
   1.10520005       5.95739111E-05
   1.11720002       6.46343615E-05
   1.12919998       6.97005235E-05
   1.14119995       7.47287777E-05
   1.15320003       7.96764289E-05
   1.16520000       8.45024697E-05
   1.17719996       8.91683376E-05
   1.18920004       9.36384531E-05
   1.20120001       9.78808166E-05
   1.21319997       1.01867467E-04
   1.22520006       1.05574945E-04
   1.23720002       1.08984699E-04
   1.24919999       1.12083515E-04
   1.26119995       1.14863913E-04
   1.27320004       1.17324547E-04
   1.28520000       1.19470540E-04
   1.29719996       1.21313737E-04
   1.30920005       1.22872880E-04
   1.32120001       1.24173559E-04
   1.33319998       1.25247941E-04
   1.34519994       1.26134255E-04
   1.35720003       1.26875981E-04
   1.36919999       1.27520645E-04
   1.38119996       1.28118452E-04
   1.39320004       1.28720567E-04
   1.40520000       1.29377266E-04
   1.41719997       1.30136003E-04
   1.42920005       1.31039487E-04
   1.44120002       1.32123881E-04
   1.45319998       1.33417401E-04
   1.46519995       1.34939080E-04
   1.47720003       1.36698276E-04
   1.48920000       1.38694508E-04
   1.50119996       1.40917880E-04
   1.51320004       1.43350175E-04
   1.52520001       1.45966187E-04
   1.53719997       1.48735708E-04
   1.54920006       1.51625471E-04
   1.56120002       1.54601352E-04
   1.57319999       1.57630508E-04
   1.58519995       1.60683165E-04
   1.59720004       1.63734265E-04
   1.60920000       1.66764396E-04
   1.62119997       1.69760562E-04
   1.63320005       1.72716085E-04
   1.64520001       1.75630281E-04
   1.65719998       1.78507471E-04
   1.66919994       1.81355848E-04
   1.68120003       1.84185948E-04
   1.69319999       1.87009195E-04
   1.70519996       1.89836341E-04
   1.71720004       1.92676234E-04
   1.72920001       1.95534740E-04
   1.74119997       1.98414054E-04
   1.75320005       2.01312432E-04
   1.76520002       2.04224300E-04
   1.77719998       2.07140532E-04
   1.78919995       2.10049227E-04
   1.80120003       2.12936458E-04
   1.81320000       2.15787179E-04
   1.82519996       2.18585978E-04
   1.83720005       2.21317838E-04
   1.84920001       2.23968513E-04
   1.86119998       2.26524731E-04
   1.87320006       2.28973979E-04
   1.88520002       2.31304075E-04
   1.89719999       2.33502476E-04
   1.90919995       2.35555228E-04
   1.92120004       2.37445958E-04
   1.93320000       2.39154688E-04
   1.94519997       2.40656926E-04
   1.95720005       2.41922840E-04
   1.96920002       2.42916693E-04
   1.98119998       2.43596776E-04
   1.99319994       2.43915681E-04
   2.00519991       2.43821050E-04
   2.01719999       2.43256814E-04
   2.02920008       2.42164781E-04
   2.04119992       2.40486581E-04
   2.05320001       2.38165972E-04
   2.06520009       2.35151223E-04
   2.07719994       2.31397658E-04
   2.08920002       2.26870150E-04
   2.10120010       2.21545240E-04
   2.11319995       2.15413223E-04
   2.12520003       2.08479672E-04
   2.13720012       2.00766444E-04
   2.14919996       1.92312174E-04
   2.16120005       1.83172189E-04
   2.17319989       1.73417793E-04
   2.18519998       1.63135002E-04
   2.19720006       1.52422755E-04
   2.20919991       1.41390803E-04
   2.22119999       1.30157088E-04
   2.23320007       1.18844946E-04
   2.24519992       1.07580243E-04
   2.25720000       9.64884021E-05
   2.26920009       8.56915358E-05
   2.28119993       7.53058121E-05
   2.29320002       6.54390533E-05
   2.30520010       5.61887173E-05
   2.31719995       4.76402238E-05
   2.32920003       3.98656994E-05
   2.34120011       3.29230934E-05
   2.35319996       2.68557269E-05
   2.36520004       2.16921308E-05
   2.37719989       1.74462093E-05
   2.38919997       1.41176624E-05
   2.40120006       1.16926440E-05
   2.41319990       1.01445621E-05
   2.42519999       9.43502437E-06
   2.43720007       9.51485708E-06
   2.44919991       1.03251887E-05
   2.46120000       1.17985755E-05
   2.47320008       1.38601445E-05
   2.48519993       1.64288012E-05
   2.49720001       1.94184631E-05
   2.50920010       2.27393739E-05
   2.52119994       2.62995018E-05
   2.53320003       3.00060037E-05
   2.54520011       3.37668025E-05
   2.55719995       3.74921874E-05
   2.56920004       4.10965040E-05
   2.58119988       4.44998295E-05
   2.59319997       4.76296300E-05
   2.60520005       5.04223572E-05
   2.61719990       5.28249366E-05
   2.62919998       5.47960808E-05
   2.64120007       5.63073736E-05
   2.65319991       5.73440848E-05
   2.66520000       5.79056141E-05
   2.67720008       5.80055603E-05
   2.68919992       5.76713537E-05
   2.70120001       5.69434269E-05
   2.71320009       5.58739957E-05
   2.72519994       5.45254115E-05
   2.73720002       5.29681602E-05
   2.74920011       5.12785991E-05
   2.76119995       4.95364729E-05
   2.77320004       4.78222901E-05
   2.78520012       4.62146490E-05
   2.79719996       4.47876228E-05
   2.80920005       4.36082482E-05
   2.82119989       4.27342457E-05
   2.83319998       4.22120138E-05
   2.84520006       4.20749930E-05
   2.85719991       4.23424644E-05
   2.86919999       4.30187865E-05
   2.88120008       4.40931108E-05
   2.89319992       4.55395784E-05
   2.90520000       4.73179789E-05
   2.91720009       4.93748521E-05
   2.92919993       5.16450127E-05
   2.94120002       5.40534675E-05
   2.95320010       5.65176961E-05
   2.96519995       5.89502415E-05
   2.97720003       6.12615695E-05
   2.98920012       6.33631571E-05
   3.00119996       6.51706359E-05
   3.01320004       6.66070337E-05
   3.02519989       6.76058626E-05
   3.03719997       6.81140300E-05
   3.04920006       6.80944431E-05
   3.06119990       6.75281553E-05
   3.07319999       6.64159670E-05
   3.08520007       6.47794004E-05
   3.09719992       6.26609253E-05
   3.10920000       6.01233332E-05
   3.12120008       5.72483768E-05
   3.13319993       5.41344452E-05
   3.14520001       5.08935373E-05
   3.15720010       4.76474816E-05
   3.16919994       4.45235601E-05
   3.18120003       4.16497933E-05
   3.19320011       3.91499707E-05
   3.20519996       3.71387177E-05
   3.21720004       3.57168356E-05
   3.22919989       3.49670736E-05
   3.24119997       3.49505644E-05
   3.25320005       3.57040626E-05
   3.26519990       3.72381619E-05
   3.27719998       3.95365132E-05
   3.28920007       4.25560866E-05
   3.30119991       4.62285461E-05
   3.31320000       5.04625787E-05
   3.32520008       5.51470948E-05
   3.33719993       6.01552165E-05
   3.34920001       6.53488169E-05
   3.36120009       7.05834100E-05
   3.37319994       7.57133239E-05
   3.38520002       8.05967356E-05
   3.39720011       8.51006480E-05
   3.40919995       8.91054515E-05
   3.42120004       9.25090790E-05
   3.43319988       9.52304472E-05
   3.44519997       9.72123526E-05
   3.45720005       9.84234648E-05
   3.46919990       9.88595202E-05
   3.48119998       9.85436636E-05
   3.49320006       9.75258226E-05
   3.50519991       9.58812379E-05
   3.51719999       9.37080695E-05
   3.52920008       9.11241441E-05
   3.54119992       8.82630411E-05
   3.55320001       8.52692829E-05
   3.56520009       8.22932125E-05
   3.57719994       7.94852531E-05
   3.58920002       7.69900362E-05
   3.60120010       7.49405081E-05
   3.61319995       7.34522473E-05
   3.62520003       7.26182989E-05
   3.63720012       7.25047576E-05
   3.64919996       7.31473774E-05
   3.66120005       7.45494326E-05
   3.67319989       7.66809098E-05
   3.68519998       7.94793159E-05
   3.69720006       8.28518896E-05
   3.70919991       8.66793998E-05
   3.72119999       9.08211732E-05
   3.73320007       9.51213005E-05
   3.74519992       9.94156289E-05
   3.75720000       1.03539263E-04
   3.76920009       1.07334075E-04
   3.78119993       1.10655965E-04
   3.79320002       1.13381349E-04
   3.80520010       1.15412528E-04
   3.81719995       1.16681709E-04
   3.82920003       1.17153395E-04
   3.84120011       1.16825060E-04
   3.85319996       1.15726085E-04
   3.86520004       1.13915143E-04
   3.87719989       1.11476118E-04
   3.88919997       1.08512999E-04
   3.90120006       1.05143961E-04
   3.91319990       1.01495076E-04
   3.92519999       9.76941228E-05
   3.93720007       9.38646626E-05
   3.94919991       9.01209351E-05
   3.96120000       8.65636539E-05
   3.97320008       8.32770020E-05
   3.98519993       8.03267467E-05
   3.99720001       7.77596797E-05
   4.00920010       7.56040317E-05
   4.02120018       7.38708914E-05
   4.03319979       7.25562277E-05
   4.04519987       7.16434879E-05
   4.05719995       7.11062676E-05
   4.06920004       7.09110318E-05
   4.08120012       7.10195964E-05
   4.09320021       7.13912596E-05
   4.10519981       7.19845266E-05
   4.11719990       7.27583974E-05
   4.12919998       7.36732181E-05
   4.14120007       7.46911974E-05
   4.15320015       7.57767048E-05
   4.16520023       7.68964746E-05
   4.17719984       7.80197297E-05
   4.18919992       7.91184793E-05
   4.20120001       8.01679344E-05
   4.21320009       8.11470090E-05
   4.22520018       8.20390778E-05
   4.23719978       8.28326229E-05
   4.24919987       8.35219398E-05
   4.26119995       8.41076253E-05
   4.27320004       8.45967515E-05
   4.28520012       8.50026627E-05
   4.29720020       8.53443635E-05
   4.30919981       8.56454353E-05
   4.32119989       8.59324427E-05
   4.33319998       8.62330780E-05
   4.34520006       8.65739639E-05
   4.35720015       8.69784199E-05
   4.36920023       8.74643301E-05
   4.38119984       8.80421940E-05
   4.39319992       8.87137430E-05
   4.40520000       8.94710902E-05
   4.41720009       9.02966422E-05
   4.42920017       9.11637326E-05
   4.44119978       9.20380262E-05
   4.45319986       9.28795562E-05
   4.46519995       9.36453071E-05
   4.47720003       9.42920669E-05
   4.48920012       9.47793960E-05
   4.50120020       9.50724861E-05
   4.51319981       9.51446054E-05
   4.52519989       9.49790920E-05
   4.53719997       9.45705906E-05
   4.54920006       9.39255260E-05
   4.56120014       9.30617607E-05
   4.57320023       9.20074672E-05
   4.58519983       9.07993308E-05
   4.59719992       8.94801269E-05
   4.60920000       8.80960797E-05
   4.62120008       8.66939808E-05
   4.63320017       8.53184174E-05
   4.64519978       8.40093780E-05
   4.65719986       8.28002449E-05
   4.66919994       8.17164619E-05
   4.68120003       8.07748511E-05
   4.69320011       7.99836635E-05
   4.70520020       7.93432118E-05
   4.71719980       7.88471589E-05
   4.72919989       7.84840886E-05
   4.74119997       7.82394491E-05
   4.75320005       7.80975097E-05
   4.76520014       7.80432019E-05
   4.77720022       7.80637492E-05
   4.78919983       7.81498529E-05
   4.80119991       7.82964271E-05
   4.81320000       7.85028024E-05
   4.82520008       7.87723693E-05
   4.83720016       7.91118291E-05
   4.84919977       7.95299711E-05
   4.86119986       8.00362250E-05
   4.87319994       8.06390817E-05
   4.88520002       8.13445295E-05
   4.89720011       8.21546128E-05
   4.90920019       8.30663048E-05
   4.92119980       8.40706489E-05
   4.93319988       8.51524164E-05
   4.94519997       8.62901361E-05
   4.95720005       8.74565085E-05
   4.96920013       8.86192720E-05
   4.98120022       8.97423306E-05
   4.99319983       9.07870926E-05
   5.00519991       9.17138968E-05
   5.01719999       9.24835695E-05
   5.02920008       9.30588503E-05
   5.04120016       9.34056807E-05
   5.05319977       9.34944474E-05
   5.06519985       9.33009433E-05
   5.07719994       9.28071822E-05
   5.08920002       9.20020684E-05
   5.10120010       9.08818620E-05
   5.11320019       8.94505210E-05
   5.12519979       8.77199636E-05
   5.13719988       8.57101768E-05
   5.14919996       8.34492312E-05
   5.16120005       8.09732228E-05
   5.17320013       7.83259529E-05
   5.18520021       7.55585352E-05
   5.19719982       7.27286751E-05
   5.20919991       6.98997173E-05
   5.22119999       6.71393354E-05
   5.23320007       6.45179389E-05
   5.24520016       6.21066865E-05
   5.25719976       5.99753293E-05
   5.26919985       5.81897257E-05
   5.28119993       5.68093528E-05
   5.29320002       5.58847387E-05
   5.30520010       5.54550716E-05
   5.31720018       5.55460974E-05
   5.32919979       5.61684174E-05
   5.34119987       5.73163197E-05
   5.35319996       5.89673364E-05
   5.36520004       6.10824209E-05
   5.37720013       6.36069235E-05
   5.38920021       6.64723484E-05
   5.40119982       6.95986382E-05
   5.41319990       7.28970917E-05
   5.42519999       7.62736818E-05
   5.43720007       7.96324821E-05
   5.44920015       8.28792181E-05
   5.46120024       8.59246429E-05
   5.47319984       8.86875714E-05
   5.48519993       9.10974632E-05
   5.49720001       9.30964816E-05
   5.50920010       9.46408763E-05
   5.52120018       9.57017764E-05
   5.53319979       9.62652775E-05
   5.54519987       9.63320635E-05
   5.55719995       9.59163954E-05
   5.56920004       9.50448448E-05
   5.58120012       9.37546283E-05
   5.59320021       9.20919192E-05
   5.60519981       9.01099775E-05
   5.61719990       8.78673964E-05
   5.62919998       8.54263926E-05
   5.64120007       8.28513002E-05
   5.65320015       8.02070790E-05
   5.66520023       7.75580993E-05
   5.67719984       7.49668980E-05
   5.68919992       7.24931378E-05
   5.70120001       7.01925383E-05
   5.71320009       6.81158926E-05
   5.72520018       6.63080646E-05
   5.73719978       6.48070636E-05
   5.74919987       6.36431287E-05
   5.76119995       6.28378984E-05
   5.77320004       6.24037420E-05
   5.78520012       6.23432643E-05
   5.79720020       6.26490291E-05
   5.80919981       6.33036907E-05
   5.82119989       6.42803498E-05
   5.83319998       6.55434269E-05
   5.84520006       6.70497975E-05
   5.85720015       6.87503561E-05
   5.86920023       7.05918283E-05
   5.88119984       7.25188002E-05
   5.89319992       7.44759018E-05
   5.90520000       7.64098877E-05
   5.91720009       7.82717470E-05
   5.92920017       8.00185080E-05
   5.94119978       8.16147440E-05
   5.95319986       8.30337085E-05
   5.96519995       8.42580121E-05
   5.97720003       8.52798257E-05
   5.98920012       8.61005392E-05
   6.00120020       8.67300623E-05
   6.01319981       8.71855445E-05
   6.02519989       8.74899051E-05
   6.03719997       8.76699996E-05
   6.04920006       8.77547354E-05
   6.06120014       8.77730199E-05
   6.07320023       8.77519196E-05
   6.08519983       8.77148777E-05
   6.09719992       8.76802733E-05
   6.10920000       8.76602062E-05
   6.12120008       8.76597624E-05
   6.13320017       8.76766062E-05
   6.14519978       8.77010825E-05
   6.15719986       8.77166894E-05
   6.16919994       8.77009952E-05
   6.18120003       8.76269405E-05
   6.19320011       8.74643811E-05
   6.20520020       8.71819648E-05
   6.21719980       8.67490744E-05
   6.22919989       8.61378139E-05
   6.24119997       8.53249439E-05
   6.25320005       8.42936424E-05
   6.26520014       8.30349672E-05
   6.27720022       8.15490130E-05
   6.28919983       7.98456094E-05
   6.30119991       7.79446345E-05
   6.31320000       7.58758033E-05
   6.32520008       7.36779621E-05
   6.33720016       7.13979753E-05
   6.34919977       6.90891975E-05
   6.36119986       6.68095236E-05
   6.37319994       6.46192566E-05
   6.38520002       6.25787870E-05
   6.39720011       6.07462207E-05
   6.40920019       5.91750759E-05
   6.42119980       5.79122097E-05
   6.43319988       5.69959666E-05
   6.44519997       5.64546935E-05
   6.45720005       5.63056892E-05
   6.46920013       5.65545633E-05
   6.48120022       5.71950550E-05
   6.49319983       5.82092907E-05
   6.50519991       5.95684833E-05
   6.51719999       6.12339645E-05
   6.52920008       6.31585863E-05
   6.54120016       6.52883537E-05
   6.55319977       6.75641932E-05
   6.56519985       6.99238735E-05
   6.57719994       7.23038756E-05
   6.58920002       7.46412406E-05
   6.60120010       7.68753089E-05
   6.61320019       7.89492915E-05
   6.62519979       8.08116747E-05
   6.63719988       8.24174131E-05
   6.64919996       8.37289626E-05
   6.66120005       8.47169940E-05
   6.67320013       8.53609672E-05
   6.68520021       8.56494007E-05
   6.69719982       8.55799663E-05
   6.70919991       8.51592777E-05
   6.72119999       8.44025562E-05
   6.73320007       8.33330196E-05
   6.74520016       8.19811539E-05
   6.75719976       8.03838047E-05
   6.76919985       7.85830998E-05
   6.78119993       7.66252560E-05
   6.79320002       7.45592770E-05
   6.80520010       7.24355050E-05
   6.81720018       7.03041514E-05
   6.82919979       6.82138052E-05
   6.84119987       6.62099410E-05
   6.85319996       6.43335588E-05
   6.86520004       6.26200126E-05
   6.87720013       6.10979914E-05
   6.88920021       5.97888029E-05
   6.90119982       5.87059403E-05
   6.91319990       5.78549880E-05
   6.92519999       5.72338286E-05
   6.93720007       5.68332143E-05
   6.94920015       5.66376475E-05
   6.96120024       5.66265262E-05
   6.97319984       5.67755706E-05
   6.98519993       5.70583543E-05
   6.99720001       5.74479163E-05
   7.00920010       5.79183361E-05
   7.02120018       5.84461523E-05
   7.03319979       5.90115524E-05
   7.04519987       5.95992315E-05
   7.05719995       6.01989304E-05
   7.06920004       6.08055489E-05
   7.08120012       6.14188975E-05
   7.09320021       6.20430583E-05
   7.10519981       6.26854671E-05
   7.11719990       6.33556629E-05
   7.12919998       6.40638900E-05
   7.14120007       6.48196365E-05
   7.15320015       6.56301418E-05
   7.16520023       6.64990876E-05
   7.17719984       6.74254552E-05
   7.18919992       6.84028200E-05
   7.20120001       6.94189584E-05
   7.21320009       7.04558988E-05
   7.22520018       7.14904381E-05
   7.23719978       7.24950369E-05
   7.24919987       7.34390633E-05
   7.26119995       7.42903503E-05
   7.27320004       7.50169565E-05
   7.28520012       7.55890069E-05
   7.29720020       7.59805407E-05
   7.30919981       7.61712727E-05
   7.32119989       7.61480842E-05
   7.33319998       7.59062168E-05
   7.34520006       7.54500579E-05
   7.35720015       7.47934100E-05
   7.36920023       7.39593452E-05
   7.38119984       7.29794556E-05
   7.39319992       7.18927695E-05
   7.40520000       7.07441723E-05
   7.41720009       6.95826311E-05
   7.42920017       6.84590996E-05
   7.44119978       6.74243856E-05
   7.45319986       6.65270054E-05
   7.46519995       6.58111094E-05
   7.47720003       6.53147072E-05
   7.48920012       6.50680740E-05
   7.50120020       6.50927032E-05
   7.51319981       6.54005489E-05
   7.52519989       6.59938160E-05
   7.53719997       6.68651701E-05
   7.54920006       6.79983423E-05
   7.56120014       6.93690599E-05
   7.57320023       7.09462329E-05
   7.58519983       7.26932703E-05
   7.59719992       7.45695434E-05
   7.60920000       7.65318036E-05
   7.62120008       7.85355514E-05
   7.63320017       8.05363525E-05
   7.64519978       8.24909657E-05
   7.65719986       8.43583402E-05
   7.66919994       8.61004082E-05
   7.68120003       8.76827617E-05
   7.69320011       8.90751035E-05
   7.70520020       9.02516767E-05
   7.71719980       9.11915413E-05
   7.72919989       9.18788719E-05
   7.74119997       9.23032349E-05
   7.75320005       9.24598644E-05
   7.76520014       9.23499611E-05
   7.77720022       9.19809245E-05
   7.78919983       9.13665281E-05
   7.80119991       9.05269990E-05
   7.81320000       8.94888799E-05
   7.82520008       8.82846798E-05
   7.83720016       8.69522555E-05
   7.84919977       8.55339167E-05
   7.86119986       8.40751891E-05
   7.87319994       8.26233809E-05
   7.88520002       8.12257713E-05
   7.89720011       7.99277113E-05
   7.90920019       7.87705576E-05
   7.92119980       7.77895912E-05
   7.93319988       7.70121042E-05
   7.94519997       7.64556462E-05
   7.95720005       7.61267147E-05
   7.96920013       7.60199109E-05
   7.98120022       7.61176198E-05
   7.99319983       7.63904463E-05
   8.00520039       7.67982056E-05
   8.01720047       7.72916392E-05
   8.02919960       7.78146932E-05
   8.04119968       7.83073119E-05
   8.05319977       7.87086392E-05
   8.06519985       7.89603655E-05
   8.07719994       7.90101840E-05
   8.08920002       7.88149337E-05
   8.10120010       7.83435171E-05
   8.11320019       7.75791123E-05
   8.12520027       7.65207296E-05
   8.13720036       7.51839470E-05
   8.14920044       7.36007278E-05
   8.16119957       7.18183292E-05
   8.17319965       6.98974109E-05
   8.18519974       6.79093573E-05
   8.19719982       6.59329962E-05
   8.20919991       6.40508879E-05
   8.22119999       6.23454616E-05
   8.23320007       6.08950468E-05
   8.24520016       5.97701764E-05
   8.25720024       5.90302916E-05
   8.26920033       5.87210197E-05
   8.28120041       5.88721960E-05
   8.29319954       5.94966405E-05
   8.30519962       6.05898313E-05
   8.31719971       6.21303552E-05
   8.32919979       6.40811340E-05
   8.34119987       6.63912724E-05
   8.35319996       6.89984008E-05
   8.36520004       7.18314113E-05
   8.37720013       7.48132952E-05
   8.38920021       7.78640751E-05
   8.40120029       8.09035482E-05
   8.41320038       8.38538763E-05
   8.42520046       8.66417322E-05
   8.43719959       8.92001626E-05
   8.44919968       9.14699631E-05
   8.46119976       9.34006675E-05
   8.47319984       9.49511741E-05
   8.48519993       9.60899997E-05
   8.49720001       9.67952874E-05
   8.50920010       9.70546316E-05
   8.52120018       9.68647291E-05
   8.53320026       9.62310296E-05
   8.54520035       9.51673355E-05
   8.55720043       9.36953948E-05
   8.56919956       9.18445730E-05
   8.58119965       8.96514757E-05
   8.59319973       8.71595767E-05
   8.60519981       8.44187671E-05
   8.61719990       8.14848390E-05
   8.62919998       7.84186996E-05
   8.64120007       7.52854685E-05
   8.65320015       7.21532488E-05
   8.66520023       6.90916422E-05
   8.67720032       6.61699960E-05
   8.68920040       6.34553944E-05
   8.70119953       6.10104180E-05
   8.71319962       5.88908260E-05
   8.72519970       5.71431738E-05
   8.73719978       5.58025968E-05
   8.74919987       5.48907956E-05
   8.76119995       5.44144677E-05
   8.77320004       5.43642636E-05
   8.78520012       5.47144591E-05
   8.79720020       5.54233811E-05
   8.80920029       5.64346738E-05
   8.82120037       5.76794628E-05
   8.83320045       5.90792733E-05
   8.84519958       6.05497116E-05
   8.85719967       6.20046703E-05
   8.86919975       6.33608724E-05
   8.88119984       6.45425680E-05
   8.89319992       6.54859978E-05
   8.90520000       6.61433878E-05
   8.91720009       6.64862528E-05
   8.92920017       6.65076223E-05
   8.94120026       6.62231396E-05
   8.95320034       6.56707634E-05
   8.96520042       6.49091235E-05
   8.97719955       6.40145081E-05
   8.98919964       6.30766517E-05
   9.00119972       6.21935178E-05
   9.01319981       6.14653836E-05
   9.02519989       6.09885683E-05
   9.03719997       6.08492192E-05
   9.04920006       6.11175128E-05
   9.06120014       6.18427148E-05
   9.07320023       6.30493378E-05
   9.08520031       6.47347915E-05
   9.09720039       6.68685752E-05
   9.10919952       6.93931288E-05
   9.12119961       7.22263794E-05
   9.13319969       7.52656415E-05
   9.14519978       7.83928626E-05
   9.15719986       8.14806917E-05
   9.16919994       8.43991002E-05
   9.18120003       8.70220683E-05
   9.19320011       8.92340468E-05
   9.20520020       9.09356095E-05
   9.21720028       9.20482053E-05
   9.22920036       9.25175264E-05
   9.24120045       9.23155094E-05
   9.25319958       9.14407283E-05
   9.26519966       8.99174556E-05
   9.27719975       8.77932544E-05
   9.28919983       8.51355508E-05
   9.30119991       8.20273781E-05
   9.31320000       7.85625962E-05
   9.32520008       7.48409948E-05
   9.33720016       7.09635133E-05
   9.34920025       6.70280060E-05
   9.36120033       6.31256116E-05
   9.37320042       5.93380537E-05
   9.38519955       5.57358690E-05
   9.39719963       5.23776325E-05
   9.40919971       4.93100561E-05
   9.42119980       4.65688681E-05
   9.43319988       4.41802949E-05
   9.44519997       4.21628356E-05
