 -0.622799993         1.00000002E-24
 -0.610800028         1.00000002E-24
 -0.598800004         1.00000002E-24
 -0.586799979         1.00000002E-24
 -0.574800014         1.00000012E-24
 -0.562799990         1.00000022E-24
 -0.550800025         1.00000022E-24
 -0.538800001         1.00000022E-24
 -0.526799977         1.00000022E-24
 -0.514800012         1.00000012E-24
 -0.502799988         1.00000002E-24
 -0.490799993         9.99999921E-25
 -0.478799999         9.99999921E-25
 -0.466800004         1.00000002E-24
 -0.454800010         1.00000002E-24
 -0.442799985         1.00000022E-24
 -0.430799991         1.00000032E-24
 -0.418799996         1.00000071E-24
 -0.406800002         1.00000140E-24
 -0.394800007         1.00000317E-24
 -0.382800013         1.00000692E-24
 -0.370799989         1.00001402E-24
 -0.358799994         1.00002546E-24
 -0.346799999         1.00004005E-24
 -0.334800005         1.00005277E-24
 -0.322800010         1.00005307E-24
 -0.310799986         1.00002674E-24
 -0.298799992         9.99963732E-25
 -0.286799997         9.99870153E-25
 -0.274800003         9.99778941E-25
 -0.262800008         9.99744231E-25
 -0.250800014         9.99806551E-25
 -0.238800004         9.99938291E-25
 -0.226799995         1.00001353E-24
 -0.214800000         9.99887114E-25
 -0.202800006         9.99653118E-25
 -0.190799996         1.00002418E-24
 -0.178800002         1.00252516E-24
 -0.166800007         1.00893318E-24
 -0.154799998         1.01940827E-24
 -0.142800003         1.02939613E-24
 -0.130799994         1.02684003E-24
 -0.118799999         9.93054592E-25
 -0.106799997         9.11479078E-25
  -9.48000029E-02     7.86438954E-25
  -8.28000009E-02     6.67421833E-25
  -7.07999989E-02     6.63984520E-25
  -5.88000007E-02     9.27159266E-25
  -4.67999987E-02     1.57429460E-24
  -3.48000005E-02     2.55565907E-24
  -2.28000004E-02     3.50631239E-24
  -1.08000003E-02     3.68345071E-24
   1.20000006E-03     2.12461679E-24
   1.31999999E-02    -1.87152576E-24
   2.52000000E-02    -7.98135070E-24
   3.72000001E-02    -1.40908465E-23
   4.91999984E-02    -1.60673611E-23
   6.12000003E-02    -8.71028736E-24
   7.32000023E-02     1.17301471E-23
   8.51999968E-02     4.38058342E-23
   9.71999988E-02     7.73336312E-23
  0.109200001         9.25374736E-23
  0.121200003         6.45791198E-23
  0.133200005        -2.51185634E-23
  0.145199999        -1.72524233E-22
  0.157199994        -3.35815891E-22
  0.169200003        -4.31400438E-22
  0.181199998        -3.51712966E-22
  0.193200007        -1.00144259E-23
  0.205200002         5.94688334E-22
  0.217199996         1.31575749E-21
  0.229200006         1.83711422E-21
  0.241200000         1.73066278E-21
  0.253199995         6.13852076E-22
  0.265199989        -1.61293989E-21
  0.277200013        -4.52539608E-21
  0.289200008        -7.05627633E-21
  0.301200002        -7.63722612E-21
  0.313199997        -4.68881918E-21
  0.325199991         2.58007387E-21
  0.337199986         1.32825044E-20
  0.349200010         2.42652948E-20
  0.361200005         3.02912183E-20
  0.373199999         2.53498029E-20
  0.385199994         5.10939327E-21
  0.397199988        -3.00182261E-20
  0.409200013        -7.23136801E-20
  0.421200007        -1.06174415E-19
  0.433200002        -1.10896693E-19
  0.445199996        -6.73682063E-20
  0.457199991         3.22757409E-20
  0.469199985         1.74834626E-19
  0.481200010         3.20419138E-19
  0.493200004         4.05777792E-19
  0.505200028         3.59811702E-19
  0.517199993         1.30781869E-19
  0.529200017        -2.80704542E-19
  0.541199982        -7.94404408E-19
  0.553200006        -1.24366140E-18
  0.565199971        -1.40251130E-18
  0.577199996        -1.05206393E-18
  0.589200020        -7.73126169E-20
  0.601199985         1.43191416E-18
  0.613200009         3.11676485E-18
  0.625199974         4.36703842E-18
  0.637199998         4.45277197E-18
  0.649200022         2.76894595E-18
  0.661199987        -8.55414355E-19
  0.673200011        -5.88214255E-18
  0.685199976        -1.09523709E-17
  0.697200000        -1.40591472E-17
  0.709200025        -1.30617394E-17
  0.721199989        -6.48418238E-18
  0.733200014         5.60077913E-18
  0.745199978         2.09218941E-17
  0.757200003         3.49545682E-17
  0.769200027         4.17336640E-17
  0.781199992         3.55718170E-17
  0.793200016         1.33760391E-17
  0.805199981        -2.31045028E-17
  0.817200005        -6.60025807E-17
  0.829200029        -1.01901445E-16
  0.841199994        -1.14736092E-16
  0.853200018        -9.07974652E-17
  0.865199983        -2.47184182E-17
  0.877200007         7.54576588E-17
  0.889199972         1.86350557E-16
  0.901199996         2.72275644E-16
  0.913200021         2.93820271E-16
  0.925199986         2.20690954E-16
  0.937200010         4.55731717E-17
  0.949199975        -2.05667766E-16
  0.961199999        -4.72254855E-16
  0.973200023        -6.68478773E-16
  0.985199988        -7.05430638E-16
  0.997200012        -5.20387820E-16
   1.00919998        -1.05899315E-16
   1.02119994         4.71500678E-16
   1.03320003         1.07219379E-15
   1.04519999         1.50899301E-15
   1.05719995         1.59523822E-15
   1.06920004         1.20534970E-15
   1.08120000         3.31096523E-16
   1.09319997        -8.85758552E-16
   1.10520005        -2.16056061E-15
   1.11720002        -3.11955204E-15
   1.12919998        -3.39388526E-15
   1.14119995        -2.73330226E-15
   1.15320003        -1.10852345E-15
   1.16520000         1.23131443E-15
   1.17719996         3.77257294E-15
   1.18920004         5.83211661E-15
   1.20120001         6.72059954E-15
   1.21319997         5.93870808E-15
   1.22520006         3.35534568E-15
   1.23720002        -6.86460011E-16
   1.24919999        -5.37809170E-15
   1.26119995        -9.58457336E-15
   1.27320004        -1.20964987E-14
   1.28520000        -1.19427097E-14
   1.29719996        -8.68770438E-15
   1.30920005        -2.63132945E-15
   1.32120001         5.15640666E-15
   1.33319998         1.29972852E-14
   1.34519994         1.89472800E-14
   1.35720003         2.12533628E-14
   1.36919999         1.88204571E-14
   1.38119996         1.15690767E-14
   1.39320004         5.78697409E-16
   1.40520000        -1.20441724E-14
   1.41719997        -2.35691458E-14
   1.42920005        -3.12407875E-14
   1.44120002        -3.29383297E-14
   1.45319998        -2.77321856E-14
   1.46519995        -1.61854190E-14
   1.47720003        -3.03873758E-16
   1.48920000         1.68731284E-14
   1.50119996         3.19506554E-14
   1.51320004         4.19522036E-14
   1.52520001         4.49801295E-14
   1.53719997         4.05767982E-14
   1.54920006         2.96856351E-14
   1.56120002         1.42366265E-14
   1.57319999        -3.49077503E-15
   1.58519995        -2.14878164E-14
   1.59720004        -3.83726559E-14
   1.60920000        -5.33228992E-14
   1.62119997        -6.55905926E-14
   1.63320005        -7.38010795E-14
   1.64520001        -7.53918005E-14
   1.65719998        -6.65895223E-14
   1.66919994        -4.32108539E-14
   1.68120003        -2.30392178E-15
   1.69319999         5.57084760E-14
   1.70519996         1.25060945E-13
   1.71720004         1.93712640E-13
   1.72920001         2.44228710E-13
   1.74119997         2.56866685E-13
   1.75320005         2.14615042E-13
   1.76520002         1.09189201E-13
   1.77719998        -5.36244023E-14
   1.78919995        -2.51136216E-13
   1.80120003        -4.45007665E-13
   1.81320000        -5.87313997E-13
   1.82519996        -6.30858484E-13
   1.83720005        -5.41786776E-13
   1.84920001        -3.11444094E-13
   1.86119998         3.60028407E-14
   1.87320006         4.43137660E-13
   1.88520002         8.27536715E-13
   1.89719999         1.09799387E-12
   1.90919995         1.17570591E-12
   1.92120004         1.01554507E-12
   1.93320000         6.21789133E-13
   1.94519997         5.33888051E-14
   1.95720005        -5.83977961E-13
   1.96920002        -1.15859232E-12
   1.98119998        -1.54216657E-12
   1.99319994        -1.64133334E-12
   2.00519991        -1.42310230E-12
   2.01719999        -9.27013674E-13
   2.02920008        -2.59540734E-13
   2.04119992         4.29385206E-13
   2.05320001         9.83080154E-13
   2.06520009         1.27940833E-12
   2.07719994         1.26597463E-12
   2.08920002         9.79082483E-13
   2.10120010         5.39629051E-13
   2.11319995         1.24510333E-13
   2.12520003        -8.15796405E-14
   2.13720012         5.66407442E-14
   2.14919996         5.73065412E-13
   2.16120005         1.36821880E-12
   2.17319989         2.20898321E-12
   2.18519998         2.76551069E-12
   2.19720006         2.68243717E-12
   2.20919991         1.67270538E-12
   2.22119999        -3.85099803E-13
   2.23320007        -3.36913115E-12
   2.24519992        -6.87914699E-12
   2.25720000        -1.02609110E-11
   2.26920009        -1.26966007E-11
   2.28119993        -1.33536767E-11
   2.29320002        -1.15697391E-11
   2.30520010        -7.03822981E-12
   2.31719995         4.72406402E-14
   2.32920003         8.93069906E-12
   2.34120011         1.83432661E-11
   2.35319996         2.66732903E-11
   2.36520004         3.22396346E-11
   2.37719989         3.36232778E-11
   2.38919997         2.99909229E-11
   2.40120006         2.13353224E-11
   2.41319990         8.56472705E-12
   2.42519999        -6.60023208E-12
   2.43720007        -2.19237475E-11
   2.44919991        -3.51006585E-11
   2.46120000        -4.42623230E-11
   2.47320008        -4.84258467E-11
   2.48519993        -4.77652952E-11
   2.49720001        -4.36058377E-11
   2.50920010        -3.80878037E-11
   2.52119994        -3.35081095E-11
   2.53320003        -3.14076612E-11
   2.54520011        -3.15210288E-11
   2.55719995        -3.07270459E-11
   2.56920004        -2.21324434E-11
   2.58119988         5.61416885E-12
   2.59319997         6.87329499E-11
   2.60520005         1.88462954E-10
   2.61719990         3.91019828E-10
   2.62919998         7.07475356E-10
   2.64120007         1.17371446E-09
   2.65319991         1.83067461E-09
   2.66520000         2.72515610E-09
   2.67720008         3.91160349E-09
   2.68919992         5.45544365E-09
   2.70120001         7.43876249E-09
   2.71320009         9.96935778E-09
   2.72519994         1.31944038E-08
   2.73720002         1.73200316E-08
   2.74920011         2.26381953E-08
   2.76119995         2.95618428E-08
   2.77320004         3.86691354E-08
   2.78520012         5.07565616E-08
   2.79719996         6.69001778E-08
   2.80920005         8.85231799E-08
   2.82119989         1.17466897E-07
   2.83319998         1.56061461E-07
   2.84520006         2.07191675E-07
   2.85719991         2.74352772E-07
   2.86919999         3.61690525E-07
   2.88120008         4.74019771E-07
   2.89319992         6.16816294E-07
   2.90520000         7.96176323E-07
   2.91720009         1.01874036E-06
   2.92919993         1.29157706E-06
   2.94120002         1.62202616E-06
   2.95320010         2.01750117E-06
   2.96519995         2.48525271E-06
   2.97720003         3.03209890E-06
   2.98920012         3.66412792E-06
   3.00119996         4.38638517E-06
   3.01320004         5.20255435E-06
   3.02519989         6.11464475E-06
   3.03719997         7.12270594E-06
   3.04920006         8.22457696E-06
   3.06119990         9.41569306E-06
   3.07319999         1.06889520E-05
   3.08520007         1.20346749E-05
   3.09719992         1.34406419E-05
   3.10920000         1.48922263E-05
   3.12120008         1.63726327E-05
   3.13319993         1.78632217E-05
   3.14520001         1.93439282E-05
   3.15720010         2.07937592E-05
   3.16919994         2.21913415E-05
   3.18120003         2.35155294E-05
   3.19320011         2.47460193E-05
   3.20519996         2.58639757E-05
   3.21720004         2.68526055E-05
   3.22919989         2.76977025E-05
   3.24119997         2.83880963E-05
   3.25320005         2.89160016E-05
   3.26519990         2.92772620E-05
   3.27719998         2.94714446E-05
   3.28920007         2.95018126E-05
   3.30119991         2.93751473E-05
   3.31320000         2.91014530E-05
   3.32520008         2.86935356E-05
   3.33719993         2.81664852E-05
   3.34920001         2.75370967E-05
   3.36120009         2.68232379E-05
   3.37319994         2.60432244E-05
   3.38520002         2.52151931E-05
   3.39720011         2.43565592E-05
   3.40919995         2.34835334E-05
   3.42120004         2.26107477E-05
   3.43319988         2.17509933E-05
   3.44519997         2.09150712E-05
   3.45720005         2.01117709E-05
   3.46919990         1.93479391E-05
   3.48119998         1.86286470E-05
   3.49320006         1.79574163E-05
   3.50519991         1.73364951E-05
   3.51719999         1.67671424E-05
   3.52920008         1.62499018E-05
   3.54119992         1.57848390E-05
   3.55320001         1.53717447E-05
   3.56520009         1.50102478E-05
   3.57719994         1.46998827E-05
   3.58920002         1.44400910E-05
   3.60120010         1.42301615E-05
   3.61319995         1.40691382E-05
   3.62520003         1.39557023E-05
   3.63720012         1.38880660E-05
   3.64919996         1.38638707E-05
   3.66120005         1.38801242E-05
   3.67319989         1.39331914E-05
   3.68519998         1.40188249E-05
   3.69720006         1.41322571E-05
   3.70919991         1.42683257E-05
   3.72119999         1.44216347E-05
   3.73320007         1.45867398E-05
   3.74519992         1.47583241E-05
   3.75720000         1.49313610E-05
   3.76920009         1.51012555E-05
   3.78119993         1.52639423E-05
   3.79320002         1.54159407E-05
   3.80520010         1.55543785E-05
   3.81719995         1.56769620E-05
   3.82920003         1.57819431E-05
   3.84120011         1.58680432E-05
   3.85319996         1.59343945E-05
   3.86520004         1.59804695E-05
   3.87719989         1.60060408E-05
   3.88919997         1.60111413E-05
   3.90120006         1.59960564E-05
   3.91319990         1.59613228E-05
   3.92519999         1.59077372E-05
   3.93720007         1.58363819E-05
   3.94919991         1.57486229E-05
   3.96120000         1.56461174E-05
   3.97320008         1.55307844E-05
   3.98519993         1.54047648E-05
   3.99720001         1.52703651E-05
   4.00920010         1.51299746E-05
   4.02120018         1.49860061E-05
   4.03319979         1.48408117E-05
   4.04519987         1.46966368E-05
   4.05719995         1.45555978E-05
   4.06920004         1.44196874E-05
   4.08120012         1.42908193E-05
   4.09320021         1.41709033E-05
   4.10519981         1.40619413E-05
   4.11719990         1.39661406E-05
   4.12919998         1.38860150E-05
   4.14120007         1.38244686E-05
   4.15320015         1.37848447E-05
   4.16520023         1.37709285E-05
   4.17719984         1.37868929E-05
   4.18919992         1.38371943E-05
   4.20120001         1.39264248E-05
   4.21320009         1.40591346E-05
   4.22520018         1.42396275E-05
   4.23719978         1.44717797E-05
   4.24919987         1.47588626E-05
   4.26119995         1.51034192E-05
   4.27320004         1.55071757E-05
   4.28520012         1.59710180E-05
   4.29720020         1.64949925E-05
   4.30919981         1.70783569E-05
   4.32119989         1.77196380E-05
   4.33319998         1.84166965E-05
   4.34520006         1.91667386E-05
   4.35720015         1.99663154E-05
   4.36920023         2.08112597E-05
   4.38119984         2.16965709E-05
   4.39319992         2.26162610E-05
   4.40520000         2.35631705E-05
   4.41720009         2.45288084E-05
   4.42920017         2.55032246E-05
   4.44119978         2.64749724E-05
   4.45319986         2.74311842E-05
   4.46519995         2.83577883E-05
   4.47720003         2.92398909E-05
   4.48920012         3.00623069E-05
   4.50120020         3.08102317E-05
   4.51319981         3.14699973E-05
   4.52519989         3.20298932E-05
   4.53719997         3.24809407E-05
   4.54920006         3.28175920E-05
   4.56120014         3.30382572E-05
   4.57320023         3.31455813E-05
   4.58519983         3.31465017E-05
   4.59719992         3.30519651E-05
   4.60920000         3.28763454E-05
   4.62120008         3.26366280E-05
   4.63320017         3.23513632E-05
   4.64519978         3.20394647E-05
   4.65719986         3.17190315E-05
   4.66919994         3.14061654E-05
   4.68120003         3.11139702E-05
   4.69320011         3.08518174E-05
   4.70520020         3.06248912E-05
   4.71719980         3.04340974E-05
   4.72919989         3.02763438E-05
   4.74119997         3.01451346E-05
   4.75320005         3.00314732E-05
   4.76520014         2.99249605E-05
   4.77720022         2.98150044E-05
   4.78919983         2.96920334E-05
   4.80119991         2.95485879E-05
   4.81320000         2.93802441E-05
   4.82520008         2.91862216E-05
   4.83720016         2.89696764E-05
   4.84919977         2.87376206E-05
   4.86119986         2.85005153E-05
   4.87319994         2.82715500E-05
   4.88520002         2.80656805E-05
   4.89720011         2.78985353E-05
   4.90920019         2.77852632E-05
   4.92119980         2.77394411E-05
   4.93319988         2.77721192E-05
   4.94519997         2.78910975E-05
   4.95720005         2.81004523E-05
   4.96920013         2.84003854E-05
   4.98120022         2.87873590E-05
   4.99319983         2.92544755E-05
   5.00519991         2.97921179E-05
   5.01719999         3.03887191E-05
   5.02920008         3.10316136E-05
   5.04120016         3.17079175E-05
   5.05319977         3.24052926E-05
   5.06519985         3.31126503E-05
   5.07719994         3.38206301E-05
   5.08920002         3.45219305E-05
   5.10120010         3.52114184E-05
   5.11320019         3.58860743E-05
   5.12519979         3.65448032E-05
   5.13719988         3.71881324E-05
   5.14919996         3.78178847E-05
   5.16120005         3.84368068E-05
   5.17320013         3.90482674E-05
   5.18520021         3.96559954E-05
   5.19719982         4.02639089E-05
   5.20919991         4.08760425E-05
   5.22119999         4.14965434E-05
   5.23320007         4.21297264E-05
   5.24520016         4.27801933E-05
   5.25719976         4.34529247E-05
   5.26919985         4.41533957E-05
   5.28119993         4.48876017E-05
   5.29320002         4.56620473E-05
   5.30520010         4.64836339E-05
   5.31720018         4.73594700E-05
   5.32919979         4.82965879E-05
   5.34119987         4.93016159E-05
   5.35319996         5.03803822E-05
   5.36520004         5.15375068E-05
   5.37720013         5.27760385E-05
   5.38920021         5.40970905E-05
   5.40119982         5.54995495E-05
   5.41319990         5.69798904E-05
   5.42519999         5.85320304E-05
   5.43720007         6.01473075E-05
   5.44920015         6.18145350E-05
   5.46120024         6.35201504E-05
   5.47319984         6.52484086E-05
   5.48519993         6.69816291E-05
   5.49720001         6.87004649E-05
   5.50920010         7.03842015E-05
   5.52120018         7.20109892E-05
   5.53319979         7.35580979E-05
   5.54519987         7.50020481E-05
   5.55719995         7.63186981E-05
   5.56920004         7.74833243E-05
   5.58120012         7.84705699E-05
   5.59320021         7.92544015E-05
   5.60519981         7.98080873E-05
   5.61719990         8.01041388E-05
   5.62919998         8.01143324E-05
   5.64120007         7.98098263E-05
   5.65320015         7.91614148E-05
   5.66520023         7.81399431E-05
   5.67719984         7.67169040E-05
   5.68919992         7.48652383E-05
   5.70120001         7.25603677E-05
   5.71320009         6.97814248E-05
   5.72520018         6.65125772E-05
   5.73719978         6.27444897E-05
   5.74919987         5.84757618E-05
   5.76119995         5.37143169E-05
   5.77320004         4.84785451E-05
   5.78520012         4.27982013E-05
   5.79720020         3.67149405E-05
   5.80919981         3.02823555E-05
   5.82119989         2.35655425E-05
   5.83319998         1.66400823E-05
   5.84520006         9.59050158E-06
   5.85720015         2.50820040E-06
   5.86920023        -4.51107098E-06
   5.88119984        -1.13700980E-05
   5.89319992        -1.79733161E-05
   5.90520000        -2.42300066E-05
   5.91720009        -3.00574156E-05
   5.92920017        -3.53836294E-05
   5.94119978        -4.01500729E-05
   5.95319986        -4.43134595E-05
   5.96519995        -4.78471629E-05
   5.97720003        -5.07418445E-05
   5.98920012        -5.30054022E-05
   6.00120020        -5.46621923E-05
   6.01319981        -5.57515923E-05
   6.02519989        -5.63259564E-05
   6.03719997        -5.64481452E-05
   6.04920006        -5.61886809E-05
   6.06120014        -5.56227496E-05
   6.07320023        -5.48271855E-05
   6.08519983        -5.38775857E-05
   6.09719992        -5.28456731E-05
   6.10920000        -5.17970766E-05
   6.12120008        -5.07895202E-05
   6.13320017        -4.98715672E-05
   6.14519978        -4.90819002E-05
   6.15719986        -4.84490920E-05
   6.16919994        -4.79919036E-05
   6.18120003        -4.77199683E-05
   6.19320011        -4.76348432E-05
   6.20520020        -4.77313006E-05
   6.21719980        -4.79988084E-05
   6.22919989        -4.84230623E-05
   6.24119997        -4.89874728E-05
   6.25320005        -4.96745670E-05
   6.26520014        -5.04672207E-05
   6.27720022        -5.13496525E-05
   6.28919983        -5.23081653E-05
   6.30119991        -5.33316379E-05
   6.31320000        -5.44117320E-05
   6.32520008        -5.55428269E-05
   6.33720016        -5.67217721E-05
   6.34919977        -5.79473672E-05
   6.36119986        -5.92197430E-05
   6.37319994        -6.05395653E-05
   6.38520002        -6.19072307E-05
   6.39720011        -6.33219825E-05
   6.40920019        -6.47810812E-05
   6.42119980        -6.62790189E-05
   6.43319988        -6.78069555E-05
   6.44519997        -6.93521652E-05
   6.45720005        -7.08978114E-05
   6.46920013        -7.24228667E-05
   6.48120022        -7.39023380E-05
   6.49319983        -7.53076456E-05
   6.50519991        -7.66073717E-05
   6.51719999        -7.77680980E-05
   6.52920008        -7.87555691E-05
   6.54120016        -7.95359592E-05
   6.55319977        -8.00773123E-05
   6.56519985        -8.03509465E-05
   6.57719994        -8.03329604E-05
   6.58920002        -8.00055350E-05
   6.60120010        -7.93582076E-05
   6.61320019        -7.83887444E-05
   6.62519979        -7.71038758E-05
   6.63719988        -7.55196088E-05
   6.64919996        -7.36611692E-05
   6.66120005        -7.15626011E-05
   6.67320013        -6.92659305E-05
   6.68520021        -6.68199864E-05
   6.69719982        -6.42789309E-05
   6.70919991        -6.17004407E-05
   6.72119999        -5.91437820E-05
   6.73320007        -5.66677263E-05
   6.74520016        -5.43284732E-05
   6.75719976        -5.21775873E-05
   6.76919985        -5.02601360E-05
   6.78119993        -4.86130375E-05
   6.79320002        -4.72636675E-05
   6.80520010        -4.62288408E-05
   6.81720018        -4.55141526E-05
   6.82919979        -4.51137203E-05
   6.84119987        -4.50103144E-05
   6.85319996        -4.51759151E-05
   6.86520004        -4.55725967E-05
   6.87720013        -4.61537784E-05
   6.88920021        -4.68657527E-05
   6.90119982        -4.76494388E-05
   6.91319990        -4.84423144E-05
   6.92519999        -4.91804494E-05
   6.93720007        -4.98006084E-05
   6.94920015        -5.02422954E-05
   6.96120024        -5.04497439E-05
   6.97319984        -5.03737647E-05
   6.98519993        -4.99734124E-05
   6.99720001        -4.92173822E-05
   7.00920010        -4.80851559E-05
   7.02120018        -4.65678313E-05
   7.03319979        -4.46685699E-05
   7.04519987        -4.24027166E-05
   7.05719995        -3.97975527E-05
   7.06920004        -3.68916408E-05
   7.08120012        -3.37338206E-05
   7.09320021        -3.03819015E-05
   7.10519981        -2.69010088E-05
   7.11719990        -2.33616829E-05
   7.12919998        -1.98377656E-05
   7.14120007        -1.64041558E-05
   7.15320015        -1.31344705E-05
   7.16520023        -1.00987363E-05
   7.17719984        -7.36115953E-06
   7.18919992        -4.97804967E-06
   7.20120001        -2.99599515E-06
   7.21320009        -1.45031913E-06
   7.22520018        -3.63890479E-07
   7.23719978         2.53686324E-07
   7.24919987         4.06473305E-07
   7.26119995         1.12179258E-07
   7.27320004        -5.98279371E-07
   7.28520012        -1.68162831E-06
   7.29720020        -3.08346989E-06
   7.30919981        -4.73986302E-06
   7.32119989        -6.57920236E-06
   7.33319998        -8.52434187E-06
   7.34520006        -1.04948831E-05
   7.35720015        -1.24095759E-05
   7.36920023        -1.41887558E-05
   7.38119984        -1.57567374E-05
   7.39319992        -1.70441308E-05
   7.40520000        -1.79899853E-05
   7.41720009        -1.85437402E-05
   7.42920017        -1.86668767E-05
   7.44119978        -1.83342909E-05
   7.45319986        -1.75352652E-05
   7.46519995        -1.62740562E-05
   7.47720003        -1.45700105E-05
   7.48920012        -1.24572243E-05
   7.50120020        -9.98371161E-06
   7.51319981        -7.21008882E-06
   7.52519989        -4.20779361E-06
   7.53719997        -1.05687513E-06
   7.54920006         2.15658361E-06
   7.56120014         5.34334140E-06
   7.57320023         8.41407291E-06
   7.58519983         1.12825392E-05
   7.59719992         1.38687201E-05
   7.60920000         1.61017779E-05
   7.62120008         1.79227318E-05
   7.63320017         1.92866828E-05
   7.64519978         2.01645125E-05
   7.65719986         2.05439483E-05
   7.66919994         2.04299304E-05
   7.68120003         1.98442631E-05
   7.69320011         1.88245740E-05
   7.70520020         1.74225952E-05
   7.71719980         1.57018912E-05
   7.72919989         1.37351008E-05
   7.74119997         1.16008650E-05
   7.75320005         9.38056928E-06
   7.76520014         7.15505439E-06
   7.77720022         5.00147962E-06
   7.78919983         2.99044837E-06
   7.80119991         1.18355058E-06
   7.81320000        -3.68580629E-07
   7.82520008        -1.62763763E-06
   7.83720016        -2.56839053E-06
   7.84919977        -3.17882836E-06
   7.86119986        -3.45971876E-06
   7.87319994        -3.42365820E-06
   7.88520002        -3.09368693E-06
   7.89720011        -2.50157564E-06
   7.90920019        -1.68589293E-06
   7.92119980        -6.89960530E-07
   7.93319988         4.40200921E-07
   7.94519997         1.65783263E-06
   7.95720005         2.91723495E-06
   7.96920013         4.17533101E-06
   7.98120022         5.39296389E-06
   7.99319983         6.53589541E-06
   8.00520039         7.57551697E-06
   8.01720047         8.48926902E-06
   8.02919960         9.26080156E-06
   8.04119968         9.87991007E-06
   8.05319977         1.03422653E-05
   8.06519985         1.06489906E-05
   8.07719994         1.08061022E-05
   8.08920002         1.08238537E-05
   8.10120010         1.07160013E-05
   8.11320019         1.04990158E-05
   8.12520027         1.01912701E-05
   8.13720036         9.81220546E-06
   8.14920044         9.38150060E-06
   8.16119957         8.91826949E-06
   8.17319965         8.44028727E-06
   8.18519974         7.96326822E-06
   8.19719982         7.50022764E-06
   8.20919991         7.06094352E-06
   8.22119999         6.65154175E-06
   8.23320007         6.27424515E-06
   8.24520016         5.92730021E-06
   8.25720024         5.60510716E-06
   8.26920033         5.29856698E-06
   8.28120041         4.99563885E-06
   8.29319954         4.68210601E-06
   8.30519962         4.34251206E-06
   8.31719971         3.96124824E-06
   8.32919979         3.52372876E-06
   8.34119987         3.01759792E-06
   8.35319996         2.43390878E-06
   8.36520004         1.76818833E-06
   8.37720013         1.02132594E-06
   8.38920021         2.00207481E-07
   8.40120029        -6.81960955E-07
   8.41320038        -1.60568675E-06
   8.42520046        -2.54560518E-06
   8.43719959        -3.47127479E-06
   8.44919968        -4.34832600E-06
   8.46119976        -5.13991654E-06
   8.47319984        -5.80842016E-06
   8.48519993        -6.31726198E-06
   8.49720001        -6.63280071E-06
   8.50920010        -6.72615352E-06
   8.52120018        -6.57486407E-06
   8.53320026        -6.16431907E-06
   8.54520035        -5.48882326E-06
   8.55720043        -4.55227473E-06
   8.56919956        -3.36838707E-06
   8.58119965        -1.96043811E-06
   8.59319973        -3.60558943E-07
   8.60519981         1.39140548E-06
   8.61719990         3.24940720E-06
   8.62919998         5.16298769E-06
   8.64120007         7.07926120E-06
   8.65320015         8.94497680E-06
   8.66520023         1.07085662E-05
   8.67720032         1.23220743E-05
   8.68920040         1.37428879E-05
   8.70119953         1.49351990E-05
   8.71319962         1.58711428E-05
   8.72519970         1.65315905E-05
   8.73719978         1.69065588E-05
   8.74919987         1.69952691E-05
   8.76119995         1.68058486E-05
   8.77320004         1.63547229E-05
   8.78520012         1.56657516E-05
   8.79720020         1.47691462E-05
   8.80920029         1.37002371E-05
   8.82120037         1.24981470E-05
   8.83320045         1.12044099E-05
   8.84519958         9.86158375E-06
   8.85719967         8.51188270E-06
   8.86919975         7.19585978E-06
   8.88119984         5.95114170E-06
   8.89319992         4.81127063E-06
   8.90520000         3.80464553E-06
   8.91720009         2.95360155E-06
   8.92920017         2.27365399E-06
   8.94120026         1.77293362E-06
   8.95320034         1.45185197E-06
   8.96520042         1.30301112E-06
   8.97719955         1.31139279E-06
   8.98919964         1.45483921E-06
   9.00119972         1.70484066E-06
   9.01319981         2.02762658E-06
   9.02519989         2.38553662E-06
   9.03719997         2.73864248E-06
   9.04920006         3.04655782E-06
   9.06120014         3.27035468E-06
   9.07320023         3.37449455E-06
   9.08520031         3.32865534E-06