 -0.622799993         1.00000012E-24
 -0.610800028         1.00000012E-24
 -0.598800004         1.00000012E-24
 -0.586799979         1.00000012E-24
 -0.574800014         6.52669336E-19
 -0.562799990         5.13175490E-18
 -0.550800025         2.11851989E-17
 -0.538800001         5.95898531E-17
 -0.526799977         1.23536553E-16
 -0.514800012         1.86435313E-16
 -0.502799988         1.65594888E-16
 -0.490799993        -8.64698944E-17
 -0.478799999        -7.42489759E-16
 -0.466800004        -1.89243254E-15
 -0.454800010        -3.38513223E-15
 -0.442799985        -4.69593880E-15
 -0.430799991        -4.94477336E-15
 -0.418799996        -3.18247367E-15
 -0.406800002         1.03173875E-15
 -0.394800007         6.91560897E-15
 -0.382800013         1.19575751E-14
 -0.370799989         1.20560021E-14
 -0.358799994         2.61904091E-15
 -0.346799999        -1.94349186E-14
 -0.334800005        -5.33712750E-14
 -0.322800010        -9.30874166E-14
 -0.310799986        -1.27478215E-13
 -0.298799992        -1.43413479E-13
 -0.286799997        -1.31001275E-13
 -0.274800003        -8.95597751E-14
 -0.262800008        -3.17976304E-14
 -0.250800014         1.63136123E-14
 -0.238800004         2.13014065E-14
 -0.226799995        -4.72669287E-14
 -0.214800000        -2.04722713E-13
 -0.202800006        -4.42504133E-13
 -0.190799996        -7.27131463E-13
 -0.178800002        -1.00902435E-12
 -0.166800007        -1.23932537E-12
 -0.154799998        -1.38900035E-12
 -0.142800003        -1.46244301E-12
 -0.130799994        -1.49892468E-12
 -0.118799999        -1.55962840E-12
 -0.106799997        -1.70420297E-12
  -9.48000029E-02    -1.96622601E-12
  -8.28000009E-02    -2.33892680E-12
  -7.07999989E-02    -2.77943684E-12
  -5.88000007E-02    -3.23226754E-12
  -4.67999987E-02    -3.66334957E-12
  -3.48000005E-02    -4.08903033E-12
  -2.28000004E-02    -4.58348463E-12
  -1.08000003E-02    -5.25477405E-12
   1.20000006E-03    -6.19246494E-12
   1.31999999E-02    -7.40371566E-12
   2.52000000E-02    -8.76394183E-12
   3.72000001E-02    -1.00077750E-11
   4.91999984E-02    -1.07746347E-11
   6.12000003E-02    -1.07040375E-11
   7.32000023E-02    -9.55573728E-12
   8.51999968E-02    -7.31683984E-12
   9.71999988E-02    -4.25813985E-12
  0.109200001        -9.15753801E-13
  0.121200003         2.00274888E-12
  0.133200005         3.76496534E-12
  0.145199999         3.77511303E-12
  0.157199994         1.71101002E-12
  0.169200003        -2.39096026E-12
  0.181199998        -8.11197550E-12
  0.193200007        -1.46812736E-11
  0.205200002        -2.10483020E-11
  0.217199996        -2.59894467E-11
  0.229200006        -2.82536772E-11
  0.241200000        -2.67582137E-11
  0.253199995        -2.08371844E-11
  0.265199989        -1.05199278E-11
  0.277200013         3.22249909E-12
  0.289200008         1.83570034E-11
  0.301200002         3.18963640E-11
  0.313199997         4.03041732E-11
  0.325199991         4.01902227E-11
  0.337199986         2.91886515E-11
  0.349200010         6.81642026E-12
  0.361200005        -2.49412661E-11
  0.373199999        -6.15505147E-11
  0.385199994        -9.64838764E-11
  0.397199988        -1.22380869E-10
  0.409200013        -1.32608077E-10
  0.421200007        -1.22877486E-10
  0.433200002        -9.25338070E-11
  0.445199996        -4.51833640E-11
  0.457199991         1.15048665E-11
  0.469199985         6.67860350E-11
  0.481200010         1.08378057E-10
  0.493200004         1.24195126E-10
  0.505200028         1.03911955E-10
  0.517199993         4.01029869E-11
  0.529200017        -7.11089382E-11
  0.541199982        -2.29749844E-10
  0.553200006        -4.31727432E-10
  0.565199971        -6.68224809E-10
  0.577199996        -9.24436472E-10
  0.589200020        -1.17749355E-09
  0.601199985        -1.39366862E-09
  0.613200009        -1.52519553E-09
  0.625199974        -1.50724022E-09
  0.637199998        -1.25563526E-09
  0.649200022        -6.65928479E-10
  0.661199987         3.85983023E-10
  0.673200011         2.04179806E-09
  0.685199976         4.45812320E-09
  0.697200000         7.80465825E-09
  0.709200025         1.22654775E-08
  0.721199989         1.80462170E-08
  0.733200014         2.53903600E-08
  0.745199978         3.46078082E-08
  0.757200003         4.61183838E-08
  0.769200027         6.05121784E-08
  0.781199992         7.86270959E-08
  0.793200016         1.01643074E-07
  0.805199981         1.31190177E-07
  0.817200005         1.69467398E-07
  0.829200029         2.19367209E-07
  0.841199994         2.84600844E-07
  0.853200018         3.69818196E-07
  0.865199983         4.80717063E-07
  0.877200007         6.24134827E-07
  0.889199972         8.08116624E-07
  0.901199996         1.04195510E-06
  0.913200021         1.33619392E-06
  0.925199986         1.70259148E-06
  0.937200010         2.15404089E-06
  0.949199975         2.70444548E-06
  0.961199999         3.36854578E-06
  0.973200023         4.16170678E-06
  0.985199988         5.09966503E-06
  0.997200012         6.19824459E-06
   1.00919998         7.47304921E-06
   1.02119994         8.93913693E-06
   1.03320003         1.06106900E-05
   1.04519999         1.25006864E-05
   1.05719995         1.46205812E-05
   1.06920004         1.69800060E-05
   1.08120000         1.95865014E-05
   1.09319997         2.24452942E-05
   1.10520005         2.55591021E-05
   1.11720002         2.89280179E-05
   1.12919998         3.25494439E-05
   1.14119995         3.64180778E-05
   1.15320003         4.05259852E-05
   1.16520000         4.48627216E-05
   1.17719996         4.94154810E-05
   1.18920004         5.41693262E-05
   1.20120001         5.91074349E-05
   1.21319997         6.42113664E-05
   1.22520006         6.94613627E-05
   1.23720002         7.48366292E-05
   1.24919999         8.03156727E-05
   1.26119995         8.58765634E-05
   1.27320004         9.14972770E-05
   1.28520000         9.71559421E-05
   1.29719996         1.02831196E-04
   1.30920005         1.08502412E-04
   1.32120001         1.14150062E-04
   1.33319998         1.19755947E-04
   1.34519994         1.25303588E-04
   1.35720003         1.30778484E-04
   1.36919999         1.36168484E-04
   1.38119996         1.41464057E-04
   1.39320004         1.46658582E-04
   1.40520000         1.51748580E-04
   1.41719997         1.56733891E-04
   1.42920005         1.61617718E-04
   1.44120002         1.66406608E-04
   1.45319998         1.71110325E-04
   1.46519995         1.75741545E-04
   1.47720003         1.80315503E-04
   1.48920000         1.84849545E-04
   1.50119996         1.89362574E-04
   1.51320004         1.93874424E-04
   1.52520001         1.98405236E-04
   1.53719997         2.02974741E-04
   1.54920006         2.07601668E-04
   1.56120002         2.12303057E-04
   1.57319999         2.17093650E-04
   1.58519995         2.21985232E-04
   1.59720004         2.26986158E-04
   1.60920000         2.32100734E-04
   1.62119997         2.37328713E-04
   1.63320005         2.42664741E-04
   1.64520001         2.48097786E-04
   1.65719998         2.53610517E-04
   1.66919994         2.59178487E-04
   1.68120003         2.64769507E-04
   1.69319999         2.70342600E-04
   1.70519996         2.75847211E-04
   1.71720004         2.81222077E-04
   1.72920001         2.86394235E-04
   1.74119997         2.91277887E-04
   1.75320005         2.95773469E-04
   1.76520002         2.99766689E-04
   1.77719998         3.03127890E-04
   1.78919995         3.05711612E-04
   1.80120003         3.07356648E-04
   1.81320000         3.07886454E-04
   1.82519996         3.07110167E-04
   1.83720005         3.04824440E-04
   1.84920001         3.00815824E-04
   1.86119998         2.94864178E-04
   1.87320006         2.86747003E-04
   1.88520002         2.76244158E-04
   1.89719999         2.63144088E-04
   1.90919995         2.47250398E-04
   1.92120004         2.28388992E-04
   1.93320000         2.06416022E-04
   1.94519997         1.81225565E-04
   1.95720005         1.52757493E-04
   1.96920002         1.21004843E-04
   1.98119998         8.60203145E-05
   1.99319994         4.79218361E-05
   2.00519991         6.89647413E-06
   2.01719999        -3.67972170E-05
   2.02920008        -8.28290140E-05
   2.04119992        -1.30798857E-04
   2.05320001        -1.80241070E-04
   2.06520009        -2.30630685E-04
   2.07719994        -2.81392160E-04
   2.08920002        -3.31909978E-04
   2.10120010        -3.81540769E-04
   2.11319995        -4.29627253E-04
   2.12520003        -4.75512701E-04
   2.13720012        -5.18556102E-04
   2.14919996        -5.58147207E-04
   2.16120005        -5.93721343E-04
   2.17319989        -6.24772860E-04
   2.18519998        -6.50867820E-04
   2.19720006        -6.71654067E-04
   2.20919991        -6.86869898E-04
   2.22119999        -6.96350296E-04
   2.23320007        -7.00030243E-04
   2.24519992        -6.97946060E-04
   2.25720000        -6.90233544E-04
   2.26920009        -6.77123957E-04
   2.28119993        -6.58937613E-04
   2.29320002        -6.36075391E-04
   2.30520010        -6.09008188E-04
   2.31719995        -5.78264706E-04
   2.32920003        -5.44418814E-04
   2.34120011        -5.08075464E-04
   2.35319996        -4.69856430E-04
   2.36520004        -4.30386717E-04
   2.37719989        -3.90280678E-04
   2.38919997        -3.50129674E-04
   2.40120006        -3.10490665E-04
   2.41319990        -2.71876284E-04
   2.42519999        -2.34746869E-04
   2.43720007        -1.99504211E-04
   2.44919991        -1.66487254E-04
   2.46120000        -1.35969822E-04
   2.47320008        -1.08160195E-04
   2.48519993        -8.32023361E-05
   2.49720001        -6.11787036E-05
   2.50920010        -4.21143195E-05
   2.52119994        -2.59818480E-05
   2.53320003        -1.27073581E-05
   2.54520011        -2.17664342E-06
   2.55719995         5.75836202E-06
   2.56920004         1.12731414E-05
   2.58119988         1.45643635E-05
   2.59319997         1.58440707E-05
   2.60520005         1.53343262E-05
   2.61719990         1.32624382E-05
   2.62919998         9.85683346E-06
   2.64120007         5.34352876E-06
   2.65319991        -5.67940184E-08
   2.66520000        -6.13113889E-06
   2.67720008        -1.26760451E-05
   2.68919992        -1.94990007E-05
   2.70120001        -2.64195041E-05
   2.71320009        -3.32698146E-05
   2.72519994        -3.98954835E-05
   2.73720002        -4.61557647E-05
   2.74920011        -5.19238893E-05
   2.76119995        -5.70873672E-05
   2.77320004        -6.15482568E-05
   2.78520012        -6.52235758E-05
   2.79719996        -6.80457233E-05
   2.80920005        -6.99630691E-05
   2.82119989        -7.09406086E-05
   2.83319998        -7.09606757E-05
   2.84520006        -7.00236778E-05
   2.85719991        -6.81487363E-05
   2.86919999        -6.53742973E-05
   2.88120008        -6.17583719E-05
   2.89319992        -5.73785837E-05
   2.90520000        -5.23317249E-05
   2.91720009        -4.67328318E-05
   2.92919993        -4.07137231E-05
   2.94120002        -3.44208311E-05
   2.95320010        -2.80124314E-05
   2.96519995        -2.16551834E-05
   2.97720003        -1.55200651E-05
   2.98920012        -9.77778382E-06
   3.00119996        -4.59379453E-06
   3.01320004        -1.23065092E-07
   3.02519989         3.49518928E-06
   3.03719997         6.14262535E-06
   3.04920006         7.72649310E-06
   3.06119990         8.18376793E-06
   3.07319999         7.48445609E-06
   3.08520007         5.63389221E-06
   3.09719992         2.67387691E-06
   3.10920000        -1.31748902E-06
   3.12120008        -6.22732023E-06
   3.13319993        -1.19108345E-05
   3.14520001        -1.81955511E-05
   3.15720010        -2.48866691E-05
   3.16919994        -3.17734412E-05
   3.18120003        -3.86362990E-05
   3.19320011        -4.52544082E-05
   3.20519996        -5.14133935E-05
   3.21720004        -5.69128642E-05
   3.22919989        -6.15734243E-05
   3.24119997        -6.52428644E-05
   3.25320005        -6.78013530E-05
   3.26519990        -6.91652895E-05
   3.27719998        -6.92897884E-05
   3.28920007        -6.81696474E-05
   3.30119991        -6.58388526E-05
   3.31320000        -6.23686210E-05
   3.32520008        -5.78641739E-05
   3.33719993        -5.24604038E-05
   3.34920001        -4.63166361E-05
   3.36120009        -3.96108298E-05
   3.37319994        -3.25333567E-05
   3.38520002        -2.52807404E-05
   3.39720011        -1.80494717E-05
   3.40919995        -1.10302108E-05
   3.42120004        -4.40247550E-06
   3.43319988         1.67002281E-06
   3.44519997         7.04329568E-06
   3.45720005         1.15961857E-05
   3.46919990         1.52326493E-05
   3.48119998         1.78831906E-05
   3.49320006         1.95054781E-05
   3.50519991         2.00841860E-05
   3.51719999         1.96301116E-05
   3.52920008         1.81786272E-05
   3.54119992         1.57875547E-05
   3.55320001         1.25345350E-05
   3.56520009         8.51397363E-06
   3.57719994         3.83367069E-06
   3.58920002        -1.38875737E-06
   3.60120010        -7.02954958E-06
   3.61319995        -1.29624414E-05
   3.62520003        -1.90621449E-05
   3.63720012        -2.52075479E-05
   3.64919996        -3.12845259E-05
   3.66120005        -3.71882779E-05
   3.67319989        -4.28251369E-05
   3.68519998        -4.81138195E-05
   3.69720006        -5.29861136E-05
   3.70919991        -5.73870275E-05
   3.72119999        -6.12744989E-05
   3.73320007        -6.46186745E-05
   3.74519992        -6.74009425E-05
   3.75720000        -6.96127390E-05
   3.76920009        -7.12543260E-05
   3.78119993        -7.23335761E-05
   3.79320002        -7.28649175E-05
   3.80520010        -7.28684463E-05
   3.81719995        -7.23693011E-05
   3.82920003        -7.13972768E-05
   3.84120011        -6.99866359E-05
   3.85319996        -6.81761012E-05
   3.86520004        -6.60089427E-05
   3.87719989        -6.35330289E-05
   3.88919997        -6.08008013E-05
   3.90120006        -5.78690669E-05
   3.91319990        -5.47985546E-05
   3.92519999        -5.16531472E-05
   3.93720007        -4.84987613E-05
   3.94919991        -4.54019173E-05
   3.96120000        -4.24279824E-05
   3.97320008        -3.96391115E-05
   3.98519993        -3.70920570E-05
   3.99720001        -3.48358662E-05
   4.00920010        -3.29096365E-05
   4.02120018        -3.13404962E-05
   4.03319979        -3.01418841E-05
   4.04519987        -2.93123376E-05
   4.05719995        -2.88348747E-05
   4.06920004        -2.86770282E-05
   4.08120012        -2.87916173E-05
   4.09320021        -2.91182496E-05
   4.10519981        -2.95855043E-05
   4.11719990        -3.01137388E-05
   4.12919998        -3.06183902E-05
   4.14120007        -3.10136384E-05
   4.15320015        -3.12162338E-05
   4.16520023        -3.11493386E-05
   4.17719984        -3.07461414E-05
   4.18919992        -2.99530875E-05
   4.20120001        -2.87325511E-05
   4.21320009        -2.70647743E-05
   4.22520018        -2.49490313E-05
   4.23719978        -2.24039250E-05
   4.24919987        -1.94668173E-05
   4.26119995        -1.61924909E-05
   4.27320004        -1.26510813E-05
   4.28520012        -8.92544904E-06
   4.29720020        -5.10814334E-06
   4.30919981        -1.29811747E-06
   4.32119989         2.40263762E-06
   4.33319998         5.89238698E-06
   4.34520006         9.07274807E-06
   4.35720015         1.18515036E-05
   4.36920023         1.41450610E-05
   4.38119984         1.58805215E-05
   4.39319992         1.69973955E-05
   4.40520000         1.74489378E-05
   4.41720009         1.72031887E-05
   4.42920017         1.62437245E-05
   4.44119978         1.45701915E-05
   4.45319986         1.21986050E-05
   4.46519995         9.16146382E-06
   4.47720003         5.50763707E-06
   4.48920012         1.30198850E-06
   4.50120020        -3.37530446E-06
   4.51319981        -8.42981535E-06
   4.52519989        -1.37543739E-05
   4.53719997        -1.92310854E-05
   4.54920006        -2.47338903E-05
   4.56120014        -3.01316741E-05
   4.57320023        -3.52918687E-05
   4.58519983        -4.00845129E-05
   4.59719992        -4.43865465E-05
   4.60920000        -4.80862509E-05
   4.62120008        -5.10875907E-05
   4.63320017        -5.33142047E-05
   4.64519978        -5.47128293E-05
   4.65719986        -5.52559504E-05
   4.66919994        -5.49434844E-05
   4.68120003        -5.38033164E-05
   4.69320011        -5.18906927E-05
   4.70520020        -4.92863219E-05
   4.71719980        -4.60934134E-05
   4.72919989        -4.24335958E-05
   4.74119997        -3.84420855E-05
   4.75320005        -3.42622297E-05
   4.76520014        -3.00397460E-05
   4.77720022        -2.59169883E-05
   4.78919983        -2.20275233E-05
   4.80119991        -1.84913006E-05
   4.81320000        -1.54106510E-05
   4.82520008        -1.28673228E-05
   4.83720016        -1.09206376E-05
   4.84919977        -9.60682337E-06
   4.86119986        -8.93950801E-06
   4.87319994        -8.91122363E-06
   4.88520002        -9.49579680E-06
   4.89720011        -1.06513826E-05
   4.90920019        -1.23239242E-05
   4.92119980        -1.44507667E-05
   4.93319988        -1.69641989E-05
   4.94519997        -1.97946956E-05
   4.95720005        -2.28737081E-05
   4.96920013        -2.61358527E-05
   4.98120022        -2.95204682E-05
   4.99319983        -3.29725044E-05
   5.00519991        -3.64428015E-05
   5.01719999        -3.98878474E-05
   5.02920008        -4.32691158E-05
   5.04120016        -4.65521553E-05
   5.05319977        -4.97055698E-05
   5.06519985        -5.26999938E-05
   5.07719994        -5.55072511E-05
   5.08920002        -5.80997475E-05
   5.10120010        -6.04501547E-05
   5.11320019        -6.25314497E-05
   5.12519979        -6.43172389E-05
   5.13719988        -6.57823184E-05
   5.14919996        -6.69034780E-05
   5.16120005        -6.76603304E-05
   5.17320013        -6.80362136E-05
   5.18520021        -6.80189842E-05
   5.19719982        -6.76017517E-05
   5.20919991        -6.67832937E-05
   5.22119999        -6.55684344E-05
   5.23320007        -6.39680948E-05
   5.24520016        -6.19991552E-05
   5.25719976        -5.96841892E-05
   5.26919985        -5.70510456E-05
   5.28119993        -5.41323607E-05
   5.29320002        -5.09651109E-05
   5.30520010        -4.75901215E-05
   5.31720018        -4.40517579E-05
   5.32919979        -4.03976264E-05
   5.34119987        -3.66783934E-05
   5.35319996        -3.29476279E-05
   5.36520004        -2.92616060E-05
   5.37720013        -2.56790463E-05
   5.38920021        -2.22606650E-05
   5.40119982        -1.90685168E-05
   5.41319990        -1.61650787E-05
   5.42519999        -1.36120316E-05
   5.43720007        -1.14687891E-05
   5.44920015        -9.79076231E-06
   5.46120024        -8.62745583E-06
   5.47319984        -8.02042905E-06
   5.48519993        -8.00127145E-06
   5.49720001        -8.58967815E-06
   5.50920010        -9.79175638E-06
   5.52120018        -1.15987123E-05
   5.53319979        -1.39860122E-05
   5.54519987        -1.69131326E-05
   5.55719995        -2.03239561E-05
   5.56920004        -2.41478610E-05
   5.58120012        -2.83014451E-05
   5.59320021        -3.26908994E-05
   5.60519981        -3.72148752E-05
   5.61719990        -4.17677657E-05
   5.62919998        -4.62432363E-05
   5.64120007        -5.05378557E-05
   5.65320015        -5.45546609E-05
   5.66520023        -5.82064677E-05
   5.67719984        -6.14187957E-05
   5.68919992        -6.41322549E-05
   5.70120001        -6.63042665E-05
   5.71320009        -6.79100776E-05
   5.72520018        -6.89430017E-05
   5.73719978        -6.94138798E-05
   5.74919987        -6.93498368E-05
   5.76119995        -6.87924912E-05
   5.77320004        -6.77955322E-05
   5.78520012        -6.64220570E-05
   5.79720020        -6.47416091E-05
   5.80919981        -6.28272028E-05
   5.82119989        -6.07524416E-05
   5.83319998        -5.85888265E-05
   5.84520006        -5.64034344E-05
   5.85720015        -5.42570633E-05
   5.86920023        -5.22028531E-05
   5.88119984        -5.02854491E-05
   5.89319992        -4.85406927E-05
   5.90520000        -4.69957704E-05
   5.91720009        -4.56697780E-05
   5.92920017        -4.45745463E-05
   5.94119978        -4.37156632E-05
   5.95319986        -4.30935288E-05
   5.96519995        -4.27043669E-05
   5.97720003        -4.25411017E-05
   5.98920012        -4.25939979E-05
   6.00120020        -4.28510975E-05
   6.01319981        -4.32983325E-05
   6.02519989        -4.39194810E-05
   6.03719997        -4.46959020E-05
   6.04920006        -4.56061462E-05
   6.06120014        -4.66255733E-05
   6.07320023        -4.77260255E-05
   6.08519983        -4.88756705E-05
   6.09719992        -5.00390925E-05
   6.10920000        -5.11777143E-05
   6.12120008        -5.22505325E-05
   6.13320017        -5.32152699E-05
   6.14519978        -5.40297806E-05
   6.15719986        -5.46537922E-05
   6.16919994        -5.50507539E-05
   6.18120003        -5.51897974E-05
   6.19320011        -5.50475779E-05
   6.20520020        -5.46099545E-05
   6.21719980        -5.38733111E-05
   6.22919989        -5.28454220E-05
   6.24119997        -5.15458087E-05
   6.25320005        -5.00054775E-05
   6.26520014        -4.82660580E-05
   6.27720022        -4.63783508E-05
   6.28919983        -4.44003708E-05
   6.30119991        -4.23949095E-05
   6.31320000        -4.04268831E-05
   6.32520008        -3.85604653E-05
   6.33720016        -3.68562723E-05
   6.34919977        -3.53687356E-05
   6.36119986        -3.41437917E-05
   6.37319994        -3.32170712E-05
   6.38520002        -3.26126828E-05
   6.39720011        -3.23426430E-05
   6.40920019        -3.24070024E-05
   6.42119980        -3.27946509E-05
   6.43319988        -3.34847100E-05
   6.44519997        -3.44484288E-05
   6.45720005        -3.56513992E-05
   6.46920013        -3.70559792E-05
   6.48120022        -3.86236679E-05
   6.49319983        -4.03173435E-05
   6.50519991        -4.21031473E-05
   6.51719999        -4.39519245E-05
   6.52920008        -4.58401082E-05
   6.54120016        -4.77500507E-05
   6.55319977        -4.96697139E-05
   6.56519985        -5.15918764E-05
   6.57719994        -5.35128856E-05
   6.58920002        -5.54310755E-05
   6.60120010        -5.73450961E-05
   6.61320019        -5.92522229E-05
   6.62519979        -6.11468931E-05
   6.63719988        -6.30195791E-05
   6.64919996        -6.48561399E-05
   6.66120005        -6.66377018E-05
   6.67320013        -6.83410399E-05
   6.68520021        -6.99395387E-05
   6.69719982        -7.14044945E-05
   6.70919991        -7.27067745E-05
   6.72119999        -7.38185554E-05
   6.73320007        -7.47150989E-05
   6.74520016        -7.53763234E-05
   6.75719976        -7.57880334E-05
   6.76919985        -7.59427567E-05
   6.78119993        -7.58400056E-05
   6.79320002        -7.54860957E-05
   6.80520010        -7.48933744E-05
   6.81720018        -7.40790347E-05
   6.82919979        -7.30636384E-05
   6.84119987        -7.18694937E-05
   6.85319996        -7.05190105E-05
   6.86520004        -6.90332963E-05
   6.87720013        -6.74310504E-05
   6.88920021        -6.57279670E-05
   6.90119982        -6.39365753E-05
   6.91319990        -6.20667124E-05
   6.92519999        -6.01263710E-05
   6.93720007        -5.81230597E-05
   6.94920015        -5.60652988E-05
   6.96120024        -5.39643006E-05
   6.97319984        -5.18355191E-05
   6.98519993        -4.96999346E-05
   6.99720001        -4.75849192E-05
   7.00920010        -4.55245536E-05
   7.02120018        -4.35592628E-05
   7.03319979        -4.17348383E-05
   7.04519987        -4.01008001E-05
   7.05719995        -3.87081855E-05
   7.06920004        -3.76070057E-05
   7.08120012        -3.68434230E-05
   7.09320021        -3.64569350E-05
   7.10519981        -3.64777588E-05
   7.11719990        -3.69245899E-05
   7.12919998        -3.78029217E-05
   7.14120007        -3.91040630E-05
   7.15320015        -4.08049091E-05
   7.16520023        -4.28684834E-05
   7.17719984        -4.52452914E-05
   7.18919992        -4.78752918E-05
   7.20120001        -5.06904107E-05
   7.21320009        -5.36174521E-05
   7.22520018        -5.65811497E-05
   7.23719978        -5.95071615E-05
   7.24919987        -6.23248779E-05
   7.26119995        -6.49697977E-05
   7.27320004        -6.73853647E-05
   7.28520012        -6.95242416E-05
   7.29720020        -7.13489208E-05
   7.30919981        -7.28317173E-05
   7.32119989        -7.39542957E-05
   7.33319998        -7.47067024E-05
   7.34520006        -7.50861727E-05
   7.35720015        -7.50957915E-05
   7.36920023        -7.47431695E-05
   7.38119984        -7.40393079E-05
   7.39319992        -7.29977037E-05
   7.40520000        -7.16338182E-05
   7.41720009        -6.99649681E-05
   7.42920017        -6.80105222E-05
   7.44119978        -6.57924320E-05
   7.45319986        -6.33360178E-05
   7.46519995        -6.06707654E-05
   7.47720003        -5.78310974E-05
   7.48920012        -5.48569406E-05
   7.50120020        -5.17939479E-05
   7.51319981        -4.86933313E-05
   7.52519989        -4.56111775E-05
   7.53719997        -4.26073020E-05
   7.54920006        -3.97435979E-05
   7.56120014        -3.70820526E-05
   7.57320023        -3.46824236E-05
   7.58519983        -3.25998226E-05
   7.59719992        -3.08823146E-05
   7.60920000        -2.95686768E-05
   7.62120008        -2.86865634E-05
   7.63320017        -2.82511155E-05
   7.64519978        -2.82641849E-05
   7.65719986        -2.87141957E-05
   7.66919994        -2.95766640E-05
   7.68120003        -3.08153249E-05
   7.69320011        -3.23837812E-05
   7.70520020        -3.42275416E-05
   7.71719980        -3.62863102E-05
   7.72919989        -3.84963969E-05
   7.74119997        -4.07930384E-05
   7.75320005        -4.31125700E-05
   7.76520014        -4.53943248E-05
   7.77720022        -4.75821544E-05
   7.78919983        -4.96255998E-05
   7.80119991        -5.14806816E-05
   7.81320000        -5.31103178E-05
   7.82520008        -5.44844988E-05
   7.83720016        -5.55802289E-05
   7.84919977        -5.63813410E-05
   7.86119986        -5.68782816E-05
   7.87319994        -5.70678749E-05
   7.88520002        -5.69531767E-05
   7.89720011        -5.65433620E-05
   7.90920019        -5.58536594E-05
   7.92119980        -5.49053439E-05
   7.93319988        -5.37256310E-05
   7.94519997        -5.23474991E-05
   7.95720005        -5.08093653E-05
   7.96920013        -4.91544924E-05
   7.98120022        -4.74301814E-05
   7.99319983        -4.56866510E-05
   8.00520039        -4.39756404E-05
   8.01720047        -4.23487509E-05
   8.02919960        -4.08556043E-05
   8.04119968        -3.95418901E-05
   8.05319977        -3.84473533E-05
   8.06519985        -3.76039752E-05
   8.07719994        -3.70342968E-05
   8.08920002        -3.67501634E-05
   8.10120010        -3.67519024E-05
   8.11320019        -3.70280140E-05
   8.12520027        -3.75554664E-05
   8.13720036        -3.83005645E-05
   8.14920044        -3.92203838E-05
   8.16119957        -4.02647020E-05
   8.17319965        -4.13783164E-05
   8.18519974        -4.25036960E-05
   8.19719982        -4.35837828E-05
   8.20919991        -4.45647856E-05
   8.22119999        -4.53988905E-05
   8.23320007        -4.60466872E-05
   8.24520016        -4.64791592E-05
   8.25720024        -4.66792008E-05
   8.26920033        -4.66424972E-05
   8.28120041        -4.63777687E-05
   8.29319954        -4.59063413E-05
   8.30519962        -4.52610730E-05
   8.31719971        -4.44846919E-05
   8.32919979        -4.36276678E-05
   8.34119987        -4.27457016E-05
   8.35319996        -4.18969867E-05
   8.36520004        -4.11393885E-05
   8.37720013        -4.05276733E-05
   8.38920021        -4.01109537E-05
   8.40120029        -3.99304445E-05
   8.41320038        -4.00176468E-05
   8.42520046        -4.03930535E-05
   8.43719959        -4.10654320E-05
   8.44919968        -4.20316319E-05
   8.46119976        -4.32770066E-05
   8.47319984        -4.47762613E-05
   8.48519993        -4.64947625E-05
   8.49720001        -4.83901167E-05
   8.50920010        -5.04139571E-05
   8.52120018        -5.25138457E-05
   8.53320026        -5.46351512E-05
   8.54520035        -5.67228308E-05
   8.55720043        -5.87231043E-05
   8.56919956        -6.05849091E-05
   8.58119965        -6.22611406E-05
   8.59319973        -6.37097037E-05
   8.60519981        -6.48942878E-05
   8.61719990        -6.57849887E-05
   8.62919998        -6.63587489E-05
   8.64120007        -6.65996486E-05
   8.65320015        -6.64990876E-05
   8.66520023        -6.60559381E-05
   8.67720032        -6.52765448E-05
   8.68920040        -6.41747683E-05
   8.70119953        -6.27718327E-05
   8.71319962        -6.10961870E-05
   8.72519970        -5.91831085E-05
   8.73719978        -5.70742268E-05
   8.74919987        -5.48167773E-05
   8.76119995        -5.24626776E-05
   8.77320004        -5.00673887E-05
   8.78520012        -4.76886089E-05
   8.79720020        -4.53847570E-05
   8.80920029        -4.32134111E-05
   8.82120037        -4.12296467E-05
   8.83320045        -3.94843883E-05
   8.84519958        -3.80227939E-05
   8.85719967        -3.68827896E-05
   8.86919975        -3.60937956E-05
   8.88119984        -3.56756791E-05
   8.89319992        -3.56380551E-05
   8.90520000        -3.59799233E-05
   8.91720009        -3.66896529E-05
   8.92920017        -3.77453762E-05
   8.94120026        -3.91156973E-05
   8.95320034        -4.07606785E-05
   8.96520042        -4.26331171E-05
   8.97719955        -4.46799859E-05
   8.98919964        -4.68440012E-05
   9.00119972        -4.90652965E-05
   9.01319981        -5.12830884E-05
   9.02519989        -5.34373430E-05
   9.03719997        -5.54703765E-05
   9.04920006        -5.73283105E-05
   9.06120014        -5.89624324E-05
   9.07320023        -6.03303015E-05
   9.08520031        -6.13967495E-05