 -0.622799993         1.00000002E-24
 -0.610800028         1.00000002E-24
 -0.598800004         1.00000002E-24
 -0.586799979         1.00000002E-24
 -0.574800014         1.00000002E-24
 -0.562799990         1.00000002E-24
 -0.550800025         1.00000012E-24
 -0.538800001         1.00000022E-24
 -0.526799977         1.00000032E-24
 -0.514800012         1.00000041E-24
 -0.502799988         1.00000041E-24
 -0.490799993         1.00000041E-24
 -0.478799999         1.00000032E-24
 -0.466800004         1.00000022E-24
 -0.454800010         1.00000012E-24
 -0.442799985         1.00000002E-24
 -0.430799991         9.99999822E-25
 -0.418799996         9.99999428E-25
 -0.406800002         9.99998146E-25
 -0.394800007         9.99995089E-25
 -0.382800013         9.99988482E-25
 -0.370799989         9.99976156E-25
 -0.358799994         9.99955646E-25
 -0.346799999         9.99925965E-25
 -0.334800005         9.99888494E-25
 -0.322800010         9.99848854E-25
 -0.310799986         9.99820061E-25
 -0.298799992         9.99830907E-25
 -0.286799997         9.99939573E-25
 -0.274800003         1.00024624E-24
 -0.262800008         1.00086964E-24
 -0.250800014         1.00183461E-24
 -0.238800004         1.00282434E-24
 -0.226799995         1.00284702E-24
 -0.214800000         1.00007713E-24
 -0.202800006         9.92371932E-25
 -0.190799996         9.79014249E-25
 -0.178800002         9.63712812E-25
 -0.166800007         9.57586321E-25
 -0.154799998         9.79044127E-25
 -0.142800003         1.04639924E-24
 -0.130799994         1.16072353E-24
 -0.118799999         1.28268132E-24
 -0.106799997         1.31732869E-24
  -9.48000029E-02     1.13024125E-24
  -8.28000009E-02     6.17203392E-25
  -7.07999989E-02    -1.72489737E-25
  -5.88000007E-02    -9.05408399E-25
  -4.67999987E-02    -9.28105603E-25
  -3.48000005E-02     5.44356672E-25
  -2.28000004E-02     3.93744380E-24
  -1.08000003E-02     8.61167738E-24
   1.20000006E-03     1.22867216E-23
   1.31999999E-02     1.11673548E-23
   2.52000000E-02     1.34140847E-24
   3.72000001E-02    -1.84176365E-23
   4.91999984E-02    -4.32364375E-23
   6.12000003E-02    -6.00581327E-23
   7.32000023E-02    -4.95553775E-23
   8.51999968E-02     5.86544155E-24
   9.71999988E-02     1.08389880E-22
  0.109200001         2.30126503E-22
  0.121200003         3.06554377E-22
  0.133200005         2.48954278E-22
  0.145199999        -1.74166162E-23
  0.157199994        -4.94251523E-22
  0.169200003        -1.05208397E-21
  0.181199998        -1.41041635E-21
  0.193200007        -1.19633419E-21
  0.205200002        -1.02011113E-22
  0.217199996         1.88434692E-21
  0.229200006         4.26085903E-21
  0.241200000         5.94448581E-21
  0.253199995         5.49281652E-21
  0.265199989         1.67730186E-21
  0.277200013        -5.69029781E-21
  0.289200008        -1.49796690E-20
  0.301200002        -2.24704033E-20
  0.313199997        -2.30426912E-20
  0.325199991        -1.20327581E-20
  0.337199986         1.20503882E-20
  0.349200010         4.48778828E-20
  0.361200005         7.51364598E-20
  0.373199999         8.62659229E-20
  0.385199994         6.17975327E-20
  0.397199988        -6.45871791E-21
  0.409200013        -1.09943910E-19
  0.421200007        -2.18608275E-19
  0.433200002        -2.84090192E-19
  0.445199996        -2.53232194E-19
  0.457199991        -9.05637918E-20
  0.469199985         1.96521234E-19
  0.481200010         5.40349893E-19
  0.493200004         8.14952453E-19
  0.505200028         8.65386379E-19
  0.517199993         5.63403210E-19
  0.529200017        -1.23850186E-19
  0.541199982        -1.07690871E-18
  0.553200006        -2.00885651E-18
  0.565199971        -2.51608676E-18
  0.577199996        -2.20025680E-18
  0.589200020        -8.38283444E-19
  0.601199985         1.45228379E-18
  0.613200009         4.12357228E-18
  0.625199974         6.24983922E-18
  0.637199998         6.75465927E-18
  0.649200022         4.78593343E-18
  0.661199987         1.42147537E-19
  0.673200011        -6.40168352E-18
  0.685199976        -1.30333936E-17
  0.697200000        -1.72260545E-17
  0.709200025        -1.64520053E-17
  0.721199989        -9.14889468E-18
  0.733200014         4.34467146E-18
  0.745199978         2.12472987E-17
  0.757200003         3.65203946E-17
  0.769200027         4.39514709E-17
  0.781199992         3.80292746E-17
  0.793200016         1.61833073E-17
  0.805199981        -1.93036211E-17
  0.817200005        -6.04967805E-17
  0.829200029        -9.47570133E-17
  0.841199994        -1.07644706E-16
  0.853200018        -8.73732551E-17
  0.865199983        -2.97489287E-17
  0.877200007         5.79475555E-17
  0.889199972         1.55779563E-16
  0.901199996         2.33888481E-16
  0.913200021         2.59405164E-16
  0.925199986         2.06490420E-16
  0.937200010         6.71169584E-17
  0.949199975        -1.40731785E-16
  0.961199999        -3.70895875E-16
  0.973200023        -5.55397386E-16
  0.985199988        -6.19784648E-16
  0.997200012        -5.05167009E-16
   1.00919998        -1.91839767E-16
   1.02119994         2.82577841E-16
   1.03320003         8.17859121E-16
   1.04519999         1.26414596E-15
   1.05719995         1.45436383E-15
   1.06920004         1.25146630E-15
   1.08120000         5.99938455E-16
   1.09319997        -4.33325645E-16
   1.10520005        -1.64449117E-15
   1.11720002        -2.71647341E-15
   1.12919998        -3.28410916E-15
   1.14119995        -3.03209335E-15
   1.15320003        -1.80446753E-15
   1.16520000         3.04789083E-16
   1.17719996         2.91276737E-15
   1.18920004         5.38563665E-15
   1.20120001         6.96204713E-15
   1.21319997         6.94637744E-15
   1.22520006         4.93112089E-15
   1.23720002         9.88786664E-16
   1.24919999        -4.23157713E-15
   1.26119995        -9.55484081E-15
   1.27320004        -1.34967229E-14
   1.28520000        -1.46212218E-14
   1.29719996        -1.19646623E-14
   1.30920005        -5.41627891E-15
   1.32120001         4.06564930E-15
   1.33319998         1.44999200E-14
   1.34519994         2.32312508E-14
   1.35720003         2.75413051E-14
   1.36919999         2.53963517E-14
   1.38119996         1.61421661E-14
   1.39320004         9.37045233E-16
   1.40520000        -1.72473967E-14
   1.41719997        -3.41322463E-14
   1.42920005        -4.50846432E-14
   1.44120002        -4.63204440E-14
   1.45319998        -3.60555803E-14
   1.46519995        -1.52752702E-14
   1.47720003         1.21484760E-14
   1.48920000         4.01119059E-14
   1.50119996         6.16248860E-14
   1.51320004         7.05585967E-14
   1.52520001         6.33596094E-14
   1.53719997         4.02545700E-14
   1.54920006         5.56072810E-15
   1.56120002        -3.30719271E-14
   1.57319999        -6.63809760E-14
   1.58519995        -8.57921928E-14
   1.59720004        -8.57248774E-14
   1.60920000        -6.52774547E-14
   1.62119997        -2.87884815E-14
   1.63320005         1.49652900E-14
   1.64520001         5.48227337E-14
   1.65719998         8.00909225E-14
   1.66919994         8.34988342E-14
   1.68120003         6.34765610E-14
   1.69319999         2.50990347E-14
   1.70519996        -2.06804246E-14
   1.71720004        -5.94845489E-14
   1.72920001        -7.72121421E-14
   1.74119997        -6.41885633E-14
   1.75320005        -1.87643734E-14
   1.76520002         5.06480945E-14
   1.77719998         1.25898708E-13
   1.78919995         1.82160697E-13
   1.80120003         1.93520980E-13
   1.81320000         1.40226589E-13
   1.82519996         1.60906851E-14
   1.83720005        -1.65864027E-13
   1.84920001        -3.71511930E-13
   1.86119998        -5.49033692E-13
   1.87320006        -6.38196744E-13
   1.88520002        -5.84628808E-13
   1.89719999        -3.56557720E-13
   1.90919995         3.99421198E-14
   1.92120004         5.51876849E-13
   1.93320000         1.08067797E-12
   1.94519997         1.49640207E-12
   1.95720005         1.66418799E-12
   1.96920002         1.47869455E-12
   1.98119998         8.98869900E-13
   1.99319994        -2.65514420E-14
   2.00519991        -1.15201414E-12
   2.01719999        -2.25252629E-12
   2.02920008        -3.06571001E-12
   2.04119992        -3.35177133E-12
   2.05320001        -2.95819814E-12
   2.06520009        -1.87220682E-12
   2.07719994        -2.44455958E-13
   2.08920002         1.62701189E-12
   2.10120010         3.35399373E-12
   2.11319995         4.54631385E-12
   2.12520003         4.91038330E-12
   2.13720012         4.33174850E-12
   2.14919996         2.91648368E-12
   2.16120005         9.75258177E-13
   2.17319989        -1.05107578E-12
   2.18519998        -2.70817700E-12
   2.19720006        -3.65641935E-12
   2.20919991        -3.77283491E-12
   2.22119999        -3.19283554E-12
   2.23320007        -2.27253502E-12
   2.24519992        -1.47509771E-12
   2.25720000        -1.20889345E-12
   2.26920009        -1.66399522E-12
   2.28119993        -2.70019662E-12
   2.29320002        -3.83069401E-12
   2.30520010        -4.32176387E-12
   2.31719995        -3.39569171E-12
   2.32920003        -4.90857626E-13
   2.34120011         4.49077451E-12
   2.35319996         1.10243845E-11
   2.36520004         1.79515326E-11
   2.37719989         2.36442341E-11
   2.38919997         2.63258321E-11
   2.40120006         2.44877799E-11
   2.41319990         1.73119991E-11
   2.42519999         5.00124291E-12
   2.43720007        -1.10633672E-11
   2.44919991        -2.83821681E-11
   2.46120000        -4.36138972E-11
   2.47320008        -5.30296258E-11
   2.48519993        -5.30796587E-11
   2.49720001        -4.10077181E-11
   2.50920010        -1.54643937E-11
   2.52119994         2.28993647E-11
   2.53320003         7.08523518E-11
   2.54520011         1.22000979E-10
   2.55719995         1.66200956E-10
   2.56920004         1.88988936E-10
   2.58119988         1.71096456E-10
   2.59319997         8.81256457E-11
   2.60520005        -8.95547594E-11
   2.61719990        -3.96712274E-10
   2.62919998        -8.73112582E-10
   2.64120007        -1.56369684E-09
   2.65319991        -2.51965115E-09
   2.66520000        -3.80117182E-09
   2.67720008        -5.48291323E-09
   2.68919992        -7.66326202E-09
   2.70120001        -1.04785931E-08
   2.71320009        -1.41237138E-08
   2.72519994        -1.88796268E-08
   2.73720002        -2.51495944E-08
   2.74920011        -3.35044348E-08
   2.76119995        -4.47377104E-08
   2.77320004        -5.99312244E-08
   2.78520012        -8.05307963E-08
   2.79719996        -1.08431777E-07
   2.80920005        -1.46072779E-07
   2.82119989        -1.96535197E-07
   2.83319998        -2.63644864E-07
   2.84520006        -3.52070714E-07
   2.85719991        -4.67413855E-07
   2.86919999        -6.16279863E-07
   2.88120008        -8.06325602E-07
   2.89319992        -1.04627134E-06
   2.90520000        -1.34586958E-06
   2.91720009        -1.71582292E-06
   2.92919993        -2.16764147E-06
   2.94120002        -2.71343879E-06
   2.95320010        -3.36566018E-06
   2.96519995        -4.13674434E-06
   2.97720003        -5.03872479E-06
   2.98920012        -6.08277514E-06
   3.00119996        -7.27871293E-06
   3.01320004        -8.63447531E-06
   3.02519989        -1.01555879E-05
   3.03719997        -1.18446533E-05
   3.04920006        -1.37008683E-05
   3.06119990        -1.57196228E-05
   3.07319999        -1.78921819E-05
   3.08520007        -2.02054853E-05
   3.09719992        -2.26420925E-05
   3.10920000        -2.51802721E-05
   3.12120008        -2.77942672E-05
   3.13319993        -3.04547157E-05
   3.14520001        -3.31292467E-05
   3.15720010        -3.57832214E-05
   3.16919994        -3.83805927E-05
   3.18120003        -4.08848864E-05
   3.19320011        -4.32602501E-05
   3.20519996        -4.54725014E-05
   3.21720004        -4.74901935E-05
   3.22919989        -4.92856234E-05
   3.24119997        -5.08357116E-05
   3.25320005        -5.21227521E-05
   3.26519990        -5.31350161E-05
   3.27719998        -5.38671047E-05
   3.28920007        -5.43201095E-05
   3.30119991        -5.45015209E-05
   3.31320000        -5.44249015E-05
   3.32520008        -5.41093577E-05
   3.33719993        -5.35788204E-05
   3.34920001        -5.28611090E-05
   3.36120009        -5.19869354E-05
   3.37319994        -5.09888050E-05
   3.38520002        -4.98998706E-05
   3.39720011        -4.87528596E-05
   3.40919995        -4.75790221E-05
   3.42120004        -4.64072364E-05
   3.43319988        -4.52632448E-05
   3.44519997        -4.41690718E-05
   3.45720005        -4.31426633E-05
   3.46919990        -4.21977056E-05
   3.48119998        -4.13436683E-05
   3.49320006        -4.05859937E-05
   3.50519991        -3.99264973E-05
   3.51719999        -3.93638220E-05
   3.52920008        -3.88940316E-05
   3.54119992        -3.85112035E-05
   3.55320001        -3.82080507E-05
   3.56520009        -3.79764751E-05
   3.57719994        -3.78080658E-05
   3.58920002        -3.76945391E-05
   3.60120010        -3.76280186E-05
   3.61319995        -3.76012686E-05
   3.62520003        -3.76077951E-05
   3.63720012        -3.76418866E-05
   3.64919996        -3.76985627E-05
   3.66120005        -3.77734905E-05
   3.67319989        -3.78628938E-05
   3.68519998        -3.79634112E-05
   3.69720006        -3.80720048E-05
   3.70919991        -3.81858954E-05
   3.72119999        -3.83025108E-05
   3.73320007        -3.84194755E-05
   3.74519992        -3.85346611E-05
   3.75720000        -3.86462270E-05
   3.76920009        -3.87527216E-05
   3.78119993        -3.88531553E-05
   3.79320002        -3.89470806E-05
   3.80520010        -3.90346686E-05
   3.81719995        -3.91167341E-05
   3.82920003        -3.91947469E-05
   3.84120011        -3.92707698E-05
   3.85319996        -3.93474111E-05
   3.86520004        -3.94276940E-05
   3.87719989        -3.95149036E-05
   3.88919997        -3.96124451E-05
   3.90120006        -3.97236508E-05
   3.91319990        -3.98515913E-05
   3.92519999        -3.99989294E-05
   3.93720007        -4.01677280E-05
   3.94919991        -4.03593367E-05
   3.96120000        -4.05742758E-05
   3.97320008        -4.08121814E-05
   3.98519993        -4.10717657E-05
   3.99720001        -4.13508642E-05
   4.00920010        -4.16465082E-05
   4.02120018        -4.19550670E-05
   4.03319979        -4.22724479E-05
   4.04519987        -4.25943763E-05
   4.05719995        -4.29167048E-05
   4.06920004        -4.32357592E-05
   4.08120012        -4.35487491E-05
   4.09320021        -4.38541101E-05
   4.10519981        -4.41518969E-05
   4.11719990        -4.44440375E-05
   4.12919998        -4.47345701E-05
   4.14120007        -4.50297412E-05
   4.15320015        -4.53379616E-05
   4.16520023        -4.56696689E-05
   4.17719984        -4.60370138E-05
   4.18919992        -4.64534569E-05
   4.20120001        -4.69332444E-05
   4.21320009        -4.74908193E-05
   4.22520018        -4.81402130E-05
   4.23719978        -4.88943951E-05
   4.24919987        -4.97647088E-05
   4.26119995        -5.07603727E-05
   4.27320004        -5.18880770E-05
   4.28520012        -5.31516962E-05
   4.29720020        -5.45521507E-05
   4.30919981        -5.60873705E-05
   4.32119989        -5.77523897E-05
   4.33319998        -5.95395068E-05
   4.34520006        -6.14385208E-05
   4.35720015        -6.34370081E-05
   4.36920023        -6.55205949E-05
   4.38119984        -6.76732452E-05
   4.39319992        -6.98775257E-05
   4.40520000        -7.21148172E-05
   4.41720009        -7.43656274E-05
   4.42920017        -7.66097583E-05
   4.44119978        -7.88266334E-05
   4.45319986        -8.09956400E-05
   4.46519995        -8.30964273E-05
   4.47720003        -8.51094374E-05
   4.48920012        -8.70163421E-05
   4.50120020        -8.88006543E-05
   4.51319981        -9.04482731E-05
   4.52519989        -9.19480663E-05
   4.53719997        -9.32923576E-05
   4.54920006        -9.44773637E-05
   4.56120014        -9.55033756E-05
   4.57320023        -9.63748535E-05
   4.58519983        -9.71002009E-05
   4.59719992        -9.76913216E-05
   4.60920000        -9.81629419E-05
   4.62120008        -9.85317238E-05
   4.63320017        -9.88152024E-05
   4.64519978        -9.90306726E-05
   4.65719986        -9.91940396E-05
   4.66919994        -9.93188005E-05
   4.68120003        -9.94150978E-05
   4.69320011        -9.94891961E-05
   4.70520020        -9.95431328E-05
   4.71719980        -9.95748196E-05
   4.72919989        -9.95784139E-05
   4.74119997        -9.95451119E-05
   4.75320005        -9.94642178E-05
   4.76520014        -9.93243375E-05
   4.77720022        -9.91148117E-05
   4.78919983        -9.88270986E-05
   4.80119991        -9.84560320E-05
   4.81320000        -9.80009427E-05
   4.82520008        -9.74664581E-05
   4.83720016        -9.68629465E-05
   4.84919977        -9.62065387E-05
   4.86119986        -9.55187497E-05
   4.87319994        -9.48256493E-05
   4.88520002        -9.41566395E-05
   4.89720011        -9.35429634E-05
   4.90920019        -9.30159367E-05
   4.92119980        -9.26050707E-05
   4.93319988        -9.23362095E-05
   4.94519997        -9.22297695E-05
   4.95720005        -9.22991749E-05
   4.96920013        -9.25497225E-05
   4.98120022        -9.29777525E-05
   4.99319983        -9.35704084E-05
   5.00519991        -9.43058258E-05
   5.01719999        -9.51539041E-05
   5.02920008        -9.60775360E-05
   5.04120016        -9.70342735E-05
   5.05319977        -9.79783727E-05
   5.06519985        -9.88630563E-05
   5.07719994        -9.96428862E-05
   5.08920002        -1.00276193E-04
   5.10120010        -1.00727244E-04
   5.11320019        -1.00968289E-04
   5.12519979        -1.00981109E-04
   5.13719988        -1.00758152E-04
   5.14919996        -1.00303179E-04
   5.16120005        -9.96312447E-05
   5.17320013        -9.87682433E-05
   5.18520021        -9.77497912E-05
   5.19719982        -9.66197404E-05
   5.20919991        -9.54282441E-05
   5.22119999        -9.42295155E-05
   5.23320007        -9.30794631E-05
   5.24520016        -9.20332022E-05
   5.25719976        -9.11426614E-05
   5.26919985        -9.04543485E-05
   5.28119993        -9.00073355E-05
   5.29320002        -8.98315993E-05
   5.30520010        -8.99467486E-05
   5.31720018        -9.03611290E-05
   5.32919979        -9.10713061E-05
   5.34119987        -9.20619932E-05
   5.35319996        -9.33062765E-05
   5.36520004        -9.47661902E-05
   5.37720013        -9.63934799E-05
   5.38920021        -9.81306439E-05
   5.40119982        -9.99121694E-05
   5.41319990        -1.01665748E-04
   5.42519999        -1.03313716E-04
   5.43720007        -1.04774525E-04
   5.44920015        -1.05964216E-04
   5.46120024        -1.06797997E-04
   5.47319984        -1.07191780E-04
   5.48519993        -1.07063781E-04
   5.49720001        -1.06336061E-04
   5.50920010        -1.04936065E-04
   5.52120018        -1.02798142E-04
   5.53319979        -9.98648975E-05
   5.54519987        -9.60885081E-05
   5.55719995        -9.14318443E-05
   5.56920004        -8.58694766E-05
   5.58120012        -7.93884101E-05
   5.59320021        -7.19886957E-05
   5.60519981        -6.36837503E-05
   5.61719990        -5.45005241E-05
   5.62919998        -4.44794714E-05
   5.64120007        -3.36743251E-05
   5.65320015        -2.21517384E-05
   5.66520023        -9.99081203E-06
   5.67719984         2.71750650E-06
   5.68919992         1.58710845E-05
   5.70120001         2.93573848E-05
   5.71320009         4.30543405E-05
   5.72520018         5.68313953E-05
   5.73719978         7.05506536E-05
   5.74919987         8.40683351E-05
   5.76119995         9.72364287E-05
   5.77320004         1.09904584E-04
   5.78520012         1.21922421E-04
   5.79720020         1.33142064E-04
   5.80919981         1.43421013E-04
   5.82119989         1.52625071E-04
   5.83319998         1.60631753E-04
   5.84520006         1.67333332E-04
   5.85720015         1.72640066E-04
   5.86920023         1.76483110E-04
   5.88119984         1.78816932E-04
   5.89319992         1.79621333E-04
   5.90520000         1.78902701E-04
   5.91720009         1.76694506E-04
   5.92920017         1.73056935E-04
   5.94119978         1.68075683E-04
   5.95319986         1.61859803E-04
   5.96519995         1.54538866E-04
   5.97720003         1.46259379E-04
   5.98920012         1.37180643E-04
   6.00120020         1.27470412E-04
   6.01319981         1.17300246E-04
   6.02519989         1.06840962E-04
   6.03719997         9.62583945E-05
   6.04920006         8.57095438E-05
   6.06120014         7.53392742E-05
   6.07320023         6.52776798E-05
   6.08519983         5.56382365E-05
   6.09719992         4.65166013E-05
   6.10920000         3.79901976E-05
   6.12120008         3.01183918E-05
   6.13320017         2.29432317E-05
   6.14519978         1.64906360E-05
   6.15719986         1.07719079E-05
   6.16919994         5.78541494E-06
   6.18120003         1.51838401E-06
   6.19320011        -2.05133142E-06
   6.20520020        -4.95357699E-06
   6.21719980        -7.22437335E-06
   6.22919989        -8.90457886E-06
   6.24119997        -1.00387479E-05
   6.25320005        -1.06741836E-05
   6.26520014        -1.08601516E-05
   6.27720022        -1.06472335E-05
   6.28919983        -1.00867883E-05
   6.30119991        -9.23048174E-06
   6.31320000        -8.12986855E-06
   6.32520008        -6.83601047E-06
   6.33720016        -5.39911161E-06
   6.34919977        -3.86817419E-06
   6.36119986        -2.29067382E-06
   6.37319994        -7.12254177E-07
   6.38520002         8.23557343E-07
   6.39720011         2.27560963E-06
   6.40920019         3.60536592E-06
   6.42119980         4.77712274E-06
   6.43319988         5.75821832E-06
   6.44519997         6.51924120E-06
   6.45720005         7.03424394E-06
   6.46920013         7.28097893E-06
   6.48120022         7.24115216E-06
   6.49319983         6.90070874E-06
   6.50519991         6.25013627E-06
   6.51719999         5.28477176E-06
   6.52920008         4.00509998E-06
   6.54120016         2.41700627E-06
   6.55319977         5.31961120E-07
   6.56519985        -1.63289690E-06
   6.57719994        -4.05480660E-06
   6.58920002        -6.70557074E-06
   6.60120010        -9.55190717E-06
   6.61320019        -1.25559527E-05
   6.62519979        -1.56759197E-05
   6.63719988        -1.88668837E-05
   6.64919996        -2.20816983E-05
   6.66120005        -2.52719856E-05
   6.67320013        -2.83891804E-05
   6.68520021        -3.13856217E-05
   6.69719982        -3.42156454E-05
   6.70919991        -3.68366418E-05
   6.72119999        -3.92100701E-05
   6.73320007        -4.13024609E-05
   6.74520016        -4.30862528E-05
   6.75719976        -4.45406149E-05
   6.76919985        -4.56520902E-05
   6.78119993        -4.64151453E-05
   6.79320002        -4.68325052E-05
   6.80520010        -4.69153601E-05
   6.81720018        -4.66833262E-05
   6.82919979        -4.61642012E-05
   6.84119987        -4.53934626E-05
   6.85319996        -4.44135367E-05
   6.86520004        -4.32728266E-05
   6.87720013        -4.20244687E-05
   6.88920021        -4.07249318E-05
   6.90119982        -3.94323542E-05
   6.91319990        -3.82048056E-05
   6.92519999        -3.70983871E-05
   6.93720007        -3.61653438E-05
   6.94920015        -3.54521908E-05
   6.96120024        -3.49979782E-05
   6.97319984        -3.48327085E-05
   6.98519993        -3.49760812E-05
   6.99720001        -3.54365475E-05
   7.00920010        -3.62107749E-05
   7.02120018        -3.72835384E-05
   7.03319979        -3.86280844E-05
   7.04519987        -4.02069309E-05
   7.05719995        -4.19731041E-05
   7.06920004        -4.38717652E-05
   7.08120012        -4.58421564E-05
   7.09320021        -4.78197835E-05
   7.10519981        -4.97387700E-05
   7.11719990        -5.15342435E-05
   7.12919998        -5.31446785E-05
   7.14120007        -5.45141120E-05
   7.15320015        -5.55940715E-05
   7.16520023        -5.63452377E-05
   7.17719984        -5.67386742E-05
   7.18919992        -5.67566494E-05
   7.20120001        -5.63930080E-05
   7.21320009        -5.56530613E-05
   7.22520018        -5.45530747E-05
   7.23719978        -5.31193618E-05
   7.24919987        -5.13870255E-05
   7.26119995        -4.93984880E-05
   7.27320004        -4.72018546E-05
   7.28520012        -4.48491955E-05
   7.29720020        -4.23948550E-05
   7.30919981        -3.98938464E-05
   7.32119989        -3.74003648E-05
   7.33319998        -3.49665097E-05
   7.34520006        -3.26411646E-05
   7.35720015        -3.04690984E-05
   7.36920023        -2.84902362E-05
   7.38119984        -2.67390951E-05
   7.39319992        -2.52443624E-05
   7.40520000        -2.40285935E-05
   7.41720009        -2.31079994E-05
   7.42920017        -2.24923351E-05
   7.44119978        -2.21848568E-05
   7.45319986        -2.21823648E-05
   7.46519995        -2.24753167E-05
   7.47720003        -2.30480400E-05
   7.48920012        -2.38790490E-05
   7.50120020        -2.49414807E-05
   7.51319981        -2.62036501E-05
   7.52519989        -2.76297505E-05
   7.53719997        -2.91806718E-05
   7.54920006        -3.08149283E-05
   7.56120014        -3.24897046E-05
   7.57320023        -3.41619379E-05
   7.58519983        -3.57894751E-05
   7.59719992        -3.73321709E-05
   7.60920000        -3.87529835E-05
   7.62120008        -4.00189565E-05
   7.63320017        -4.11020665E-05
   7.64519978        -4.19799508E-05
   7.65719986        -4.26363695E-05
   7.66919994        -4.30615401E-05
   7.68120003        -4.32521556E-05
   7.69320011        -4.32112538E-05
   7.70520020        -4.29478168E-05
   7.71719980        -4.24761784E-05
   7.72919989        -4.18152849E-05
   7.74119997        -4.09877975E-05
   7.75320005        -4.00191420E-05
   7.76520014        -3.89364941E-05
   7.77720022        -3.77677970E-05
   7.78919983        -3.65408305E-05
   7.80119991        -3.52823808E-05
   7.81320000        -3.40175175E-05
   7.82520008        -3.27690577E-05
   7.83720016        -3.15571488E-05
   7.84919977        -3.03990564E-05
   7.86119986        -2.93090961E-05
   7.87319994        -2.82987276E-05
   7.88520002        -2.73767710E-05
   7.89720011        -2.65497310E-05
   7.90920019        -2.58222026E-05
   7.92119980        -2.51972924E-05
   7.93319988        -2.46770451E-05
   7.94519997        -2.42628230E-05
   7.95720005        -2.39555957E-05
   7.96920013        -2.37561380E-05
   7.98120022        -2.36650903E-05
   7.99319983        -2.36828964E-05
   8.00520039        -2.38096200E-05
   8.01720047        -2.40446607E-05
   8.02919960        -2.43864215E-05
   8.04119968        -2.48319357E-05
   8.05319977        -2.53765193E-05
   8.06519985        -2.60135021E-05
   8.07719994        -2.67340220E-05
   8.08920002        -2.75269922E-05
   8.10120010        -2.83791887E-05
   8.11320019        -2.92754921E-05
   8.12520027        -3.01992895E-05
   8.13720036        -3.11329968E-05
   8.14920044        -3.20586732E-05
   8.16119957        -3.29587056E-05
   8.17319965        -3.38164937E-05
   8.18519974        -3.46171037E-05
   8.19719982        -3.53478499E-05
   8.20919991        -3.59987389E-05
   8.22119999        -3.65627602E-05
   8.23320007        -3.70360503E-05
   8.24520016        -3.74178017E-05
   8.25720024        -3.77100660E-05
   8.26920033        -3.79173689E-05
   8.28120041        -3.80462225E-05
   8.29319954        -3.81045538E-05
   8.30519962        -3.81010905E-05
   8.31719971        -3.80448109E-05
   8.32919979        -3.79443991E-05
   8.34119987        -3.78078767E-05
   8.35319996        -3.76423195E-05
   8.36520004        -3.74537594E-05
   8.37720013        -3.72471986E-05
   8.38920021        -3.70267699E-05
   8.40120029        -3.67959910E-05
   8.41320038        -3.65580236E-05
   8.42520046        -3.63160034E-05
   8.43719959        -3.60732265E-05
   8.44919968        -3.58333491E-05
   8.46119976        -3.56003693E-05
   8.47319984        -3.53785144E-05
   8.48519993        -3.51719609E-05
   8.49720001        -3.49844049E-05
   8.50920010        -3.48185167E-05
   8.52120018        -3.46753586E-05
   8.53320026        -3.45537264E-05
   8.54520035        -3.44496366E-05
   8.55720043        -3.43558386E-05
   8.56919956        -3.42616113E-05
   8.58119965        -3.41527229E-05
   8.59319973        -3.40117258E-05
   8.60519981        -3.38185237E-05
   8.61719990        -3.35512268E-05
   8.62919998        -3.31872834E-05
   8.64120007        -3.27048147E-05
   8.65320015        -3.20840809E-05
   8.66520023        -3.13090350E-05
   8.67720032        -3.03687812E-05
   8.68920040        -2.92589284E-05
   8.70119953        -2.79826800E-05
   8.71319962        -2.65515719E-05
   8.72519970        -2.49857985E-05
   8.73719978        -2.33140709E-05
   8.74919987        -2.15729724E-05
   8.76119995        -1.98058333E-05
   8.77320004        -1.80611551E-05
   8.78520012        -1.63906861E-05
   8.79720020        -1.48471991E-05
   8.80920029        -1.34821357E-05
   8.82120037        -1.23432410E-05
   8.83320045        -1.14723052E-05
   8.84519958        -1.09031689E-05
   8.85719967        -1.06601137E-05
   8.86919975        -1.07567330E-05
   8.88119984        -1.11953441E-05
   8.89319992        -1.19670049E-05
   8.90520000        -1.30520993E-05
   8.91720009        -1.44214619E-05
   8.92920017        -1.60379677E-05
   8.94120026        -1.78584705E-05
   8.95320034        -1.98359503E-05
   8.96520042        -2.19217618E-05
   8.97719955        -2.40678310E-05
   8.98919964        -2.62286521E-05
   9.00119972        -2.83630343E-05
   9.01319981        -3.04354435E-05
   9.02519989        -3.24169559E-05
   9.03719997        -3.42857311E-05
   9.04920006        -3.60270533E-05
   9.06120014        -3.76329663E-05
   9.07320023        -3.91015274E-05
   9.08520031        -4.04358652E-05