 -0.622799993         1.00000002E-24
 -0.610800028         1.00000002E-24
 -0.598800004         1.00000002E-24
 -0.586799979         1.00000002E-24
 -0.574800014         1.00000002E-24
 -0.562799990         1.00000002E-24
 -0.550800025         1.00000002E-24
 -0.538800001         1.00000012E-24
 -0.526799977         1.00000022E-24
 -0.514800012         1.00000032E-24
 -0.502799988         1.00000032E-24
 -0.490799993         1.00000032E-24
 -0.478799999         1.00000071E-24
 -0.466800004         1.00000298E-24
 -0.454800010         1.00001264E-24
 -0.442799985         1.00004518E-24
 -0.430799991         1.00013393E-24
 -0.418799996         1.00033124E-24
 -0.406800002         1.00068317E-24
 -0.394800007         1.00116152E-24
 -0.382800013         1.00161975E-24
 -0.370799989         1.00206141E-24
 -0.358799994         1.00391238E-24
 -0.346799999         1.01323898E-24
 -0.334800005         1.04599653E-24
 -0.322800010         1.13154997E-24
 -0.310799986         1.30179158E-24
 -0.298799992         1.53927411E-24
 -0.286799997         1.64582003E-24
 -0.274800003         1.00222954E-24
 -0.262800008        -1.74739435E-24
 -0.250800014        -8.90189379E-24
 -0.238800004        -2.33712838E-23
 -0.226799995        -4.71221770E-23
 -0.214800000        -7.76652620E-23
 -0.202800006        -1.02367122E-22
 -0.190799996        -9.18455732E-23
 -0.178800002         3.72142332E-24
 -0.166800007         2.48441884E-22
 -0.154799998         6.95826209E-22
 -0.142800003         1.33833602E-21
 -0.130799994         2.03383518E-21
 -0.118799999         2.42981013E-21
 -0.106799997         1.93129548E-21
  -9.48000029E-02    -2.19107063E-22
  -8.28000009E-02    -4.67781299E-21
  -7.07999989E-02    -1.15196500E-20
  -5.88000007E-02    -1.95998378E-20
  -4.67999987E-02    -2.59641170E-20
  -3.48000005E-02    -2.56731497E-20
  -2.28000004E-02    -1.25051388E-20
  -1.08000003E-02     1.90691174E-20
   1.20000006E-03     7.05781518E-20
   1.31999999E-02     1.35473896E-19
   2.52000000E-02     1.95667390E-19
   3.72000001E-02     2.20786448E-19
   4.91999984E-02     1.72494377E-19
   6.12000003E-02     1.54900556E-20
   7.32000023E-02    -2.65137003E-19
   8.51999968E-02    -6.43563319E-19
   9.71999988E-02    -1.03669419E-18
  0.109200001        -1.30073955E-18
  0.121200003        -1.25019830E-18
  0.133200005        -7.04649625E-19
  0.145199999         4.39462396E-19
  0.157199994         2.12619559E-18
  0.169200003         4.07220064E-18
  0.181199998         5.74621651E-18
  0.193200007         6.42675619E-18
  0.205200002         5.35473095E-18
  0.217199996         1.97172292E-18
  0.229200006        -3.79889396E-18
  0.241200000        -1.13028879E-17
  0.253199995        -1.90325656E-17
  0.265199989        -2.47211893E-17
  0.277200013        -2.57114932E-17
  0.289200008        -1.95932038E-17
  0.301200002        -5.02319779E-18
  0.313199997         1.74412207E-17
  0.325199991         4.47288453E-17
  0.337199986         7.11157348E-17
  0.349200010         8.87788732E-17
  0.361200005         8.91549955E-17
  0.373199999         6.50458570E-17
  0.385199994         1.31890483E-17
  0.397199988        -6.32260200E-17
  0.409200013        -1.52821909E-16
  0.421200007        -2.35898993E-16
  0.433200002        -2.86633064E-16
  0.445199996        -2.77980040E-16
  0.457199991        -1.89017652E-16
  0.469199985        -1.35769232E-17
  0.481200010         2.31921036E-16
  0.493200004         5.04207638E-16
  0.505200028         7.35371611E-16
  0.517199993         8.43570753E-16
  0.529200017         7.52375692E-16
  0.541199982         4.16051705E-16
  0.553200006        -1.55011767E-16
  0.565199971        -8.76903352E-16
  0.577199996        -1.59151996E-15
  0.589200020        -2.08902635E-15
  0.601199985        -2.15445985E-15
  0.613200009        -1.63176641E-15
  0.625199974        -4.90394648E-16
  0.637199998         1.12628976E-15
  0.649200022         2.89220607E-15
  0.661199987         4.34438752E-15
  0.673200011         4.98488292E-15
  0.685199976         4.42201597E-15
  0.697200000         2.51647432E-15
  0.709200025        -5.13403557E-16
  0.721199989        -4.07151882E-15
  0.733200014        -7.27678297E-15
  0.745199978        -9.16620261E-15
  0.757200003        -8.96870502E-15
  0.769200027        -6.37754992E-15
  0.781199992        -1.73319797E-15
  0.793200016         3.96134185E-15
  0.805199981         9.23206027E-15
  0.817200005         1.25114407E-14
  0.829200029         1.26150192E-14
  0.841199994         9.17981613E-15
  0.853200018         2.91331434E-15
  0.865199983        -4.46430324E-15
  0.877200007        -1.06216974E-14
  0.889199972        -1.32907838E-14
  0.901199996        -1.10388595E-14
  0.913200021        -3.89886767E-15
  0.925199986         6.37730301E-15
  0.937200010         1.65934551E-14
  0.949199975         2.29132729E-14
  0.961199999         2.20202613E-14
  0.973200023         1.23125353E-14
  0.985199988        -5.25304296E-15
  0.997200012        -2.70003492E-14
   1.00919998        -4.72190172E-14
   1.02119994        -5.96058237E-14
   1.03320003        -5.91130809E-14
   1.04519999        -4.36699593E-14
   1.05719995        -1.52056288E-14
   1.06920004         2.04522627E-14
   1.08120000         5.49250010E-14
   1.09319997         7.96082425E-14
   1.10520005         8.83494531E-14
   1.11720002         7.96455255E-14
   1.12919998         5.75636747E-14
   1.14119995         3.08884828E-14
   1.15320003         1.05038489E-14
   1.16520000         5.59964249E-15
   1.17719996         1.97746296E-14
   1.18920004         4.83240801E-14
   1.20120001         7.78443269E-14
   1.21319997         8.87513329E-14
   1.22520006         6.05038277E-14
   1.23720002        -2.15517183E-14
   1.24919999        -1.59484933E-13
   1.26119995        -3.38276146E-13
   1.27320004        -5.25259740E-13
   1.28520000        -6.74439996E-13
   1.29719996        -7.35380669E-13
   1.30920005        -6.65054708E-13
   1.32120001        -4.39992064E-13
   1.33319998        -6.56074316E-14
   1.34519994         4.20074050E-13
   1.35720003         9.49937720E-13
   1.36919999         1.43848041E-12
   1.38119996         1.79773969E-12
   1.39320004         1.95493968E-12
   1.40520000         1.86758660E-12
   1.41719997         1.53208707E-12
   1.42920005         9.83420918E-13
   1.44120002         2.85709499E-13
   1.45319998        -4.83916997E-13
   1.46519995        -1.25361483E-12
   1.47720003        -1.97173614E-12
   1.48920000        -2.61334639E-12
   1.50119996        -3.17549611E-12
   1.51320004        -3.66170592E-12
   1.52520001        -4.05981542E-12
   1.53719997        -4.32029152E-12
   1.54920006        -4.34339153E-12
   1.56120002        -3.98247234E-12
   1.57319999        -3.06727365E-12
   1.58519995        -1.44575888E-12
   1.59720004         9.62646195E-13
   1.60920000         4.11432390E-12
   1.62119997         7.80334478E-12
   1.63320005         1.16508426E-11
   1.64520001         1.51299875E-11
   1.65719998         1.76272365E-11
   1.66919994         1.85321359E-11
   1.68120003         1.73407746E-11
   1.69319999         1.37537646E-11
   1.70519996         7.74993437E-12
   1.71720004        -3.78557510E-13
   1.72920001        -1.00359773E-11
   1.74119997        -2.03748650E-11
   1.75320005        -3.03792477E-11
   1.76520002        -3.89639536E-11
   1.77719998        -4.50745934E-11
   1.78919995        -4.77768831E-11
   1.80120003        -4.63305956E-11
   1.81320000        -4.02499041E-11
   1.82519996        -2.93564548E-11
   1.83720005        -1.38309546E-11
   1.84920001         5.73534839E-12
   1.86119998         2.82960790E-11
   1.87320006         5.23273855E-11
   1.88520002         7.58489174E-11
   1.89719999         9.65092381E-11
   1.90919995         1.11749665E-10
   1.92120004         1.19046398E-10
   1.93320000         1.16213338E-10
   1.94519997         1.01729715E-10
   1.95720005         7.50445400E-11
   1.96920002         3.68053747E-11
   1.98119998        -1.10344867E-11
   1.99319994        -6.52598323E-11
   2.00519991        -1.21594845E-10
   2.01719999        -1.75043507E-10
   2.02920008        -2.20329449E-10
   2.04119992        -2.52382448E-10
   2.05320001        -2.66815403E-10
   2.06520009        -2.60343358E-10
   2.07719994        -2.31109701E-10
   2.08920002        -1.78902559E-10
   2.10120010        -1.05259822E-10
   2.11319995        -1.34707870E-11
   2.12520003         9.15141157E-11
   2.13720012         2.03259007E-10
   2.14919996         3.14104298E-10
   2.16120005         4.15522644E-10
   2.17319989         4.98580732E-10
   2.18519998         5.54511159E-10
   2.19720006         5.75386294E-10
   2.20919991         5.54862045E-10
   2.22119999         4.88936225E-10
   2.23320007         3.76643133E-10
   2.24519992         2.20592544E-10
   2.25720000         2.72649906E-11
   2.26920009        -1.93009470E-10
   2.28119993        -4.26426117E-10
   2.29320002        -6.56428134E-10
   2.30520010        -8.64724847E-10
   2.31719995        -1.03251330E-09
   2.32920003        -1.14178733E-09
   2.34120011        -1.17661569E-09
   2.35319996        -1.12429088E-09
   2.36520004        -9.76285941E-10
   2.37719989        -7.29005190E-10
   2.38919997        -3.84355631E-10
   2.40120006         4.98056804E-11
   2.41319990         5.59290503E-10
   2.42519999         1.12323340E-09
   2.43720007         1.71379888E-09
   2.44919991         2.29602470E-09
   2.46120000         2.82794899E-09
   2.47320008         3.26120908E-09
   2.48519993         3.54231888E-09
   2.49720001         3.61478825E-09
   2.50920010         3.42218121E-09
   2.52119994         2.91208546E-09
   2.53320003         2.04082862E-09
   2.54520011         7.78626053E-10
   2.55719995        -8.85303386E-10
   2.56920004        -2.93823033E-09
   2.58119988        -5.34069278E-09
   2.59319997        -8.02529332E-09
   2.60520005        -1.08982841E-08
   2.61719990        -1.38446969E-08
   2.62919998        -1.67377756E-08
   2.64120007        -1.94533794E-08
   2.65319991        -2.18899441E-08
   2.66520000        -2.39944349E-08
   2.67720008        -2.57944492E-08
   2.68919992        -2.74364140E-08
   2.70120001        -2.92293141E-08
   2.71320009        -3.16930198E-08
   2.72519994        -3.56097409E-08
   2.73720002        -4.20766000E-08
   2.74920011        -5.25569064E-08
   2.76119995        -6.89272355E-08
   2.77320004        -9.35172721E-08
   2.78520012        -1.29139138E-07
   2.79719996        -1.79103111E-07
   2.80920005        -2.47216803E-07
   2.82119989        -3.37765385E-07
   2.83319998        -4.55470769E-07
   2.84520006        -6.05428454E-07
   2.85719991        -7.93021684E-07
   2.86919999        -1.02381262E-06
   2.88120008        -1.30341232E-06
   2.89319992        -1.63733023E-06
   2.90520000        -2.03080822E-06
   2.91720009        -2.48864012E-06
   2.92919993        -3.01498403E-06
   2.94120002        -3.61317075E-06
   2.95320010        -4.28551675E-06
   2.96519995        -5.03314641E-06
   2.97720003        -5.85583075E-06
   2.98920012        -6.75185220E-06
   3.00119996        -7.71789746E-06
   3.01320004        -8.74898706E-06
   3.02519989        -9.83845439E-06
   3.03719997        -1.09779539E-05
   3.04920006        -1.21575385E-05
   3.06119990        -1.33657713E-05
   3.07319999        -1.45898957E-05
   3.08520007        -1.58160510E-05
   3.09719992        -1.70295316E-05
   3.10920000        -1.82150870E-05
   3.12120008        -1.93572523E-05
   3.13319993        -2.04407097E-05
   3.14520001        -2.14506508E-05
   3.15720010        -2.23731568E-05
   3.16919994        -2.31955582E-05
   3.18120003        -2.39067813E-05
   3.19320011        -2.44976600E-05
   3.20519996        -2.49611949E-05
   3.21720004        -2.52927712E-05
   3.22919989        -2.54903043E-05
   3.24119997        -2.55543091E-05
   3.25320005        -2.54879142E-05
   3.26519990        -2.52967620E-05
   3.27719998        -2.49888817E-05
   3.28920007        -2.45744541E-05
   3.30119991        -2.40655318E-05
   3.31320000        -2.34756935E-05
   3.32520008        -2.28196768E-05
   3.33719993        -2.21129540E-05
   3.34920001        -2.13713229E-05
   3.36120009        -2.06104742E-05
   3.37319994        -1.98455909E-05
   3.38520002        -1.90909723E-05
   3.39720011        -1.83596876E-05
   3.40919995        -1.76632966E-05
   3.42120004        -1.70116200E-05
   3.43319988        -1.64125759E-05
   3.44519997        -1.58720832E-05
   3.45720005        -1.53940327E-05
   3.46919990        -1.49803218E-05
   3.48119998        -1.46309549E-05
   3.49320006        -1.43441848E-05
   3.50519991        -1.41167102E-05
   3.51719999        -1.39439062E-05
   3.52920008        -1.38200858E-05
   3.54119992        -1.37387651E-05
   3.55320001        -1.36929557E-05
   3.56520009        -1.36754416E-05
   3.57719994        -1.36790522E-05
   3.58920002        -1.36969165E-05
   3.60120010        -1.37226971E-05
   3.61319995        -1.37507877E-05
   3.62520003        -1.37764837E-05
   3.63720012        -1.37961060E-05
   3.64919996        -1.38070864E-05
   3.66120005        -1.38080068E-05
   3.67319989        -1.37985962E-05
   3.68519998        -1.37796724E-05
   3.69720006        -1.37530442E-05
   3.70919991        -1.37213783E-05
   3.72119999        -1.36880199E-05
   3.73320007        -1.36567869E-05
   3.74519992        -1.36317421E-05
   3.75720000        -1.36169519E-05
   3.76920009        -1.36162371E-05
   3.78119993        -1.36329445E-05
   3.79320002        -1.36697272E-05
   3.80520010        -1.37283696E-05
   3.81719995        -1.38096384E-05
   3.82920003        -1.39132044E-05
   3.84120011        -1.40376123E-05
   3.85319996        -1.41803212E-05
   3.86520004        -1.43377947E-05
   3.87719989        -1.45056665E-05
   3.88919997        -1.46789471E-05
   3.90120006        -1.48522804E-05
   3.91319990        -1.50202241E-05
   3.92519999        -1.51775466E-05
   3.93720007        -1.53195215E-05
   3.94919991        -1.54421941E-05
   3.96120000        -1.55426260E-05
   3.97320008        -1.56190763E-05
   3.98519993        -1.56711249E-05
   3.99720001        -1.56997285E-05
   4.00920010        -1.57072118E-05
   4.02120018        -1.56971691E-05
   4.03319979        -1.56743299E-05
   4.04519987        -1.56443475E-05
   4.05719995        -1.56135666E-05
   4.06920004        -1.55887465E-05
   4.08120012        -1.55768066E-05
   4.09320021        -1.55845464E-05
   4.10519981        -1.56184160E-05
   4.11719990        -1.56843143E-05
   4.12919998        -1.57874329E-05
   4.14120007        -1.59321535E-05
   4.15320015        -1.61220050E-05
   4.16520023        -1.63596669E-05
   4.17719984        -1.66470163E-05
   4.18919992        -1.69852210E-05
   4.20120001        -1.73748504E-05
   4.21320009        -1.78159917E-05
   4.22520018        -1.83083757E-05
   4.23719978        -1.88514678E-05
   4.24919987        -1.94445547E-05
   4.26119995        -2.00867617E-05
   4.27320004        -2.07770536E-05
   4.28520012        -2.15141772E-05
   4.29720020        -2.22965609E-05
   4.30919981        -2.31221857E-05
   4.32119989        -2.39884266E-05
   4.33319998        -2.48918859E-05
   4.34520006        -2.58282253E-05
   4.35720015        -2.67920386E-05
   4.36920023        -2.77767394E-05
   4.38119984        -2.87745097E-05
   4.39319992        -2.97763163E-05
   4.40520000        -3.07720002E-05
   4.41720009        -3.17504200E-05
   4.42920017        -3.26996924E-05
   4.44119978        -3.36074918E-05
   4.45319986        -3.44613873E-05
   4.46519995        -3.52492498E-05
   4.47720003        -3.59596597E-05
   4.48920012        -3.65823071E-05
   4.50120020        -3.71084134E-05
   4.51319981        -3.75310847E-05
   4.52519989        -3.78456098E-05
   4.53719997        -3.80497186E-05
   4.54920006        -3.81437130E-05
   4.56120014        -3.81305435E-05
   4.57320023        -3.80157617E-05
   4.58519983        -3.78074365E-05
   4.59719992        -3.75159143E-05
   4.60920000        -3.71535389E-05
   4.62120008        -3.67343127E-05
   4.63320017        -3.62734681E-05
   4.64519978        -3.57870194E-05
   4.65719986        -3.52913012E-05
   4.66919994        -3.48024405E-05
   4.68120003        -3.43358915E-05
   4.69320011        -3.39059370E-05
   4.70520020        -3.35252298E-05
   4.71719980        -3.32043783E-05
   4.72919989        -3.29515788E-05
   4.74119997        -3.27723283E-05
   4.75320005        -3.26691770E-05
   4.76520014        -3.26416193E-05
   4.77720022        -3.26860209E-05
   4.78919983        -3.27957314E-05
   4.80119991        -3.29612158E-05
   4.81320000        -3.31703741E-05
   4.82520008        -3.34089309E-05
   4.83720016        -3.36609373E-05
   4.84919977        -3.39093676E-05
   4.86119986        -3.41367995E-05
   4.87319994        -3.43261236E-05
   4.88520002        -3.44612999E-05
   4.89720011        -3.45281042E-05
   4.90920019        -3.45148219E-05
   4.92119980        -3.44128821E-05
   4.93319988        -3.42173589E-05
   4.94519997        -3.39273611E-05
   4.95720005        -3.35462282E-05
   4.96920013        -3.30815674E-05
   4.98120022        -3.25450746E-05
   4.99319983        -3.19521605E-05
   5.00519991        -3.13214332E-05
   5.01719999        -3.06739457E-05
   5.02920008        -3.00323918E-05
   5.04120016        -2.94201254E-05
   5.05319977        -2.88601841E-05
   5.06519985        -2.83742702E-05
   5.07719994        -2.79817759E-05
   5.08920002        -2.76989158E-05
   5.10120010        -2.75379662E-05
   5.11320019        -2.75066941E-05
   5.12519979        -2.76079700E-05
   5.13719988        -2.78396165E-05
   5.14919996        -2.81944685E-05
   5.16120005        -2.86606628E-05
   5.17320013        -2.92221412E-05
   5.18520021        -2.98593295E-05
   5.19719982        -3.05499634E-05
   5.20919991        -3.12700322E-05
   5.22119999        -3.19947758E-05
   5.23320007        -3.26997215E-05
   5.24520016        -3.33616554E-05
   5.25719976        -3.39595426E-05
   5.26919985        -3.44753498E-05
   5.28119993        -3.48946887E-05
   5.29320002        -3.52073112E-05
   5.30520010        -3.54074145E-05
   5.31720018        -3.54937438E-05
   5.32919979        -3.54695148E-05
   5.34119987        -3.53421310E-05
   5.35319996        -3.51227754E-05
   5.36520004        -3.48258327E-05
   5.37720013        -3.44682085E-05
   5.38920021        -3.40686092E-05
   5.40119982        -3.36467310E-05
   5.41319990        -3.32224845E-05
   5.42519999        -3.28152491E-05
   5.43720007        -3.24431712E-05
   5.44920015        -3.21225452E-05
   5.46120024        -3.18673337E-05
   5.47319984        -3.16887526E-05
   5.48519993        -3.15950310E-05
   5.49720001        -3.15912584E-05
   5.50920010        -3.16793630E-05
   5.52120018        -3.18581915E-05
   5.53319979        -3.21237130E-05
   5.54519987        -3.24692301E-05
   5.55719995        -3.28857168E-05
   5.56920004        -3.33621610E-05
   5.58120012        -3.38858990E-05
   5.59320021        -3.44430191E-05
   5.60519981        -3.50186965E-05
   5.61719990        -3.55975571E-05
   5.62919998        -3.61639832E-05
   5.64120007        -3.67024149E-05
   5.65320015        -3.71976312E-05
   5.66520023        -3.76350072E-05
   5.67719984        -3.80007587E-05
   5.68919992        -3.82821490E-05
   5.70120001        -3.84677041E-05
   5.71320009        -3.85474123E-05
   5.72520018        -3.85128769E-05
   5.73719978        -3.83574770E-05
   5.74919987        -3.80764795E-05
   5.76119995        -3.76671305E-05
   5.77320004        -3.71286660E-05
   5.78520012        -3.64623520E-05
   5.79720020        -3.56713899E-05
   5.80919981        -3.47608220E-05
   5.82119989        -3.37373531E-05
   5.83319998        -3.26091540E-05
   5.84520006        -3.13855853E-05
   5.85720015        -3.00769188E-05
   5.86920023        -2.86940049E-05
   5.88119984        -2.72479538E-05
   5.89319992        -2.57498141E-05
   5.90520000        -2.42102615E-05
   5.91720009        -2.26393367E-05
   5.92920017        -2.10462149E-05
   5.94119978        -1.94390304E-05
   5.95319986        -1.78247683E-05
   5.96519995        -1.62092147E-05
   5.97720003        -1.45969752E-05
   5.98920012        -1.29915697E-05
   6.00120020        -1.13955775E-05
   6.01319981        -9.81086123E-06
   6.02519989        -8.23883056E-06
   6.03719997        -6.68075427E-06
   6.04920006        -5.13809118E-06
   6.06120014        -3.61283401E-06
   6.07320023        -2.10784583E-06
   6.08519983        -6.27153554E-07
   6.09719992         8.23804839E-07
   6.10920000         2.23801089E-06
   6.12120008         3.60679087E-06
   6.13320017         4.91984974E-06
   6.14519978         6.16542548E-06
   6.15719986         7.33057368E-06
   6.16919994         8.40156463E-06
   6.18120003         9.36440574E-06
   6.19320011         1.02054501E-05
   6.20520020         1.09120774E-05
   6.21719980         1.14734130E-05
   6.22919989         1.18810476E-05
   6.24119997         1.21297126E-05
   6.25320005         1.22178735E-05
   6.26520014         1.21481962E-05
   6.27720022         1.19278620E-05
   6.28919983         1.15686735E-05
   6.30119991         1.10869605E-05
   6.31320000         1.05032577E-05
   6.32520008         9.84175222E-06
   6.33720016         9.12951509E-06
   6.34919977         8.39555469E-06
   6.36119986         7.66971334E-06
   6.37319994         6.98146778E-06
   6.38520002         6.35866718E-06
   6.39720011         5.82630582E-06
   6.40920019         5.40536257E-06
   6.42119980         5.11178496E-06
   6.43319988         4.95567519E-06
   6.44519997         4.94072083E-06
   6.45720005         5.06391689E-06
   6.46920013         5.31559044E-06
   6.48120022         5.67975076E-06
   6.49319983         6.13473367E-06
   6.50519991         6.65413154E-06
   6.51719999         7.20795015E-06
   6.52920008         7.76394518E-06
   6.54120016         8.28906286E-06
   6.55319977         8.75091973E-06
   6.56519985         9.11924417E-06
   6.57719994         9.36721244E-06
   6.58920002         9.47260651E-06
   6.60120010         9.41876442E-06
   6.61320019         9.19524973E-06
   6.62519979         8.79825620E-06
   6.63719988         8.23070604E-06
   6.64919996         7.50205709E-06
   6.66120005         6.62785442E-06
   6.67320013         5.62903415E-06
   6.68520021         4.53104030E-06
   6.69719982         3.36279254E-06
   6.70919991         2.15555542E-06
   6.72119999         9.41768519E-07
   6.73320007        -2.46126490E-07
   6.74520016        -1.37680991E-06
   6.75719976        -2.42112583E-06
   6.76919985        -3.35301138E-06
   6.78119993        -4.15028489E-06
   6.79320002        -4.79528262E-06
   6.80520010        -5.27532484E-06
   6.81720018        -5.58301190E-06
   6.82919979        -5.71633973E-06
   6.84119987        -5.67865209E-06
   6.85319996        -5.47842274E-06
   6.86520004        -5.12888846E-06
   6.87720013        -4.64754521E-06
   6.88920021        -4.05552146E-06
   6.90119982        -3.37685537E-06
   6.91319990        -2.63769834E-06
   6.92519999        -1.86546504E-06
   6.93720007        -1.08796223E-06
   6.94920015        -3.32521722E-07
   6.96120024         3.74837242E-07
   6.97319984         1.01018861E-06
   6.98519993         1.55240241E-06
   6.99720001         1.98374778E-06
   7.00920010         2.29038551E-06
   7.02120018         2.46273066E-06
   7.03319979         2.49568620E-06
   7.04519987         2.38873258E-06
   7.05719995         2.14588454E-06
   7.06920004         1.77550817E-06
   7.08120012         1.29001126E-06
   7.09320021         7.05412617E-07
   7.10519981         4.08058973E-08
   7.11719990        -6.82267398E-07
   7.12919998        -1.44051648E-06
   7.14120007        -2.20965126E-06
   7.15320015        -2.96515896E-06
   7.16520023        -3.68308383E-06
   7.17719984        -4.34078174E-06
   7.18919992        -4.91762739E-06
   7.20120001        -5.39563734E-06
   7.21320009        -5.76000048E-06
   7.22520018        -5.99947543E-06
   7.23719978        -6.10665847E-06
   7.24919987        -6.07809716E-06
   7.26119995        -5.91425987E-06
   7.27320004        -5.61935803E-06
   7.28520012        -5.20104459E-06
   7.29720020        -4.66999791E-06
   7.30919981        -4.03942704E-06
   7.32119989        -3.32451577E-06
   7.33319998        -2.54184647E-06
   7.34520006        -1.70881901E-06
   7.35720015        -8.43105681E-07
   7.36920023         3.78432539E-08
   7.38119984         9.17222565E-07
   7.39319992         1.77921038E-06
   7.40520000         2.60922025E-06
   7.41720009         3.39406893E-06
   7.42920017         4.12207055E-06
   7.44119978         4.78307857E-06
   7.45319986         5.36848484E-06
   7.46519995         5.87120985E-06
   7.47720003         6.28569433E-06
   7.48920012         6.60790602E-06
   7.50120020         6.83537246E-06
   7.51319981         6.96724692E-06
   7.52519989         7.00438886E-06
   7.53719997         6.94946038E-06
   7.54920006         6.80701487E-06
   7.56120014         6.58356339E-06
   7.57320023         6.28758835E-06
   7.58519983         5.92948936E-06
   7.59719992         5.52143865E-06
   7.60920000         5.07712957E-06
   7.62120008         4.61141735E-06
   7.63320017         4.13984208E-06
   7.64519978         3.67805637E-06
   7.65719986         3.24117286E-06
   7.66919994         2.84306293E-06
   7.68120003         2.49565005E-06
   7.69320011         2.20823108E-06
   7.70520020         1.98688031E-06
   7.71719980         1.83397231E-06
   7.72919989         1.74786578E-06
   7.74119997         1.72277817E-06
   7.75320005         1.74886895E-06
   7.76520014         1.81253961E-06
   7.77720022         1.89694174E-06
   7.78919983         1.98267139E-06
   7.80119991         2.04861044E-06
   7.81320000         2.07287349E-06
   7.82520008         2.03380296E-06
   7.83720016         1.91096024E-06
   7.84919977         1.68606243E-06
   7.86119986         1.34381276E-06
   7.87319994         8.72596502E-07
   7.88520002         2.65012602E-07
   7.89720011        -4.81771565E-07
   7.90920019        -1.36584379E-06
   7.92119980        -2.38054326E-06
   7.93319988        -3.51461358E-06
   7.94519997        -4.75249135E-06
   7.95720005        -6.07470656E-06
   7.96920013        -7.45837087E-06
   7.98120022        -8.87772694E-06
   7.99319983        -1.03047360E-05
   8.00520039        -1.17096906E-05
   8.01720047        -1.30618510E-05
   8.02919960        -1.43300749E-05
   8.04119968        -1.54834815E-05
   8.05319977        -1.64921094E-05
   8.06519985        -1.73276076E-05
   8.07719994        -1.79639464E-05
   8.08920002        -1.83781449E-05
   8.10120010        -1.85510016E-05
   8.11320019        -1.84678374E-05
   8.12520027        -1.81191954E-05
   8.13720036        -1.75014939E-05
   8.14920044        -1.66175942E-05
   8.16119957        -1.54772370E-05
   8.17319965        -1.40973352E-05
   8.18519974        -1.25020597E-05
   8.19719982        -1.07227015E-05
   8.20919991        -8.79728577E-06
   8.22119999        -6.76991249E-06
   8.23320007        -4.68983399E-06
   8.24520016        -2.61026366E-06
   8.25720024        -5.86951671E-07
   8.26920033         1.32344223E-06
   8.28120041         3.06512129E-06
   8.29319954         4.58501472E-06
   8.30519962         5.83465498E-06
   8.31719971         6.77199614E-06
   8.32919979         7.36309312E-06
   8.34119987         7.58356418E-06
   8.35319996         7.41976464E-06
   8.36520004         6.86959493E-06
   8.37720013         5.94290714E-06
   8.38920021         4.66145002E-06
   8.40120029         3.05835442E-06
   8.41320038         1.17714910E-06
   8.42520046        -9.29663770E-07
   8.43719959        -3.20241838E-06
   8.44919968        -5.57641533E-06
   8.46119976        -7.98428300E-06
   8.47319984        -1.03584625E-05
   8.48519993        -1.26337054E-05
   8.49720001        -1.47494811E-05
   8.50920010        -1.66521568E-05
   8.52120018        -1.82968761E-05
   8.53320026        -1.96490346E-05
   8.54520035        -2.06852819E-05
   8.55720043        -2.13940257E-05
   8.56919956        -2.17753950E-05
   8.58119965        -2.18407222E-05
   8.59319973        -2.16115150E-05
   8.60519981        -2.11180486E-05
   8.61719990        -2.03976051E-05
   8.62919998        -1.94925178E-05
   8.64120007        -1.84480505E-05
   8.65320015        -1.73103090E-05
   8.66520023        -1.61242260E-05
   8.67720032        -1.49317630E-05
   8.68920040        -1.37703964E-05
   8.70119953        -1.26719551E-05
   8.71319962        -1.16618721E-05
   8.72519970        -1.07588376E-05
   8.73719978        -9.97487496E-06
   8.74919987        -9.31578143E-06
   8.76119995        -8.78189348E-06
   8.77320004        -8.36909203E-06
   8.78520012        -8.06996559E-06
   8.79720020        -7.87504086E-06
   8.80920029        -7.77398691E-06
   8.82120037        -7.75671288E-06
   8.83320045        -7.81427752E-06
   8.84519958        -7.93956406E-06
   8.85719967        -8.12767667E-06
   8.86919975        -8.37604239E-06
   8.88119984        -8.68424286E-06
   8.89319992        -9.05357319E-06
   8.90520000        -9.48641446E-06
   8.91720009        -9.98546147E-06
   8.92920017        -1.05528861E-05
   8.94120026        -1.11895288E-05
   8.95320034        -1.18941653E-05
   8.96520042        -1.26629575E-05
   8.97719955        -1.34890925E-05
   8.98919964        -1.43626876E-05
   9.00119972        -1.52709417E-05
   9.01319981        -1.61985354E-05
   9.02519989        -1.71282554E-05
   9.03719997        -1.80417865E-05
   9.04920006        -1.89206203E-05
   9.06120014        -1.97469981E-05
   9.07320023        -2.05048600E-05
   9.08520031        -2.11806655E-05