 -0.622799993         1.00000002E-24
 -0.610800028         1.00000002E-24
 -0.598800004         1.00000002E-24
 -0.586799979         1.00000002E-24
 -0.574800014         1.00000002E-24
 -0.562799990         1.00000012E-24
 -0.550800025         1.00000022E-24
 -0.538800001         1.00000022E-24
 -0.526799977         1.00000022E-24
 -0.514800012         1.00000022E-24
 -0.502799988         1.00000012E-24
 -0.490799993         9.99999921E-25
 -0.478799999         9.99999527E-25
 -0.466800004         9.99998047E-25
 -0.454800010         9.99990849E-25
 -0.442799985         9.99960872E-25
 -0.430799991         9.99855855E-25
 -0.418799996         9.99537451E-25
 -0.406800002         9.98698498E-25
 -0.394800007         9.96784228E-25
 -0.382800013         9.93091965E-25
 -0.370799989         9.87489376E-25
 -0.358799994         9.82566292E-25
 -0.346799999         9.88202013E-25
 -0.334800005         1.02870756E-24
 -0.322800010         1.14953206E-24
 -0.310799986         1.41367602E-24
 -0.298799992         1.86785696E-24
 -0.286799997         2.45035481E-24
 -0.274800003         2.81966695E-24
 -0.262800008         2.12716698E-24
 -0.250800014        -1.14068005E-24
 -0.238800004        -8.96481018E-24
 -0.226799995        -2.27939118E-23
 -0.214800000        -4.12799647E-23
 -0.202800006        -5.66511182E-23
 -0.190799996        -5.06156949E-23
 -0.178800002         7.62219416E-24
 -0.166800007         1.56670439E-22
 -0.154799998         4.25857661E-22
 -0.142800003         8.01576434E-22
 -0.130799994         1.17930207E-21
 -0.118799999         1.31594732E-21
 -0.106799997         8.13996058E-22
  -9.48000029E-02    -8.16297967E-22
  -8.28000009E-02    -3.96887801E-21
  -7.07999989E-02    -8.60648550E-21
  -5.88000007E-02    -1.38213382E-20
  -4.67999987E-02    -1.74372274E-20
  -3.48000005E-02    -1.59123151E-20
  -2.28000004E-02    -4.87463311E-21
  -1.08000003E-02     1.94205610E-20
   1.20000006E-03     5.76536421E-20
   1.31999999E-02     1.04414117E-19
   2.52000000E-02     1.45580686E-19
   3.72000001E-02     1.57682196E-19
   4.91999984E-02     1.11063757E-19
   6.12000003E-02    -2.17431387E-20
   7.32000023E-02    -2.52410907E-19
   8.51999968E-02    -5.60225130E-19
   9.71999988E-02    -8.77568216E-19
  0.109200001        -1.08492751E-18
  0.121200003        -1.02360675E-18
  0.133200005        -5.32131854E-19
  0.145199999         4.93515702E-19
  0.157199994         2.02487962E-18
  0.169200003         3.83094390E-18
  0.181199998         5.44161345E-18
  0.193200007         6.17636449E-18
  0.205200002         5.26282332E-18
  0.217199996         2.05113826E-18
  0.229200006        -3.69984157E-18
  0.241200000        -1.15244151E-17
  0.253199995        -2.00324086E-17
  0.265199989        -2.68823293E-17
  0.277200013        -2.90464671E-17
  0.289200008        -2.34240410E-17
  0.301200002        -7.77607761E-18
  0.313199997         1.81567931E-17
  0.325199991         5.16140155E-17
  0.337199986         8.62112979E-17
  0.349200010         1.12167359E-16
  0.361200005         1.17684706E-16
  0.373199999         9.16017230E-17
  0.385199994         2.70892634E-17
  0.397199988        -7.42757567E-17
  0.409200013        -1.99167701E-16
  0.421200007        -3.21301170E-16
  0.433200002        -4.03721843E-16
  0.445199996        -4.05465143E-16
  0.457199991        -2.92408902E-16
  0.469199985        -5.06774882E-17
  0.481200010         3.00633619E-16
  0.493200004         7.01840965E-16
  0.505200028         1.05479615E-15
  0.517199993         1.23807407E-15
  0.529200017         1.13553925E-15
  0.541199982         6.74232879E-16
  0.553200006        -1.37204501E-16
  0.565199971        -1.18191928E-15
  0.577199996        -2.23303889E-15
  0.589200020        -2.98609798E-15
  0.601199985        -3.12700297E-15
  0.613200009        -2.42542336E-15
  0.625199974        -8.31626212E-16
  0.637199998         1.45349848E-15
  0.649200022         3.96611912E-15
  0.661199987         6.04602207E-15
  0.673200011         6.98337203E-15
  0.685199976         6.22084036E-15
  0.697200000         3.56106373E-15
  0.709200025        -6.85817219E-16
  0.721199989        -5.67699565E-15
  0.733200014        -1.01719924E-14
  0.745199978        -1.28218867E-14
  0.757200003        -1.25544606E-14
  0.769200027        -8.95181095E-15
  0.781199992        -2.49654703E-15
  0.793200016         5.42023371E-15
  0.805199981         1.27787770E-14
  0.817200005         1.74615046E-14
  0.829200029         1.79061105E-14
  0.841199994         1.36856206E-14
  0.853200018         5.80730320E-15
  0.865199983        -3.42127958E-15
  0.877200007        -1.09908810E-14
  0.889199972        -1.41317224E-14
  0.901199996        -1.13341801E-14
  0.913200021        -3.10985521E-15
  0.925199986         7.81884679E-15
  0.937200010         1.70722506E-14
  0.949199975         1.98568291E-14
  0.961199999         1.25989375E-14
  0.973200023        -5.51703856E-15
  0.985199988        -3.16436364E-14
  0.997200012        -5.94128357E-14
   1.00919998        -8.02569071E-14
   1.02119994        -8.56663102E-14
   1.03320003        -6.97965245E-14
   1.04519999        -3.16370228E-14
   1.05719995         2.40067162E-14
   1.06920004         8.71721112E-14
   1.08120000         1.45007690E-13
   1.09319997         1.85083055E-13
   1.10520005         1.98765077E-13
   1.11720002         1.83560903E-13
   1.12919998         1.43568276E-13
   1.14119995         8.77395623E-14
   1.15320003         2.64052967E-14
   1.16520000        -3.28208326E-14
   1.17719996        -8.82631438E-14
   1.18920004        -1.45143649E-13
   1.20120001        -2.13503247E-13
   1.21319997        -3.03283657E-13
   1.22520006        -4.17830917E-13
   1.23720002        -5.47881998E-13
   1.24919999        -6.68334095E-13
   1.26119995        -7.39616213E-13
   1.27320004        -7.14343569E-13
   1.28520000        -5.48416076E-13
   1.29719996        -2.14243038E-13
   1.30920005         2.87195886E-13
   1.32120001         9.18876520E-13
   1.33319998         1.60743554E-12
   1.34519994         2.25102229E-12
   1.35720003         2.73425488E-12
   1.36919999         2.94739623E-12
   1.38119996         2.80572982E-12
   1.39320004         2.26501782E-12
   1.40520000         1.32993540E-12
   1.41719997         5.42150045E-14
   1.42920005        -1.46661795E-12
   1.44120002        -3.10722108E-12
   1.45319998        -4.72548563E-12
   1.46519995        -6.17327587E-12
   1.47720003        -7.30286057E-12
   1.48920000        -7.96919128E-12
   1.50119996        -8.03038452E-12
   1.51320004        -7.35037638E-12
   1.52520001        -5.80799471E-12
   1.53719997        -3.31552407E-12
   1.54920006         1.52901590E-13
   1.56120002         4.52621014E-12
   1.57319999         9.60134316E-12
   1.58519995         1.50175272E-11
   1.59720004         2.02498747E-11
   1.60920000         2.46306708E-11
   1.62119997         2.74027311E-11
   1.63320005         2.78034609E-11
   1.64520001         2.51718629E-11
   1.65719998         1.90649701E-11
   1.66919994         9.36653619E-12
   1.68120003        -3.62997783E-12
   1.69319999        -1.91795382E-11
   1.70519996        -3.60948077E-11
   1.71720004        -5.28094894E-11
   1.72920001        -6.74914222E-11
   1.74119997        -7.81951795E-11
   1.75320005        -8.30405744E-11
   1.76520002        -8.04027123E-11
   1.77719998        -6.91006627E-11
   1.78919995        -4.85741065E-11
   1.80120003        -1.90383733E-11
   1.81320000         1.83927006E-11
   1.82519996         6.16300483E-11
   1.83720005         1.07597833E-10
   1.84920001         1.52310303E-10
   1.86119998         1.91060515E-10
   1.87320006         2.18738028E-10
   1.88520002         2.30278324E-10
   1.89719999         2.21224608E-10
   1.90919995         1.88356719E-10
   1.92120004         1.30316646E-10
   1.93320000         4.81427537E-11
   1.94519997        -5.43805175E-11
   1.95720005        -1.70638656E-10
   1.96920002        -2.91422969E-10
   1.98119998        -4.05500661E-10
   1.99319994        -5.00489483E-10
   2.00519991        -5.63964708E-10
   2.01719999        -5.84696958E-10
   2.02920008        -5.53901203E-10
   2.04119992        -4.66380490E-10
   2.05320001        -3.21456972E-10
   2.06520009        -1.23606708E-10
   2.07719994         1.17268306E-10
   2.08920002         3.85975862E-10
   2.10120010         6.62610689E-10
   2.11319995         9.23590759E-10
   2.12520003         1.14315302E-09
   2.13720012         1.29527766E-09
   2.14919996         1.35596556E-09
   2.16120005         1.30573452E-09
   2.17319989         1.13213716E-09
   2.18519998         8.32043934E-10
   2.19720006         4.13402701E-10
   2.20919991        -1.03815949E-10
   2.22119999        -6.87731538E-10
   2.23320007        -1.29587907E-09
   2.24519992        -1.87777638E-09
   2.25720000        -2.37861730E-09
   2.26920009        -2.74383094E-09
   2.28119993        -2.92413405E-09
   2.29320002        -2.88061575E-09
   2.30520010        -2.58937094E-09
   2.31719995        -2.04522865E-09
   2.32920003        -1.26417499E-09
   2.34120011        -2.84188173E-10
   2.35319996         8.35688407E-10
   2.36520004         2.01807193E-09
   2.37719989         3.17167670E-09
   2.38919997         4.19725676E-09
   2.40120006         4.99472375E-09
   2.41319990         5.47103607E-09
   2.42519999         5.54833202E-09
   2.43720007         5.17175325E-09
   2.44919991         4.31632685E-09
   2.46120000         2.99231084E-09
   2.47320008         1.24842026E-09
   2.48519993        -8.27530211E-10
   2.49720001        -3.11090154E-09
   2.50920010        -5.44554846E-09
   2.52119994        -7.65208696E-09
   2.53320003        -9.53876711E-09
   2.54520011        -1.09143530E-08
   2.55719995        -1.16022063E-08
   2.56920004        -1.14545484E-08
   2.58119988        -1.03657927E-08
   2.59319997        -8.28374169E-09
   2.60520005        -5.21747445E-09
   2.61719990        -1.24085486E-09
   2.62919998         3.50926777E-09
   2.64120007         8.84084095E-09
   2.65319991         1.45207872E-08
   2.66520000         2.02956478E-08
   2.67720008         2.59184478E-08
   2.68919992         3.11811412E-08
   2.70120001         3.59516967E-08
   2.71320009         4.02144700E-08
   2.72519994         4.41122339E-08
   2.73720002         4.79879354E-08
   2.74920011         5.24239283E-08
   2.76119995         5.82763739E-08
   2.77320004         6.67022846E-08
   2.78520012         7.91767008E-08
   2.79719996         9.74979244E-08
   2.80920005         1.23778548E-07
   2.82119989         1.60421166E-07
   2.83319998         2.10077758E-07
   2.84520006         2.75592953E-07
   2.85719991         3.59931960E-07
   2.86919999         4.66095059E-07
   2.88120008         5.97021369E-07
   2.89319992         7.55485473E-07
   2.90520000         9.43990017E-07
   2.91720009         1.16466049E-06
   2.92919993         1.41914461E-06
   2.94120002         1.70852161E-06
   2.95320010         2.03322588E-06
   2.96519995         2.39298765E-06
   2.97720003         2.78679158E-06
   2.98920012         3.21286120E-06
   3.00119996         3.66865902E-06
   3.01320004         4.15091608E-06
   3.02519989         4.65567518E-06
   3.03719997         5.17835724E-06
   3.04920006         5.71384135E-06
   3.06119990         6.25656185E-06
   3.07319999         6.80060612E-06
   3.08520007         7.33982688E-06
   3.09719992         7.86794863E-06
   3.10920000         8.37867992E-06
   3.12120008         8.86581256E-06
   3.13319993         9.32332296E-06
   3.14520001         9.74546674E-06
   3.15720010         1.01268615E-05
   3.16919994         1.04625624E-05
   3.18120003         1.07481392E-05
   3.19320011         1.09797484E-05
   3.20519996         1.11541876E-05
   3.21720004         1.12689695E-05
   3.22919989         1.13223714E-05
   3.24119997         1.13134984E-05
   3.25320005         1.12423313E-05
   3.26519990         1.11097715E-05
   3.27719998         1.09176799E-05
   3.28920007         1.06688967E-05
   3.30119991         1.03672528E-05
   3.31320000         1.00175484E-05
   3.32520008         9.62552349E-06
   3.33719993         9.19778449E-06
   3.34920001         8.74171201E-06
   3.36120009         8.26532232E-06
   3.37319994         7.77711375E-06
   3.38520002         7.28587156E-06
   3.39720011         6.80044741E-06
   3.40919995         6.32952060E-06
   3.42120004         5.88134571E-06
   3.43319988         5.46349656E-06
   3.44519997         5.08261792E-06
   3.45720005         4.74419767E-06
   3.46919990         4.45236674E-06
   3.48119998         4.20974675E-06
   3.49320006         4.01734269E-06
   3.50519991         3.87450382E-06
   3.51719999         3.77894185E-06
   3.52920008         3.72682644E-06
   3.54119992         3.71294254E-06
   3.55320001         3.73091416E-06
   3.56520009         3.77348124E-06
   3.57719994         3.83282122E-06
   3.58920002         3.90089781E-06
   3.60120010         3.96982296E-06
   3.61319995         4.03220838E-06
   3.62520003         4.08149617E-06
   3.63720012         4.11224573E-06
   3.64919996         4.12036070E-06
   3.66120005         4.10324992E-06
   3.67319989         4.05990795E-06
   3.68519998         3.99091323E-06
   3.69720006         3.89834258E-06
   3.70919991         3.78561481E-06
   3.72119999         3.65726032E-06
   3.73320007         3.51864037E-06
   3.74519992         3.37562642E-06
   3.75720000         3.23426207E-06
   3.76920009         3.10042378E-06
   3.78119993         2.97950055E-06
   3.79320002         2.87611397E-06
   3.80520010         2.79388564E-06
   3.81719995         2.73527439E-06
   3.82920003         2.70148143E-06
   3.84120011         2.69243151E-06
   3.85319996         2.70682517E-06
   3.86520004         2.74226022E-06
   3.87719989         2.79540745E-06
   3.88919997         2.86223076E-06
   3.90120006         2.93823473E-06
   3.91319990         3.01872433E-06
   3.92519999         3.09906227E-06
   3.93720007         3.17490594E-06
   3.94919991         3.24241182E-06
   3.96120000         3.29840077E-06
   3.97320008         3.34047195E-06
   3.98519993         3.36706626E-06
   3.99720001         3.37747861E-06
   4.00920010         3.37182337E-06
   4.02120018         3.35096115E-06
   4.03319979         3.31639581E-06
   4.04519987         3.27015164E-06
   4.05719995         3.21464063E-06
   4.06920004         3.15253283E-06
   4.08120012         3.08663471E-06
   4.09320021         3.01978821E-06
   4.10519981         2.95478935E-06
   4.11719990         2.89433319E-06
   4.12919998         2.84098473E-06
   4.14120007         2.79716937E-06
   4.15320015         2.76518062E-06
   4.16520023         2.74720151E-06
   4.17719984         2.74532636E-06
   4.18919992         2.76157903E-06
   4.20120001         2.79792334E-06
   4.21320009         2.85625606E-06
   4.22520018         2.93838070E-06
   4.23719978         3.04595869E-06
   4.24919987         3.18043999E-06
   4.26119995         3.34297624E-06
   4.27320004         3.53431892E-06
   4.28520012         3.75471018E-06
   4.29720020         4.00377530E-06
   4.30919981         4.28042222E-06
   4.32119989         4.58275872E-06
   4.33319998         4.90803495E-06
   4.34520006         5.25261430E-06
   4.35720015         5.61198567E-06
   4.36920023         5.98081033E-06
   4.38119984         6.35301149E-06
   4.39319992         6.72190254E-06
   4.40520000         7.08034895E-06
   4.41720009         7.42096245E-06
   4.42920017         7.73631746E-06
   4.44119978         8.01918395E-06
   4.45319986         8.26276846E-06
   4.46519995         8.46095645E-06
   4.47720003         8.60853652E-06
   4.48920012         8.70142048E-06
   4.50120020         8.73681984E-06
   4.51319981         8.71340035E-06
   4.52519989         8.63138757E-06
   4.53719997         8.49262324E-06
   4.54920006         8.30057979E-06
   4.56120014         8.06030584E-06
   4.57320023         7.77832520E-06
   4.58519983         7.46247679E-06
   4.59719992         7.12170458E-06
   4.60920000         6.76579521E-06
   4.62120008         6.40507869E-06
   4.63320017         6.05009200E-06
   4.64519978         5.71122473E-06
   4.65719986         5.39835310E-06
   4.66919994         5.12048564E-06
   4.68120003         4.88542264E-06
   4.69320011         4.69945508E-06
   4.70520020         4.56710904E-06
   4.71719980         4.49095251E-06
   4.72919989         4.47146840E-06
   4.74119997         4.50700827E-06
   4.75320005         4.59382454E-06
   4.76520014         4.72618285E-06
   4.77720022         4.89655486E-06
   4.78919983         5.09588472E-06
   4.80119991         5.31391606E-06
   4.81320000         5.53957580E-06
   4.82520008         5.76138882E-06
   4.83720016         5.96791733E-06
   4.84919977         6.14820237E-06
   4.86119986         6.29218630E-06
   4.87319994         6.39111113E-06
   4.88520002         6.43786097E-06
   4.89720011         6.42725263E-06
   4.90920019         6.35625065E-06
   4.92119980         6.22411380E-06
   4.93319988         6.03245735E-06
   4.94519997         5.78523986E-06
   4.95720005         5.48866683E-06
   4.96920013         5.15102784E-06
   4.98120022         4.78245283E-06
   4.99319983         4.39461883E-06
   5.00519991         4.00039562E-06
   5.01719999         3.61345064E-06
   5.02920008         3.24782172E-06
   5.04120016         2.91746960E-06
   5.05319977         2.63582501E-06
   5.06519985         2.41534053E-06
   5.07719994         2.26705879E-06
   5.08920002         2.20021479E-06
   5.10120010         2.22187782E-06
   5.11320019         2.33664787E-06
   5.12519979         2.54642032E-06
   5.13719988         2.85022543E-06
   5.14919996         3.24415350E-06
   5.16120005         3.72137583E-06
   5.17320013         4.27226678E-06
   5.18520021         4.88462774E-06
   5.19719982         5.54401367E-06
   5.20919991         6.23415735E-06
   5.22119999         6.93747870E-06
   5.23320007         7.63567095E-06
   5.24520016         8.31033140E-06
   5.25719976         8.94363529E-06
   5.26919985         9.51900802E-06
   5.28119993         1.00217867E-05
   5.29320002         1.04398241E-05
   5.30520010         1.07640217E-05
   5.31720018         1.09887624E-05
   5.32919979         1.11122090E-05
   5.34119987         1.11364598E-05
   5.35319996         1.10675492E-05
   5.36520004         1.09152861E-05
   5.37720013         1.06929128E-05
   5.38920021         1.04166356E-05
   5.40119982         1.01050091E-05
   5.41319990         9.77821219E-06
   5.42519999         9.45724423E-06
   5.43720007         9.16306362E-06
   5.44920015         8.91572381E-06
   5.46120024         8.73351473E-06
   5.47319984         8.63216064E-06
   5.48519993         8.62410434E-06
   5.49720001         8.71790053E-06
   5.50920010         8.91774653E-06
   5.52120018         9.22316394E-06
   5.53319979         9.62885497E-06
   5.54519987         1.01247242E-05
   5.55719995         1.06960733E-05
   5.56920004         1.13239712E-05
   5.58120012         1.19857796E-05
   5.59320021         1.26558225E-05
   5.60519981         1.33061858E-05
   5.61719990         1.39076155E-05
   5.62919998         1.44305050E-05
   5.64120007         1.48459230E-05
   5.65320015         1.51266613E-05
   5.66520023         1.52482808E-05
   5.67719984         1.51900940E-05
   5.68919992         1.49360849E-05
   5.70120001         1.44757005E-05
   5.71320009         1.38045007E-05
   5.72520018         1.29246191E-05
   5.73719978         1.18450416E-05
   5.74919987         1.05816389E-05
   5.76119995         9.15696819E-06
   5.77320004         7.59983050E-06
   5.78520012         5.94457970E-06
   5.79720020         4.23020674E-06
   5.80919981         2.49920731E-06
   5.82119989         7.96275003E-07
   5.83319998        -8.33141542E-07
   5.84520006        -2.34436857E-06
   5.85720015        -3.69506893E-06
   5.86920023        -4.84677321E-06
   5.88119984        -5.76630964E-06
   5.89319992        -6.42709392E-06
   5.90520000        -6.81020219E-06
   5.91720009        -6.90519801E-06
   5.92920017        -6.71066528E-06
   5.94119978        -6.23441383E-06
   5.95319986        -5.49336346E-06
   5.96519995        -4.51308324E-06
   5.97720003        -3.32700733E-06
   5.98920012        -1.97534473E-06
   6.00120020        -5.03722504E-07
   6.01319981         1.03838363E-06
   6.02519989         2.59938633E-06
   6.03719997         4.12741610E-06
   6.04920006         5.57216754E-06
   6.06120014         6.88668433E-06
   6.07320023         8.02902196E-06
   6.08519983         8.96370602E-06
   6.09719992         9.66293010E-06
   6.10920000         1.01074420E-05
   6.12120008         1.02871018E-05
   6.13320017         1.02010499E-05
   6.14519978         9.85753286E-06
   6.15719986         9.27334531E-06
   6.16919994         8.47295451E-06
   6.18120003         7.48732373E-06
   6.19320011         6.35249808E-06
   6.20520020         5.10801829E-06
   6.21719980         3.79522999E-06
   6.22919989         2.45557248E-06
   6.24119997         1.12891257E-06
   6.25320005        -1.47991969E-07
   6.26520014        -1.34284574E-06
   6.27720022        -2.42892497E-06
   6.28919983        -3.38590326E-06
   6.30119991        -4.20036804E-06
   6.31320000        -4.86601220E-06
   6.32520008        -5.38351060E-06
   6.33720016        -5.76009325E-06
   6.34919977        -6.00884960E-06
   6.36119986        -6.14780583E-06
   6.37319994        -6.19882212E-06
   6.38520002        -6.18637205E-06
   6.39720011        -6.13625843E-06
   6.40920019        -6.07432457E-06
   6.42119980        -6.02521732E-06
   6.43319988        -6.01124930E-06
   6.44519997        -6.05140667E-06
   6.45720005        -6.16053603E-06
   6.46920013        -6.34873459E-06
   6.48120022        -6.62097000E-06
   6.49319983        -6.97692940E-06
   6.50519991        -7.41110262E-06
   6.51719999        -7.91309594E-06
   6.52920008        -8.46815237E-06
   6.54120016        -9.05785600E-06
   6.55319977        -9.66100743E-06
   6.56519985        -1.02546010E-05
   6.57719994        -1.08149043E-05
   6.58920002        -1.13185624E-05
   6.60120010        -1.17437012E-05
   6.61320019        -1.20709765E-05
   6.62519979        -1.22845240E-05
   6.63719988        -1.23727750E-05
   6.64919996        -1.23290883E-05
   6.66120005        -1.21521898E-05
   6.67320013        -1.18463659E-05
   6.68520021        -1.14214308E-05
   6.69719982        -1.08924387E-05
   6.70919991        -1.02791510E-05
   6.72119999        -9.60529087E-06
   6.73320007        -8.89758667E-06
   6.74520016        -8.18465560E-06
   6.75719976        -7.49578157E-06
   6.76919985        -6.85961868E-06
   6.78119993        -6.30289787E-06
   6.79320002        -5.84919007E-06
   6.80520010        -5.51778794E-06
   6.81720018        -5.32276226E-06
   6.82919979        -5.27223847E-06
   6.84119987        -5.36794005E-06
   6.85319996        -5.60501303E-06
   6.86520004        -5.97216012E-06
   6.87720013        -6.45207137E-06
   6.88920021        -7.02213993E-06
   6.90119982        -7.65543700E-06
   6.91319990        -8.32189471E-06
   6.92519999        -8.98964936E-06
   6.93720007        -9.62647664E-06
   6.94920015        -1.02012564E-05
   6.96120024        -1.06853759E-05
   6.97319984        -1.10540323E-05
   6.98519993        -1.12873367E-05
   6.99720001        -1.13711931E-05
   7.00920010        -1.12978942E-05
   7.02120018        -1.10664287E-05
   7.03319979        -1.06824682E-05
   7.04519987        -1.01580581E-05
   7.05719995        -9.51101993E-06
   7.06920004        -8.76411013E-06
   7.08120012        -7.94397420E-06
   7.09320021        -7.07994650E-06
   7.10519981        -6.20276251E-06
   7.11719990        -5.34324136E-06
   7.12919998        -4.53100256E-06
   7.14120007        -3.79326684E-06
   7.15320015        -3.15380066E-06
   7.16520023        -2.63203765E-06
   7.17719984        -2.24240762E-06
   7.18919992        -1.99389342E-06
   7.20120001        -1.88982017E-06
   7.21320009        -1.92787456E-06
   7.22520018        -2.10034204E-06
   7.23719978        -2.39454107E-06
   7.24919987        -2.79342839E-06
   7.26119995        -3.27634143E-06
   7.27320004        -3.81984501E-06
   7.28520012        -4.39864198E-06
   7.29720020        -4.98651752E-06
   7.30919981        -5.55727593E-06
   7.32119989        -6.08564596E-06
   7.33319998        -6.54812584E-06
   7.34520006        -6.92374806E-06
   7.35720015        -7.19475247E-06
   7.36920023        -7.34713831E-06
   7.38119984        -7.37110713E-06
   7.39319992        -7.26136341E-06
   7.40520000        -7.01728050E-06
   7.41720009        -6.64292429E-06
   7.42920017        -6.14692317E-06
   7.44119978        -5.54219878E-06
   7.45319986        -4.84555312E-06
   7.46519995        -4.07712332E-06
   7.47720003        -3.25972087E-06
   7.48920012        -2.41806515E-06
   7.50120020        -1.57793863E-06
   7.51319981        -7.65282266E-07
   7.52519989        -5.26049115E-09
   7.53719997         6.78671938E-07
   7.54920006         1.26566874E-06
   7.56120014         1.73831734E-06
   7.57320023         2.08335700E-06
   7.58519983         2.29224997E-06
   7.59719992         2.36157871E-06
   7.60920000         2.29324382E-06
   7.62120008         2.09444761E-06
   7.63320017         1.77745642E-06
   7.64519978         1.35914399E-06
   7.65719986         8.60333785E-07
   7.66919994         3.04956984E-07
   7.68120003        -2.80937371E-07
   7.69320011        -8.70283088E-07
   7.70520020        -1.43616194E-06
   7.71719980        -1.95297912E-06
   7.72919989        -2.39759856E-06
   7.74119997        -2.75038201E-06
   7.75320005        -2.99608132E-06
   7.76520014        -3.12454472E-06
   7.77720022        -3.13119767E-06
   7.78919983        -3.01728073E-06
   7.80119991        -2.78982520E-06
   7.81320000        -2.46137438E-06
   7.82520008        -2.04945741E-06
   7.83720016        -1.57583361E-06
   7.84919977        -1.06554796E-06
   7.86119986        -5.45830289E-07
   7.87319994        -4.48907969E-08
   7.88520002         4.09330539E-07
   7.89720011         7.90407341E-07
   7.90920019         1.07459721E-06
   7.92119980         1.24188693E-06
   7.93319988         1.27686599E-06
   7.94519997         1.16938270E-06
   7.95720005         9.14962527E-07
   7.96920013         5.14968463E-07
   7.98120022        -2.34978916E-08
   7.99319983        -6.87949637E-07
   8.00520039        -1.46110176E-06
   8.01720047        -2.32166212E-06
   8.02919960        -3.24529060E-06
   8.04119968        -4.20567403E-06
   8.05319977        -5.17567059E-06
   8.06519985        -6.12845952E-06
   8.07719994        -7.03864225E-06
   8.08920002        -7.88325087E-06
   8.10120010        -8.64260073E-06
   8.11320019        -9.30097485E-06
   8.12520027        -9.84709277E-06
   8.13720036        -1.02743843E-05
   8.14920044        -1.05810341E-05
   8.16119957        -1.07698406E-05
   8.17319965        -1.08478662E-05
   8.18519974        -1.08259483E-05
   8.19719982        -1.07180604E-05
   8.20919991        -1.05405879E-05
   8.22119999        -1.03115444E-05
   8.23320007        -1.00497673E-05
   8.24520016        -9.77414220E-06
   8.25720024        -9.50288813E-06
   8.26920033        -9.25291806E-06
   8.28120041        -9.03931232E-06
   8.29319954        -8.87490023E-06
   8.30519962        -8.76996182E-06
   8.31719971        -8.73203408E-06
   8.32919979        -8.76583363E-06
   8.34119987        -8.87325496E-06
   8.35319996        -9.05346860E-06
   8.36520004        -9.30308670E-06
   8.37720013        -9.61638671E-06
   8.38920021        -9.98559153E-06
   8.40120029        -1.04011824E-05
   8.41320038        -1.08522236E-05
   8.42520046        -1.13267124E-05
   8.43719959        -1.18119224E-05
   8.44919968        -1.22947240E-05
   8.46119976        -1.27619214E-05
   8.47319984        -1.32005598E-05
   8.48519993        -1.35982227E-05
   8.49720001        -1.39433196E-05
   8.50920010        -1.42253639E-05
   8.52120018        -1.44352171E-05
   8.53320026        -1.45653103E-05
   8.54520035        -1.46098246E-05
   8.55720043        -1.45648291E-05
   8.56919956        -1.44283695E-05
   8.58119965        -1.42005019E-05
   8.59319973        -1.38832884E-05
   8.60519981        -1.34807397E-05
   8.61719990        -1.29987175E-05
   8.62919998        -1.24447915E-05
   8.64120007        -1.18280705E-05
   8.65320015        -1.11589907E-05
   8.66520023        -1.04490855E-05
   8.67720032        -9.71073405E-06
   8.68920040        -8.95690573E-06
   8.70119953        -8.20091373E-06
   8.71319962        -7.45618399E-06
   8.72519970        -6.73605382E-06
   8.73719978        -6.05360856E-06
   8.74919987        -5.42154294E-06
   8.76119995        -4.85205601E-06
   8.77320004        -4.35675884E-06
   8.78520012        -3.94658809E-06
   8.79720020        -3.63171694E-06
   8.80920029        -3.42144449E-06
   8.82120037        -3.32406330E-06
   8.83320045        -3.34669630E-06
   8.84519958        -3.49510265E-06
   8.85719967        -3.77345623E-06
   8.86919975        -4.18409400E-06
   8.88119984        -4.72724787E-06
   8.89319992        -5.40077463E-06
   8.90520000        -6.19989260E-06
   8.91720009        -7.11695338E-06
   8.92920017        -8.14127179E-06
   8.94120026        -9.25901986E-06
   8.95320034        -1.04532428E-05
   8.96520042        -1.17039726E-05
   8.97719955        -1.29884775E-05
   8.98919964        -1.42816380E-05
   9.00119972        -1.55564576E-05
   9.01319981        -1.67846720E-05
   9.02519989        -1.79374783E-05
   9.03719997        -1.89863222E-05
   9.04920006        -1.99037386E-05
   9.06120014        -2.06642162E-05
   9.07320023        -2.12450577E-05
   9.08520031        -2.16271783E-05