 -0.622799993         1.00000002E-24
 -0.610800028         1.00000002E-24
 -0.598800004         1.00000002E-24
 -0.586799979         1.00000002E-24
 -0.574800014         1.00000002E-24
 -0.562799990         1.00000002E-24
 -0.550800025         1.00000002E-24
 -0.538800001         9.99999921E-25
 -0.526799977         1.00000002E-24
 -0.514800012         1.00000012E-24
 -0.502799988         1.00000022E-24
 -0.490799993         1.00000022E-24
 -0.478799999         1.00000002E-24
 -0.466800004         9.99999329E-25
 -0.454800010         9.99996272E-25
 -0.442799985         9.99986116E-25
 -0.430799991         9.99958309E-25
 -0.418799996         9.99896679E-25
 -0.406800002         9.99788506E-25
 -0.394800007         9.99658837E-25
 -0.382800013         9.99627776E-25
 -0.370799989         9.99934643E-25
 -0.358799994         1.00071463E-24
 -0.346799999         1.00106183E-24
 -0.334800005         9.96735615E-25
 -0.322800010         9.76291495E-25
 -0.310799986         9.17405888E-25
 -0.298799992         7.89716967E-25
 -0.286799997         5.77356302E-25
 -0.274800003         3.39620520E-25
 -0.262800008         3.22080494E-25
 -0.250800014         1.09736902E-24
 -0.238800004         3.64116855E-24
 -0.226799995         9.14013767E-24
 -0.214800000         1.82352440E-23
 -0.202800006         2.94413681E-23
 -0.190799996         3.68183536E-23
 -0.178800002         2.77382806E-23
 -0.166800007        -1.72495276E-23
 -0.154799998        -1.19347019E-22
 -0.142800003        -2.88011526E-22
 -0.130799994        -4.98033916E-22
 -0.118799999        -6.61847080E-22
 -0.106799997        -6.10664472E-22
  -9.48000029E-02    -1.07596525E-22
  -8.28000009E-02     1.07986692E-21
  -7.07999989E-02     3.03000903E-21
  -5.88000007E-02     5.45214250E-21
  -4.67999987E-02     7.47190713E-21
  -3.48000005E-02     7.54392031E-21
  -2.28000004E-02     3.66255704E-21
  -1.08000003E-02    -5.97611941E-21
   1.20000006E-03    -2.18281445E-20
   1.31999999E-02    -4.15757099E-20
   2.52000000E-02    -5.89420018E-20
   3.72000001E-02    -6.35498954E-20
   4.91999984E-02    -4.27017677E-20
   6.12000003E-02     1.43648654E-20
   7.32000023E-02     1.10017787E-19
   8.51999968E-02     2.31092291E-19
   9.71999988E-02     3.43936503E-19
  0.109200001         3.95322746E-19
  0.121200003         3.22509604E-19
  0.133200005         7.35975290E-20
  0.145199999        -3.64561114E-19
  0.157199994        -9.38439300E-19
  0.169200003        -1.51148707E-18
  0.181199998        -1.87206338E-18
  0.193200007        -1.77461964E-18
  0.205200002        -1.01384850E-18
  0.217199996         4.81813630E-19
  0.229200006         2.56445387E-18
  0.241200000         4.82399201E-18
  0.253199995         6.62100343E-18
  0.265199989         7.21082291E-18
  0.277200013         5.94584290E-18
  0.289200008         2.50963661E-18
  0.301200002        -2.88897709E-18
  0.313199997        -9.43843850E-18
  0.325199991        -1.58155577E-17
  0.337199986        -2.04455820E-17
  0.349200010        -2.18674261E-17
  0.361200005        -1.90889909E-17
  0.373199999        -1.18063125E-17
  0.385199994        -4.06654604E-19
  0.397199988         1.42257149E-17
  0.409200013         3.09651125E-17
  0.421200007         4.85463964E-17
  0.433200002         6.53184163E-17
  0.445199996         7.86089721E-17
  0.457199991         8.39327661E-17
  0.469199985         7.45729263E-17
  0.481200010         4.22447194E-17
  0.493200004        -2.05547136E-17
  0.505200028        -1.16401385E-16
  0.517199993        -2.37749496E-16
  0.529200017        -3.62432719E-16
  0.541199982        -4.52366839E-16
  0.553200006        -4.58005379E-16
  0.565199971        -3.30052926E-16
  0.577199996        -3.77154456E-17
  0.589200020         4.10262949E-16
  0.601199985         9.48483883E-16
  0.613200009         1.45006005E-15
  0.625199974         1.74154294E-15
  0.637199998         1.64096349E-15
  0.649200022         1.01520541E-15
  0.661199987        -1.55668350E-16
  0.673200011        -1.72691627E-15
  0.685199976        -3.37321596E-15
  0.697200000        -4.62700133E-15
  0.709200025        -4.97740319E-15
  0.721199989        -4.01739680E-15
  0.733200014        -1.60606902E-15
  0.745199978         2.00295128E-15
  0.757200003         6.11970124E-15
  0.769200027         9.70239056E-15
  0.781199992         1.15772175E-14
  0.793200016         1.07600010E-14
  0.805199981         6.80321701E-15
  0.817200005         6.34816717E-17
  0.829200029        -8.21610100E-15
  0.841199994        -1.60793823E-14
  0.853200018        -2.12898733E-14
  0.865199983        -2.19417651E-14
  0.877200007        -1.70915714E-14
  0.889199972        -7.21182910E-15
  0.901199996         5.71486353E-15
  0.913200021         1.85610414E-14
  0.925199986         2.78455644E-14
  0.937200010         3.07684752E-14
  0.949199975         2.61898657E-14
  0.961199999         1.52144736E-14
  0.973200023         1.11342947E-15
  0.985199988        -1.15100927E-14
  0.997200012        -1.81623718E-14
   1.00919998        -1.61203990E-14
   1.02119994        -5.77367134E-15
   1.03320003         8.88908393E-15
   1.04519999         2.09956462E-14
   1.05719995         2.27123364E-14
   1.06920004         7.96438653E-15
   1.08120000        -2.48068642E-14
   1.09319997        -7.07770905E-14
   1.10520005        -1.18578365E-13
   1.11720002        -1.52260718E-13
   1.12919998        -1.55183917E-13
   1.14119995        -1.14996730E-13
   1.15320003        -2.83689664E-14
   1.16520000         9.60067868E-14
   1.17719996         2.37334295E-13
   1.18920004         3.66037685E-13
   1.20120001         4.50020826E-13
   1.21319997         4.62456733E-13
   1.22520006         3.89077767E-13
   1.23720002         2.32860931E-13
   1.24919999         1.45545180E-14
   1.26119995        -2.31419620E-13
   1.27320004        -4.64817041E-13
   1.28520000        -6.49104468E-13
   1.29719996        -7.59934270E-13
   1.30920005        -7.89937126E-13
   1.32120001        -7.48170731E-13
   1.33319998        -6.54143460E-13
   1.34519994        -5.28111463E-13
   1.35720003        -3.80779582E-13
   1.36919999        -2.06135253E-13
   1.38119996         1.93804154E-14
   1.39320004         3.29780121E-13
   1.40520000         7.55291337E-13
   1.41719997         1.30421260E-12
   1.42920005         1.94596227E-12
   1.44120002         2.60102703E-12
   1.45319998         3.14255458E-12
   1.46519995         3.41188015E-12
   1.47720003         3.24684615E-12
   1.48920000         2.51820505E-12
   1.50119996         1.16665542E-12
   1.51320004        -7.68074081E-13
   1.52520001        -3.13372809E-12
   1.53719997        -5.67235712E-12
   1.54920006        -8.04795987E-12
   1.56120002        -9.89086937E-12
   1.57319999        -1.08510700E-11
   1.58519995        -1.06507242E-11
   1.59720004        -9.12662654E-12
   1.60920000        -6.25592286E-12
   1.62119997        -2.16259302E-12
   1.63320005         2.89335678E-12
   1.64520001         8.53859951E-12
   1.65719998         1.43142598E-11
   1.66919994         1.97029476E-11
   1.68120003         2.41524700E-11
   1.69319999         2.70978535E-11
   1.70519996         2.79871560E-11
   1.71720004         2.63183451E-11
   1.72920001         2.16932670E-11
   1.74119997         1.38901165E-11
   1.75320005         2.94878119E-12
   1.76520002        -1.07443793E-11
   1.77719998        -2.63919303E-11
   1.78919995        -4.27629807E-11
   1.80120003        -5.82321968E-11
   1.81320000        -7.08910777E-11
   1.82519996        -7.87297796E-11
   1.83720005        -7.98735175E-11
   1.84920001        -7.28449454E-11
   1.86119998        -5.68157153E-11
   1.87320006        -3.18091005E-11
   1.88520002         1.17833477E-12
   1.89719999         4.01562880E-11
   1.90919995         8.22264201E-11
   1.92120004         1.23764790E-10
   1.93320000         1.60680608E-10
   1.94519997         1.88726174E-10
   1.95720005         2.03834533E-10
   1.96920002         2.02466752E-10
   1.98119998         1.81957768E-10
   1.99319994         1.40853385E-10
   2.00519991         7.92288873E-11
   2.01719999        -1.02944042E-12
   2.02920008        -9.60132529E-11
   2.04119992        -1.99700229E-10
   2.05320001        -3.04040321E-10
   2.06520009        -3.99278582E-10
   2.07719994        -4.74556061E-10
   2.08920002        -5.18797449E-10
   2.10120010        -5.21847010E-10
   2.11319995        -4.75760931E-10
   2.12520003        -3.76117137E-10
   2.13720012        -2.23166860E-10
   2.14919996        -2.26464455E-11
   2.16120005         2.13915927E-10
   2.17319989         4.69511763E-10
   2.18519998         7.22625570E-10
   2.19720006         9.48828349E-10
   2.20919991         1.12286924E-09
   2.22119999         1.22107402E-09
   2.23320007         1.22381572E-09
   2.24519992         1.11781318E-09
   2.25720000         8.98023156E-10
   2.26920009         5.68938563E-10
   2.28119993         1.45155873E-10
   2.29320002        -3.48860607E-10
   2.30520010        -8.79831208E-10
   2.31719995        -1.40748924E-09
   2.32920003        -1.88710025E-09
   2.34120011        -2.27254571E-09
   2.35319996        -2.51980747E-09
   2.36520004        -2.59065325E-09
   2.37719989        -2.45628029E-09
   2.38919997        -2.10064788E-09
   2.40120006        -1.52319690E-09
   2.41319990        -7.40660699E-10
   2.42519999         2.12309503E-10
   2.43720007         1.28390698E-09
   2.44919991         2.40743314E-09
   2.46120000         3.50503226E-09
   2.47320008         4.49272575E-09
   2.48519993         5.28642108E-09
   2.49720001         5.80845683E-09
   2.50920010         5.99413763E-09
   2.52119994         5.79770632E-09
   2.53320003         5.19721599E-09
   2.54520011         4.19783097E-09
   2.55719995         2.83322721E-09
   2.56920004         1.16488663E-09
   2.58119988        -7.20765891E-10
   2.59319997        -2.71730483E-09
   2.60520005        -4.70512873E-09
   2.61719990        -6.55988019E-09
   2.62919998        -8.16210211E-09
   2.64120007        -9.40770128E-09
   2.65319991        -1.02187450E-08
   2.66520000        -1.05540749E-08
   2.67720008        -1.04191820E-08
   2.68919992        -9.87478810E-09
   2.70120001        -9.04362274E-09
   2.71320009        -8.11499135E-09
   2.72519994        -7.34688133E-09
   2.73720002        -7.06560721E-09
   2.74920011        -7.66326824E-09
   2.76119995        -9.59360591E-09
   2.77320004        -1.33671394E-08
   2.78520012        -1.95466896E-08
   2.79719996        -2.87445356E-08
   2.80920005        -4.16224850E-08
   2.82119989        -5.88959352E-08
   2.83319998        -8.13427619E-08
   2.84520006        -1.09817464E-07
   2.85719991        -1.45270420E-07
   2.86919999        -1.88771509E-07
   2.88120008        -2.41536895E-07
   2.89319992        -3.04956842E-07
   2.90520000        -3.80622481E-07
   2.91720009        -4.70348397E-07
   2.92919993        -5.76188313E-07
   2.94120002        -7.00440694E-07
   2.95320010        -8.45641466E-07
   2.96519995        -1.01454123E-06
   2.97720003        -1.21006588E-06
   2.98920012        -1.43525801E-06
   3.00119996        -1.69320208E-06
   3.01320004        -1.98693078E-06
   3.02519989        -2.31931949E-06
   3.03719997        -2.69296879E-06
   3.04920006        -3.11008171E-06
   3.06119990        -3.57234262E-06
   3.07319999        -4.08080132E-06
   3.08520007        -4.63577135E-06
   3.09719992        -5.23674771E-06
   3.10920000        -5.88234934E-06
   3.12120008        -6.57029659E-06
   3.13319993        -7.29741396E-06
   3.14520001        -8.05967557E-06
   3.15720010        -8.85228474E-06
   3.16919994        -9.66978314E-06
   3.18120003        -1.05061908E-05
   3.19320011        -1.13551723E-05
   3.20519996        -1.22102147E-05
   3.21720004        -1.30648232E-05
   3.22919989        -1.39127051E-05
   3.24119997        -1.47479595E-05
   3.25320005        -1.55652433E-05
   3.26519990        -1.63599198E-05
   3.27719998        -1.71281772E-05
   3.28920007        -1.78671107E-05
   3.30119991        -1.85747722E-05
   3.31320000        -1.92501811E-05
   3.32520008        -1.98932958E-05
   3.33719993        -2.05049455E-05
   3.34920001        -2.10867383E-05
   3.36120009        -2.16409371E-05
   3.37319994        -2.21703049E-05
   3.38520002        -2.26779484E-05
   3.39720011        -2.31671456E-05
   3.40919995        -2.36411761E-05
   3.42120004        -2.41031612E-05
   3.43319988        -2.45559222E-05
   3.44519997        -2.50018511E-05
   3.45720005        -2.54428214E-05
   3.46919990        -2.58801247E-05
   3.48119998        -2.63144484E-05
   3.49320006        -2.67458781E-05
   3.50519991        -2.71739555E-05
   3.51719999        -2.75977454E-05
   3.52920008        -2.80159566E-05
   3.54119992        -2.84270518E-05
   3.55320001        -2.88294123E-05
   3.56520009        -2.92214681E-05
   3.57719994        -2.96018588E-05
   3.58920002        -2.99695566E-05
   3.60120010        -3.03239794E-05
   3.61319995        -3.06650763E-05
   3.62520003        -3.09933748E-05
   3.63720012        -3.13099881E-05
   3.64919996        -3.16165788E-05
   3.66120005        -3.19152969E-05
   3.67319989        -3.22086780E-05
   3.68519998        -3.24994944E-05
   3.69720006        -3.27906309E-05
   3.70919991        -3.30848925E-05
   3.72119999        -3.33848584E-05
   3.73320007        -3.36927260E-05
   3.74519992        -3.40101760E-05
   3.75720000        -3.43382817E-05
   3.76920009        -3.46774214E-05
   3.78119993        -3.50272749E-05
   3.79320002        -3.53868490E-05
   3.80520010        -3.57545214E-05
   3.81719995        -3.61281418E-05
   3.82920003        -3.65051783E-05
   3.84120011        -3.68828660E-05
   3.85319996        -3.72583672E-05
   3.86520004        -3.76289645E-05
   3.87719989        -3.79922130E-05
   3.88919997        -3.83461011E-05
   3.90120006        -3.86891770E-05
   3.91319990        -3.90206260E-05
   3.92519999        -3.93403352E-05
   3.93720007        -3.96488940E-05
   3.94919991        -3.99475757E-05
   3.96120000        -4.02382611E-05
   3.97320008        -4.05233368E-05
   3.98519993        -4.08055566E-05
   3.99720001        -4.10879184E-05
   4.00920010        -4.13734742E-05
   4.02120018        -4.16652038E-05
   4.03319979        -4.19658390E-05
   4.04519987        -4.22777302E-05
   4.05719995        -4.26027436E-05
   4.06920004        -4.29421743E-05
   4.08120012        -4.32966808E-05
   4.09320021        -4.36662813E-05
   4.10519981        -4.40503536E-05
   4.11719990        -4.44476827E-05
   4.12919998        -4.48565552E-05
   4.14120007        -4.52748536E-05
   4.15320015        -4.57001770E-05
   4.16520023        -4.61300078E-05
   4.17719984        -4.65618687E-05
   4.18919992        -4.69934748E-05
   4.20120001        -4.74229091E-05
   4.21320009        -4.78487636E-05
   4.22520018        -4.82702671E-05
   4.23719978        -4.86873869E-05
   4.24919987        -4.91009050E-05
   4.26119995        -4.95124477E-05
   4.27320004        -4.99244561E-05
   4.28520012        -5.03401643E-05
   4.29720020        -5.07634759E-05
   4.30919981        -5.11988219E-05
   4.32119989        -5.16509972E-05
   4.33319998        -5.21249494E-05
   4.34520006        -5.26255681E-05
   4.35720015        -5.31574478E-05
   4.36920023        -5.37246851E-05
   4.38119984        -5.43306596E-05
   4.39319992        -5.49778888E-05
   4.40520000        -5.56678970E-05
   4.41720009        -5.64011425E-05
   4.42920017        -5.71769961E-05
   4.44119978        -5.79937696E-05
   4.45319986        -5.88488183E-05
   4.46519995        -5.97386570E-05
   4.47720003        -6.06591602E-05
   4.48920012        -6.16057441E-05
   4.50120020        -6.25735775E-05
   4.51319981        -6.35578399E-05
   4.52519989        -6.45538821E-05
   4.53719997        -6.55574477E-05
   4.54920006        -6.65648040E-05
   4.56120014        -6.75728515E-05
   4.57320023        -6.85791965E-05
   4.58519983        -6.95821800E-05
   4.59719992        -7.05807979E-05
   4.60920000        -7.15746792E-05
   4.62120008        -7.25639329E-05
   4.63320017        -7.35490321E-05
   4.64519978        -7.45305879E-05
   4.65719986        -7.55092115E-05
   4.66919994        -7.64852812E-05
   4.68120003        -7.74587388E-05
   4.69320011        -7.84289150E-05
   4.70520020        -7.93943327E-05
   4.71719980        -8.03525618E-05
   4.72919989        -8.13000952E-05
   4.74119997        -8.22322982E-05
   4.75320005        -8.31433208E-05
   4.76520014        -8.40261710E-05
   4.77720022        -8.48727868E-05
   4.78919983        -8.56741826E-05
   4.80119991        -8.64206741E-05
   4.81320000        -8.71021330E-05
   4.82520008        -8.77083803E-05
   4.83720016        -8.82295208E-05
   4.84919977        -8.86564521E-05
   4.86119986        -8.89813018E-05
   4.87319994        -8.91979507E-05
   4.88520002        -8.93025135E-05
   4.89720011        -8.92938479E-05
   4.90920019        -8.91739910E-05
   4.92119980        -8.89484945E-05
   4.93319988        -8.86267298E-05
   4.94519997        -8.82220411E-05
   4.95720005        -8.77518032E-05
   4.96920013        -8.72372621E-05
   4.98120022        -8.67033159E-05
   4.99319983        -8.61780281E-05
   5.00519991        -8.56920960E-05
   5.01719999        -8.52780649E-05
   5.02920008        -8.49695134E-05
   5.04120016        -8.48000345E-05
   5.05319977        -8.48022464E-05
   5.06519985        -8.50066499E-05
   5.07719994        -8.54405516E-05
   5.08920002        -8.61269582E-05
   5.10120010        -8.70836084E-05
   5.11320019        -8.83219764E-05
   5.12519979        -8.98465369E-05
   5.13719988        -9.16540957E-05
   5.14919996        -9.37333098E-05
   5.16120005        -9.60643883E-05
   5.17320013        -9.86190062E-05
   5.18520021        -1.01360383E-04
   5.19719982        -1.04243532E-04
   5.20919991        -1.07215725E-04
   5.22119999        -1.10216992E-04
   5.23320007        -1.13180911E-04
   5.24520016        -1.16035320E-04
   5.25719976        -1.18703225E-04
   5.26919985        -1.21103723E-04
   5.28119993        -1.23152902E-04
   5.29320002        -1.24764847E-04
   5.30520010        -1.25852588E-04
   5.31720018        -1.26329061E-04
   5.32919979        -1.26108032E-04
   5.34119987        -1.25105100E-04
   5.35319996        -1.23238497E-04
   5.36520004        -1.20430188E-04
   5.37720013        -1.16606687E-04
   5.38920021        -1.11700072E-04
   5.40119982        -1.05648949E-04
   5.41319990        -9.83994105E-05
   5.42519999        -8.99060396E-05
   5.43720007        -8.01329297E-05
   5.44920015        -6.90545930E-05
   5.46120024        -5.66569797E-05
   5.47319984        -4.29383144E-05
   5.48519993        -2.79099222E-05
   5.49720001        -1.15969524E-05
   5.50920010         5.96103837E-06
   5.52120018         2.47096359E-05
   5.53319979         4.45792975E-05
   5.54519987         6.54852338E-05
   5.55719995         8.73275494E-05
   5.56920004         1.09991488E-04
   5.58120012         1.33348003E-04
   5.59320021         1.57254428E-04
   5.60519981         1.81555471E-04
   5.61719990         2.06084267E-04
   5.62919998         2.30663791E-04
   5.64120007         2.55108374E-04
   5.65320015         2.79225409E-04
   5.66520023         3.02817236E-04
   5.67719984         3.25683417E-04
   5.68919992         3.47622787E-04
   5.70120001         3.68435984E-04
   5.71320009         3.87927954E-04
   5.72520018         4.05910541E-04
   5.73719978         4.22205136E-04
   5.74919987         4.36645438E-04
   5.76119995         4.49079933E-04
   5.77320004         4.59374598E-04
   5.78520012         4.67415142E-04
   5.79720020         4.73109219E-04
   5.80919981         4.76388203E-04
   5.82119989         4.77208756E-04
   5.83319998         4.75553825E-04
   5.84520006         4.71433275E-04
   5.85720015         4.64884099E-04
   5.86920023         4.55970236E-04
   5.88119984         4.44781617E-04
   5.89319992         4.31433145E-04
   5.90520000         4.16062976E-04
   5.91720009         3.98830714E-04
   5.92920017         3.79915000E-04
   5.94119978         3.59511061E-04
   5.95319986         3.37827980E-04
   5.96519995         3.15085839E-04
   5.97720003         2.91512784E-04
   5.98920012         2.67342170E-04
   6.00120020         2.42809343E-04
   6.01319981         2.18149056E-04
   6.02519989         1.93592336E-04
   6.03719997         1.69363906E-04
   6.04920006         1.45679456E-04
   6.06120014         1.22743062E-04
   6.07320023         1.00744823E-04
   6.08519983         7.98585752E-05
   6.09719992         6.02398395E-05
   6.10920000         4.20239849E-05
   6.12120008         2.53246290E-05
   6.13320017         1.02323129E-05
   6.14519978        -3.18647949E-06
   6.15719986        -1.48899808E-05
   6.16919994        -2.48613978E-05
   6.18120003        -3.31087540E-05
   6.19320011        -3.96643081E-05
   6.20520020        -4.45835467E-05
   6.21719980        -4.79436967E-05
   6.22919989        -4.98418704E-05
   6.24119997        -5.03928204E-05
   6.25320005        -4.97263463E-05
   6.26520014        -4.79844748E-05
   6.27720022        -4.53184184E-05
   6.28919983        -4.18854215E-05
   6.30119991        -3.78455625E-05
   6.31320000        -3.33585704E-05
   6.32520008        -2.85807801E-05
   6.33720016        -2.36622254E-05
   6.34919977        -1.87439837E-05
   6.36119986        -1.39558233E-05
   6.37319994        -9.41417511E-06
   6.38520002        -5.22046412E-06
   6.39720011        -1.45984598E-06
   6.40920019         1.79968288E-06
   6.42119980         4.50777270E-06
   6.43319988         6.63183982E-06
   6.44519997         8.15681869E-06
   6.45720005         9.08457059E-06
   6.46920013         9.43298710E-06
   6.48120022         9.23478183E-06
   6.49319983         8.53602523E-06
   6.50519991         7.39444204E-06
   6.51719999         5.87749901E-06
   6.52920008         4.06031904E-06
   6.54120016         2.02346791E-06
   6.55319977        -1.49360488E-07
   6.56519985        -2.37370500E-06
   6.57719994        -4.56670023E-06
   6.58920002        -6.64938943E-06
   6.60120010        -8.54894006E-06
   6.61320019        -1.02006834E-05
   6.62519979        -1.15499470E-05
   6.63719988        -1.25535935E-05
   6.64919996        -1.31812321E-05
   6.66120005        -1.34160509E-05
   6.67320013        -1.32552250E-05
   6.68520021        -1.27099038E-05
   6.69719982        -1.18047410E-05
   6.70919991        -1.05770032E-05
   6.72119999        -9.07527374E-06
   6.73320007        -7.35778849E-06
   6.74520016        -5.49046581E-06
   6.75719976        -3.54469830E-06
   6.76919985        -1.59497404E-06
   6.78119993         2.83582835E-07
   6.79320002         2.01767057E-06
   6.80520010         3.53818314E-06
   6.81720018         4.78241691E-06
   6.82919979         5.69604117E-06
   6.84119987         6.23477035E-06
   6.85319996         6.36569393E-06
   6.86520004         6.06822914E-06
   6.87720013         5.33467846E-06
   6.88920021         4.17039928E-06
   6.90119982         2.59358990E-06
   6.91319990         6.34717992E-07
   6.92519999        -1.66437314E-06
   6.93720007        -4.25164399E-06
   6.94920015        -7.06627588E-06
   6.96120024        -1.00402831E-05
   6.97319984        -1.31002662E-05
   6.98519993        -1.61692678E-05
   6.99720001        -1.91686722E-05
   7.00920010        -2.20201218E-05
   7.02120018        -2.46473846E-05
   7.03319979        -2.69781758E-05
   7.04519987        -2.89458603E-05
   7.05719995        -3.04910245E-05
   7.06920004        -3.15629077E-05
   7.08120012        -3.21206498E-05
   7.09320021        -3.21343286E-05
   7.10519981        -3.15857906E-05
   7.11719990        -3.04692257E-05
   7.12919998        -2.87915118E-05
   7.14120007        -2.65722683E-05
   7.15320015        -2.38436241E-05
   7.16520023        -2.06497189E-05
   7.17719984        -1.70459098E-05
   7.18919992        -1.30977105E-05
   7.20120001        -8.87947954E-06
   7.21320009        -4.47288221E-06
   7.22520018         3.48403262E-08
   7.23719978         4.55274994E-06
   7.24919987         8.98820235E-06
   7.26119995         1.32488894E-05
   7.27320004         1.72448872E-05
   7.28520012         2.08906713E-05
   7.29720020         2.41069920E-05
   7.30919981         2.68226595E-05
   7.32119989         2.89760865E-05
   7.33319998         3.05166377E-05
   7.34520006         3.14057179E-05
   7.35720015         3.16176083E-05
   7.36920023         3.11400181E-05
   7.38119984         2.99743824E-05
   7.39319992         2.81358862E-05
   7.40520000         2.56532676E-05
   7.41720009         2.25683707E-05
   7.42920017         1.89354942E-05
   7.44119978         1.48205481E-05
   7.45319986         1.03000239E-05
   7.46519995         5.45980492E-06
   7.47720003         3.93805720E-07
   7.48920012        -4.79753271E-06
   7.50120020        -1.00088955E-05
   7.51319981        -1.51318818E-05
   7.52519989        -2.00569302E-05
   7.53719997        -2.46753425E-05
   7.54920006        -2.88814190E-05
   7.56120014        -3.25746369E-05
   7.57320023        -3.56618548E-05
   7.58519983        -3.80595229E-05
   7.59719992        -3.96957585E-05
   7.60920000        -4.05123174E-05
   7.62120008        -4.04663442E-05
   7.63320017        -3.95318384E-05
   7.64519978        -3.77007709E-05
   7.65719986        -3.49837865E-05
   7.66919994        -3.14104618E-05
   7.68120003        -2.70290529E-05
   7.69320011        -2.19057674E-05
   7.70520020        -1.61235093E-05
   7.71719980        -9.78018124E-06
   7.72919989        -2.98655141E-06
   7.74119997         4.13623411E-06
   7.75320005         1.14594168E-05
   7.76520014         1.88495887E-05
   7.77720022         2.61717632E-05
   7.78919983         3.32924537E-05
   7.80119991         4.00826902E-05
   7.81320000         4.64208533E-05
   7.82520008         5.21953189E-05
   7.83720016         5.73067591E-05
   7.84919977         6.16701509E-05
   7.86119986         6.52163872E-05
   7.87319994         6.78934957E-05
   7.88520002         6.96674324E-05
   7.89720011         7.05225320E-05
   7.90920019         7.04615159E-05
   7.92119980         6.95051276E-05
   7.93319988         6.76914060E-05
   7.94519997         6.50746515E-05
   7.95720005         6.17240148E-05
   7.96920013         5.77218743E-05
   7.98120022         5.31619007E-05
   7.99319983         4.81469287E-05
   8.00520039         4.27866798E-05
   8.01720047         3.71953720E-05
   8.02919960         3.14892532E-05
   8.04119968         2.57841039E-05
   8.05319977         2.01928378E-05
   8.06519985         1.48231793E-05
   8.07719994         9.77549826E-06
   8.08920002         5.14088515E-06
   8.10120010         9.99465669E-07
   8.11320019        -2.58097066E-06
   8.12520027        -5.54600683E-06
   8.13720036        -7.85528573E-06
   8.14920044        -9.48283741E-06
   8.16119957        -1.04170531E-05
   8.17319965        -1.06603366E-05
   8.18519974        -1.02284521E-05
   8.19719982        -9.14960856E-06
   8.20919991        -7.46334035E-06
   8.22119999        -5.21922220E-06
   8.23320007        -2.47546041E-06
   8.24520016         7.02566354E-07
   8.25720024         4.24380187E-06
   8.26920033         8.07298056E-06
   8.28120041         1.21120529E-05
   8.29319954         1.62815431E-05
   8.30519962         2.05018259E-05
   8.31719971         2.46943127E-05
   8.32919979         2.87825660E-05
   8.34119987         3.26933296E-05
   8.35319996         3.63575055E-05
   8.36520004         3.97110671E-05
   8.37720013         4.26959559E-05
   8.38920021         4.52609165E-05
   8.40120029         4.73623077E-05
   8.41320038         4.89648883E-05
   8.42520046         5.00425085E-05
   8.43719959         5.05787684E-05
   8.44919968         5.05675416E-05
   8.46119976         5.00133974E-05
   8.47319984         4.89318118E-05
   8.48519993         4.73492073E-05
   8.49720001         4.53027351E-05
   8.50920010         4.28397798E-05
   8.52120018         4.00172139E-05
   8.53320026         3.69003428E-05
   8.54520035         3.35615368E-05
   8.55720043         3.00786705E-05
   8.56919956         2.65332656E-05
   8.58119965         2.30085134E-05
   8.59319973         1.95871307E-05
   8.60519981         1.63491986E-05
   8.61719990         1.33700132E-05
   8.62919998         1.07180331E-05
   8.64120007         8.45299110E-06
   8.65320015         6.62425100E-06
   8.66520023         5.26945860E-06
   8.67720032         4.41354223E-06
   8.68920040         4.06809886E-06
   8.70119953         4.23119491E-06
   8.71319962         4.88758451E-06
   8.72519970         6.00934254E-06
   8.73719978         7.55688598E-06
   8.74919987         9.48035267E-06
   8.76119995         1.17212749E-05
   8.77320004         1.42144991E-05
   8.78520012         1.68902770E-05
   8.79720020         1.96764649E-05
   8.80920029         2.25007243E-05
   8.82120037         2.52926948E-05
   8.83320045         2.79860305E-05
   8.84519958         3.05202120E-05
   8.85719967         3.28421593E-05
   8.86919975         3.49074653E-05
   8.88119984         3.66813292E-05
   8.89319992         3.81391001E-05
   8.90520000         3.92664224E-05
   8.91720009         4.00590397E-05
   8.92920017         4.05222127E-05
   8.94120026         4.06698709E-05
   8.95320034         4.05234423E-05
   8.96520042         4.01105426E-05
   8.97719955         3.94634480E-05
   8.98919964         3.86175525E-05
   9.00119972         3.76097742E-05
   9.01319981         3.64770167E-05
   9.02519989         3.52547286E-05
   9.03719997         3.39756334E-05
   9.04920006         3.26686422E-05
   9.06120014         3.13579840E-05
   9.07320023         3.00626289E-05
   9.08520031         2.87959101E-05