 -0.622799993         1.00000002E-24
 -0.610800028         1.00000002E-24
 -0.598800004         1.00000002E-24
 -0.586799979         1.00000002E-24
 -0.574800014         1.00000002E-24
 -0.562799990         1.00000002E-24
 -0.550800025         1.00000012E-24
 -0.538800001         1.00000022E-24
 -0.526799977         1.00000032E-24
 -0.514800012         1.00000022E-24
 -0.502799988         9.99999132E-25
 -0.490799993         9.99990553E-25
 -0.478799999         9.99950617E-25
 -0.466800004         9.99828048E-25
 -0.454800010         9.99617619E-25
 -0.442799985         9.99708831E-25
 -0.430799991         1.00169489E-24
 -0.418799996         1.00917299E-24
 -0.406800002         1.02622955E-24
 -0.394800007         1.04882361E-24
 -0.382800013         1.04474352E-24
 -0.370799989         9.28258839E-25
 -0.358799994         5.61797204E-25
 -0.346799999        -1.49401393E-25
 -0.334800005        -1.00073524E-24
 -0.322800010        -1.09632694E-24
 -0.310799986         1.40323002E-24
 -0.298799992         8.77284087E-24
 -0.286799997         2.16688684E-23
 -0.274800003         3.52652158E-23
 -0.262800008         3.50053493E-23
 -0.250800014        -3.87666010E-24
 -0.238800004        -1.06599153E-22
 -0.226799995        -2.73484621E-22
 -0.214800000        -4.41717577E-22
 -0.202800006        -4.53081971E-22
 -0.190799996        -6.57619505E-23
 -0.178800002         9.43398176E-22
 -0.166800007         2.56255344E-21
 -0.154799998         4.26024794E-21
 -0.142800003         4.78733405E-21
 -0.130799994         2.32154116E-21
 -0.118799999        -4.78426241E-21
 -0.106799997        -1.65809840E-20
  -9.48000029E-02    -2.97942766E-20
  -8.28000009E-02    -3.67345223E-20
  -7.07999989E-02    -2.62351867E-20
  -5.88000007E-02     1.21282401E-20
  -4.67999987E-02     8.04109382E-20
  -3.48000005E-02     1.63313719E-19
  -2.28000004E-02     2.22528464E-19
  -1.08000003E-02     2.00831388E-19
   1.20000006E-03     4.13303346E-20
   1.31999999E-02    -2.77926017E-19
   2.52000000E-02    -7.03023388E-19
   3.72000001E-02    -1.07655375E-18
   4.91999984E-02    -1.14931111E-18
   6.12000003E-02    -6.52911959E-19
   7.32000023E-02     5.65050747E-19
   8.51999968E-02     2.37598821E-18
   9.71999988E-02     4.24633085E-18
  0.109200001         5.24871617E-18
  0.121200003         4.28866636E-18
  0.133200005         5.61476655E-19
  0.145199999        -5.85827053E-18
  0.157199994        -1.35182604E-17
  0.169200003        -1.94862378E-17
  0.181199998        -1.99193942E-17
  0.193200007        -1.13956645E-17
  0.205200002         7.23023932E-18
  0.217199996         3.30622635E-17
  0.229200006         5.83746718E-17
  0.241200000         7.16585374E-17
  0.253199995         6.09142553E-17
  0.265199989         1.87516965E-17
  0.277200013        -5.21712805E-17
  0.289200008        -1.35652710E-16
  0.301200002        -2.02793650E-16
  0.313199997        -2.18679793E-16
  0.325199991        -1.54438842E-16
  0.337199986        -1.69318650E-18
  0.349200010         2.15768210E-16
  0.361200005         4.39052858E-16
  0.373199999         5.84424464E-16
  0.385199994         5.67296399E-16
  0.397199988         3.34998063E-16
  0.409200013        -1.01919802E-16
  0.421200007        -6.52800246E-16
  0.433200002        -1.15563447E-15
  0.445199996        -1.41582457E-15
  0.457199991        -1.26867970E-15
  0.469199985        -6.48259673E-16
  0.481200010         3.62034561E-16
  0.493200004         1.52104629E-15
  0.505200028         2.47723658E-15
  0.517199993         2.86729165E-15
  0.529200017         2.44075085E-15
  0.541199982         1.17002355E-15
  0.553200006        -6.97785107E-16
  0.565199971        -2.67738073E-15
  0.577199996        -4.17253427E-15
  0.589200020        -4.66249582E-15
  0.601199985        -3.88822301E-15
  0.613200009        -1.96952948E-15
  0.625199974         5.99802241E-16
  0.637199998         3.09260009E-15
  0.649200022         4.78731714E-15
  0.661199987         5.22443569E-15
  0.673200011         4.38141556E-15
  0.685199976         2.68713643E-15
  0.697200000         8.52016413E-16
  0.709200025        -4.36328535E-16
  0.721199989        -8.37539561E-16
  0.733200014        -5.61787879E-16
  0.745199978        -3.39236140E-16
  0.757200003        -1.12455503E-15
  0.769200027        -3.61547628E-15
  0.781199992        -7.76198546E-15
  0.793200016        -1.24854384E-14
  0.805199981        -1.57864173E-14
  0.817200005        -1.52978487E-14
  0.829200029        -9.16969663E-15
  0.841199994         2.98766139E-15
  0.853200018         1.94578139E-14
  0.865199983         3.63893960E-14
  0.877200007         4.85375527E-14
  0.889199972         5.06775476E-14
  0.901199996         3.93328016E-14
  0.913200021         1.42860865E-14
  0.925199986        -2.06709887E-14
  0.937200010        -5.81222692E-14
  0.949199975        -8.85945573E-14
  0.961199999        -1.02978573E-13
  0.973200023        -9.51598555E-14
  0.985199988        -6.40794723E-14
  0.997200012        -1.45457241E-14
   1.00919998         4.35551287E-14
   1.02119994         9.75374160E-14
   1.03320003         1.35110483E-13
   1.04519999         1.47602118E-13
   1.05719995         1.32266702E-13
   1.06920004         9.29641970E-14
   1.08120000         3.89589958E-14
   1.09319997        -1.78491526E-14
   1.10520005        -6.64509273E-14
   1.11720002        -9.99235281E-14
   1.12919998        -1.17252399E-13
   1.14119995        -1.23104557E-13
   1.15320003        -1.25488446E-13
   1.16520000        -1.31921844E-13
   1.17719996        -1.45292564E-13
   1.18920004        -1.60855853E-13
   1.20120001        -1.65655291E-13
   1.21319997        -1.41072172E-13
   1.22520006        -6.83195566E-14
   1.23720002         6.42779964E-14
   1.24919999         2.54164718E-13
   1.26119995         4.79869887E-13
   1.27320004         7.00742253E-13
   1.28520000         8.62155887E-13
   1.29719996         9.05856445E-13
   1.30920005         7.83613842E-13
   1.32120001         4.71163256E-13
   1.33319998        -2.10722434E-14
   1.34519994        -6.43545655E-13
   1.35720003        -1.31118272E-12
   1.36919999        -1.91486388E-12
   1.38119996        -2.33869781E-12
   1.39320004        -2.47957861E-12
   1.40520000        -2.26505533E-12
   1.41719997        -1.66620233E-12
   1.42920005        -7.03703101E-13
   1.44120002         5.52755378E-13
   1.45319998         1.99012595E-12
   1.46519995         3.46036958E-12
   1.47720003         4.78970379E-12
   1.48920000         5.78829346E-12
   1.50119996         6.26164658E-12
   1.51320004         6.02621035E-12
   1.52520001         4.93163540E-12
   1.53719997         2.89060963E-12
   1.54920006        -8.57791824E-14
   1.56120002        -3.85268987E-12
   1.57319999        -8.10472522E-12
   1.58519995        -1.23675913E-11
   1.59720004        -1.60171564E-11
   1.60920000        -1.83314093E-11
   1.62119997        -1.85754311E-11
   1.63320005        -1.61132063E-11
   1.64520001        -1.05341638E-11
   1.65719998        -1.77777237E-12
   1.66919994         9.76300204E-12
   1.68120003         2.31786691E-11
   1.69319999         3.70379387E-11
   1.70519996         4.94534483E-11
   1.71720004         5.82258200E-11
   1.72920001         6.10657427E-11
   1.74119997         5.58839502E-11
   1.75320005         4.11278372E-11
   1.76520002         1.61309820E-11
   1.77719998        -1.85693856E-11
   1.78919995        -6.10008641E-11
   1.80120003        -1.07667007E-10
   1.81320000        -1.53653118E-10
   1.82519996        -1.92964353E-10
   1.83720005        -2.19110161E-10
   1.84920001        -2.25917493E-10
   1.86119998        -2.08519826E-10
   1.87320006        -1.64432482E-10
   1.88520002        -9.45942769E-11
   1.89719999        -4.23363471E-12
   1.90919995         9.65915958E-11
   1.92120004         1.92924746E-10
   1.93320000         2.65432121E-10
   1.94519997         2.91598634E-10
   1.95720005         2.47625503E-10
   1.96920002         1.10993985E-10
   1.98119998        -1.36415143E-10
   1.99319994        -5.04833730E-10
   2.00519991        -9.93010119E-10
   2.01719999        -1.58482971E-09
   2.02920008        -2.24651697E-09
   2.04119992        -2.92479507E-09
   2.05320001        -3.54634255E-09
   2.06520009        -4.01879507E-09
   2.07719994        -4.23337809E-09
   2.08920002        -4.06901446E-09
   2.10120010        -3.39743900E-09
   2.11319995        -2.08841389E-09
   2.12520003        -1.37390845E-11
   2.13720012         2.95184921E-09
   2.14919996         6.93523550E-09
   2.16120005         1.20778214E-08
   2.17319989         1.85599873E-08
   2.18519998         2.66406222E-08
   2.19720006         3.67152211E-08
   2.20919991         4.93958048E-08
   2.22119999         6.56154242E-08
   2.23320007         8.67589307E-08
   2.24519992         1.14820729E-07
   2.25720000         1.52588257E-07
   2.26920009         2.03848415E-07
   2.28119993         2.73611278E-07
   2.29320002         3.68343990E-07
   2.30520010         4.96203995E-07
   2.31719995         6.67259712E-07
   2.32920003         8.93683023E-07
   2.34120011         1.18989738E-06
   2.35319996         1.57266345E-06
   2.36520004         2.06108416E-06
   2.37719989         2.67651194E-06
   2.38919997         3.44234081E-06
   2.40120006         4.38367306E-06
   2.41319990         5.52684878E-06
   2.42519999         6.89884018E-06
   2.43720007         8.52650737E-06
   2.44919991         1.04357323E-05
   2.46120000         1.26504483E-05
   2.47320008         1.51915910E-05
   2.48519993         1.80759998E-05
   2.49720001         2.13153271E-05
   2.50920010         2.49149798E-05
   2.52119994         2.88731608E-05
   2.53320003         3.31800511E-05
   2.54520011         3.78171899E-05
   2.55719995         4.27570922E-05
   2.56920004         4.79631417E-05
   2.58119988         5.33898092E-05
   2.59319997         5.89831652E-05
   2.60520005         6.46817862E-05
   2.61719990         7.04179329E-05
   2.62919998         7.61190240E-05
   2.64120007         8.17094260E-05
   2.65319991         8.71123993E-05
   2.66520000         9.22522013E-05
   2.67720008         9.70562542E-05
   2.68919992         1.01457255E-04
   2.70120001         1.05395295E-04
   2.71320009         1.08819622E-04
   2.72519994         1.11690264E-04
   2.73720002         1.13979295E-04
   2.74920011         1.15671646E-04
   2.76119995         1.16765521E-04
   2.77320004         1.17272408E-04
   2.78520012         1.17216514E-04
   2.79719996         1.16633913E-04
   2.80920005         1.15571158E-04
   2.82119989         1.14083661E-04
   2.83319998         1.12233727E-04
   2.84520006         1.10088426E-04
   2.85719991         1.07717395E-04
   2.86919999         1.05190600E-04
   2.88120008         1.02576196E-04
   2.89319992         9.99385884E-05
   2.90520000         9.73366987E-05
   2.91720009         9.48225352E-05
   2.92919993         9.24401829E-05
   2.94120002         9.02250758E-05
   2.95320010         8.82037493E-05
   2.96519995         8.63938840E-05
   2.97720003         8.48047275E-05
   2.98920012         8.34378588E-05
   3.00119996         8.22880829E-05
   3.01320004         8.13446313E-05
   3.02519989         8.05923992E-05
   3.03719997         8.00132402E-05
   3.04920006         7.95872329E-05
   3.06119990         7.92938954E-05
   3.07319999         7.91132115E-05
   3.08520007         7.90265476E-05
   3.09719992         7.90173508E-05
   3.10920000         7.90715785E-05
   3.12120008         7.91780403E-05
   3.13319993         7.93284562E-05
   3.14520001         7.95173037E-05
   3.15720010         7.97416287E-05
   3.16919994         8.00006237E-05
   3.18120003         8.02951981E-05
   3.19320011         8.06274911E-05
   3.20519996         8.10003330E-05
   3.21720004         8.14168234E-05
   3.22919989         8.18798508E-05
   3.24119997         8.23917435E-05
   3.25320005         8.29540077E-05
   3.26519990         8.35671162E-05
   3.27719998         8.42303634E-05
   3.28920007         8.49418648E-05
   3.30119991         8.56985425E-05
   3.31320000         8.64962130E-05
   3.32520008         8.73296522E-05
   3.33719993         8.81927554E-05
   3.34920001         8.90786396E-05
   3.36120009         8.99797669E-05
   3.37319994         9.08881120E-05
   3.38520002         9.17952348E-05
   3.39720011         9.26924986E-05
   3.40919995         9.35711432E-05
   3.42120004         9.44225394E-05
   3.43319988         9.52383562E-05
   3.44519997         9.60108591E-05
   3.45720005         9.67331434E-05
   3.46919990         9.73995557E-05
   3.48119998         9.80059995E-05
   3.49320006         9.85504012E-05
   3.50519991         9.90330591E-05
   3.51719999         9.94570291E-05
   3.52920008         9.98284740E-05
   3.54119992         1.00156874E-04
   3.55320001         1.00455225E-04
   3.56520009         1.00740013E-04
   3.57719994         1.01031117E-04
   3.58920002         1.01351536E-04
   3.60120010         1.01726939E-04
   3.61319995         1.02185106E-04
   3.62520003         1.02755250E-04
   3.63720012         1.03467195E-04
   3.64919996         1.04350482E-04
   3.66120005         1.05433508E-04
   3.67319989         1.06742584E-04
   3.68519998         1.08301050E-04
   3.69720006         1.10128545E-04
   3.70919991         1.12240232E-04
   3.72119999         1.14646238E-04
   3.73320007         1.17351250E-04
   3.74519992         1.20354147E-04
   3.75720000         1.23647886E-04
   3.76920009         1.27219464E-04
   3.78119993         1.31050037E-04
   3.79320002         1.35115202E-04
   3.80520010         1.39385316E-04
   3.81719995         1.43825935E-04
   3.82920003         1.48398423E-04
   3.84120011         1.53060522E-04
   3.85319996         1.57767106E-04
   3.86520004         1.62470868E-04
   3.87719989         1.67123202E-04
   3.88919997         1.71675085E-04
   3.90120006         1.76077869E-04
   3.91319990         1.80284347E-04
   3.92519999         1.84249569E-04
   3.93720007         1.87931786E-04
   3.94919991         1.91293337E-04
   3.96120000         1.94301407E-04
   3.97320008         1.96928813E-04
   3.98519993         1.99154572E-04
   3.99720001         2.00964336E-04
   4.00920010         2.02350740E-04
   4.02120018         2.03313495E-04
   4.03319979         2.03859337E-04
   4.04519987         2.04001757E-04
   4.05719995         2.03760472E-04
   4.06920004         2.03160933E-04
   4.08120012         2.02233423E-04
   4.09320021         2.01012139E-04
   4.10519981         1.99534232E-04
   4.11719990         1.97838657E-04
   4.12919998         1.95965098E-04
   4.14120007         1.93952961E-04
   4.15320015         1.91840314E-04
   4.16520023         1.89663100E-04
   4.17719984         1.87454352E-04
   4.18919992         1.85243800E-04
   4.20120001         1.83057433E-04
   4.21320009         1.80917501E-04
   4.22520018         1.78842631E-04
   4.23719978         1.76848116E-04
   4.24919987         1.74946414E-04
   4.26119995         1.73147768E-04
   4.27320004         1.71460866E-04
   4.28520012         1.69893538E-04
   4.29720020         1.68453349E-04
   4.30919981         1.67148173E-04
   4.32119989         1.65986421E-04
   4.33319998         1.64977231E-04
   4.34520006         1.64130382E-04
   4.35720015         1.63455799E-04
   4.36920023         1.62963071E-04
   4.38119984         1.62660552E-04
   4.39319992         1.62554483E-04
   4.40520000         1.62647964E-04
   4.41720009         1.62939963E-04
   4.42920017         1.63424440E-04
   4.44119978         1.64089724E-04
   4.45319986         1.64918078E-04
   4.46519995         1.65885736E-04
   4.47720003         1.66963218E-04
   4.48920012         1.68116036E-04
   4.50120020         1.69305800E-04
   4.51319981         1.70491636E-04
   4.52519989         1.71631749E-04
   4.53719997         1.72685148E-04
   4.54920006         1.73613327E-04
   4.56120014         1.74381770E-04
   4.57320023         1.74961271E-04
   4.58519983         1.75328809E-04
   4.59719992         1.75467998E-04
   4.60920000         1.75369016E-04
   4.62120008         1.75028239E-04
   4.63320017         1.74447152E-04
   4.64519978         1.73631153E-04
   4.65719986         1.72587956E-04
   4.66919994         1.71325955E-04
   4.68120003         1.69852574E-04
   4.69320011         1.68172919E-04
   4.70520020         1.66288664E-04
   4.71719980         1.64197365E-04
   4.72919989         1.61892342E-04
   4.74119997         1.59363044E-04
   4.75320005         1.56596041E-04
   4.76520014         1.53576213E-04
   4.77720022         1.50288703E-04
   4.78919983         1.46720602E-04
   4.80119991         1.42863035E-04
   4.81320000         1.38713032E-04
   4.82520008         1.34275033E-04
   4.83720016         1.29562090E-04
   4.84919977         1.24596510E-04
   4.86119986         1.19410004E-04
   4.87319994         1.14043069E-04
   4.88520002         1.08543994E-04
   4.89720011         1.02967286E-04
   4.90920019         9.73717106E-05
   4.92119980         9.18181613E-05
   4.93319988         8.63673777E-05
   4.94519997         8.10777492E-05
   4.95720005         7.60033290E-05
   4.96920013         7.11921530E-05
   4.98120022         6.66849082E-05
   4.99319983         6.25141329E-05
   5.00519991         5.87038012E-05
   5.01719999         5.52693418E-05
   5.02920008         5.22180526E-05
   5.04120016         4.95497807E-05
   5.05319977         4.72578031E-05
   5.06519985         4.53298053E-05
   5.07719994         4.37488889E-05
   5.08920002         4.24945174E-05
   5.10120010         4.15433096E-05
   5.11320019         4.08697306E-05
   5.12519979         4.04466409E-05
   5.13719988         4.02456535E-05
   5.14919996         4.02374644E-05
   5.16120005         4.03920858E-05
   5.17320013         4.06790714E-05
   5.18520021         4.10677894E-05
   5.19719982         4.15277391E-05
   5.20919991         4.20289689E-05
   5.22119999         4.25425642E-05
   5.23320007         4.30412038E-05
   5.24520016         4.34997673E-05
   5.25719976         4.38959141E-05
   5.26919985         4.42106211E-05
   5.28119993         4.44286088E-05
   5.29320002         4.45386358E-05
   5.30520010         4.45336009E-05
   5.31720018         4.44104444E-05
   5.32919979         4.41698721E-05
   5.34119987         4.38158713E-05
   5.35319996         4.33551031E-05
   5.36520004         4.27961859E-05
   5.37720013         4.21489240E-05
   5.38920021         4.14235656E-05
   5.40119982         4.06301369E-05
   5.41319990         3.97778749E-05
   5.42519999         3.88748413E-05
   5.43720007         3.79277444E-05
   5.44920015         3.69419358E-05
   5.46120024         3.59216065E-05
   5.47319984         3.48701542E-05
   5.48519993         3.37906822E-05
   5.49720001         3.26865556E-05
   5.50920010         3.15619982E-05
   5.52120018         3.04226178E-05
   5.53319979         2.92758650E-05
   5.54519987         2.81313023E-05
   5.55719995         2.70007131E-05
   5.56920004         2.58979890E-05
   5.58120012         2.48387987E-05
   5.59320021         2.38400589E-05
   5.60519981         2.29192447E-05
   5.61719990         2.20935417E-05
   5.62919998         2.13789826E-05
   5.64120007         2.07895228E-05
   5.65320015         2.03362215E-05
   5.66520023         2.00265185E-05
   5.67719984         1.98637008E-05
   5.68919992         1.98465750E-05
   5.70120001         1.99694077E-05
   5.71320009         2.02220926E-05
   5.72520018         2.05905908E-05
   5.73719978         2.10575818E-05
   5.74919987         2.16033168E-05
   5.76119995         2.22065901E-05
   5.77320004         2.28458084E-05
   5.78520012         2.35000571E-05
   5.79720020         2.41501220E-05
   5.80919981         2.47793942E-05
   5.82119989         2.53746057E-05
   5.83319998         2.59263797E-05
   5.84520006         2.64295177E-05
   5.85720015         2.68830736E-05
   5.86920023         2.72901780E-05
   5.88119984         2.76576229E-05
   5.89319992         2.79952674E-05
   5.90520000         2.83152804E-05
   5.91720009         2.86312516E-05
   5.92920017         2.89572272E-05
   5.94119978         2.93067351E-05
   5.95319986         2.96918352E-05
   5.96519995         3.01222371E-05
   5.97720003         3.06045476E-05
   5.98920012         3.11416879E-05
   6.00120020         3.17325212E-05
   6.01319981         3.23716813E-05
   6.02519989         3.30496769E-05
   6.03719997         3.37532256E-05
   6.04920006         3.44658401E-05
   6.06120014         3.51686213E-05
   6.07320023         3.58412399E-05
   6.08519983         3.64630723E-05
   6.09719992         3.70143825E-05
   6.10920000         3.74775445E-05
   6.12120008         3.78381737E-05
   6.13320017         3.80861493E-05
   6.14519978         3.82164180E-05
   6.15719986         3.82295439E-05
   6.16919994         3.81319296E-05
   6.18120003         3.79357152E-05
   6.19320011         3.76583303E-05
   6.20520020         3.73217335E-05
   6.21719980         3.69513618E-05
   6.22919989         3.65748456E-05
   6.24119997         3.62205828E-05
   6.25320005         3.59162368E-05
   6.26520014         3.56872915E-05
   6.27720022         3.55556549E-05
   6.28919983         3.55385200E-05
   6.30119991         3.56474666E-05
   6.31320000         3.58878642E-05
   6.32520008         3.62586507E-05
   6.33720016         3.67524553E-05
   6.34919977         3.73560906E-05
   6.36119986         3.80513011E-05
   6.37319994         3.88158151E-05
   6.38520002         3.96245523E-05
   6.39720011         4.04509519E-05
   6.40920019         4.12683221E-05
   6.42119980         4.20511351E-05
   6.43319988         4.27762388E-05
   6.44519997         4.34238464E-05
   6.45720005         4.39783398E-05
   6.46920013         4.44288162E-05
   6.48120022         4.47693928E-05
   6.49319983         4.49992040E-05
   6.50519991         4.51222440E-05
   6.51719999         4.51469132E-05
   6.52920008         4.50854532E-05
   6.54120016         4.49531908E-05
   6.55319977         4.47677594E-05
   6.56519985         4.45482183E-05
   6.57719994         4.43141944E-05
   6.58920002         4.40850345E-05
   6.60120010         4.38790375E-05
   6.61320019         4.37127383E-05
   6.62519979         4.36003138E-05
   6.63719988         4.35530783E-05
   6.64919996         4.35791153E-05
   6.66120005         4.36830233E-05
   6.67320013         4.38658026E-05
   6.68520021         4.41248521E-05
   6.69719982         4.44541292E-05
   6.70919991         4.48443825E-05
   6.72119999         4.52835666E-05
   6.73320007         4.57573296E-05
   6.74520016         4.62496173E-05
   6.75719976         4.67433674E-05
   6.76919985         4.72212851E-05
   6.78119993         4.76666391E-05
   6.79320002         4.80641102E-05
   6.80520010         4.84006014E-05
   6.81720018         4.86659847E-05
   6.82919979         4.88537517E-05
   6.84119987         4.89615268E-05
   6.85319996         4.89913837E-05
   6.86520004         4.89499616E-05
   6.87720013         4.88483092E-05
   6.88920021         4.87015568E-05
   6.90119982         4.85282981E-05
   6.91319990         4.83497934E-05
   6.92519999         4.81890020E-05
   6.93720007         4.80694616E-05
   6.94920015         4.80141462E-05
   6.96120024         4.80442941E-05
   6.97319984         4.81782990E-05
   6.98519993         4.84307420E-05
   6.99720001         4.88115584E-05
   7.00920010         4.93254811E-05
   7.02120018         4.99717062E-05
   7.03319979         5.07438090E-05
   7.04519987         5.16299478E-05
   7.05719995         5.26132826E-05
   7.06920004         5.36726147E-05
   7.08120012         5.47832096E-05
   7.09320021         5.59176697E-05
   7.10519981         5.70469383E-05
   7.11719990         5.81412678E-05
   7.12919998         5.91711832E-05
   7.14120007         6.01083520E-05
   7.15320015         6.09263625E-05
   7.16520023         6.16014004E-05
   7.17719984         6.21127328E-05
   7.18919992         6.24431268E-05
   7.20120001         6.25791363E-05
   7.21320009         6.25112152E-05
   7.22520018         6.22338048E-05
   7.23719978         6.17453552E-05
   7.24919987         6.10482457E-05
   7.26119995         6.01487700E-05
   7.27320004         5.90570016E-05
   7.28520012         5.77867613E-05
   7.29720020         5.63555222E-05
   7.30919981         5.47843338E-05
   7.32119989         5.30977413E-05
   7.33319998         5.13236591E-05
   7.34520006         4.94932174E-05
   7.35720015         4.76405039E-05
   7.36920023         4.58022441E-05
   7.38119984         4.40173317E-05
   7.39319992         4.23262500E-05
   7.40520000         4.07703265E-05
   7.41720009         3.93908522E-05
   7.42920017         3.82280487E-05
   7.44119978         3.73199291E-05
   7.45319986         3.67010725E-05
   7.46519995         3.64013758E-05
   7.47720003         3.64447951E-05
   7.48920012         3.68481815E-05
   7.50120020         3.76202588E-05
   7.51319981         3.87608234E-05
   7.52519989         4.02601181E-05
   7.53719997         4.20986398E-05
   7.54920006         4.42471392E-05
   7.56120014         4.66670754E-05
   7.57320023         4.93113621E-05
   7.58519983         5.21254660E-05
   7.59719992         5.50488039E-05
   7.60920000         5.80163905E-05
   7.62120008         6.09606577E-05
   7.63320017         6.38134370E-05
   7.64519978         6.65079133E-05
   7.65719986         6.89806766E-05
   7.66919994         7.11735192E-05
   7.68120003         7.30351749E-05
   7.69320011         7.45228099E-05
   7.70520020         7.56031877E-05
   7.71719980         7.62535565E-05
   7.72919989         7.64622309E-05
   7.74119997         7.62287600E-05
   7.75320005         7.55638539E-05
   7.76520014         7.44888894E-05
   7.77720022         7.30351821E-05
   7.78919983         7.12430119E-05
   7.80119991         6.91603855E-05
   7.81320000         6.68416906E-05
   7.82520008         6.43461681E-05
   7.83720016         6.17363694E-05
   7.84919977         5.90765376E-05
   7.86119986         5.64310285E-05
   7.87319994         5.38627610E-05
   7.88520002         5.14317326E-05
   7.89720011         4.91936771E-05
   7.90920019         4.71987660E-05
   7.92119980         4.54904803E-05
   7.93319988         4.41046250E-05
   7.94519997         4.30684595E-05
   7.95720005         4.24000500E-05
   7.96920013         4.21077602E-05
   7.98120022         4.21900004E-05
   7.99319983         4.26351580E-05
   8.00520039         4.34218564E-05
   8.01720047         4.45194091E-05
   8.02919960         4.58886316E-05
   8.04119968         4.74829103E-05
   8.05319977         4.92495747E-05
   8.06519985         5.11315193E-05
   8.07719994         5.30690741E-05
   8.08920002         5.50020013E-05
   8.10120010         5.68716096E-05
   8.11320019         5.86228416E-05
   8.12520027         6.02062901E-05
   8.13720036         6.15799800E-05
   8.14920044         6.27109039E-05
   8.16119957         6.35761462E-05
   8.17319965         6.41635852E-05
   8.18519974         6.44721586E-05
   8.19719982         6.45115651E-05
   8.20919991         6.43015737E-05
   8.22119999         6.38708589E-05
   8.23320007         6.32555166E-05
   8.24520016         6.24972599E-05
   8.25720024         6.16414618E-05
   8.26920033         6.07351321E-05
   8.28120041         5.98249280E-05
   8.29319954         5.89552656E-05
   8.30519962         5.81666754E-05
   8.31719971         5.74944170E-05
   8.32919979         5.69674012E-05
   8.34119987         5.66074523E-05
   8.35319996         5.64289003E-05
   8.36520004         5.64384682E-05
   8.37720013         5.66354538E-05
   8.38920021         5.70121520E-05
   8.40120029         5.75544400E-05
   8.41320038         5.82425491E-05
   8.42520046         5.90519230E-05
   8.43719959         5.99541709E-05
   8.44919968         6.09180643E-05
   8.46119976         6.19105704E-05
   8.47319984         6.28978960E-05
   8.48519993         6.38465281E-05
   8.49720001         6.47242705E-05
   8.50920010         6.55012482E-05
   8.52120018         6.61508820E-05
   8.53320026         6.66507840E-05
   8.54520035         6.69835063E-05
   8.55720043         6.71373200E-05
   8.56919956         6.71066155E-05
   8.58119965         6.68923312E-05
   8.59319973         6.65019907E-05
   8.60519981         6.59495927E-05
   8.61719990         6.52552553E-05
   8.62919998         6.44445536E-05
   8.64120007         6.35476608E-05
   8.65320015         6.25982939E-05
   8.66520023         6.16324978E-05
   8.67720032         6.06873145E-05
   8.68920040         5.97993567E-05
   8.70119953         5.90034651E-05
   8.71319962         5.83313667E-05
   8.72519970         5.78105028E-05
   8.73719978         5.74630067E-05
   8.74919987         5.73049292E-05
   8.76119995         5.73457146E-05
   8.77320004         5.75879494E-05
   8.78520012         5.80274063E-05
   8.79720020         5.86533533E-05
   8.80920029         5.94491321E-05
   8.82120037         6.03929366E-05
   8.83320045         6.14587698E-05
   8.84519958         6.26175606E-05
   8.85719967         6.38382917E-05
   8.86919975         6.50892762E-05
   8.88119984         6.63392202E-05
   8.89319992         6.75584233E-05
   8.90520000         6.87196589E-05
   8.91720009         6.97990690E-05
   8.92920017         7.07767540E-05
   8.94120026         7.16372233E-05
   8.95320034         7.23695775E-05
   8.96520042         7.29675157E-05
   8.97719955         7.34291243E-05
   8.98919964         7.37564260E-05
   9.00119972         7.39548996E-05
   9.01319981         7.40327087E-05
   9.02519989         7.39999887E-05
   9.03719997         7.38680537E-05
   9.04920006         7.36486109E-05
   9.06120014         7.33530542E-05
   9.07320023         7.29918756E-05
   9.08520031         7.25741702E-05