 -0.622799993         1.00000002E-24
 -0.610800028         1.00000002E-24
 -0.598800004         1.00000002E-24
 -0.586799979         1.00000002E-24
 -0.574800014         1.00000012E-24
 -0.562799990         1.00000022E-24
 -0.550800025         1.00000022E-24
 -0.538800001         1.00000022E-24
 -0.526799977         1.00000022E-24
 -0.514800012         1.00000012E-24
 -0.502799988         9.99998935E-25
 -0.490799993         9.99991243E-25
 -0.478799999         9.99954463E-25
 -0.466800004         9.99835838E-25
 -0.454800010         9.99593953E-25
 -0.442799985         9.99445648E-25
 -0.430799991         1.00047807E-24
 -0.418799996         1.00532414E-24
 -0.406800002         1.01726986E-24
 -0.394800007         1.03439278E-24
 -0.382800013         1.03588096E-24
 -0.370799989         9.65919552E-25
 -0.358799994         7.40589865E-25
 -0.346799999         3.27726963E-25
 -0.334800005        -5.25733700E-26
 -0.322800010         3.57377631E-25
 -0.310799986         2.98059438E-24
 -0.298799992         9.35571284E-24
 -0.286799997         1.92815859E-23
 -0.274800003         2.75218739E-23
 -0.262800008         2.04407886E-23
 -0.250800014        -2.36664409E-23
 -0.238800004        -1.24797215E-22
 -0.226799995        -2.77389647E-22
 -0.214800000        -4.15222327E-22
 -0.202800006        -3.82911215E-22
 -0.190799996         5.00099223E-23
 -0.178800002         1.08794425E-21
 -0.166800007         2.69696625E-21
 -0.154799998         4.32295938E-21
 -0.142800003         4.68851908E-21
 -0.130799994         1.92311596E-21
 -0.118799999        -5.69877844E-21
 -0.106799997        -1.83068689E-20
  -9.48000029E-02    -3.25889483E-20
  -8.28000009E-02    -4.04749232E-20
  -7.07999989E-02    -2.98068653E-20
  -5.88000007E-02     1.15409556E-20
  -4.67999987E-02     8.76160238E-20
  -3.48000005E-02     1.84122016E-19
  -2.28000004E-02     2.60583322E-19
  -1.08000003E-02     2.52010758E-19
   1.20000006E-03     8.70730509E-20
   1.31999999E-02    -2.74684580E-19
   2.52000000E-02    -7.93520410E-19
   3.72000001E-02    -1.30755790E-18
   4.91999984E-02    -1.52808745E-18
   6.12000003E-02    -1.10258740E-18
   7.32000023E-02     2.40326703E-19
   8.51999968E-02     2.48526250E-18
   9.71999988E-02     5.13260855E-18
  0.109200001         7.11988764E-18
  0.121200003         6.98201566E-18
  0.133200005         3.32296919E-18
  0.145199999        -4.44316633E-18
  0.157199994        -1.52856459E-17
  0.169200003        -2.60434524E-17
  0.181199998        -3.16286669E-17
  0.193200007        -2.62659209E-17
  0.205200002        -5.77030483E-18
  0.217199996         2.96220723E-17
  0.229200006         7.28740760E-17
  0.241200000         1.09540293E-16
  0.253199995         1.20129799E-16
  0.265199989         8.59090395E-17
  0.277200013        -2.67271672E-18
  0.289200008        -1.37289363E-16
  0.301200002        -2.86353623E-16
  0.313199997        -3.96762541E-16
  0.325199991        -4.05322418E-16
  0.337199986        -2.59513346E-16
  0.349200010         5.67238443E-17
  0.361200005         5.00359144E-16
  0.373199999         9.60116822E-16
  0.385199994         1.26995946E-15
  0.397199988         1.24917126E-15
  0.409200013         7.64239553E-16
  0.421200007        -2.02450205E-16
  0.433200002        -1.50029197E-15
  0.445199996        -2.80006667E-15
  0.457199991        -3.64467689E-15
  0.469199985        -3.56450014E-15
  0.481200010        -2.23854143E-15
  0.493200004         3.40375214E-16
  0.505200028         3.75344482E-15
  0.517199993         7.15371162E-15
  0.529200017         9.41039205E-15
  0.541199982         9.39658880E-15
  0.553200006         6.36672315E-15
  0.565199971         3.22906350E-16
  0.577199996        -7.75655768E-15
  0.589200020        -1.59435047E-14
  0.601199985        -2.17054412E-14
  0.613200009        -2.25456047E-14
  0.625199974        -1.68079899E-14
  0.637199998        -4.42844283E-15
  0.649200022         1.26264338E-14
  0.661199987         3.04539888E-14
  0.673200011         4.39455940E-14
  0.685199976         4.80710341E-14
  0.697200000         3.94366614E-14
  0.709200025         1.76834882E-14
  0.721199989        -1.37532630E-14
  0.733200014        -4.78982800E-14
  0.745199978        -7.56300201E-14
  0.757200003        -8.79979683E-14
  0.769200027        -7.89074142E-14
  0.781199992        -4.73940650E-14
  0.793200016         1.29545071E-15
  0.805199981         5.63482366E-14
  0.817200005         1.03813151E-13
  0.829200029         1.30299675E-13
  0.841199994         1.26945316E-13
  0.853200018         9.24225770E-14
  0.865199983         3.39137626E-14
  0.877200007        -3.44728823E-14
  0.889199972        -9.55719201E-14
  0.901199996        -1.34232550E-13
  0.913200021        -1.41983078E-13
  0.925199986        -1.19657810E-13
  0.937200010        -7.69226872E-14
  0.949199975        -2.86581367E-14
  0.961199999         1.06822518E-14
  0.973200023         3.27390228E-14
  0.985199988         3.87138746E-14
  0.997200012         3.90116745E-14
   1.00919998         4.87474881E-14
   1.02119994         8.04290513E-14
   1.03320003         1.36462713E-13
   1.04519999         2.04622018E-13
   1.05719995         2.58941821E-13
   1.06920004         2.66745339E-13
   1.08120000         2.00199544E-13
   1.09319997         4.87410236E-14
   1.10520005        -1.72242036E-13
   1.11720002        -4.20416143E-13
   1.12919998        -6.34861955E-13
   1.14119995        -7.52219034E-13
   1.15320003        -7.25958627E-13
   1.16520000        -5.42393008E-13
   1.17719996        -2.27475428E-13
   1.18920004         1.58811386E-13
   1.20120001         5.39423541E-13
   1.21319997         8.43197094E-13
   1.22520006         1.02564908E-12
   1.23720002         1.07963866E-12
   1.24919999         1.03115140E-12
   1.26119995         9.20985618E-13
   1.27320004         7.79017042E-13
   1.28520000         6.01723857E-13
   1.29719996         3.43937444E-13
   1.30920005        -6.82871660E-14
   1.32120001        -7.04266886E-13
   1.33319998        -1.58384471E-12
   1.34519994        -2.63665630E-12
   1.35720003        -3.68278628E-12
   1.36919999        -4.44774252E-12
   1.38119996        -4.61503925E-12
   1.39320004        -3.90741909E-12
   1.40520000        -2.17684724E-12
   1.41719997         5.22358198E-13
   1.42920005         3.90103748E-12
   1.44120002         7.45767857E-12
   1.45319998         1.05556614E-11
   1.46519995         1.25397514E-11
   1.47720003         1.28650554E-11
   1.48920000         1.12080996E-11
   1.50119996         7.53494923E-12
   1.51320004         2.11375904E-12
   1.52520001        -4.52537053E-12
   1.53719997        -1.16668593E-11
   1.54920006        -1.84990582E-11
   1.56120002        -2.41947955E-11
   1.57319999        -2.79705929E-11
   1.58519995        -2.91255388E-11
   1.59720004        -2.70732534E-11
   1.60920000        -2.13866754E-11
   1.62119997        -1.18724874E-11
   1.63320005         1.32013758E-12
   1.64520001         1.75702196E-11
   1.65719998         3.56678333E-11
   1.66919994         5.37551288E-11
   1.68120003         6.93737984E-11
   1.69319999         7.96553934E-11
   1.70519996         8.16661044E-11
   1.71720004         7.28833036E-11
   1.72920001         5.17448445E-11
   1.74119997         1.81812950E-11
   1.75320005        -2.59762385E-11
   1.76520002        -7.68183364E-11
   1.77719998        -1.28492772E-10
   1.78919995        -1.73693671E-10
   1.80120003        -2.04488287E-10
   1.81320000        -2.13402976E-10
   1.82519996        -1.94632269E-10
   1.83720005        -1.45192997E-10
   1.84920001        -6.58274477E-11
   1.86119998         3.85289925E-11
   1.87320006         1.58859606E-10
   1.88520002         2.82833451E-10
   1.89719999         3.96220334E-10
   1.90919995         4.84853879E-10
   1.92120004         5.36956479E-10
   1.93320000         5.45566703E-10
   1.94519997         5.10758769E-10
   1.95720005         4.41320203E-10
   1.96920002         3.55563884E-10
   1.98119998         2.80987872E-10
   1.99319994         2.52577542E-10
   2.00519991         3.09654052E-10
   2.01719999         4.91320373E-10
   2.02920008         8.30730151E-10
   2.04119992         1.34858691E-09
   2.05320001         2.04645545E-09
   2.06520009         2.90060131E-09
   2.07719994         3.85712795E-09
   2.08920002         4.82914464E-09
   2.10120010         5.69650593E-09
   2.11319995         6.30835739E-09
   2.12520003         6.48825305E-09
   2.13720012         6.04104500E-09
   2.14919996         4.76013007E-09
   2.16120005         2.43297982E-09
   2.17319989        -1.15763510E-09
   2.18519998        -6.23977270E-09
   2.19720006        -1.30690099E-08
   2.20919991        -2.19588383E-08
   2.22119999        -3.33275025E-08
   2.23320007        -4.77632618E-08
   2.24519992        -6.61088464E-08
   2.25720000        -8.95646437E-08
   2.26920009        -1.19808249E-07
   2.28119993        -1.59126330E-07
   2.29320002        -2.10552869E-07
   2.30520010        -2.78005899E-07
   2.31719995        -3.66413644E-07
   2.32920003        -4.81819200E-07
   2.34120011        -6.31453759E-07
   2.35319996        -8.23766129E-07
   2.36520004        -1.06839957E-06
   2.37719989        -1.37610698E-06
   2.38919997        -1.75859691E-06
   2.40120006        -2.22830818E-06
   2.41319990        -2.79811115E-06
   2.42519999        -3.48094022E-06
   2.43720007        -4.28936482E-06
   2.44919991        -5.23510516E-06
   2.46120000        -6.32851652E-06
   2.47320008        -7.57805037E-06
   2.48519993        -8.98972121E-06
   2.49720001        -1.05665895E-05
   2.50920010        -1.23083055E-05
   2.52119994        -1.42107046E-05
   2.53320003        -1.62655033E-05
   2.54520011        -1.84601031E-05
   2.55719995        -2.07775211E-05
   2.56920004        -2.31964495E-05
   2.58119988        -2.56914736E-05
   2.59319997        -2.82334186E-05
   2.60520005        -3.07898663E-05
   2.61719990        -3.33257776E-05
   2.62919998        -3.58042598E-05
   2.64120007        -3.81874197E-05
   2.65319991        -4.04373059E-05
   2.66520000        -4.25168982E-05
   2.67720008        -4.43911158E-05
   2.68919992        -4.60278170E-05
   2.70120001        -4.73987129E-05
   2.71320009        -4.84802695E-05
   2.72519994        -4.92544059E-05
   2.73720002        -4.97091169E-05
   2.74920011        -4.98388836E-05
   2.76119995        -4.96448883E-05
   2.77320004        -4.91350547E-05
   2.78520012        -4.83238400E-05
   2.79719996        -4.72318425E-05
   2.80920005        -4.58851646E-05
   2.82119989        -4.43146637E-05
   2.83319998        -4.25549770E-05
   2.84520006        -4.06434665E-05
   2.85719991        -3.86190695E-05
   2.86919999        -3.65211054E-05
   2.88120008        -3.43880856E-05
   2.89319992        -3.22566048E-05
   2.90520000        -3.01603213E-05
   2.91720009        -2.81290449E-05
   2.92919993        -2.61880632E-05
   2.94120002        -2.43576269E-05
   2.95320010        -2.26526772E-05
   2.96519995        -2.10827802E-05
   2.97720003        -1.96523142E-05
   2.98920012        -1.83608317E-05
   3.00119996        -1.72036289E-05
   3.01320004        -1.61724493E-05
   3.02519989        -1.52562889E-05
   3.03719997        -1.44422729E-05
   3.04920006        -1.37165380E-05
   3.06119990        -1.30650769E-05
   3.07319999        -1.24745138E-05
   3.08520007        -1.19327569E-05
   3.09719992        -1.14295035E-05
   3.10920000        -1.09565917E-05
   3.12120008        -1.05081581E-05
   3.13319993        -1.00806365E-05
   3.14520001        -9.67258347E-06
   3.15720010        -9.28437294E-06
   3.16919994        -8.91777017E-06
   3.18120003        -8.57543910E-06
   3.19320011        -8.26040741E-06
   3.20519996        -7.97554003E-06
   3.21720004        -7.72304793E-06
   3.22919989        -7.50408299E-06
   3.24119997        -7.31841965E-06
   3.25320005        -7.16426666E-06
   3.26519990        -7.03820615E-06
   3.27719998        -6.93526499E-06
   3.28920007        -6.84910492E-06
   3.30119991        -6.77232401E-06
   3.31320000        -6.69683186E-06
   3.32520008        -6.61428976E-06
   3.33719993        -6.51656501E-06
   3.34920001        -6.39618838E-06
   3.36120009        -6.24677023E-06
   3.37319994        -6.06335561E-06
   3.38520002        -5.84269901E-06
   3.39720011        -5.58343163E-06
   3.40919995        -5.28612600E-06
   3.42120004        -4.95323911E-06
   3.43319988        -4.58895602E-06
   3.44519997        -4.19893104E-06
   3.45720005        -3.78995378E-06
   3.46919990        -3.36955645E-06
   3.48119998        -2.94559482E-06
   3.49320006        -2.52582140E-06
   3.50519991        -2.11748875E-06
   3.51719999        -1.72699799E-06
   3.52920008        -1.35962239E-06
   3.54119992        -1.01932017E-06
   3.55320001        -7.08649907E-07
   3.56520009        -4.28790656E-07
   3.57719994        -1.79670238E-07
   3.58920002         3.98089277E-08
   3.60120010         2.31459808E-07
   3.61319995         3.97437276E-07
   3.62520003         5.39822963E-07
   3.63720012         6.60200726E-07
   3.64919996         7.59255784E-07
   3.66120005         8.36429422E-07
   3.67319989         8.89660498E-07
   3.68519998         9.15234864E-07
   3.69720006         9.07766548E-07
   3.70919991         8.60320256E-07
   3.72119999         7.64677964E-07
   3.73320007         6.11742678E-07
   3.74519992         3.92059746E-07
   3.75720000         9.64363664E-08
   3.76920009        -2.83377204E-07
   3.78119993        -7.53984125E-07
   3.79320002        -1.31965794E-06
   3.80520010        -1.98171938E-06
   3.81719995        -2.73801993E-06
   3.82920003        -3.58256261E-06
   3.84120011        -4.50530069E-06
   3.85319996        -5.49211654E-06
   3.86520004        -6.52500330E-06
   3.87719989        -7.58244232E-06
   3.88919997        -8.63994865E-06
   3.90120006        -9.67078267E-06
   3.91319990        -1.06467696E-05
   3.92519999        -1.15392040E-05
   3.93720007        -1.23197897E-05
   3.94919991        -1.29615628E-05
   3.96120000        -1.34397797E-05
   3.97320008        -1.37326915E-05
   3.98519993        -1.38222194E-05
   3.99720001        -1.36944709E-05
   4.00920010        -1.33401018E-05
   4.02120018        -1.27545181E-05
   4.03319979        -1.19379110E-05
   4.04519987        -1.08951535E-05
   4.05719995        -9.63557522E-06
   4.06920004        -8.17262207E-06
   4.08120012        -6.52345625E-06
   4.09320021        -4.70848545E-06
   4.10519981        -2.75087109E-06
   4.11719990        -6.76014281E-07
   4.12919998         1.48895515E-06
   4.14120007         3.71568922E-06
   4.15320015         5.97512053E-06
   4.16520023         8.23795381E-06
   4.17719984         1.04751362E-05
   4.18919992         1.26583354E-05
   4.20120001         1.47604060E-05
   4.21320009         1.67558519E-05
   4.22520018         1.86212856E-05
   4.23719978         2.03358832E-05
   4.24919987         2.18818259E-05
   4.26119995         2.32446964E-05
   4.27320004         2.44138500E-05
   4.28520012         2.53827020E-05
   4.29720020         2.61489349E-05
   4.30919981         2.67146115E-05
   4.32119989         2.70861401E-05
   4.33319998         2.72741272E-05
   4.34520006         2.72930683E-05
   4.35720015         2.71609151E-05
   4.36920023         2.68985077E-05
   4.38119984         2.65289000E-05
   4.39319992         2.60765919E-05
   4.40520000         2.55667055E-05
   4.41720009         2.50241519E-05
   4.42920017         2.44728017E-05
   4.44119978         2.39346991E-05
   4.45319986         2.34293911E-05
   4.46519995         2.29733378E-05
   4.47720003         2.25794829E-05
   4.48920012         2.22569561E-05
   4.50120020         2.20109287E-05
   4.51319981         2.18425976E-05
   4.52519989         2.17493034E-05
   4.53719997         2.17247198E-05
   4.54920006         2.17591169E-05
   4.56120014         2.18396399E-05
   4.57320023         2.19505728E-05
   4.58519983         2.20735892E-05
   4.59719992         2.21879236E-05
   4.60920000         2.22704966E-05
   4.62120008         2.22959661E-05
   4.63320017         2.22367544E-05
   4.64519978         2.20630336E-05
   4.65719986         2.17427369E-05
   4.66919994         2.12416289E-05
   4.68120003         2.05234737E-05
   4.69320011         1.95503580E-05
   4.70520020         1.82831991E-05
   4.71719980         1.66824684E-05
   4.72919989         1.47091359E-05
   4.74119997         1.23258551E-05
   4.75320005         9.49833429E-06
   4.76520014         6.19687489E-06
   4.77720022         2.39799215E-06
   4.78919983        -1.91392860E-06
   4.80119991        -6.74506509E-06
   4.81320000        -1.20907462E-05
   4.82520008        -1.79343115E-05
   4.83720016        -2.42463211E-05
   4.84919977        -3.09841853E-05
   4.86119986        -3.80922793E-05
   4.87319994        -4.55025802E-05
   4.88520002        -5.31358201E-05
   4.89720011        -6.09031267E-05
   4.90920019        -6.87081556E-05
   4.92119980        -7.64495053E-05
   4.93319988        -8.40235516E-05
   4.94519997        -9.13272961E-05
   4.95720005        -9.82613710E-05
   4.96920013        -1.04732877E-04
   4.98120022        -1.10658089E-04
   4.99319983        -1.15964824E-04
   5.00519991        -1.20594334E-04
   5.01719999        -1.24502883E-04
   5.02920008        -1.27662643E-04
   5.04120016        -1.30062137E-04
   5.05319977        -1.31706111E-04
   5.06519985        -1.32614878E-04
   5.07719994        -1.32823261E-04
   5.08920002        -1.32379049E-04
   5.10120010        -1.31341207E-04
   5.11320019        -1.29777720E-04
   5.12519979        -1.27763473E-04
   5.13719988        -1.25377905E-04
   5.14919996        -1.22702651E-04
   5.16120005        -1.19819451E-04
   5.17320013        -1.16807932E-04
   5.18520021        -1.13743779E-04
   5.19719982        -1.10697067E-04
   5.20919991        -1.07730833E-04
   5.22119999        -1.04899955E-04
   5.23320007        -1.02250291E-04
   5.24520016        -9.98181422E-05
   5.25719976        -9.76299416E-05
   5.26919985        -9.57023294E-05
   5.28119993        -9.40423997E-05
   5.29320002        -9.26482026E-05
   5.30520010        -9.15095152E-05
   5.31720018        -9.06087225E-05
   5.32919979        -8.99219085E-05
   5.34119987        -8.94200130E-05
   5.35319996        -8.90700176E-05
   5.36520004        -8.88362192E-05
   5.37720013        -8.86813723E-05
   5.38920021        -8.85678819E-05
   5.40119982        -8.84587425E-05
   5.41319990        -8.83185567E-05
   5.42519999        -8.81141750E-05
   5.43720007        -8.78153733E-05
   5.44920015        -8.73952449E-05
   5.46120024        -8.68305578E-05
   5.47319984        -8.61018489E-05
   5.48519993        -8.51935547E-05
   5.49720001        -8.40939610E-05
   5.50920010        -8.27951299E-05
   5.52120018        -8.12928120E-05
   5.53319979        -7.95863452E-05
   5.54519987        -7.76785528E-05
   5.55719995        -7.55756701E-05
   5.56920004        -7.32873596E-05
   5.58120012        -7.08265870E-05
   5.59320021        -6.82096943E-05
   5.60519981        -6.54562900E-05
   5.61719990        -6.25892135E-05
   5.62919998        -5.96343161E-05
   5.64120007        -5.66202652E-05
   5.65320015        -5.35781328E-05
   5.66520023        -5.05409116E-05
   5.67719984        -4.75428751E-05
   5.68919992        -4.46188205E-05
   5.70120001        -4.18031996E-05
   5.71320009        -3.91291869E-05
   5.72520018        -3.66276799E-05
   5.73719978        -3.43263055E-05
   5.74919987        -3.22484702E-05
   5.76119995        -3.04124806E-05
   5.77320004        -2.88308074E-05
   5.78520012        -2.75095226E-05
   5.79720020        -2.64479440E-05
   5.80919981        -2.56385429E-05
   5.82119989        -2.50670946E-05
   5.83319998        -2.47131029E-05
   5.84520006        -2.45504925E-05
   5.85720015        -2.45485226E-05
   5.86920023        -2.46728996E-05
   5.88119984        -2.48870529E-05
   5.89319992        -2.51534730E-05
   5.90520000        -2.54351162E-05
   5.91720009        -2.56967451E-05
   5.92920017        -2.59062090E-05
   5.94119978        -2.60355409E-05
   5.95319986        -2.60618690E-05
   5.96519995        -2.59680946E-05
   5.97720003        -2.57432694E-05
   5.98920012        -2.53827202E-05
   6.00120020        -2.48878659E-05
   6.01319981        -2.42657607E-05
   6.02519989        -2.35284060E-05
   6.03719997        -2.26918419E-05
   6.04920006        -2.17750930E-05
   6.06120014        -2.07990088E-05
   6.07320023        -1.97850695E-05
   6.08519983        -1.87542119E-05
   6.09719992        -1.77257461E-05
   6.10920000        -1.67164071E-05
   6.12120008        -1.57396080E-05
   6.13320017        -1.48049257E-05
   6.14519978        -1.39178410E-05
   6.15719986        -1.30797644E-05
   6.16919994        -1.22883293E-05
   6.18120003        -1.15379517E-05
   6.19320011        -1.08205959E-05
   6.20520020        -1.01267287E-05
   6.21719980        -9.44637759E-06
   6.22919989        -8.77024104E-06
   6.24119997        -8.09076573E-06
   6.25320005        -7.40313408E-06
   6.26520014        -6.70608006E-06
   6.27720022        -6.00247222E-06
   6.28919983        -5.29962790E-06
   6.30119991        -4.60931278E-06
   6.31320000        -3.94741164E-06
   6.32520008        -3.33328148E-06
   6.33720016        -2.78881453E-06
   6.34919977        -2.33725473E-06
   6.36119986        -2.00183445E-06
   6.37319994        -1.80431516E-06
   6.38520002        -1.76351455E-06
   6.39720011        -1.89391471E-06
   6.40920019        -2.20443940E-06
   6.42119980        -2.69747670E-06
   6.43319988        -3.36821813E-06
   6.44519997        -4.20435344E-06
   6.45720005        -5.18616116E-06
   6.46920013        -6.28698945E-06
   6.48120022        -7.47410877E-06
   6.49319983        -8.70990425E-06
   6.50519991        -9.95333448E-06
   6.51719999        -1.11615936E-05
   6.52920008        -1.22918682E-05
   6.54120016        -1.33031199E-05
   6.55319977        -1.41577866E-05
   6.56519985        -1.48233221E-05
   6.57719994        -1.52735156E-05
   6.58920002        -1.54895042E-05
   6.60120010        -1.54604841E-05
   6.61320019        -1.51840550E-05
   6.62519979        -1.46662160E-05
   6.63719988        -1.39210306E-05
   6.64919996        -1.29699656E-05
   6.66120005        -1.18409598E-05
   6.67320013        -1.05672616E-05
   6.68520021        -9.18610021E-06
   6.69719982        -7.73725151E-06
   6.70919991        -6.26154906E-06
   6.72119999        -4.79942446E-06
   6.73320007        -3.38951872E-06
   6.74520016        -2.06741402E-06
   6.75719976        -8.64541846E-07
   6.76919985         1.92715973E-07
   6.78119993         1.08369693E-06
   6.79320002         1.79389099E-06
   6.80520010         2.31512945E-06
   6.81720018         2.64552705E-06
   6.82919979         2.78919447E-06
   6.84119987         2.75573166E-06
   6.85319996         2.55953682E-06
   6.86520004         2.21895425E-06
   6.87720013         1.75530761E-06
   6.88920021         1.19186188E-06
   6.90119982         5.52760639E-07
   6.91319990        -1.38013505E-07
   6.92519999        -8.57605528E-07
   6.93720007        -1.58514047E-06
   6.94920015        -2.30242563E-06
   6.96120024        -2.99447083E-06
   6.97319984        -3.64980974E-06
   6.98519993        -4.26061388E-06
   6.99720001        -4.82259657E-06
   7.00920010        -5.33473485E-06
   7.02120018        -5.79881907E-06
   7.03319979        -6.21887148E-06
   7.04519987        -6.60047453E-06
   7.05719995        -6.95004792E-06
   7.06920004        -7.27411907E-06
   7.08120012        -7.57863472E-06
   7.09320021        -7.86834607E-06
   7.10519981        -8.14630857E-06
   7.11719990        -8.41350811E-06
   7.12919998        -8.66865503E-06
   7.14120007        -8.90814317E-06
   7.15320015        -9.12617270E-06
   7.16520023        -9.31503200E-06
   7.17719984        -9.46553155E-06
   7.18919992        -9.56754593E-06
   7.20120001        -9.61064688E-06
   7.21320009        -9.58478722E-06
   7.22520018        -9.48099478E-06
   7.23719978        -9.29204271E-06
   7.24919987        -9.01306248E-06
   7.26119995        -8.64206049E-06
   7.27320004        -8.18032095E-06
   7.28520012        -7.63265507E-06
   7.29720020        -7.00750752E-06
   7.30919981        -6.31687817E-06
   7.32119989        -5.57609292E-06
   7.33319998        -4.80339668E-06
   7.34520006        -4.01940451E-06
   7.35720015        -3.24641974E-06
   7.36920023        -2.50765493E-06
   7.38119984        -1.82638337E-06
   7.39319992        -1.22506253E-06
   7.40520000        -7.24464996E-07
   7.41720009        -3.42860176E-07
   7.42920017        -9.52815284E-08
   7.44119978         7.08367631E-09
   7.45319986        -4.26434781E-08
   7.46519995        -2.46742900E-07
   7.47720003        -6.02789783E-07
   7.48920012        -1.10373128E-06
   7.50120020        -1.73814351E-06
   7.51319981        -2.49064715E-06
   7.52519989        -3.34245669E-06
   7.53719997        -4.27202986E-06
   7.54920006        -5.25578798E-06
   7.56120014        -6.26886458E-06
   7.57320023        -7.28585428E-06
   7.58519983        -8.28153043E-06
   7.59719992        -9.23150947E-06
   7.60920000        -1.01128408E-05
   7.62120008        -1.09045104E-05
   7.63320017        -1.15878547E-05
   7.64519978        -1.21468829E-05
   7.65719986        -1.25685083E-05
   7.66919994        -1.28427091E-05
   7.68120003        -1.29626133E-05
   7.69320011        -1.29245454E-05
   7.70520020        -1.27280227E-05
   7.71719980        -1.23757318E-05
   7.72919989        -1.18734679E-05
   7.74119997        -1.12300659E-05
   7.75320005        -1.04572882E-05
   7.76520014        -9.56968142E-06
   7.77720022        -8.58437943E-06
   7.78919983        -7.52084543E-06
   7.80119991        -6.40054532E-06
   7.81320000        -5.24653797E-06
   7.82520008        -4.08298956E-06
   7.83720016        -2.93460926E-06
   7.84919977        -1.82603003E-06
   7.86119986        -7.81141011E-07
   7.87319994         1.77593989E-07
   7.88520002         1.02980619E-06
   7.89720011         1.75784373E-06
   7.90920019         2.34731647E-06
   7.92119980         2.78752759E-06
   7.93319988         3.07177243E-06
   7.94519997         3.19748233E-06
   7.95720005         3.16620412E-06
   7.96920013         2.98342025E-06
   7.98120022         2.65821200E-06
   7.99319983         2.20279344E-06
   8.00520039         1.63193943E-06
   8.01720047         9.62349645E-07
   8.02919960         2.11985835E-07
   8.04119968        -6.00577778E-07
   8.05319977        -1.45674653E-06
   8.06519985        -2.33840728E-06
   8.07719994        -3.22831738E-06
   8.08920002        -4.11036035E-06
   8.10120010        -4.96967596E-06
   8.11320019        -5.79266498E-06
   8.12520027        -6.56689963E-06
   8.13720036        -7.28096029E-06
   8.14920044        -7.92423998E-06
   8.16119957        -8.48675154E-06
   8.17319965        -8.95897938E-06
   8.18519974        -9.33179763E-06
   8.19719982        -9.59649606E-06
   8.20919991        -9.74490376E-06
   8.22119999        -9.76965021E-06
   8.23320007        -9.66451898E-06
   8.24520016        -9.42489442E-06
   8.25720024        -9.04825993E-06
   8.26920033        -8.53470374E-06
   8.28120041        -7.88738816E-06
   8.29319954        -7.11292932E-06
   8.30519962        -6.22165317E-06
   8.31719971        -5.22767732E-06
   8.32919979        -4.14880060E-06
   8.34119987        -3.00618990E-06
   8.35319996        -1.82385850E-06
   8.36520004        -6.27961754E-07
   8.37720013         5.54076053E-07
   8.38920021         1.69454722E-06
   8.40120029         2.76651804E-06
   8.41320038         3.74490219E-06
   8.42520046         4.60748606E-06
   8.43719959         5.33585262E-06
   8.44919968         5.91615117E-06
   8.46119976         6.33966920E-06
   8.47319984         6.60318210E-06
   8.48519993         6.70905865E-06
   8.49720001         6.66512733E-06
   8.50920010         6.48430978E-06
   8.52120018         6.18404601E-06
   8.53320026         5.78554545E-06
   8.54520035         5.31289243E-06
   8.55720043         4.79206346E-06
   8.56919956         4.24988275E-06
   8.58119965         3.71297483E-06
   8.59319973         3.20674530E-06
   8.60519981         2.75443495E-06
   8.61719990         2.37627250E-06
   8.62919998         2.08875076E-06
   8.64120007         1.90404603E-06
   8.65320015         1.82958411E-06
   8.66520023         1.86776685E-06
   8.67720032         2.01585749E-06
   8.68920040         2.26602674E-06
   8.70119953         2.60556112E-06
   8.71319962         3.01723230E-06
   8.72519970         3.47982268E-06
   8.73719978         3.96879977E-06
   8.74919987         4.45713204E-06
   8.76119995         4.91622086E-06
   8.77320004         5.31693149E-06
   8.78520012         5.63068352E-06
   8.79720020         5.83057545E-06
   8.80920029         5.89249566E-06
   8.82120037         5.79618381E-06
   8.83320045         5.52619349E-06
   8.84519958         5.07270624E-06
   8.85719967         4.43216595E-06
   8.86919975         3.60766853E-06
   8.88119984         2.60909746E-06
   8.89319992         1.45296701E-06
   8.90520000         1.61968842E-07
   8.91720009        -1.23576365E-06
   8.92920017        -2.70765372E-06
   8.94120026        -4.21789309E-06
   8.95320034        -5.72880845E-06
   8.96520042        -7.20231674E-06
   8.97719955        -8.60139335E-06
   8.98919964        -9.89147975E-06
   9.00119972        -1.10417650E-05
   9.01319981        -1.20262766E-05
   9.02519989        -1.28247293E-05
   9.03719997        -1.34231041E-05
   9.04920006        -1.38139312E-05
   9.06120014        -1.39962804E-05
   9.07320023        -1.39754711E-05
   9.08520031        -1.37625420E-05