 -0.622799993         1.00000002E-24
 -0.610800028         1.00000002E-24
 -0.598800004         1.00000002E-24
 -0.586799979         1.00000002E-24
 -0.574800014         1.00000002E-24
 -0.562799990         1.00000002E-24
 -0.550800025         1.00000002E-24
 -0.538800001         1.00000002E-24
 -0.526799977         1.00000002E-24
 -0.514800012         1.00000002E-24
 -0.502799988         1.00000012E-24
 -0.490799993         1.00000022E-24
 -0.478799999         1.00000032E-24
 -0.466800004         1.00000041E-24
 -0.454800010         1.00000051E-24
 -0.442799985         1.00000051E-24
 -0.430799991         1.00000071E-24
 -0.418799996         1.00000101E-24
 -0.406800002         1.00000199E-24
 -0.394800007         1.00000387E-24
 -0.382800013         1.00000623E-24
 -0.370799989         1.00000534E-24
 -0.358799994         9.99989271E-25
 -0.346799999         9.99933262E-25
 -0.334800005         9.99800734E-25
 -0.322800010         9.99562300E-25
 -0.310799986         9.99246855E-25
 -0.298799992         9.99030016E-25
 -0.286799997         9.99334221E-25
 -0.274800003         1.00087250E-24
 -0.262800008         1.00453903E-24
 -0.250800014         1.01107316E-24
 -0.238800004         1.02053387E-24
 -0.226799995         1.03173915E-24
 -0.214800000         1.04178894E-24
 -0.202800006         1.04533970E-24
 -0.190799996         1.03244873E-24
 -0.178800002         9.83177857E-25
 -0.166800007         8.58395444E-25
 -0.154799998         5.91552741E-25
 -0.142800003         9.67653949E-26
 -0.130799994        -6.78781775E-25
 -0.118799999        -1.62583168E-24
 -0.106799997        -2.25774101E-24
  -9.48000029E-02    -1.46809914E-24
  -8.28000009E-02     2.55990590E-24
  -7.07999989E-02     1.19782502E-23
  -5.88000007E-02     2.80614706E-23
  -4.67999987E-02     4.89523943E-23
  -3.48000005E-02     6.66995401E-23
  -2.28000004E-02     6.48604339E-23
  -1.08000003E-02     1.90623994E-23
   1.20000006E-03    -9.63894751E-23
   1.31999999E-02    -2.93412333E-22
   2.52000000E-02    -5.47042751E-22
   3.72000001E-02    -7.70411456E-22
   4.91999984E-02    -8.01142902E-22
   6.12000003E-02    -4.18550260E-22
   7.32000023E-02     5.88974407E-22
   8.51999968E-02     2.29820602E-21
   9.71999988E-02     4.48441227E-21
  0.109200001         6.46866467E-21
  0.121200003         7.07218825E-21
  0.133200005         4.78956437E-21
  0.145199999        -1.73276062E-21
  0.157199994        -1.29151255E-20
  0.169200003        -2.73157172E-20
  0.181199998        -4.08940388E-20
  0.193200007        -4.69539866E-20
  0.205200002        -3.72667516E-20
  0.217199996        -4.65955969E-21
  0.229200006         5.31286734E-20
  0.241200000         1.29220811E-19
  0.253199995         2.04618634E-19
  0.265199989         2.48506950E-19
  0.277200013         2.23669638E-19
  0.289200008         9.77131785E-20
  0.301200002        -1.41254053E-19
  0.313199997        -4.68416561E-19
  0.325199991        -8.11740201E-19
  0.337199986        -1.05427850E-18
  0.349200010        -1.05488120E-18
  0.361200005        -6.88363472E-19
  0.373199999         1.00877125E-19
  0.385199994         1.24576461E-18
  0.397199988         2.52399936E-18
  0.409200013         3.56707743E-18
  0.421200007         3.92526152E-18
  0.433200002         3.18812283E-18
  0.445199996         1.13975893E-18
  0.457199991        -2.09282692E-18
  0.469199985        -5.95273207E-18
  0.481200010        -9.47981738E-18
  0.493200004        -1.14812065E-17
  0.505200028        -1.08353034E-17
  0.517199993        -6.86903767E-18
  0.529200017         2.95994407E-19
  0.541199982         9.55288969E-18
  0.553200006         1.88801559E-17
  0.565199971         2.57183820E-17
  0.577199996         2.76039997E-17
  0.589200020         2.29116870E-17
  0.601199985         1.14865840E-17
  0.613200009        -5.06006729E-18
  0.625199974        -2.35452346E-17
  0.637199998        -3.99071731E-17
  0.649200022        -5.02300232E-17
  0.661199987        -5.17874918E-17
  0.673200011        -4.37442622E-17
  0.685199976        -2.72426211E-17
  0.697200000        -4.82203904E-18
  0.709200025         2.05938525E-17
  0.721199989         4.66672835E-17
  0.733200014         7.20254879E-17
  0.745199978         9.56816557E-17
  0.757200003         1.15557105E-16
  0.769200027         1.26715679E-16
  0.781199992         1.20375412E-16
  0.793200016         8.48651442E-17
  0.805199981         9.25714036E-18
  0.817200005        -1.10579417E-16
  0.829200029        -2.65066123E-16
  0.841199994        -4.25876519E-16
  0.853200018        -5.45971921E-16
  0.865199983        -5.67206031E-16
  0.877200007        -4.35956529E-16
  0.889199972        -1.24217779E-16
  0.901199996         3.49566580E-16
  0.913200021         9.07739587E-16
  0.925199986         1.41638742E-15
  0.937200010         1.70858732E-15
  0.949199975         1.62674181E-15
  0.961199999         1.07562565E-15
  0.973200023         7.14475732E-17
  0.985199988        -1.23073051E-15
  0.997200012        -2.54644277E-15
   1.00919998        -3.51496354E-15
   1.02119994        -3.79000615E-15
   1.03320003        -3.14771080E-15
   1.04519999        -1.58100140E-15
   1.05719995         6.53244832E-16
   1.06920004         3.05968100E-15
   1.08120000         5.00960738E-15
   1.09319997         5.90795613E-15
   1.10520005         5.38043163E-15
   1.11720002         3.42427956E-15
   1.12919998         4.67278431E-16
   1.14119995        -2.70069277E-15
   1.15320003        -5.12386832E-15
   1.16520000        -5.96313185E-15
   1.17719996        -4.78782028E-15
   1.18920004        -1.78336413E-15
   1.20120001         2.20717685E-15
   1.21319997         5.84935839E-15
   1.22520006         7.67257436E-15
   1.23720002         6.53140160E-15
   1.24919999         2.04289079E-15
   1.26119995        -5.14307902E-15
   1.27320004        -1.33521429E-14
   1.28520000        -2.02130725E-14
   1.29719996        -2.32513136E-14
   1.30920005        -2.06051759E-14
   1.32120001        -1.16646677E-14
   1.33319998         2.56853382E-15
   1.34519994         1.95406130E-14
   1.35720003         3.56538665E-14
   1.36919999         4.71200769E-14
   1.38119996         5.09404835E-14
   1.39320004         4.57348223E-14
   1.40520000         3.21628168E-14
   1.41719997         1.27845198E-14
   1.42920005        -8.63345785E-15
   1.44120002        -2.81847130E-14
   1.45319998        -4.29483482E-14
   1.46519995        -5.18117653E-14
   1.47720003        -5.56946118E-14
   1.48920000        -5.70452363E-14
   1.50119996        -5.87099407E-14
   1.51320004        -6.24999998E-14
   1.52520001        -6.79295623E-14
   1.53719997        -7.16121159E-14
   1.54920006        -6.76612493E-14
   1.56120002        -4.91675250E-14
   1.57319999        -1.04825299E-14
   1.58519995         5.02677632E-14
   1.59720004         1.29196241E-13
   1.60920000         2.15923850E-13
   1.62119997         2.94580332E-13
   1.63320005         3.46575714E-13
   1.64520001         3.54668009E-13
   1.65719998         3.07401294E-13
   1.66919994         2.02748774E-13
   1.68120003         4.98593239E-14
   1.69319999        -1.31795399E-13
   1.70519996        -3.15923936E-13
   1.71720004        -4.74868354E-13
   1.72920001        -5.85673491E-13
   1.74119997        -6.35120428E-13
   1.75320005        -6.22212568E-13
   1.76520002        -5.57212479E-13
   1.77719998        -4.57289100E-13
   1.78919995        -3.39895592E-13
   1.80120003        -2.15853689E-13
   1.81320000        -8.44738843E-14
   1.82519996         6.72803962E-14
   1.83720005         2.60578776E-13
   1.84920001         5.15919447E-13
   1.86119998         8.41753479E-13
   1.87320006         1.22374669E-12
   1.88520002         1.61829784E-12
   1.89719999         1.95332856E-12
   1.90919995         2.13776544E-12
   1.92120004         2.07889934E-12
   1.93320000         1.70445331E-12
   1.94519997         9.84418059E-13
   1.95720005        -5.29493102E-14
   1.96920002        -1.31576889E-12
   1.98119998        -2.65645969E-12
   1.99319994        -3.89248269E-12
   2.00519991        -4.83621173E-12
   2.01719999        -5.32770659E-12
   2.02920008        -5.26312674E-12
   2.04119992        -4.61232398E-12
   2.05320001        -3.42173360E-12
   2.06520009        -1.80236826E-12
   2.07719994         9.33861482E-14
   2.08920002         2.09956076E-12
   2.10120010         4.06124483E-12
   2.11319995         5.84948669E-12
   2.12520003         7.36305114E-12
   2.13720012         8.51799794E-12
   2.14919996         9.23042198E-12
   2.16120005         9.40064172E-12
   2.17319989         8.90768969E-12
   2.18519998         7.62065844E-12
   2.19720006         5.42872605E-12
   2.20919991         2.28561657E-12
   2.22119999        -1.74145399E-12
   2.23320007        -6.43200857E-12
   2.24519992        -1.13957290E-11
   2.25720000        -1.60896140E-11
   2.26920009        -1.98726695E-11
   2.28119993        -2.20932595E-11
   2.29320002        -2.21958181E-11
   2.30520010        -1.98275979E-11
   2.31719995        -1.49240915E-11
   2.32920003        -7.75462160E-12
   2.34120011         1.08324992E-12
   2.35319996         1.07218158E-11
   2.36520004         2.01247439E-11
   2.37719989         2.82145175E-11
   2.38919997         3.40039281E-11
   2.40120006         3.67104888E-11
   2.41319990         3.58380513E-11
   2.42519999         3.12184584E-11
   2.43720007         2.30155998E-11
   2.44919991         1.17016822E-11
   2.46120000        -1.98070488E-12
   2.47320008        -1.70582888E-11
   2.48519993        -3.23616550E-11
   2.49720001        -4.65558460E-11
   2.50920010        -5.81763249E-11
   2.52119994        -6.56848742E-11
   2.53320003        -6.75603809E-11
   2.54520011        -6.24340232E-11
   2.55719995        -4.92678606E-11
   2.56920004        -2.75629207E-11
   2.58119988         2.43000845E-12
   2.59319997         3.95321068E-11
   2.60520005         8.15285756E-11
   2.61719990         1.25163449E-10
   2.62919998         1.66257730E-10
   2.64120007         1.99955483E-10
   2.65319991         2.21085622E-10
   2.66520000         2.24613508E-10
   2.67720008         2.06148487E-10
   2.68919992         1.62472716E-10
   2.70120001         9.20601859E-11
   2.71320009        -4.43670274E-12
   2.72519994        -1.23750774E-10
   2.73720002        -2.59630539E-10
   2.74920011        -4.02561456E-10
   2.76119995        -5.39616130E-10
   2.77320004        -6.54493071E-10
   2.78520012        -7.27820693E-10
   2.79719996        -7.37818917E-10
   2.80920005        -6.61404820E-10
   2.82119989        -4.75812889E-10
   2.83319998        -1.60750843E-10
   2.84520006         2.98945257E-10
   2.85719991         9.10275355E-10
   2.86919999         1.66885694E-09
   2.88120008         2.55580357E-09
   2.89319992         3.53503649E-09
   2.90520000         4.55140592E-09
   2.91720009         5.52999646E-09
   2.92919993         6.37696118E-09
   2.94120002         6.98215352E-09
   2.95320010         7.22372384E-09
   2.96519995         6.97470348E-09
   2.97720003         6.11143225E-09
   2.98920012         4.52348559E-09
   3.00119996         2.12454276E-09
   3.01320004        -1.13659226E-09
   3.02519989        -5.26586774E-09
   3.03719997        -1.02160103E-08
   3.04920006        -1.58822004E-08
   3.06119990        -2.21030110E-08
   3.07319999        -2.86683282E-08
   3.08520007        -3.53359439E-08
   3.09719992        -4.18583248E-08
   3.10920000        -4.80207447E-08
   3.12120008        -5.36915756E-08
   3.13319993        -5.88848152E-08
   3.14520001        -6.38341646E-08
   3.15720010        -6.90772950E-08
   3.16919994        -7.55478453E-08
   3.18120003        -8.46717541E-08
   3.19320011        -9.84639925E-08
   3.20519996        -1.19620609E-07
   3.21720004        -1.51600716E-07
   3.22919989        -1.98692405E-07
   3.24119997        -2.66056560E-07
   3.25320005        -3.59742927E-07
   3.26519990        -4.86672775E-07
   3.27719998        -6.54583289E-07
   3.28920007        -8.71930979E-07
   3.30119991        -1.14775060E-06
   3.31320000        -1.49147093E-06
   3.32520008        -1.91268759E-06
   3.33719993        -2.42089641E-06
   3.34920001        -3.02519288E-06
   3.36120009        -3.73394892E-06
   3.37319994        -4.55446889E-06
   3.38520002        -5.49264405E-06
   3.39720011        -6.55261374E-06
   3.40919995        -7.73644842E-06
   3.42120004        -9.04386525E-06
   3.43319988        -1.04719911E-05
   3.44519997        -1.20151917E-05
   3.45720005        -1.36649669E-05
   3.46919990        -1.54099198E-05
   3.48119998        -1.72358305E-05
   3.49320006        -1.91258041E-05
   3.50519991        -2.10605176E-05
   3.51719999        -2.30185524E-05
   3.52920008        -2.49768018E-05
   3.54119992        -2.69109732E-05
   3.55320001        -2.87961175E-05
   3.56520009        -3.06072252E-05
   3.57719994        -3.23198292E-05
   3.58920002        -3.39106482E-05
   3.60120010        -3.53581781E-05
   3.61319995        -3.66432541E-05
   3.62520003        -3.77495744E-05
   3.63720012        -3.86641514E-05
   3.64919996        -3.93776536E-05
   3.66120005        -3.98846641E-05
   3.67319989        -4.01838333E-05
   3.68519998        -4.02778860E-05
   3.69720006        -4.01735488E-05
   3.70919991        -3.98813318E-05
   3.72119999        -3.94152157E-05
   3.73320007        -3.87922482E-05
   3.74519992        -3.80320307E-05
   3.75720000        -3.71561764E-05
   3.76920009        -3.61876664E-05
   3.78119993        -3.51502495E-05
   3.79320002        -3.40677616E-05
   3.80520010        -3.29635259E-05
   3.81719995        -3.18597195E-05
   3.82920003        -3.07768823E-05
   3.84120011        -2.97333991E-05
   3.85319996        -2.87451476E-05
   3.86520004        -2.78251973E-05
   3.87719989        -2.69836146E-05
   3.88919997        -2.62273952E-05
   3.90120006        -2.55604682E-05
   3.91319990        -2.49838195E-05
   3.92519999        -2.44957046E-05
   3.93720007        -2.40919326E-05
   3.94919991        -2.37662225E-05
   3.96120000        -2.35105981E-05
   3.97320008        -2.33158389E-05
   3.98519993        -2.31719278E-05
   3.99720001        -2.30684982E-05
   4.00920010        -2.29952802E-05
   4.02120018        -2.29424895E-05
   4.03319979        -2.29011966E-05
   4.04519987        -2.28636309E-05
   4.05719995        -2.28233985E-05
   4.06920004        -2.27756682E-05
   4.08120012        -2.27172513E-05
   4.09320021        -2.26466309E-05
   4.10519981        -2.25639069E-05
   4.11719990        -2.24706873E-05
   4.12919998        -2.23699099E-05
   4.14120007        -2.22656236E-05
   4.15320015        -2.21627233E-05
   4.16520023        -2.20666770E-05
   4.17719984        -2.19832000E-05
   4.18919992        -2.19179583E-05
   4.20120001        -2.18762616E-05
   4.21320009        -2.18627720E-05
   4.22520018        -2.18812529E-05
   4.23719978        -2.19343510E-05
   4.24919987        -2.20234160E-05
   4.26119995        -2.21483861E-05
   4.27320004        -2.23077313E-05
   4.28520012        -2.24984542E-05
   4.29720020        -2.27161581E-05
   4.30919981        -2.29551752E-05
   4.32119989        -2.32087623E-05
   4.33319998        -2.34693416E-05
   4.34520006        -2.37287895E-05
   4.35720015        -2.39787696E-05
   4.36920023        -2.42110746E-05
   4.38119984        -2.44179955E-05
   4.39319992        -2.45926676E-05
   4.40520000        -2.47294211E-05
   4.41720009        -2.48240776E-05
   4.42920017        -2.48742108E-05
   4.44119978        -2.48793494E-05
   4.45319986        -2.48411088E-05
   4.46519995        -2.47632452E-05
   4.47720003        -2.46516374E-05
   4.48920012        -2.45141800E-05
   4.50120020        -2.43606046E-05
   4.51319981        -2.42022215E-05
   4.52519989        -2.40516219E-05
   4.53719997        -2.39222845E-05
   4.54920006        -2.38282119E-05
   4.56120014        -2.37834738E-05
   4.57320023        -2.38018001E-05
   4.58519983        -2.38961620E-05
   4.59719992        -2.40783902E-05
   4.60920000        -2.43588274E-05
   4.62120008        -2.47460321E-05
   4.63320017        -2.52465616E-05
   4.64519978        -2.58647997E-05
   4.65719986        -2.66028746E-05
   4.66919994        -2.74606409E-05
   4.68120003        -2.84357175E-05
   4.69320011        -2.95236187E-05
   4.70520020        -3.07178962E-05
   4.71719980        -3.20103536E-05
   4.72919989        -3.33912976E-05
   4.74119997        -3.48497706E-05
   4.75320005        -3.63738363E-05
   4.76520014        -3.79508383E-05
   4.77720022        -3.95676398E-05
   4.78919983        -4.12108602E-05
   4.80119991        -4.28670719E-05
   4.81320000        -4.45229780E-05
   4.82520008        -4.61655545E-05
   4.83720016        -4.77821559E-05
   4.84919977        -4.93606167E-05
   4.86119986        -5.08892954E-05
   4.87319994        -5.23571471E-05
   4.88520002        -5.37537417E-05
   4.89720011        -5.50693112E-05
   4.90920019        -5.62948080E-05
   4.92119980        -5.74219339E-05
   4.93319988        -5.84432128E-05
   4.94519997        -5.93520708E-05
   4.95720005        -6.01429383E-05
   4.96920013        -6.08113660E-05
   4.98120022        -6.13541124E-05
   4.99319983        -6.17693004E-05
   5.00519991        -6.20565115E-05
   5.01719999        -6.22169391E-05
   5.02920008        -6.22534280E-05
   5.04120016        -6.21705913E-05
   5.05319977        -6.19747880E-05
   5.06519985        -6.16741454E-05
   5.07719994        -6.12785007E-05
   5.08920002        -6.07992406E-05
   5.10120010        -6.02491273E-05
   5.11320019        -5.96420869E-05
   5.12519979        -5.89928895E-05
   5.13719988        -5.83168039E-05
   5.14919996        -5.76292296E-05
   5.16120005        -5.69452532E-05
   5.17320013        -5.62792520E-05
   5.18520021        -5.56444356E-05
   5.19719982        -5.50524528E-05
   5.20919991        -5.45130242E-05
   5.22119999        -5.40336150E-05
   5.23320007        -5.36191947E-05
   5.24520016        -5.32720842E-05
   5.25719976        -5.29918761E-05
   5.26919985        -5.27755001E-05
   5.28119993        -5.26173571E-05
   5.29320002        -5.25095675E-05
   5.30520010        -5.24423485E-05
   5.31720018        -5.24044299E-05
   5.32919979        -5.23835770E-05
   5.34119987        -5.23671551E-05
   5.35319996        -5.23427334E-05
   5.36520004        -5.22986702E-05
   5.37720013        -5.22246773E-05
   5.38920021        -5.21123802E-05
   5.40119982        -5.19557470E-05
   5.41319990        -5.17514745E-05
   5.42519999        -5.14992134E-05
   5.43720007        -5.12017250E-05
   5.44920015        -5.08648445E-05
   5.46120024        -5.04973250E-05
   5.47319984        -5.01105787E-05
   5.48519993        -4.97182045E-05
   5.49720001        -4.93354819E-05
   5.50920010        -4.89787053E-05
   5.52120018        -4.86644822E-05
   5.53319979        -4.84089505E-05
   5.54519987        -4.82269970E-05
   5.55719995        -4.81314819E-05
   5.56920004        -4.81325442E-05
   5.58120012        -4.82369469E-05
   5.59320021        -4.84475822E-05
   5.60519981        -4.87630859E-05
   5.61719990        -4.91776664E-05
   5.62919998        -4.96810935E-05
   5.64120007        -5.02588591E-05
   5.65320015        -5.08925987E-05
   5.66520023        -5.15606444E-05
   5.67719984        -5.22387927E-05
   5.68919992        -5.29011559E-05
   5.70120001        -5.35212130E-05
   5.71320009        -5.40728470E-05
   5.72520018        -5.45314542E-05
   5.73719978        -5.48749995E-05
   5.74919987        -5.50850200E-05
   5.76119995        -5.51474914E-05
   5.77320004        -5.50535005E-05
   5.78520012        -5.47997806E-05
   5.79720020        -5.43889582E-05
   5.80919981        -5.38295790E-05
   5.82119989        -5.31358637E-05
   5.83319998        -5.23272538E-05
   5.84520006        -5.14276762E-05
   5.85720015        -5.04646559E-05
   5.86920023        -4.94682281E-05
   5.88119984        -4.84697739E-05
   5.89319992        -4.75007546E-05
   5.90520000        -4.65914818E-05
   5.91720009        -4.57698734E-05
   5.92920017        -4.50603729E-05
   5.94119978        -4.44829893E-05
   5.95319986        -4.40525000E-05
   5.96519995        -4.37779199E-05
   5.97720003        -4.36621849E-05
   5.98920012        -4.37020863E-05
   6.00120020        -4.38884745E-05
   6.01319981        -4.42066630E-05
   6.02519989        -4.46370941E-05
   6.03719997        -4.51561173E-05
   6.04920006        -4.57369824E-05
   6.06120014        -4.63508477E-05
   6.07320023        -4.69678962E-05
   6.08519983        -4.75584202E-05
   6.09719992        -4.80938506E-05
   6.10920000        -4.85476994E-05
   6.12120008        -4.88963742E-05
   6.13320017        -4.91198371E-05
   6.14519978        -4.92020772E-05
   6.15719986        -4.91314095E-05
   6.16919994        -4.89005615E-05
   6.18120003        -4.85066194E-05
   6.19320011        -4.79507944E-05
   6.20520020        -4.72380343E-05
   6.21719980        -4.63765937E-05
   6.22919989        -4.53774628E-05
   6.24119997        -4.42538003E-05
   6.25320005        -4.30203363E-05
   6.26520014        -4.16928306E-05
   6.27720022        -4.02875012E-05
   6.28919983        -3.88206136E-05
   6.30119991        -3.73080366E-05
   6.31320000        -3.57649442E-05
   6.32520008        -3.42055428E-05
   6.33720016        -3.26428999E-05
   6.34919977        -3.10887845E-05
   6.36119986        -2.95535829E-05
   6.37319994        -2.80462427E-05
   6.38520002        -2.65742165E-05
   6.39720011        -2.51434412E-05
   6.40920019        -2.37583336E-05
   6.42119980        -2.24217838E-05
   6.43319988        -2.11351780E-05
   6.44519997        -1.98984544E-05
   6.45720005        -1.87101814E-05
   6.46920013        -1.75676778E-05
   6.48120022        -1.64671965E-05
   6.49319983        -1.54041500E-05
   6.50519991        -1.43733869E-05
   6.51719999        -1.33695075E-05
   6.52920008        -1.23872296E-05
   6.54120016        -1.14217501E-05
   6.55319977        -1.04691153E-05
   6.56519985        -9.52655319E-06
   6.57719994        -8.59276770E-06
   6.58920002        -7.66815083E-06
   6.60120010        -6.75490901E-06
   6.61320019        -5.85708176E-06
   6.62519979        -4.98045756E-06
   6.63719988        -4.13237240E-06
   6.64919996        -3.32141349E-06
   6.66120005        -2.55703526E-06
   6.67320013        -1.84911403E-06
   6.68520021        -1.20746449E-06
   6.69719982        -6.41348095E-07
   6.70919991        -1.58999200E-07
   6.72119999         2.32798627E-07
   6.73320007         5.29067336E-07
   6.74520016         7.26901021E-07
   6.75719976         8.25630991E-07
   6.76919985         8.26884502E-07
   6.78119993         7.34542539E-07
   6.79320002         5.54600319E-07
   6.80520010         2.94945409E-07
   6.81720018        -3.49291192E-08
   6.82919979        -4.24256598E-07
   6.84119987        -8.61354692E-07
   6.85319996        -1.33399124E-06
   6.86520004        -1.82973758E-06
   6.87720013        -2.33629726E-06
   6.88920021        -2.84179782E-06
   6.90119982        -3.33503840E-06
   6.91319990        -3.80569168E-06
   6.92519999        -4.24445352E-06
   6.93720007        -4.64315144E-06
   6.94920015        -4.99481121E-06
   6.96120024        -5.29368799E-06
   6.97319984        -5.53527298E-06
   6.98519993        -5.71627652E-06
   6.99720001        -5.83459814E-06
   7.00920010        -5.88928287E-06
   7.02120018        -5.88046896E-06
   7.03319979        -5.80932601E-06
   7.04519987        -5.67798406E-06
   7.05719995        -5.48944899E-06
   7.06920004        -5.24750203E-06
   7.08120012        -4.95658696E-06
   7.09320021        -4.62167100E-06
   7.10519981        -4.24809468E-06
   7.11719990        -3.84140094E-06
   7.12919998        -3.40715587E-06
   7.14120007        -2.95076666E-06
   7.15320015        -2.47730304E-06
   7.16520023        -1.99133865E-06
   7.17719984        -1.49681955E-06
   7.18919992        -9.96972517E-07
   7.20120001        -4.94263816E-07
   7.21320009         9.58635749E-09
   7.22520018         5.13529017E-07
   7.23719978         1.01705450E-06
   7.24919987         1.52000712E-06
   7.26119995         2.02236151E-06
   7.27320004         2.52397399E-06
   7.28520012         3.02432886E-06
   7.29720020         3.52229995E-06
   7.30919981         4.01595116E-06
   7.32119989         4.50239304E-06
   7.33319998         4.97771453E-06
   7.34520006         5.43699480E-06
   7.35720015         5.87440718E-06
   7.36920023         6.28340740E-06
   7.38119984         6.65699690E-06
   7.39319992         6.98804979E-06
   7.40520000         7.26967664E-06
   7.41720009         7.49560604E-06
   7.42920017         7.66055291E-06
   7.44119978         7.76055640E-06
   7.45319986         7.79324910E-06
   7.46519995         7.75806620E-06
   7.47720003         7.65634741E-06
   7.48920012         7.49135961E-06
   7.50120020         7.26822009E-06
   7.51319981         6.99373732E-06
   7.52519989         6.67618497E-06
   7.53719997         6.32501678E-06
   7.54920006         5.95055644E-06
   7.56120014         5.56366695E-06
   7.57320023         5.17542776E-06
   7.58519983         4.79682603E-06
   7.59719992         4.43847284E-06
   7.60920000         4.11035307E-06
   7.62120008         3.82160079E-06
   7.63320017         3.58029865E-06
   7.64519978         3.39330404E-06
   7.65719986         3.26607960E-06
   7.66919994         3.20253844E-06
   7.68120003         3.20489403E-06
   7.69320011         3.27351563E-06
   7.70520020         3.40679821E-06
   7.71719980         3.60105423E-06
   7.72919989         3.85044086E-06
   7.74119997         4.14693795E-06
   7.75320005         4.48039327E-06
   7.76520014         4.83865006E-06
   7.77720022         5.20776439E-06
   7.78919983         5.57232897E-06
   7.80119991         5.91589560E-06
   7.81320000         6.22149491E-06
   7.82520008         6.47223669E-06
   7.83720016         6.65197467E-06
   7.84919977         6.74599914E-06
   7.86119986         6.74173589E-06
   7.87319994         6.62939874E-06
   7.88520002         6.40257758E-06
   7.89720011         6.05870218E-06
   7.90920019         5.59937143E-06
   7.92119980         5.03050887E-06
   7.93319988         4.36232676E-06
   7.94519997         3.60909803E-06
   7.95720005         2.78873017E-06
   7.96920013         1.92215816E-06
   7.98120022         1.03257651E-06
   7.99319983         1.44541985E-07
   8.00520039        -7.17014302E-07
   8.01720047        -1.52781956E-06
   8.02919960        -2.26529505E-06
   8.04119968        -2.90953790E-06
   8.05319977        -3.44421051E-06
   8.06519985        -3.85728617E-06
   8.07719994        -4.14162423E-06
   8.08920002        -4.29533202E-06
   8.10120010        -4.32190654E-06
   8.11320019        -4.23013944E-06
   8.12520027        -4.03378635E-06
   8.13720036        -3.75101740E-06
   8.14920044        -3.40366842E-06
   8.16119957        -3.01632917E-06
   8.17319965        -2.61530636E-06
   8.18519974        -2.22751351E-06
   8.19719982        -1.87933585E-06
   8.20919991        -1.59552746E-06
   8.22119999        -1.39818769E-06
   8.23320007        -1.30586773E-06
   8.24520016        -1.33284573E-06
   8.25720024        -1.48859908E-06
   8.26920033        -1.77749962E-06
   8.28120041        -2.19873186E-06
   8.29319954        -2.74643867E-06
   8.30519962        -3.41007649E-06
   8.31719971        -4.17495721E-06
   8.32919979        -5.02294233E-06
   8.34119987        -5.93325876E-06
   8.35319996        -6.88338378E-06
   8.36520004        -7.84996610E-06
   8.37720013        -8.80973585E-06
   8.38920021        -9.74036266E-06
   8.40120029        -1.06212383E-05
   8.41320038        -1.14341428E-05
   8.42520046        -1.21637868E-05
   8.43719959        -1.27982075E-05
   8.44919968        -1.33290250E-05
   8.46119976        -1.37515399E-05
   8.47319984        -1.40647071E-05
   8.48519993        -1.42709696E-05
   8.49720001        -1.43759871E-05
   8.50920010        -1.43882653E-05
   8.52120018        -1.43187162E-05
   8.53320026        -1.41801620E-05
   8.54520035        -1.39868134E-05
   8.55720043        -1.37537272E-05
   8.56919956        -1.34962829E-05
   8.58119965        -1.32296827E-05
   8.59319973        -1.29684904E-05
   8.60519981        -1.27262265E-05
   8.61719990        -1.25150409E-05
   8.62919998        -1.23454502E-05
   8.64120007        -1.22261608E-05
   8.65320015        -1.21639850E-05
   8.66520023        -1.21638277E-05
   8.67720032        -1.22287584E-05
   8.68920040        -1.23601503E-05
   8.70119953        -1.25578608E-05
   8.71319962        -1.28204565E-05
   8.72519970        -1.31454399E-05
   8.73719978        -1.35294740E-05
   8.74919987        -1.39685717E-05
   8.76119995        -1.44582482E-05
   8.77320004        -1.49936086E-05
   8.78520012        -1.55693797E-05
   8.79720020        -1.61798653E-05
   8.80920029        -1.68188617E-05
   8.82120037        -1.74795223E-05
   8.83320045        -1.81542036E-05
   8.84519958        -1.88343165E-05
   8.85719967        -1.95102130E-05
   8.86919975        -2.01711337E-05
   8.88119984        -2.08052279E-05
   8.89319992        -2.13996937E-05
   8.90520000        -2.19410140E-05
   8.91720009        -2.24153191E-05
   8.92920017        -2.28088484E-05
   8.94120026        -2.31084978E-05
   8.95320034        -2.33024293E-05
   8.96520042        -2.33807004E-05
   8.97719955        -2.33358751E-05
   8.98919964        -2.31635750E-05
   9.00119972        -2.28629415E-05
   9.01319981        -2.24369451E-05
   9.02519989        -2.18925525E-05
   9.03719997        -2.12406940E-05
   9.04920006        -2.04960816E-05
   9.06120014        -1.96768033E-05
   9.07320023        -1.88038193E-05
   9.08520031        -1.79002800E-05