 -0.622799993       0.00000000    
 -0.610800028       0.00000000    
 -0.598800004       0.00000000    
 -0.586799979       0.00000000    
 -0.574800014       0.00000000    
 -0.562799990       0.00000000    
 -0.550800025       0.00000000    
 -0.538800001       0.00000000    
 -0.526799977       0.00000000    
 -0.514800012       0.00000000    
 -0.502799988       1.19119100E-38
 -0.490799993       1.07699352E-36
 -0.478799999       4.25372318E-35
 -0.466800004       6.28462213E-34
 -0.454800010       5.44685107E-33
 -0.442799985       3.28879457E-32
 -0.430799991       1.50338345E-31
 -0.418799996       5.43094753E-31
 -0.406800002       1.57696423E-30
 -0.394800007       3.64059139E-30
 -0.382800013       6.22925640E-30
 -0.370799989       5.44259640E-30
 -0.358799994      -1.05549996E-29
 -0.346799999      -6.64587447E-29
 -0.334800005      -1.98877051E-28
 -0.322800010      -4.37344313E-28
 -0.310799986      -7.52896956E-28
 -0.298799992      -9.69859224E-28
 -0.286799997      -6.65734471E-28
 -0.274800003       8.72775599E-28
 -0.262800008       4.53977972E-27
 -0.250800014       1.10749330E-26
 -0.238800004       2.05369151E-26
 -0.226799995       3.17433222E-26
 -0.214800000       4.17922638E-26
 -0.202800006       4.53374941E-26
 -0.190799996       3.24317297E-26
 -0.178800002      -1.68682944E-26
 -0.166800007      -1.41697020E-25
 -0.154799998      -4.08598321E-25
 -0.142800003      -9.03435162E-25
 -0.130799994      -1.67897507E-24
 -0.118799999      -2.62588070E-24
 -0.106799997      -3.25740251E-24
  -9.48000029E-02  -2.46703331E-24
  -8.28000009E-02   1.56204044E-24
  -7.07999989E-02   1.09815796E-23
  -5.88000007E-02   2.70655463E-23
  -4.67999987E-02   4.79557253E-23
  -3.48000005E-02   6.56992455E-23
  -2.28000004E-02   6.38522949E-23
  -1.08000003E-02   1.80418642E-23
   1.20000006E-03  -9.74250349E-23
   1.31999999E-02  -2.94459965E-22
   2.52000000E-02  -5.48089652E-22
   3.72000001E-02  -7.71431749E-22
   4.91999984E-02  -8.02098673E-22
   6.12000003E-02  -4.19400033E-22
   7.32000023E-02   5.88257641E-22
   8.51999968E-02   2.29760724E-21
   9.71999988E-02   4.48384479E-21
  0.109200001       6.46794937E-21
  0.121200003       7.07106138E-21
  0.133200005       4.78773795E-21
  0.145199999      -1.73548854E-21
  0.157199994      -1.29187065E-20
  0.169200003      -2.73196818E-20
  0.181199998      -4.08973960E-20
  0.193200007      -4.69552758E-20
  0.205200002      -3.72643412E-20
  0.217199996      -4.65223421E-21
  0.229200006       5.31409228E-20
  0.241200000       1.29235985E-19
  0.253199995       2.04632283E-19
  0.265199989       2.48512405E-19
  0.277200013       2.23659220E-19
  0.289200008       9.76806793E-20
  0.301200002      -1.41310185E-19
  0.313199997      -4.68489870E-19
  0.325199991      -8.11814337E-19
  0.337199986      -1.05432792E-18
  0.349200010      -1.05487510E-18
  0.361200005      -6.88274809E-19
  0.373199999       1.01060966E-19
  0.385199994       1.24602962E-18
  0.397199988       2.52429694E-18
  0.409200013       3.56732475E-18
  0.421200007       3.92535375E-18
  0.433200002       3.18795698E-18
  0.445199996       1.13926965E-18
  0.457199991      -2.09363073E-18
  0.469199985      -5.95373792E-18
  0.481200010      -9.48080256E-18
  0.493200004      -1.14818633E-17
  0.505200028      -1.08353009E-17
  0.517199993      -6.86811578E-18
  0.529200017       2.97926753E-19
  0.541199982       9.55565661E-18
  0.553200006       1.88832761E-17
  0.565199971       2.57210984E-17
  0.577199996       2.76054076E-17
  0.589200020       2.29109376E-17
  0.601199985       1.14831479E-17
  0.613200009      -5.06615452E-18
  0.625199974      -2.35532102E-17
  0.637199998      -3.99155409E-17
  0.649200022      -5.02367466E-17
  0.661199987      -5.17903638E-17
  0.673200011      -4.37414464E-17
  0.685199976      -2.72332028E-17
  0.697200000      -4.80647150E-18
  0.709200025       2.06135410E-17
  0.721199989       4.66876057E-17
  0.733200014       7.20419852E-17
  0.745199978       9.56896694E-17
  0.757200003       1.15552764E-16
  0.769200027       1.26696859E-16
  0.781199992       1.20342497E-16
  0.793200016       8.48214691E-17
  0.805199981       9.20901003E-18
  0.817200005      -1.10623310E-16
  0.829200029      -2.65095822E-16
  0.841199994      -4.25882448E-16
  0.853200018      -5.45946775E-16
  0.865199983      -5.67147056E-16
  0.877200007      -4.35867299E-16
  0.889199972      -1.24109213E-16
  0.901199996       3.49676721E-16
  0.913200021       9.07829266E-16
  0.925199986       1.41643465E-15
  0.937200010       1.70857599E-15
  0.949199975       1.62666664E-15
  0.961199999       1.07549594E-15
  0.973200023       7.12854127E-17
  0.985199988      -1.23089621E-15
  0.997200012      -2.54658698E-15
   1.00919998      -3.51507598E-15
   1.02119994      -3.79009847E-15
   1.03320003      -3.14781351E-15
   1.04519999      -1.58114973E-15
   1.05719995       6.53039215E-16
   1.06920004       3.05945887E-15
   1.08120000       5.00948372E-15
   1.09319997       5.90811664E-15
   1.10520005       5.38109316E-15
   1.11720002       3.42561257E-15
   1.12919998       4.69306387E-16
   1.14119995      -2.69819211E-15
   1.15320003      -5.12141616E-15
   1.16520000      -5.96151868E-15
   1.17719996      -4.78796893E-15
   1.18920004      -1.78609306E-15
   1.20120001       2.20145621E-15
   1.21319997       5.84092787E-15
   1.22520006       7.66258700E-15
   1.23720002       6.52186740E-15
   1.24919999       2.03640887E-15
   1.26119995      -5.14382992E-15
   1.27320004      -1.33450769E-14
   1.28520000      -2.01973956E-14
   1.29719996      -2.32280727E-14
   1.30920005      -2.05774796E-14
   1.32120001      -1.16374704E-14
   1.33319998       2.58911820E-15
   1.34519994       1.95484159E-14
   1.35720003       3.56439968E-14
   1.36919999       4.70902444E-14
   1.38119996       5.08920502E-14
   1.39320004       4.56732905E-14
   1.40520000       3.20975953E-14
   1.41719997       1.27278195E-14
   1.42920005      -8.66849537E-15
   1.44120002      -2.81865002E-14
   1.45319998      -4.29095371E-14
   1.46519995      -5.17316597E-14
   1.47720003      -5.55806791E-14
   1.48920000      -5.69132212E-14
   1.50119996      -5.85821810E-14
   1.51320004      -6.24019066E-14
   1.52520001      -6.78848186E-14
   1.53719997      -7.16372355E-14
   1.54920006      -6.77610976E-14
   1.56120002      -4.93326761E-14
   1.57319999      -1.06896989E-14
   1.58519995       5.00520239E-14
   1.59720004       1.29009162E-13
   1.60920000       2.15798828E-13
   1.62119997       2.94540000E-13
   1.63320005       3.46627810E-13
   1.64520001       3.54804890E-13
   1.65719998       3.07603552E-13
   1.66919994       2.02990999E-13
   1.68120003       5.01162391E-14
   1.69319999      -1.31545342E-13
   1.70519996      -3.15699019E-13
   1.71720004      -4.74687780E-13
   1.72920001      -5.85563173E-13
   1.74119997      -6.35116146E-13
   1.75320005      -6.22356713E-13
   1.76520002      -5.57542131E-13
   1.77719998      -4.57816023E-13
   1.78919995      -3.40584304E-13
   1.80120003      -2.16605867E-13
   1.81320000      -8.51290406E-14
   1.82519996       6.69214101E-14
   1.83720005       2.60706116E-13
   1.84920001       5.16651067E-13
   1.86119998       8.43072303E-13
   1.87320006       1.22546103E-12
   1.88520002       1.62004492E-12
   1.89719999       1.95463220E-12
   1.90919995       2.13814578E-12
   1.92120004       2.07801376E-12
   1.93320000       1.70223243E-12
   1.94519997       9.81152442E-13
   1.95720005      -5.66090448E-14
   1.96920002      -1.31891546E-12
   1.98119998      -2.65812871E-12
   1.99319994      -3.89190893E-12
   2.00519991      -4.83307405E-12
   2.01719999      -5.32229382E-12
   2.02920008      -5.25636349E-12
   2.04119992      -4.60562664E-12
   2.05320001      -3.41671396E-12
   2.06520009      -1.80045193E-12
   2.07719994       9.13399063E-14
   2.08920002       2.09352544E-12
   2.10120010       4.05210110E-12
   2.11319995       5.83887539E-12
   2.12520003       7.35302184E-12
   2.13720012       8.51054296E-12
   2.14919996       9.22701759E-12
   2.16120005       9.40191935E-12
   2.17319989       8.91332407E-12
   2.18519998       7.62951161E-12
   2.19720006       5.43918903E-12
   2.20919991       2.29605245E-12
   2.22119999      -1.73230744E-12
   2.23320007      -6.42480340E-12
   2.24519992      -1.13905127E-11
   2.25720000      -1.60860734E-11
   2.26920009      -1.98705219E-11
   2.28119993      -2.20926402E-11
   2.29320002      -2.21974990E-11
   2.30520010      -1.98329235E-11
   2.31719995      -1.49345796E-11
   2.32920003      -7.77129489E-12
   2.34120011       1.06059801E-12
   2.35319996       1.06951965E-11
   2.36520004       2.00981350E-11
   2.37719989       2.81934441E-11
   2.38919997       3.39944600E-11
   2.40120006       3.67177642E-11
   2.41319990       3.58646654E-11
   2.42519999       3.12631726E-11
   2.43720007       2.30727451E-11
   2.44919991       1.17616186E-11
   2.46120000      -1.93001192E-12
   2.47320008      -1.70287603E-11
   2.48519993      -3.23621720E-11
   2.49720001      -4.65895968E-11
   2.50920010      -5.82391774E-11
   2.52119994      -6.57654001E-11
   2.53320003      -6.76417811E-11
   2.54520011      -6.24977015E-11
   2.55719995      -4.92979858E-11
   2.56920004      -2.75508141E-11
   2.58119988       2.48283599E-12
   2.59319997       3.96133785E-11
   2.60520005       8.16175114E-11
   2.61719990       1.25235697E-10
   2.62919998       1.66291883E-10
   2.64120007       1.99939440E-10
   2.65319991       2.21020993E-10
   2.66520000       2.24516419E-10
   2.67720008       2.06046388E-10
   2.68919992       1.62397179E-10
   2.70120001       9.20378773E-11
   2.71320009      -4.39265811E-12
   2.72519994      -1.23646385E-10
   2.73720002      -2.59491373E-10
   2.74920011      -4.02426981E-10
   2.76119995      -5.39529421E-10
   2.77320004      -6.54487631E-10
   2.78520012      -7.27909122E-10
   2.79719996      -7.37985839E-10
   2.80920005      -6.61608102E-10
   2.82119989      -4.75992967E-10
   2.83319998      -1.60846350E-10
   2.84520006       2.98978620E-10
   2.85719991       9.10449049E-10
   2.86919999       1.66914149E-09
   2.88120008       2.55613108E-09
   2.89319992       3.53531560E-09
   2.90520000       4.55154581E-09
   2.91720009       5.52993340E-09
   2.92919993       6.37668141E-09
   2.94120002       6.98170366E-09
   2.95320010       7.22320470E-09
   2.96519995       6.97424563E-09
   2.97720003       6.11116135E-09
   2.98920012       4.52348647E-09
   3.00119996       2.12482898E-09
   3.01320004      -1.13609100E-09
   3.02519989      -5.26529398E-09
   3.03719997      -1.02155475E-08
   3.04920006      -1.58820210E-08
   3.06119990      -2.21032312E-08
   3.07319999      -2.86689676E-08
   3.08520007      -3.53369103E-08
   3.09719992      -4.18594119E-08
   3.10920000      -4.80217004E-08
   3.12120008      -5.36921512E-08
   3.13319993      -5.88848152E-08
   3.14520001      -6.38335393E-08
   3.15720010      -6.90761297E-08
   3.16919994      -7.55463248E-08
   3.18120003      -8.46701269E-08
   3.19320011      -9.84625572E-08
   3.20519996      -1.19619585E-07
   3.21720004      -1.51600204E-07
   3.22919989      -1.98692319E-07
   3.24119997      -2.66056816E-07
   3.25320005      -3.59743410E-07
   3.26519990      -4.86673343E-07
   3.27719998      -6.54584028E-07
   3.28920007      -8.71931888E-07
   3.30119991      -1.14775173E-06
   3.31320000      -1.49147286E-06
   3.32520008      -1.91269032E-06
   3.33719993      -2.42089936E-06
   3.34920001      -3.02519607E-06
   3.36120009      -3.73395096E-06
   3.37319994      -4.55446934E-06
   3.38520002      -5.49264223E-06
   3.39720011      -6.55260828E-06
   3.40919995      -7.73643751E-06
   3.42120004      -9.04384797E-06
   3.43319988      -1.04719675E-05
   3.44519997      -1.20151617E-05
   3.45720005      -1.36649278E-05
   3.46919990      -1.54098743E-05
   3.48119998      -1.72357777E-05
   3.49320006      -1.91257423E-05
   3.50519991      -2.10604467E-05
   3.51719999      -2.30184687E-05
   3.52920008      -2.49767072E-05
   3.54119992      -2.69108641E-05
   3.55320001      -2.87959956E-05
   3.56520009      -3.06070833E-05
   3.57719994      -3.23196764E-05
   3.58920002      -3.39104881E-05
   3.60120010      -3.53580035E-05
   3.61319995      -3.66430686E-05
   3.62520003      -3.77493780E-05
   3.63720012      -3.86639476E-05
   3.64919996      -3.93774426E-05
   3.66120005      -3.98844495E-05
   3.67319989      -4.01836114E-05
   3.68519998      -4.02776604E-05
   3.69720006      -4.01733159E-05
   3.70919991      -3.98810989E-05
   3.72119999      -3.94149829E-05
   3.73320007      -3.87920190E-05
   3.74519992      -3.80318088E-05
   3.75720000      -3.71559545E-05
   3.76920009      -3.61874554E-05
   3.78119993      -3.51500457E-05
   3.79320002      -3.40675688E-05
   3.80520010      -3.29633403E-05
   3.81719995      -3.18595412E-05
   3.82920003      -3.07767041E-05
   3.84120011      -2.97332226E-05
   3.85319996      -2.87449711E-05
   3.86520004      -2.78250191E-05
   3.87719989      -2.69834363E-05
   3.88919997      -2.62272169E-05
   3.90120006      -2.55602918E-05
   3.91319990      -2.49836485E-05
   3.92519999      -2.44955390E-05
   3.93720007      -2.40917761E-05
   3.94919991      -2.37660734E-05
   3.96120000      -2.35104580E-05
   3.97320008      -2.33157079E-05
   3.98519993      -2.31718004E-05
   3.99720001      -2.30683727E-05
   4.00920010      -2.29951511E-05
   4.02120018      -2.29423567E-05
   4.03319979      -2.29010639E-05
   4.04519987      -2.28634963E-05
   4.05719995      -2.28232602E-05
   4.06920004      -2.27755299E-05
   4.08120012      -2.27171149E-05
   4.09320021      -2.26464945E-05
   4.10519981      -2.25637705E-05
   4.11719990      -2.24705473E-05
   4.12919998      -2.23697643E-05
   4.14120007      -2.22654708E-05
   4.15320015      -2.21625651E-05
   4.16520023      -2.20665133E-05
   4.17719984      -2.19830363E-05
   4.18919992      -2.19177964E-05
   4.20120001      -2.18761033E-05
   4.21320009      -2.18626228E-05
   4.22520018      -2.18811128E-05
   4.23719978      -2.19342164E-05
   4.24919987      -2.20232832E-05
   4.26119995      -2.21482514E-05
   4.27320004      -2.23075895E-05
   4.28520012      -2.24982996E-05
   4.29720020      -2.27159871E-05
   4.30919981      -2.29549878E-05
   4.32119989      -2.32085567E-05
   4.33319998      -2.34691179E-05
   4.34520006      -2.37285512E-05
   4.35720015      -2.39785186E-05
   4.36920023      -2.42108163E-05
   4.38119984      -2.44177299E-05
   4.39319992      -2.45923966E-05
   4.40520000      -2.47291446E-05
   4.41720009      -2.48237920E-05
   4.42920017      -2.48739179E-05
   4.44119978      -2.48790457E-05
   4.45319986      -2.48407996E-05
   4.46519995      -2.47629341E-05
   4.47720003      -2.46513300E-05
   4.48920012      -2.45138854E-05
   4.50120020      -2.43603281E-05
   4.51319981      -2.42019742E-05
   4.52519989      -2.40514073E-05
   4.53719997      -2.39221099E-05
   4.54920006      -2.38280754E-05
   4.56120014      -2.37833719E-05
   4.57320023      -2.38017292E-05
   4.58519983      -2.38961220E-05
   4.59719992      -2.40783793E-05
   4.60920000      -2.43588420E-05
   4.62120008      -2.47460757E-05
   4.63320017      -2.52466343E-05
   4.64519978      -2.58649052E-05
   4.65719986      -2.66030147E-05
   4.66919994      -2.74608119E-05
   4.68120003      -2.84359176E-05
   4.69320011      -2.95238442E-05
   4.70520020      -3.07181399E-05
   4.71719980      -3.20106155E-05
   4.72919989      -3.33915668E-05
   4.74119997      -3.48500471E-05
   4.75320005      -3.63741128E-05
   4.76520014      -3.79511112E-05
   4.77720022      -3.95679017E-05
   4.78919983      -4.12111076E-05
   4.80119991      -4.28673047E-05
   4.81320000      -4.45231963E-05
   4.82520008      -4.61657582E-05
   4.83720016      -4.77823523E-05
   4.84919977      -4.93608022E-05
   4.86119986      -5.08894773E-05
   4.87319994      -5.23573144E-05
   4.88520002      -5.37538945E-05
   4.89720011      -5.50694494E-05
   4.90920019      -5.62949281E-05
   4.92119980      -5.74220358E-05
   4.93319988      -5.84432928E-05
   4.94519997      -5.93521399E-05
   4.95720005      -6.01429929E-05
   4.96920013      -6.08114096E-05
   4.98120022      -6.13541415E-05
   4.99319983      -6.17693149E-05
   5.00519991      -6.20565188E-05
   5.01719999      -6.22169246E-05
   5.02920008      -6.22533989E-05
   5.04120016      -6.21705331E-05
   5.05319977      -6.19747152E-05
   5.06519985      -6.16740654E-05
   5.07719994      -6.12784061E-05
   5.08920002      -6.07991351E-05
   5.10120010      -6.02490254E-05
   5.11320019      -5.96419923E-05
   5.12519979      -5.89928131E-05
   5.13719988      -5.83167493E-05
   5.14919996      -5.76291968E-05
   5.16120005      -5.69452459E-05
   5.17320013      -5.62792593E-05
   5.18520021      -5.56444502E-05
   5.19719982      -5.50524746E-05
   5.20919991      -5.45130461E-05
   5.22119999      -5.40336259E-05
   5.23320007      -5.36192019E-05
   5.24520016      -5.32720842E-05
   5.25719976      -5.29918834E-05
   5.26919985      -5.27755146E-05
   5.28119993      -5.26173826E-05
   5.29320002      -5.25096148E-05
   5.30520010      -5.24424140E-05
   5.31720018      -5.24045172E-05
   5.32919979      -5.23836861E-05
   5.34119987      -5.23672934E-05
   5.35319996      -5.23428898E-05
   5.36520004      -5.22988339E-05
   5.37720013      -5.22248447E-05
   5.38920021      -5.21125548E-05
   5.40119982      -5.19559253E-05
   5.41319990      -5.17516601E-05
   5.42519999      -5.14994099E-05
   5.43720007      -5.12019360E-05
   5.44920015      -5.08650701E-05
   5.46120024      -5.04975797E-05
   5.47319984      -5.01108589E-05
   5.48519993      -4.97185101E-05
   5.49720001      -4.93358129E-05
   5.50920010      -4.89790582E-05
   5.52120018      -4.86648496E-05
   5.53319979      -4.84093180E-05
   5.54519987      -4.82273499E-05
   5.55719995      -4.81318129E-05
   5.56920004      -4.81328389E-05
   5.58120012      -4.82371979E-05
   5.59320021      -4.84477750E-05
   5.60519981      -4.87632278E-05
   5.61719990      -4.91777573E-05
   5.62919998      -4.96811299E-05
   5.64120007      -5.02588446E-05
   5.65320015      -5.08925368E-05
   5.66520023      -5.15605352E-05
   5.67719984      -5.22386254E-05
   5.68919992      -5.29009412E-05
   5.70120001      -5.35209510E-05
   5.71320009      -5.40725378E-05
   5.72520018      -5.45311013E-05
   5.73719978      -5.48746066E-05
   5.74919987      -5.50845871E-05
   5.76119995      -5.51470075E-05
   5.77320004      -5.50529694E-05
   5.78520012      -5.47991876E-05
   5.79720020      -5.43882998E-05
   5.80919981      -5.38288441E-05
   5.82119989      -5.31350597E-05
   5.83319998      -5.23263843E-05
   5.84520006      -5.14267485E-05
   5.85720015      -5.04636773E-05
   5.86920023      -4.94672131E-05
   5.88119984      -4.84687298E-05
   5.89319992      -4.74996996E-05
   5.90520000      -4.65904086E-05
   5.91720009      -4.57687820E-05
   5.92920017      -4.50592597E-05
   5.94119978      -4.44818434E-05
   5.95319986      -4.40513068E-05
   5.96519995      -4.37766685E-05
   5.97720003      -4.36608716E-05
   5.98920012      -4.37007184E-05
   6.00120020      -4.38870557E-05
   6.01319981      -4.42052151E-05
   6.02519989      -4.46356316E-05
   6.03719997      -4.51546657E-05
   6.04920006      -4.57355527E-05
   6.06120014      -4.63494580E-05
   6.07320023      -4.69665538E-05
   6.08519983      -4.75571287E-05
   6.09719992      -4.80926028E-05
   6.10920000      -4.85464916E-05
   6.12120008      -4.88952064E-05
   6.13320017      -4.91187129E-05
   6.14519978      -4.92009967E-05
   6.15719986      -4.91303763E-05
   6.16919994      -4.88995829E-05
   6.18120003      -4.85057062E-05
   6.19320011      -4.79499504E-05
   6.20520020      -4.72372667E-05
   6.21719980      -4.63759097E-05
   6.22919989      -4.53768589E-05
   6.24119997      -4.42532764E-05
   6.25320005      -4.30198888E-05
   6.26520014      -4.16924522E-05
   6.27720022      -4.02871956E-05
   6.28919983      -3.88203771E-05
   6.30119991      -3.73078728E-05
   6.31320000      -3.57648532E-05
   6.32520008      -3.42055355E-05
   6.33720016      -3.26429690E-05
   6.34919977      -3.10889372E-05
   6.36119986      -2.95538266E-05
   6.37319994      -2.80465720E-05
   6.38520002      -2.65746257E-05
   6.39720011      -2.51439214E-05
   6.40920019      -2.37588683E-05
   6.42119980      -2.24223531E-05
   6.43319988      -2.11357656E-05
   6.44519997      -1.98990456E-05
   6.45720005      -1.87107617E-05
   6.46920013      -1.75682471E-05
   6.48120022      -1.64677622E-05
   6.49319983      -1.54047229E-05
   6.50519991      -1.43739799E-05
   6.51719999      -1.33701396E-05
   6.52920008      -1.23879136E-05
   6.54120016      -1.14224940E-05
   6.55319977      -1.04699184E-05
   6.56519985      -9.52741266E-06
   6.57719994      -8.59367265E-06
   6.58920002      -7.66908670E-06
   6.60120010      -6.75585807E-06
   6.61320019      -5.85802763E-06
   6.62519979      -4.98138434E-06
   6.63719988      -4.13326779E-06
   6.64919996      -3.32226841E-06
   6.66120005      -2.55784380E-06
   6.67320013      -1.84987209E-06
   6.68520021      -1.20816981E-06
   6.69719982      -6.41998042E-07
   6.70919991      -1.59591011E-07
   6.72119999       2.32267467E-07
   6.73320007       5.28598321E-07
   6.74520016       7.26492431E-07
   6.75719976       8.25276857E-07
   6.76919985       8.26575842E-07
   6.78119993       7.34266735E-07
   6.79320002       5.54342478E-07
   6.80520010       2.94690608E-07
   6.81720018      -3.51932670E-08
   6.82919979      -4.24537262E-07
   6.84119987      -8.61654030E-07
   6.85319996      -1.33430729E-06
   6.86520004      -1.83006557E-06
   6.87720013      -2.33663286E-06
   6.88920021      -2.84214002E-06
   6.90119982      -3.33539128E-06
   6.91319990      -3.80606275E-06
   6.92519999      -4.24485370E-06
   6.93720007      -4.64359255E-06
   6.94920015      -4.99530279E-06
   6.96120024      -5.29423414E-06
   6.97319984      -5.53586960E-06
   6.98519993      -5.71691135E-06
   6.99720001      -5.83524843E-06
   7.00920010      -5.88991816E-06
   7.02120018      -5.88105286E-06
   7.03319979      -5.80982032E-06
   7.04519987      -5.67835104E-06
   7.05719995      -5.48965545E-06
   7.06920004      -5.24752340E-06
   7.08120012      -4.95640688E-06
   7.09320021      -4.62128537E-06
   7.10519981      -4.24751261E-06
   7.11719990      -3.84064288E-06
   7.12919998      -3.40625343E-06
   7.14120007      -2.94975780E-06
   7.15320015      -2.47622916E-06
   7.16520023      -1.99024066E-06
   7.17719984      -1.49573304E-06
   7.18919992      -9.95926371E-07
   7.20120001      -4.93277980E-07
   7.21320009       1.04993569E-08
   7.22520018       5.14363649E-07
   7.23719978       1.01780984E-06
   7.24919987       1.52068480E-06
   7.26119995       2.02296474E-06
   7.27320004       2.52450673E-06
   7.28520012       3.02479543E-06
   7.29720020       3.52270740E-06
   7.30919981       4.01630905E-06
   7.32119989       4.50271409E-06
   7.33319998       4.97801375E-06
   7.34520006       5.43728902E-06
   7.35720015       5.87471322E-06
   7.36920023       6.28373891E-06
   7.38119984       6.65736388E-06
   7.39319992       6.98845724E-06
   7.40520000       7.27012366E-06
   7.41720009       7.49608625E-06
   7.42920017       7.66105859E-06
   7.44119978       7.76107481E-06
   7.45319986       7.79377115E-06
   7.46519995       7.75858007E-06
   7.47720003       7.65684399E-06
   7.48920012       7.49183073E-06
   7.50120020       7.26865801E-06
   7.51319981       6.99413476E-06
   7.52519989       6.67653330E-06
   7.53719997       6.32530873E-06
   7.54920006       5.95078427E-06
   7.56120014       5.56382474E-06
   7.57320023       5.17551371E-06
   7.58519983       4.79684240E-06
   7.59719992       4.43842828E-06
   7.60920000       4.11026303E-06
   7.62120008       3.82148573E-06
   7.63320017       3.58018315E-06
   7.64519978       3.39321423E-06
   7.65719986       3.26604072E-06
   7.66919994       3.20257323E-06
   7.68120003       3.20501999E-06
   7.69320011       3.27374551E-06
   7.70520020       3.40713791E-06
   7.71719980       3.60150375E-06
   7.72919989       3.85099474E-06
   7.74119997       4.14758688E-06
   7.75320005       4.48112314E-06
   7.76520014       4.83944086E-06
   7.77720022       5.20859248E-06
   7.78919983       5.57316616E-06
   7.80119991       5.91671005E-06
   7.81320000       6.22225161E-06
   7.82520008       6.47290108E-06
   7.83720016       6.65251355E-06
   7.84919977       6.74638613E-06
   7.86119986       6.74195053E-06
   7.87319994       6.62943012E-06
   7.88520002       6.40242297E-06
   7.89720011       6.05836840E-06
   7.90920019       5.59887394E-06
   7.92119980       5.02986813E-06
   7.93319988       4.36156870E-06
   7.94519997       3.60825061E-06
   7.95720005       2.78782318E-06
   7.96920013       1.92122116E-06
   7.98120022       1.03163779E-06
   7.99319983       1.43628625E-07
   8.00520039      -7.17876446E-07
   8.01720047      -1.52860639E-06
   8.02919960      -2.26598399E-06
   8.04119968      -2.91010838E-06
   8.05319977      -3.44464479E-06
   8.06519985      -3.85757266E-06
   8.07719994      -4.14175884E-06
   8.08920002      -4.29532065E-06
   8.10120010      -4.32176694E-06
   8.11320019      -4.22989933E-06
   8.12520027      -4.03348395E-06
   8.13720036      -3.75069658E-06
   8.14920044      -3.40337533E-06
   8.16119957      -3.01610658E-06
   8.17319965      -2.61519017E-06
   8.18519974      -2.22753147E-06
   8.19719982      -1.87950707E-06
   8.20919991      -1.59586284E-06
   8.22119999      -1.39869178E-06
   8.23320007      -1.30653984E-06
   8.24520016      -1.33367951E-06
   8.25720024      -1.48958213E-06
   8.26920033      -1.77861182E-06
   8.28120041      -2.19994490E-06
   8.29319954      -2.74771583E-06
   8.30519962      -3.41137479E-06
   8.31719971      -4.17623050E-06
   8.32919979      -5.02414787E-06
   8.34119987      -5.93435880E-06
   8.35319996      -6.88435193E-06
   8.36520004      -7.85078646E-06
   8.37720013      -8.81040432E-06
   8.38920021      -9.74088380E-06
   8.40120029      -1.06216239E-05
   8.41320038      -1.14344102E-05
   8.42520046      -1.21639569E-05
   8.43719959      -1.27983049E-05
   8.44919968      -1.33290760E-05
   8.46119976      -1.37515744E-05
   8.47319984      -1.40647562E-05
   8.48519993      -1.42710633E-05
   8.49720001      -1.43761508E-05
   8.50920010      -1.43885200E-05
   8.52120018      -1.43190764E-05
   8.53320026      -1.41806395E-05
   8.54520035      -1.39874137E-05
   8.55720043      -1.37544566E-05
   8.56919956      -1.34971442E-05
   8.58119965      -1.32306768E-05
   8.59319973      -1.29696118E-05
   8.60519981      -1.27274661E-05
   8.61719990      -1.25163797E-05
   8.62919998      -1.23468553E-05
   8.64120007      -1.22275933E-05
   8.65320015      -1.21653966E-05
   8.66520023      -1.21651683E-05
   8.67720032      -1.22299789E-05
   8.68920040      -1.23612053E-05
   8.70119953      -1.25587158E-05
   8.71319962      -1.28210868E-05
   8.72519970      -1.31458328E-05
   8.73719978      -1.35296277E-05
   8.74919987      -1.39684989E-05
   8.76119995      -1.44579753E-05
   8.77320004      -1.49931757E-05
   8.78520012      -1.55688322E-05
   8.79720020      -1.61792595E-05
   8.80920029      -1.68182578E-05
   8.82120037      -1.74789766E-05
   8.83320045      -1.81537744E-05
   8.84519958      -1.88340564E-05
   8.85719967      -1.95101729E-05
   8.86919975      -2.01713538E-05
   8.88119984      -2.08057500E-05
   8.89319992      -2.14005431E-05
   8.90520000      -2.19422036E-05
   8.91720009      -2.24168489E-05
   8.92920017      -2.28106965E-05
   8.94120026      -2.31106224E-05
   8.95320034      -2.33047685E-05
   8.96520042      -2.33831761E-05
   8.97719955      -2.33384053E-05
   8.98919964      -2.31660779E-05
   9.00119972      -2.28653425E-05
   9.01319981      -2.24391824E-05
   9.02519989      -2.18945788E-05
   9.03719997      -2.12424802E-05
   9.04920006      -2.04976004E-05
   9.06120014      -1.96780456E-05
   9.07320023      -1.88047743E-05
   9.08520031      -1.79009476E-05
   9.09720039      -1.69911873E-05
   9.10919952      -1.61007720E-05
   9.12119961      -1.52548564E-05
   9.13319969      -1.44776841E-05
   9.14519978      -1.37919005E-05
   9.15719986      -1.32179348E-05
   9.16919994      -1.27734966E-05
   9.18120003      -1.24731987E-05
   9.19320011      -1.23282907E-05
   9.20520020      -1.23465052E-05
   9.21720028      -1.25320003E-05
   9.22920036      -1.28853890E-05
   9.24120045      -1.34038346E-05
   9.25319958      -1.40811890E-05
   9.26519966      -1.49081789E-05
   9.27719975      -1.58726198E-05
   9.28919983      -1.69596624E-05
   9.30119991      -1.81520645E-05
   9.31320000      -1.94304957E-05
   9.32520008      -2.07739013E-05
   9.33720016      -2.21598875E-05
   9.34920025      -2.35651769E-05
   9.36120033      -2.49661116E-05
   9.37320042      -2.63391921E-05
   9.38519955      -2.76616702E-05
   9.39719963      -2.89121454E-05
   9.40919971      -3.00711727E-05
   9.42119980      -3.11218246E-05
   9.43319988      -3.20502149E-05
   9.44519997      -3.28458955E-05
