 -0.622799993       0.00000000    
 -0.610800028       0.00000000    
 -0.598800004       0.00000000    
 -0.586799979       5.31088652E-16
 -0.574800014       3.01012407E-15
 -0.562799990       9.05988897E-15
 -0.550800025       1.89750339E-14
 -0.538800001       3.10214907E-14
 -0.526799977       4.37195717E-14
 -0.514800012       6.15305672E-14
 -0.502799988       1.00819520E-13
 -0.490799993       1.89805677E-13
 -0.478799999       3.56356410E-13
 -0.466800004       6.02678768E-13
 -0.454800010       8.74941233E-13
 -0.442799985       1.04422493E-12
 -0.430799991       9.17101573E-13
 -0.418799996       2.85637020E-13
 -0.406800002      -9.91414524E-13
 -0.394800007      -2.90526674E-12
 -0.382800013      -5.25400990E-12
 -0.370799989      -7.67887663E-12
 -0.358799994      -9.79622373E-12
 -0.346799999      -1.14056802E-11
 -0.334800005      -1.27199501E-11
 -0.322800010      -1.45437603E-11
 -0.310799986      -1.83395018E-11
 -0.298799992      -2.61539731E-11
 -0.286799997      -4.04317413E-11
 -0.274800003      -6.37846512E-11
 -0.262800008      -9.88044646E-11
 -0.250800014      -1.47988719E-10
 -0.238800004      -2.13803225E-10
 -0.226799995      -2.98849889E-10
 -0.214800000      -4.06066653E-10
 -0.202800006      -5.38878220E-10
 -0.190799996      -7.01238734E-10
 -0.178800002      -8.97548869E-10
 -0.166800007      -1.13246568E-09
 -0.154799998      -1.41063916E-09
 -0.142800003      -1.73638137E-09
 -0.130799994      -2.11325224E-09
 -0.118799999      -2.54350740E-09
 -0.106799997      -3.02738146E-09
  -9.48000029E-02  -3.56223318E-09
  -8.28000009E-02  -4.14167456E-09
  -7.07999989E-02  -4.75489870E-09
  -5.88000007E-02  -5.38645351E-09
  -4.67999987E-02  -6.01668493E-09
  -3.48000005E-02  -6.62291377E-09
  -2.28000004E-02  -7.18130222E-09
  -1.08000003E-02  -7.66916308E-09
   1.20000006E-03  -8.06744094E-09
   1.31999999E-02  -8.36310399E-09
   2.52000000E-02  -8.55134630E-09
   3.72000001E-02  -8.63760707E-09
   4.91999984E-02  -8.63952643E-09
   6.12000003E-02  -8.58883542E-09
   7.32000023E-02  -8.53302051E-09
   8.51999968E-02  -8.53611759E-09
   9.71999988E-02  -8.67781313E-09
  0.109200001      -9.04975384E-09
  0.121200003      -9.74819958E-09
  0.133200005      -1.08626690E-08
  0.145199999      -1.24610002E-08
  0.157199994      -1.45722145E-08
  0.169200003      -1.71694303E-08
  0.181199998      -2.01555181E-08
  0.193200007      -2.33543371E-08
  0.205200002      -2.65098805E-08
  0.217199996      -2.92949203E-08
  0.229200006      -3.13297015E-08
  0.241200000      -3.22103162E-08
  0.253199995      -3.15455040E-08
  0.265199989      -2.89999793E-08
  0.277200013      -2.43417517E-08
  0.289200008      -1.74903505E-08
  0.301200002      -8.56206661E-09
  0.313199997       2.09254347E-09
  0.325199991       1.38646410E-08
  0.337199986       2.58827662E-08
  0.349200010       3.70344431E-08
  0.361200005       4.60189504E-08
  0.373199999       5.14342879E-08
  0.385199994       5.18980663E-08
  0.397199988       4.61982772E-08
  0.409200013       3.34651453E-08
  0.421200007       1.33517606E-08
  0.433200002      -1.37922029E-08
  0.445199996      -4.67710741E-08
  0.457199991      -8.34359497E-08
  0.469199985      -1.20635434E-07
  0.481200010      -1.54237767E-07
  0.493200004      -1.79233112E-07
  0.505200028      -1.89917841E-07
  0.517199993      -1.80157187E-07
  0.529200017      -1.43712498E-07
  0.541199982      -7.46134603E-08
  0.553200006       3.24548104E-08
  0.565199971       1.81784003E-07
  0.577199996       3.76335180E-07
  0.589200020       6.17530304E-07
  0.601199985       9.05178410E-07
  0.613200009       1.23756752E-06
  0.625199974       1.61173671E-06
  0.637199998       2.02392835E-06
  0.649200022       2.47020489E-06
  0.661199987       2.94719916E-06
  0.673200011       3.45294325E-06
  0.685199976       3.98771817E-06
  0.697200000       4.55484906E-06
  0.709200025       5.16136561E-06
  0.721199989       5.81845825E-06
  0.733200014       6.54165524E-06
  0.745199978       7.35067124E-06
  0.757200003       8.26889027E-06
  0.769200027       9.32247804E-06
  0.781199992       1.05391337E-05
  0.793200016       1.19465412E-05
  0.805199981       1.35705905E-05
  0.817200005       1.54334812E-05
  0.829200029       1.75518053E-05
  0.841199994       1.99347851E-05
  0.853200018       2.25827334E-05
  0.865199983       2.54859042E-05
  0.877200007       2.86238228E-05
  0.889199972       3.19651626E-05
  0.901199996       3.54682052E-05
  0.913200021       3.90819114E-05
  0.925199986       4.27475607E-05
  0.937200010       4.64008881E-05
  0.949199975       4.99746566E-05
  0.961199999       5.34014762E-05
  0.973200023       5.66167982E-05
  0.985199988       5.95618694E-05
  0.997200012       6.21865547E-05
   1.00919998       6.44517786E-05
   1.02119994       6.63316241E-05
   1.03320003       6.78148353E-05
   1.04519999       6.89056687E-05
   1.05719995       6.96241259E-05
   1.06920004       7.00055170E-05
   1.08120000       7.00993478E-05
   1.09319997       6.99675293E-05
   1.10520005       6.96822462E-05
   1.11720002       6.93231996E-05
   1.12919998       6.89746375E-05
   1.14119995       6.87222273E-05
   1.15320003       6.86497806E-05
   1.16520000       6.88361106E-05
   1.17719996       6.93520778E-05
   1.18920004       7.02578618E-05
   1.20120001       7.16006616E-05
   1.21319997       7.34128553E-05
   1.22520006       7.57106172E-05
   1.23720002       7.84931035E-05
   1.24919999       8.17422115E-05
   1.26119995       8.54228856E-05
   1.27320004       8.94839177E-05
   1.28520000       9.38592275E-05
   1.29719996       9.84696599E-05
   1.30920005       1.03225088E-04
   1.32120001       1.08026761E-04
   1.33319998       1.12769958E-04
   1.34519994       1.17346746E-04
   1.35720003       1.21648744E-04
   1.36919999       1.25569917E-04
   1.38119996       1.29009379E-04
   1.39320004       1.31873836E-04
   1.40520000       1.34079950E-04
   1.41719997       1.35556489E-04
   1.42920005       1.36245872E-04
   1.44120002       1.36105693E-04
   1.45319998       1.35109600E-04
   1.46519995       1.33247901E-04
   1.47720003       1.30527638E-04
   1.48920000       1.26972402E-04
   1.50119996       1.22621554E-04
   1.51320004       1.17529205E-04
   1.52520001       1.11762703E-04
   1.53719997       1.05400897E-04
   1.54920006       9.85320803E-05
   1.56120002       9.12516989E-05
   1.57319999       8.36599284E-05
   1.58519995       7.58592942E-05
   1.59720004       6.79521618E-05
   1.60920000       6.00384374E-05
   1.62119997       5.22134796E-05
   1.63320005       4.45662445E-05
   1.64520001       3.71776987E-05
   1.65719998       3.01196669E-05
   1.66919994       2.34540403E-05
   1.68120003       1.72323471E-05
   1.69319999       1.14957511E-05
   1.70519996       6.27536429E-06
   1.71720004       1.59287526E-06
   1.72920001      -2.53858889E-06
   1.74119997      -6.11344785E-06
   1.75320005      -9.13257281E-06
   1.76520002      -1.16022093E-05
   1.77719998      -1.35329856E-05
   1.78919995      -1.49390871E-05
   1.80120003      -1.58376042E-05
   1.81320000      -1.62481047E-05
   1.82519996      -1.61924163E-05
   1.83720005      -1.56945971E-05
   1.84920001      -1.47810551E-05
   1.86119998      -1.34807824E-05
   1.87320006      -1.18256376E-05
   1.88520002      -9.85059432E-06
   1.89719999      -7.59391060E-06
   1.90919995      -5.09716574E-06
   1.92120004      -2.40509053E-06
   1.93320000       4.34809635E-07
   1.94519997       3.37287838E-06
   1.95720005       6.35815877E-06
   1.96920002       9.33942829E-06
   1.98119998       1.22664042E-05
   1.99319994       1.50910073E-05
   2.00519991       1.77686343E-05
   2.01719999       2.02593801E-05
   2.02920008       2.25290769E-05
   2.04119992       2.45501724E-05
   2.05320001       2.63023339E-05
   2.06520009       2.77727740E-05
   2.07719994       2.89563250E-05
   2.08920002       2.98552077E-05
   2.10120010       3.04785917E-05
   2.11319995       3.08419112E-05
   2.12520003       3.09660390E-05
   2.13720012       3.08763629E-05
   2.14919996       3.06017682E-05
   2.16120005       3.01736163E-05
   2.17319989       2.96247545E-05
   2.18519998       2.89885702E-05
   2.19720006       2.82981455E-05
   2.20919991       2.75854964E-05
   2.22119999       2.68809144E-05
   2.23320007       2.62123904E-05
   2.24519992       2.56051444E-05
   2.25720000       2.50811845E-05
   2.26920009       2.46589298E-05
   2.28119993       2.43529030E-05
   2.29320002       2.41734288E-05
   2.30520010       2.41264297E-05
   2.31719995       2.42132555E-05
   2.32920003       2.44306648E-05
   2.34120011       2.47708540E-05
   2.35319996       2.52217051E-05
   2.36520004       2.57671381E-05
   2.37719989       2.63876354E-05
   2.38919997       2.70609398E-05
   2.40120006       2.77628642E-05
   2.41319990       2.84682264E-05
   2.42519999       2.91518390E-05
   2.43720007       2.97895567E-05
   2.44919991       3.03592515E-05
   2.46120000       3.08417439E-05
   2.47320008       3.12215707E-05
   2.48519993       3.14875979E-05
   2.49720001       3.16334044E-05
   2.50920010       3.16574078E-05
   2.52119994       3.15627913E-05
   2.53320003       3.13571436E-05
   2.54520011       3.10519426E-05
   2.55719995       3.06618276E-05
   2.56920004       3.02038025E-05
   2.58119988       2.96963517E-05
   2.59319997       2.91586148E-05
   2.60520005       2.86095783E-05
   2.61719990       2.80674376E-05
   2.62919998       2.75490365E-05
   2.64120007       2.70695527E-05
   2.65319991       2.66423049E-05
   2.66520000       2.62787289E-05
   2.67720008       2.59884982E-05
   2.68919992       2.57797328E-05
   2.70120001       2.56592593E-05
   2.71320009       2.56328640E-05
   2.72519994       2.57055181E-05
   2.73720002       2.58815071E-05
   2.74920011       2.61644418E-05
   2.76119995       2.65571507E-05
   2.77320004       2.70614291E-05
   2.78520012       2.76776937E-05
   2.79719996       2.84045454E-05
   2.80920005       2.92383156E-05
   2.82119989       3.01726286E-05
   2.83319998       3.11980366E-05
   2.84520006       3.23018066E-05
   2.85719991       3.34678480E-05
   2.86919999       3.46768429E-05
   2.88120008       3.59065998E-05
   2.89319992       3.71325696E-05
   2.90520000       3.83286206E-05
   2.91720009       3.94678937E-05
   2.92919993       4.05238352E-05
   2.94120002       4.14712413E-05
   2.95320010       4.22873309E-05
   2.96519995       4.29526954E-05
   2.97720003       4.34521244E-05
   2.98920012       4.37752242E-05
   3.00119996       4.39167488E-05
   3.01320004       4.38766438E-05
   3.02519989       4.36598166E-05
   3.03719997       4.32756242E-05
   3.04920006       4.27371378E-05
   3.06119990       4.20602228E-05
   3.07319999       4.12625450E-05
   3.08520007       4.03625127E-05
   3.09719992       3.93782539E-05
   3.10920000       3.83267179E-05
   3.12120008       3.72229297E-05
   3.13319993       3.60794256E-05
   3.14520001       3.49059992E-05
   3.15720010       3.37096790E-05
   3.16919994       3.24949942E-05
   3.18120003       3.12645316E-05
   3.19320011       3.00196170E-05
   3.20519996       2.87612202E-05
   3.21720004       2.74908707E-05
   3.22919989       2.62115518E-05
   3.24119997       2.49285131E-05
   3.25320005       2.36499163E-05
   3.26519990       2.23872612E-05
   3.27719998       2.11555398E-05
   3.28920007       1.99731894E-05
   3.30119991       1.88616959E-05
   3.31320000       1.78449609E-05
   3.32520008       1.69484483E-05
   3.33719993       1.61980879E-05
   3.34920001       1.56190581E-05
   3.36120009       1.52345237E-05
   3.37319994       1.50643546E-05
   3.38520002       1.51239647E-05
   3.39720011       1.54233257E-05
   3.40919995       1.59661995E-05
   3.42120004       1.67496419E-05
   3.43319988       1.77637758E-05
   3.44519997       1.89918683E-05
   3.45720005       2.04106600E-05
   3.46919990       2.19909780E-05
   3.48119998       2.36985525E-05
   3.49320006       2.54950774E-05
   3.50519991       2.73394216E-05
   3.51719999       2.91889646E-05
   3.52920008       3.10010255E-05
   3.54119992       3.27342932E-05
   3.55320001       3.43501997E-05
   3.56520009       3.58142424E-05
   3.57719994       3.70971247E-05
   3.58920002       3.81757163E-05
   3.60120010       3.90337955E-05
   3.61319995       3.96625801E-05
   3.62520003       4.00609242E-05
   3.63720012       4.02352598E-05
   3.64919996       4.01992475E-05
   3.66120005       3.99730743E-05
   3.67319989       3.95825264E-05
   3.68519998       3.90577334E-05
   3.69720006       3.84317864E-05
   3.70919991       3.77391370E-05
   3.72119999       3.70140151E-05
   3.73320007       3.62888168E-05
   3.74519992       3.55925586E-05
   3.75720000       3.49495604E-05
   3.76920009       3.43783031E-05
   3.78119993       3.38905957E-05
   3.79320002       3.34911201E-05
   3.80520010       3.31773408E-05
   3.81719995       3.29398499E-05
   3.82920003       3.27631133E-05
   3.84120011       3.26266199E-05
   3.85319996       3.25063411E-05
   3.86520004       3.23763925E-05
   3.87719989       3.22108608E-05
   3.88919997       3.19855862E-05
   3.90120006       3.16799305E-05
   3.91319990       3.12782613E-05
   3.92519999       3.07712471E-05
   3.93720007       3.01567670E-05
   3.94919991       2.94404745E-05
   3.96120000       2.86359009E-05
   3.97320008       2.77641320E-05
   3.98519993       2.68530348E-05
   3.99720001       2.59360604E-05
   4.00920010       2.50507073E-05
   4.02120018       2.42366859E-05
   4.03319979       2.35339285E-05
   4.04519987       2.29805300E-05
   4.05719995       2.26107404E-05
   4.06920004       2.24531213E-05
   4.08120012       2.25289314E-05
   4.09320021       2.28508561E-05
   4.10519981       2.34220552E-05
   4.11719990       2.42356855E-05
   4.12919998       2.52748086E-05
   4.14120007       2.65127946E-05
   4.15320015       2.79141332E-05
   4.16520023       2.94356778E-05
   4.17719984       3.10282412E-05
   4.18919992       3.26384725E-05
   4.20120001       3.42108979E-05
   4.21320009       3.56901219E-05
   4.22520018       3.70229536E-05
   4.23719978       3.81605132E-05
   4.24919987       3.90601672E-05
   4.26119995       3.96872056E-05
   4.27320004       4.00163153E-05
   4.28520012       4.00326535E-05
   4.29720020       3.97325603E-05
   4.30919981       3.91238864E-05
   4.32119989       3.82258877E-05
   4.33319998       3.70686284E-05
   4.34520006       3.56920536E-05
   4.35720015       3.41446103E-05
   4.36920023       3.24815701E-05
   4.38119984       3.07630617E-05
   4.39319992       2.90519165E-05
   4.40520000       2.74113590E-05
   4.41720009       2.59026619E-05
   4.42920017       2.45828469E-05
   4.44119978       2.35025054E-05
   4.45319986       2.27038345E-05
   4.46519995       2.22189847E-05
   4.47720003       2.20687962E-05
   4.48920012       2.22620074E-05
   4.50120020       2.27949313E-05
   4.51319981       2.36516698E-05
   4.52519989       2.48048182E-05
   4.53719997       2.62166632E-05
   4.54920006       2.78407824E-05
   4.56120014       2.96240323E-05
   4.57320023       3.15087855E-05
   4.58519983       3.34353608E-05
   4.59719992       3.53445030E-05
   4.60920000       3.71798051E-05
   4.62120008       3.88899607E-05
   4.63320017       4.04307175E-05
   4.64519978       4.17664123E-05
   4.65719986       4.28710955E-05
   4.66919994       4.37291092E-05
   4.68120003       4.43352146E-05
   4.69320011       4.46941995E-05
   4.70520020       4.48201245E-05
   4.71719980       4.47350976E-05
   4.72919989       4.44678917E-05
   4.74119997       4.40522308E-05
   4.75320005       4.35250331E-05
   4.76520014       4.29246138E-05
   4.77720022       4.22889134E-05
   4.78919983       4.16539624E-05
   4.80119991       4.10525026E-05
   4.81320000       4.05129686E-05
   4.82520008       4.00587487E-05
   4.83720016       3.97077965E-05
   4.84919977       3.94725175E-05
   4.86119986       3.93599184E-05
   4.87319994       3.93719529E-05
   4.88520002       3.95060124E-05
   4.89720011       3.97555195E-05
   4.90920019       4.01105463E-05
   4.92119980       4.05584906E-05
   4.93319988       4.10847206E-05
   4.94519997       4.16731746E-05
   4.95720005       4.23069723E-05
   4.96920013       4.29688698E-05
   4.98120022       4.36417358E-05
   4.99319983       4.43089157E-05
   5.00519991       4.49545587E-05
   5.01719999       4.55639201E-05
   5.02920008       4.61236305E-05
   5.04120016       4.66219717E-05
   5.05319977       4.70491468E-05
   5.06519985       4.73975197E-05
   5.07719994       4.76618407E-05
   5.08920002       4.78394031E-05
   5.10120010       4.79301307E-05
   5.11320019       4.79366026E-05
   5.12519979       4.78639340E-05
   5.13719988       4.77196372E-05
   5.14919996       4.75133202E-05
   5.16120005       4.72563661E-05
   5.17320013       4.69615370E-05
   5.18520021       4.66424754E-05
   5.19719982       4.63132164E-05
   5.20919991       4.59876792E-05
   5.22119999       4.56791131E-05
   5.23320007       4.53996654E-05
   5.24520016       4.51599262E-05
   5.25719976       4.49686013E-05
   5.26919985       4.48322571E-05
   5.28119993       4.47551975E-05
   5.29320002       4.47393577E-05
   5.30520010       4.47843522E-05
   5.31720018       4.48875180E-05
   5.32919979       4.50440530E-05
   5.34119987       4.52471322E-05
   5.35319996       4.54880756E-05
   5.36520004       4.57565511E-05
   5.37720013       4.60407682E-05
   5.38920021       4.63277393E-05
   5.40119982       4.66035308E-05
   5.41319990       4.68535472E-05
   5.42519999       4.70628693E-05
   5.43720007       4.72165702E-05
   5.44920015       4.73001201E-05
   5.46120024       4.72997526E-05
   5.47319984       4.72029533E-05
   5.48519993       4.69989100E-05
   5.49720001       4.66790661E-05
   5.50920010       4.62376302E-05
   5.52120018       4.56721355E-05
   5.53319979       4.49839426E-05
   5.54519987       4.41786942E-05
   5.55719995       4.32666602E-05
   5.56920004       4.22628946E-05
   5.58120012       4.11872643E-05
   5.59320021       4.00642311E-05
   5.60519981       3.89224115E-05
   5.61719990       3.77939068E-05
   5.62919998       3.67133689E-05
   5.64120007       3.57169047E-05
   5.65320015       3.48407484E-05
   5.66520023       3.41198611E-05
   5.67719984       3.35864133E-05
   5.68919992       3.32683048E-05
   5.70120001       3.31877272E-05
   5.71320009       3.33599237E-05
   5.72520018       3.37921483E-05
   5.73719978       3.44829641E-05
   5.74919987       3.54218610E-05
   5.76119995       3.65893211E-05
   5.77320004       3.79572521E-05
   5.78520012       3.94898416E-05
   5.79720020       4.11448091E-05
   5.80919981       4.28748972E-05
   5.82119989       4.46296690E-05
   5.83319998       4.63573815E-05
   5.84520006       4.80069793E-05
   5.85720015       4.95299355E-05
   5.86920023       5.08820194E-05
   5.88119984       5.20247959E-05
   5.89319992       5.29267963E-05
   5.90520000       5.35643921E-05
   5.91720009       5.39221946E-05
   5.92920017       5.39931461E-05
   5.94119978       5.37781489E-05
   5.95319986       5.32854247E-05
   5.96519995       5.25295363E-05
   5.97720003       5.15302199E-05
   5.98920012       5.03111041E-05
   6.00120020       4.88983605E-05
   6.01319981       4.73194050E-05
   6.02519989       4.56017115E-05
   6.03719997       4.37717717E-05
   6.04920006       4.18543204E-05
   6.06120014       3.98717348E-05
   6.07320023       3.78437326E-05
   6.08519983       3.57872996E-05
   6.09719992       3.37168058E-05
   6.10920000       3.16443329E-05
   6.12120008       2.95801165E-05
   6.13320017       2.75330549E-05
   6.14519978       2.55112536E-05
   6.15719986       2.35225489E-05
   6.16919994       2.15749551E-05
   6.18120003       1.96770288E-05
   6.19320011       1.78380942E-05
   6.20520020       1.60683649E-05
   6.21719980       1.43789312E-05
   6.22919989       1.27816393E-05
   6.24119997       1.12888838E-05
   6.25320005       9.91333309E-06
   6.26520014       8.66762912E-06
   6.27720022       7.56408235E-06
   6.28919983       6.61439753E-06
   6.30119991       5.82945040E-06
   6.31320000       5.21912625E-06
   6.32520008       4.79223763E-06
   6.33720016       4.55648478E-06
   6.34919977       4.51847018E-06
   6.36119986       4.68371400E-06
   6.37319994       5.05666003E-06
   6.38520002       5.64062702E-06
   6.39720011       6.43768681E-06
   6.40920019       7.44845238E-06
   6.42119980       8.67175186E-06
   6.43319988       1.01042579E-05
   6.44519997       1.17400086E-05
   6.45720005       1.35699320E-05
   6.46920013       1.55813905E-05
   6.48120022       1.77577822E-05
   6.49319983       2.00782797E-05
   6.50519991       2.25177246E-05
   6.51719999       2.50467656E-05
   6.52920008       2.76321989E-05
   6.54120016       3.02375920E-05
   6.55319977       3.28241476E-05
   6.56519985       3.53518117E-05
   6.57719994       3.77805263E-05
   6.58920002       4.00716563E-05
   6.60120010       4.21894256E-05
   6.61320019       4.41022930E-05
   6.62519979       4.57841779E-05
   6.63719988       4.72155189E-05
   6.64919996       4.83838994E-05
   6.66120005       4.92844520E-05
   6.67320013       4.99197558E-05
   6.68520021       5.02994189E-05
   6.69719982       5.04392774E-05
   6.70919991       5.03602823E-05
   6.72119999       5.00871392E-05
   6.73320007       4.96468274E-05
   6.74520016       4.90670645E-05
   6.75719976       4.83748045E-05
   6.76919985       4.75948764E-05
   6.78119993       4.67488899E-05
   6.79320002       4.58544346E-05
   6.80520010       4.49246072E-05
   6.81720018       4.39679898E-05
   6.82919979       4.29889187E-05
   6.84119987       4.19881399E-05
   6.85319996       4.09636959E-05
   6.86520004       3.99120145E-05
   6.87720013       3.88290791E-05
   6.88920021       3.77116048E-05
   6.90119982       3.65581436E-05
   6.91319990       3.53700161E-05
   6.92519999       3.41520608E-05
   6.93720007       3.29131144E-05
   6.94920015       3.16661899E-05
   6.96120024       3.04283767E-05
   6.97319984       2.92204695E-05
   6.98519993       2.80663007E-05
   6.99720001       2.69918801E-05
   7.00920010       2.60243960E-05
   7.02120018       2.51910842E-05
   7.03319979       2.45181218E-05
   7.04519987       2.40295412E-05
   7.05719995       2.37462154E-05
   7.06920004       2.36849901E-05
   7.08120012       2.38579323E-05
   7.09320021       2.42717306E-05
   7.10519981       2.49272671E-05
   7.11719990       2.58193377E-05
   7.12919998       2.69365428E-05
   7.14120007       2.82613692E-05
   7.15320015       2.97704300E-05
   7.16520023       3.14349018E-05
   7.17719984       3.32211166E-05
   7.18919992       3.50913288E-05
   7.20120001       3.70045746E-05
   7.21320009       3.89176857E-05
   7.22520018       4.07863699E-05
   7.23719978       4.25663675E-05
   7.24919987       4.42146593E-05
   7.26119995       4.56907292E-05
   7.27320004       4.69578117E-05
   7.28520012       4.79841219E-05
   7.29720020       4.87439975E-05
   7.30919981       4.92188992E-05
   7.32119989       4.93982407E-05
   7.33319998       4.92799300E-05
   7.34520006       4.88706719E-05
   7.35720015       4.81859133E-05
   7.36920023       4.72494903E-05
   7.38119984       4.60929441E-05
   7.39319992       4.47545062E-05
   7.40520000       4.32778397E-05
   7.41720009       4.17105621E-05
   7.42920017       4.01025463E-05
   7.44119978       3.85041567E-05
   7.45319986       3.69644549E-05
   7.46519995       3.55294615E-05
   7.47720003       3.42405365E-05
   7.48920012       3.31330120E-05
   7.50120020       3.22350425E-05
   7.51319981       3.15668403E-05
   7.52519989       3.11401891E-05
   7.53719997       3.09583629E-05
   7.54920006       3.10163596E-05
   7.56120014       3.13014716E-05
   7.57320023       3.17941449E-05
   7.58519983       3.24690373E-05
   7.59719992       3.32962809E-05
   7.60920000       3.42428357E-05
   7.62120008       3.52738534E-05
   7.63320017       3.63540530E-05
   7.64519978       3.74489682E-05
   7.65719986       3.85260792E-05
   7.66919994       3.95557981E-05
   7.68120003       4.05122519E-05
   7.69320011       4.13739072E-05
   7.70520020       4.21239565E-05
   7.71719980       4.27505511E-05
   7.72919989       4.32468369E-05
   7.74119997       4.36107985E-05
   7.75320005       4.38449497E-05
   7.76520014       4.39558826E-05
   7.77720022       4.39537107E-05
   7.78919983       4.38514144E-05
   7.80119991       4.36641276E-05
   7.81320000       4.34083886E-05
   7.82520008       4.31014087E-05
   7.83720016       4.27603190E-05
   7.84919977       4.24014579E-05
   7.86119986       4.20396827E-05
   7.87319994       4.16877774E-05
   7.88520002       4.13559537E-05
   7.89720011       4.10514804E-05
   7.90920019       4.07784682E-05
   7.92119980       4.05378596E-05
   7.93319988       4.03275917E-05
   7.94519997       4.01429279E-05
   7.95720005       3.99769597E-05
   7.96920013       3.98212032E-05
   7.98120022       3.96663236E-05
   7.99319983       3.95028364E-05
   8.00520039       3.93218907E-05
   8.01720047       3.91159738E-05
   8.02919960       3.88795925E-05
   8.04119968       3.86098873E-05
   8.05319977       3.83070619E-05
   8.06519985       3.79747362E-05
   8.07719994       3.76200478E-05
   8.08920002       3.72535906E-05
   8.10120010       3.68891124E-05
   8.11320019       3.65430205E-05
   8.12520027       3.62336541E-05
   8.13720036       3.59805017E-05
   8.14920044       3.58032412E-05
   8.16119957       3.57207609E-05
   8.17319965       3.57501922E-05
   8.18519974       3.59059632E-05
   8.19719982       3.61989514E-05
   8.20919991       3.66357199E-05
   8.22119999       3.72179347E-05
   8.23320007       3.79419726E-05
   8.24520016       3.87986984E-05
   8.25720024       3.97735057E-05
   8.26920033       4.08465712E-05
   8.28120041       4.19933494E-05
   8.29319954       4.31852641E-05
   8.30519962       4.43905956E-05
   8.31719971       4.55754889E-05
   8.32919979       4.67050377E-05
   8.34119987       4.77444773E-05
   8.35319996       4.86603240E-05
   8.36520004       4.94215128E-05
   8.37720013       5.00004826E-05
   8.38920021       5.03741467E-05
   8.40120029       5.05247044E-05
   8.41320038       5.04402997E-05
   8.42520046       5.01155191E-05
   8.43719959       4.95516033E-05
   8.44919968       4.87564903E-05
   8.46119976       4.77445938E-05
   8.47319984       4.65363992E-05
   8.48519993       4.51578344E-05
   8.49720001       4.36394803E-05
   8.50920010       4.20156648E-05
   8.52120018       4.03234335E-05
   8.53320026       3.86014253E-05
   8.54520035       3.68887740E-05
   8.55720043       3.52239622E-05
   8.56919956       3.36437261E-05
   8.58119965       3.21820116E-05
   8.59319973       3.08690942E-05
   8.60519981       2.97308034E-05
   8.61719990       2.87879120E-05
   8.62919998       2.80557488E-05
   8.64120007       2.75439779E-05
   8.65320015       2.72566067E-05
   8.66520023       2.71921326E-05
   8.67720032       2.73438891E-05
   8.68920040       2.77005020E-05
   8.70119953       2.82464625E-05
   8.71319962       2.89627806E-05
   8.72519970       2.98276682E-05
   8.73719978       3.08172857E-05
   8.74919987       3.19064493E-05
   8.76119995       3.30693474E-05
   8.77320004       3.42802159E-05
   8.78520012       3.55139309E-05
   8.79720020       3.67465691E-05
   8.80920029       3.79558660E-05
   8.82120037       3.91215508E-05
   8.83320045       4.02256519E-05
   8.84519958       4.12526242E-05
   8.85719967       4.21894438E-05
   8.86919975       4.30256077E-05
   8.88119984       4.37530289E-05
   8.89319992       4.43659301E-05
   8.90520000       4.48606734E-05
   8.91720009       4.52355598E-05
   8.92920017       4.54906258E-05
   8.94120026       4.56274611E-05
   8.95320034       4.56490161E-05
   8.96520042       4.55594200E-05
   8.97719955       4.53638640E-05
   8.98919964       4.50684638E-05
   9.00119972       4.46801714E-05
   9.01319981       4.42067176E-05
   9.02519989       4.36565788E-05
   9.03719997       4.30389955E-05
   9.04920006       4.23639758E-05
   9.06120014       4.16423209E-05
   9.07320023       4.08856758E-05
   9.08520031       4.01064426E-05
   9.09720039       3.93177470E-05
   9.10919952       3.85332278E-05
   9.12119961       3.77668403E-05
   9.13319969       3.70324633E-05
   9.14519978       3.63435465E-05
   9.15719986       3.57126519E-05
   9.16919994       3.51509698E-05
   9.18120003       3.46679153E-05
   9.19320011       3.42706553E-05
   9.20520020       3.39637554E-05
   9.21720028       3.37488818E-05
   9.22920036       3.36245648E-05
   9.24120045       3.35861077E-05
   9.25319958       3.36256089E-05
   9.26519966       3.37321326E-05
   9.27719975       3.38920108E-05
   9.28919983       3.40893639E-05
   9.30119991       3.43067004E-05
   9.31320000       3.45256412E-05
   9.32520008       3.47277382E-05
   9.33720016       3.48952890E-05
   9.34920025       3.50121663E-05
   9.36120033       3.50645387E-05
   9.37320042       3.50415394E-05
   9.38519955       3.49357833E-05
   9.39719963       3.47437635E-05
   9.40919971       3.44660803E-05
   9.42119980       3.41075283E-05
   9.43319988       3.36769699E-05
   9.44519997       3.31871161E-05
