 -0.622799993         1.00000002E-24
 -0.610800028         1.00000002E-24
 -0.598800004         1.00000002E-24
 -0.586799979         1.00000002E-24
 -0.574800014         1.00000002E-24
 -0.562799990         1.00000002E-24
 -0.550800025         1.00000002E-24
 -0.538800001         1.00000002E-24
 -0.526799977         1.00000002E-24
 -0.514800012         1.00000012E-24
 -0.502799988         1.00000022E-24
 -0.490799993         1.00000032E-24
 -0.478799999         1.00000041E-24
 -0.466800004         1.00000041E-24
 -0.454800010         1.00000041E-24
 -0.442799985         1.00000041E-24
 -0.430799991         1.00000051E-24
 -0.418799996         1.00000032E-24
 -0.406800002         1.00000002E-24
 -0.394800007         9.99999329E-25
 -0.382800013         9.99997653E-25
 -0.370799989         9.99994103E-25
 -0.358799994         9.99987102E-25
 -0.346799999         9.99972607E-25
 -0.334800005         9.99938587E-25
 -0.322800010         9.99852010E-25
 -0.310799986         9.99641581E-25
 -0.298799992         9.99193606E-25
 -0.286799997         9.98418846E-25
 -0.274800003         9.97491343E-25
 -0.262800008         9.97375775E-25
 -0.250800014         1.00065369E-24
 -0.238800004         1.01230871E-24
 -0.226799995         1.03948340E-24
 -0.214800000         1.08841831E-24
 -0.202800006         1.15640609E-24
 -0.190799996         1.21768727E-24
 -0.178800002         1.20607336E-24
 -0.166800007         1.00433875E-24
 -0.154799998         4.59679209E-25
 -0.142800003        -5.49161920E-25
 -0.130799994        -1.97308410E-24
 -0.118799999        -3.39031986E-24
 -0.106799997        -3.80611345E-24
  -9.48000029E-02    -1.59901218E-24
  -8.28000009E-02     5.17151019E-24
  -7.07999989E-02     1.78782071E-23
  -5.88000007E-02     3.57794616E-23
  -4.67999987E-02     5.40670055E-23
  -3.48000005E-02     6.22812185E-23
  -2.28000004E-02     4.44322181E-23
  -1.08000003E-02    -1.75201290E-23
   1.20000006E-03    -1.35525445E-22
   1.31999999E-02    -3.02757596E-22
   2.52000000E-02    -4.79130637E-22
   3.72000001E-02    -5.81200252E-22
   4.91999984E-02    -4.85712186E-22
   6.12000003E-02    -5.68520253E-23
   7.32000023E-02     7.96491879E-22
   8.51999968E-02     2.03710028E-21
   9.71999988E-02     3.40908232E-21
  0.109200001         4.37924239E-21
  0.121200003         4.16306351E-21
  0.133200005         1.88835156E-21
  0.145199999        -3.07507947E-21
  0.157199994        -1.06468953E-20
  0.169200003        -1.95387783E-20
  0.181199998        -2.69286370E-20
  0.193200007        -2.85706374E-20
  0.205200002        -1.95950314E-20
  0.217199996         3.87626690E-21
  0.229200006         4.24388309E-20
  0.241200000         9.09579175E-20
  0.253199995         1.36879405E-19
  0.265199989         1.60474745E-19
  0.277200013         1.38123278E-19
  0.289200008         4.91646009E-20
  0.301200002        -1.14274394E-19
  0.313199997        -3.36611638E-19
  0.325199991        -5.70990731E-19
  0.337199986        -7.38947686E-19
  0.349200010        -7.41828705E-19
  0.361200005        -4.85974607E-19
  0.373199999         8.05226464E-20
  0.385199994         9.27209910E-19
  0.397199988         1.90985519E-18
  0.409200013         2.76423888E-18
  0.421200007         3.13953238E-18
  0.433200002         2.67785206E-18
  0.445199996         1.13284101E-18
  0.457199991        -1.49705856E-18
  0.469199985        -4.86065183E-18
  0.481200010        -8.21912713E-18
  0.493200004        -1.05258510E-17
  0.505200028        -1.06389944E-17
  0.517199993        -7.64654526E-18
  0.529200017        -1.23765338E-18
  0.541199982         7.98454698E-18
  0.553200006         1.83694646E-17
  0.565199971         2.73657436E-17
  0.577199996         3.19886989E-17
  0.589200020         2.95572676E-17
  0.601199985         1.85486848E-17
  0.613200009        -6.58111461E-19
  0.625199974        -2.54005941E-17
  0.637199998        -5.09067992E-17
  0.649200022        -7.10887687E-17
  0.661199987        -7.98404720E-17
  0.673200011        -7.25529380E-17
  0.685199976        -4.74531217E-17
  0.697200000        -6.38234983E-18
  0.709200025         4.52308182E-17
  0.721199989         9.92122610E-17
  0.733200014         1.46051390E-16
  0.745199978         1.76454512E-16
  0.757200003         1.82608789E-16
  0.769200027         1.58908185E-16
  0.781199992         1.02220492E-16
  0.793200016         1.21101293E-17
  0.805199981        -1.08405262E-16
  0.817200005        -2.51151436E-16
  0.829200029        -4.00277463E-16
  0.841199994        -5.29855002E-16
  0.853200018        -6.03306364E-16
  0.865199983        -5.76710111E-16
  0.877200007        -4.07551517E-16
  0.889199972        -6.90017325E-17
  0.901199996         4.32507808E-16
  0.913200021         1.04121324E-15
  0.925199986         1.64412557E-15
  0.937200010         2.07815997E-15
  0.949199975         2.15681333E-15
  0.961199999         1.71599727E-15
  0.973200023         6.71902268E-16
  0.985199988        -9.23033614E-16
  0.997200012        -2.84452489E-15
   1.00919998        -4.69962128E-15
   1.02119994        -5.98096529E-15
   1.03320003        -6.17232316E-15
   1.04519999        -4.88971199E-15
   1.05719995        -2.02682258E-15
   1.06920004         2.13685364E-15
   1.08120000         6.90697431E-15
   1.09319997         1.12535476E-14
   1.10520005         1.40028446E-14
   1.11720002         1.41143539E-14
   1.12919998         1.09837701E-14
   1.14119995         4.69229783E-15
   1.15320003        -3.87890310E-15
   1.16520000        -1.31278223E-14
   1.17719996        -2.10186076E-14
   1.18920004        -2.55335575E-14
   1.20120001        -2.51920829E-14
   1.21319997        -1.95025592E-14
   1.22520006        -9.21046940E-15
   1.23720002         3.75603208E-15
   1.24919999         1.66690731E-14
   1.26119995         2.66461793E-14
   1.27320004         3.14049900E-14
   1.28520000         2.99219471E-14
   1.29719996         2.27906395E-14
   1.30920005         1.21390579E-14
   1.32120001         1.08012149E-15
   1.33319998        -7.19127330E-15
   1.34519994        -1.04184841E-14
   1.35720003        -8.11755296E-15
   1.36919999        -1.94014781E-15
   1.38119996         4.61279574E-15
   1.39320004         7.12772042E-15
   1.40520000         1.66598453E-15
   1.41719997        -1.37622813E-14
   1.42920005        -3.80777156E-14
   1.44120002        -6.67556898E-14
   1.45319998        -9.24139170E-14
   1.46519995        -1.06326616E-13
   1.47720003        -1.00555903E-13
   1.48920000        -7.01837202E-14
   1.50119996        -1.50519584E-14
   1.51320004         5.94902274E-14
   1.52520001         1.43091810E-13
   1.53719997         2.22088881E-13
   1.54920006         2.81986782E-13
   1.56120002         3.10128767E-13
   1.57319999         2.97907776E-13
   1.58519995         2.42034664E-13
   1.59720004         1.44685398E-13
   1.60920000         1.27101546E-14
   1.62119997        -1.43623828E-13
   1.63320005        -3.11774315E-13
   1.64520001        -4.77493641E-13
   1.65719998        -6.24702005E-13
   1.66919994        -7.34977400E-13
   1.68120003        -7.87356888E-13
   1.69319999        -7.59308089E-13
   1.70519996        -6.29561399E-13
   1.71720004        -3.82976040E-13
   1.72920001        -1.68575074E-14
   1.74119997         4.52648200E-13
   1.75320005         9.86021377E-13
   1.76520002         1.51972619E-12
   1.77719998         1.97097742E-12
   1.78919995         2.24834669E-12
   1.80120003         2.26717083E-12
   1.81320000         1.96724689E-12
   1.82519996         1.32921213E-12
   1.83720005         3.85676137E-13
   1.84920001        -7.76182124E-13
   1.86119998        -2.02228555E-12
   1.87320006        -3.18913819E-12
   1.88520002        -4.10835125E-12
   1.89719999        -4.63361250E-12
   1.90919995        -4.66467056E-12
   1.92120004        -4.16333417E-12
   1.93320000        -3.15822585E-12
   1.94519997        -1.73764963E-12
   1.95720005        -3.27781185E-14
   1.96920002         1.80426648E-12
   1.98119998         3.62171989E-12
   1.99319994         5.28356655E-12
   2.00519991         6.67569212E-12
   2.01719999         7.70251658E-12
   2.02920008         8.27713072E-12
   2.04119992         8.31053108E-12
   2.05320001         7.70658103E-12
   2.06520009         6.36826963E-12
   2.07719994         4.21787215E-12
   2.08920002         1.22926625E-12
   2.10120010        -2.53390429E-12
   2.11319995        -6.88406016E-12
   2.12520003        -1.14906973E-11
   2.13720012        -1.58862940E-11
   2.14919996        -1.95025350E-11
   2.16120005        -2.17359637E-11
   2.17319989        -2.20352313E-11
   2.18519998        -1.99961627E-11
   2.19720006        -1.54474680E-11
   2.20919991        -8.51010842E-12
   2.22119999         3.82733287E-13
   2.23320007         1.05112663E-11
   2.24519992         2.09379753E-11
   2.25720000         3.06093935E-11
   2.26920009         3.84746089E-11
   2.28119993         4.36019658E-11
   2.29320002         4.52772264E-11
   2.30520010         4.30714214E-11
   2.31719995         3.68737818E-11
   2.32920003         2.68923182E-11
   2.34120011         1.36298871E-11
   2.35319996        -2.15400029E-12
   2.36520004        -1.94867195E-11
   2.37719989        -3.72264337E-11
   2.38919997        -5.41067920E-11
   2.40120006        -6.87875104E-11
   2.41319990        -7.99182109E-11
   2.42519999        -8.62216548E-11
   2.43720007        -8.65976388E-11
   2.44919991        -8.02417854E-11
   2.46120000        -6.67659678E-11
   2.47320008        -4.63016188E-11
   2.48519993        -1.95658177E-11
   2.49720001         1.21264665E-11
   2.50920010         4.69123525E-11
   2.52119994         8.24910140E-11
   2.53320003         1.16280194E-10
   2.54520011         1.45598339E-10
   2.55719995         1.67848527E-10
   2.56920004         1.80684079E-10
   2.58119988         1.82144813E-10
   2.59319997         1.70764292E-10
   2.60520005         1.45658888E-10
   2.61719990         1.06616264E-10
   2.62919998         5.41983056E-11
   2.64120007        -1.01350638E-11
   2.65319991        -8.38911857E-11
   2.66520000        -1.63427480E-10
   2.67720008        -2.43896126E-10
   2.68919992        -3.19302973E-10
   2.70120001        -3.82728571E-10
   2.71320009        -4.26742253E-10
   2.72519994        -4.44010884E-10
   2.73720002        -4.28068136E-10
   2.74920011        -3.74173276E-10
   2.76119995        -2.80160561E-10
   2.77320004        -1.47164919E-10
   2.78520012         1.98898207E-11
   2.79719996         2.12133144E-10
   2.80920005         4.16980367E-10
   2.82119989         6.18773921E-10
   2.83319998         7.99807831E-10
   2.84520006         9.41670075E-10
   2.85719991         1.02681064E-09
   2.86919999         1.04022091E-09
   2.88120008         9.71103753E-10
   2.89319992         8.14409651E-10
   2.90520000         5.72114467E-10
   2.91720009         2.54114507E-10
   2.92919993        -1.21382598E-10
   2.94120002        -5.28090516E-10
   2.95320010        -9.32602551E-10
   2.96519995        -1.29614930E-09
   2.97720003        -1.57717539E-09
   2.98920012        -1.73467629E-09
   3.00119996        -1.73213999E-09
   3.01320004        -1.54182322E-09
   3.02519989        -1.14898635E-09
   3.03719997        -5.55620661E-10
   3.04920006         2.16842516E-10
   3.06119990         1.12634768E-09
   3.07319999         2.11098317E-09
   3.08520007         3.09198045E-09
   3.09719992         3.97902733E-09
   3.10920000         4.67772887E-09
   3.12120008         5.09878451E-09
   3.13319993         5.16821652E-09
   3.14520001         4.83776219E-09
   3.15720010         4.09439682E-09
   3.16919994         2.96791591E-09
   3.18120003         1.53551938E-09
   3.19320011        -7.75254860E-11
   3.20519996        -1.70185699E-09
   3.21720004        -3.13308379E-09
   3.22919989        -4.14601509E-09
   3.24119997        -4.51383020E-09
   3.25320005        -4.03158040E-09
   3.26519990        -2.54302357E-09
   3.27719998         3.04014661E-11
   3.28920007         3.66000208E-09
   3.30119991         8.18129298E-09
   3.31320000         1.32681386E-08
   3.32520008         1.84111784E-08
   3.33719993         2.29020394E-08
   3.34920001         2.58243258E-08
   3.36120009         2.60521986E-08
   3.37319994         2.22570122E-08
   3.38520002         1.29215154E-08
   3.39720011        -3.63862251E-09
   3.40919995        -2.92469551E-08
   3.42120004        -6.58334969E-08
   3.43319988        -1.15398016E-07
   3.44519997        -1.79971067E-07
   3.45720005        -2.61574115E-07
   3.46919990        -3.62179776E-07
   3.48119998        -4.83672977E-07
   3.49320006        -6.27814018E-07
   3.50519991        -7.96203608E-07
   3.51719999        -9.90249987E-07
   3.52920008        -1.21113908E-06
   3.54119992        -1.45980550E-06
   3.55320001        -1.73690739E-06
   3.56520009        -2.04280309E-06
   3.57719994        -2.37753079E-06
   3.58920002        -2.74079161E-06
   3.60120010        -3.13193618E-06
   3.61319995        -3.54995632E-06
   3.62520003        -3.99348482E-06
   3.63720012        -4.46080003E-06
   3.64919996        -4.94983760E-06
   3.66120005        -5.45821240E-06
   3.67319989        -5.98324914E-06
   3.68519998        -6.52202289E-06
   3.69720006        -7.07140680E-06
   3.70919991        -7.62812851E-06
   3.72119999        -8.18883473E-06
   3.73320007        -8.75015849E-06
   3.74519992        -9.30878923E-06
   3.75720000        -9.86154555E-06
   3.76920009        -1.04054425E-05
   3.78119993        -1.09377534E-05
   3.79320002        -1.14560589E-05
   3.80520010        -1.19582946E-05
   3.81719995        -1.24427788E-05
   3.82920003        -1.29082273E-05
   3.84120011        -1.33537569E-05
   3.85319996        -1.37788729E-05
   3.86520004        -1.41834498E-05
   3.87719989        -1.45677013E-05
   3.88919997        -1.49321377E-05
   3.90120006        -1.52775228E-05
   3.91319990        -1.56048391E-05
   3.92519999        -1.59152332E-05
   3.93720007        -1.62099805E-05
   3.94919991        -1.64904432E-05
   3.96120000        -1.67580511E-05
   3.97320008        -1.70142539E-05
   3.98519993        -1.72605105E-05
   3.99720001        -1.74982652E-05
   4.00920010        -1.77289294E-05
   4.02120018        -1.79538656E-05
   4.03319979        -1.81743617E-05
   4.04519987        -1.83916218E-05
   4.05719995        -1.86067446E-05
   4.06920004        -1.88206959E-05
   4.08120012        -1.90342944E-05
   4.09320021        -1.92481912E-05
   4.10519981        -1.94628410E-05
   4.11719990        -1.96785040E-05
   4.12919998        -1.98952202E-05
   4.14120007        -2.01128187E-05
   4.15320015        -2.03309119E-05
   4.16520023        -2.05489268E-05
   4.17719984        -2.07661196E-05
   4.18919992        -2.09816135E-05
   4.20120001        -2.11944443E-05
   4.21320009        -2.14036027E-05
   4.22520018        -2.16080934E-05
   4.23719978        -2.18069817E-05
   4.24919987        -2.19994508E-05
   4.26119995        -2.21848386E-05
   4.27320004        -2.23626830E-05
   4.28520012        -2.25327258E-05
   4.29720020        -2.26949433E-05
   4.30919981        -2.28495410E-05
   4.32119989        -2.29969301E-05
   4.33319998        -2.31377107E-05
   4.34520006        -2.32726325E-05
   4.35720015        -2.34025501E-05
   4.36920023        -2.35283878E-05
   4.38119984        -2.36510859E-05
   4.39319992        -2.37715594E-05
   4.40520000        -2.38906832E-05
   4.41720009        -2.40092431E-05
   4.42920017        -2.41279449E-05
   4.44119978        -2.42474107E-05
   4.45319986        -2.43681952E-05
   4.46519995        -2.44908024E-05
   4.47720003        -2.46157342E-05
   4.48920012        -2.47435219E-05
   4.50120020        -2.48747765E-05
   4.51319981        -2.50102148E-05
   4.52519989        -2.51507063E-05
   4.53719997        -2.52972823E-05
   4.54920006        -2.54511488E-05
   4.56120014        -2.56136718E-05
   4.57320023        -2.57863649E-05
   4.58519983        -2.59708322E-05
   4.59719992        -2.61687164E-05
   4.60920000        -2.63816473E-05
   4.62120008        -2.66111492E-05
   4.63320017        -2.68585809E-05
   4.64519978        -2.71250628E-05
   4.65719986        -2.74114082E-05
   4.66919994        -2.77180916E-05
   4.68120003        -2.80451950E-05
   4.69320011        -2.83924001E-05
   4.70520020        -2.87589955E-05
   4.71719980        -2.91438937E-05
   4.72919989        -2.95456794E-05
   4.74119997        -2.99626645E-05
   4.75320005        -3.03929646E-05
   4.76520014        -3.08345880E-05
   4.77720022        -3.12855191E-05
   4.78919983        -3.17438135E-05
   4.80119991        -3.22076921E-05
   4.81320000        -3.26756344E-05
   4.82520008        -3.31464253E-05
   4.83720016        -3.36192497E-05
   4.84919977        -3.40937004E-05
   4.86119986        -3.45698281E-05
   4.87319994        -3.50481096E-05
   4.88520002        -3.55294433E-05
   4.89720011        -3.60150916E-05
   4.90920019        -3.65066007E-05
   4.92119980        -3.70057460E-05
   4.93319988        -3.75143827E-05
   4.94519997        -3.80343590E-05
   4.95720005        -3.85673884E-05
   4.96920013        -3.91149006E-05
   4.98120022        -3.96779542E-05
   4.99319983        -4.02570877E-05
   5.00519991        -4.08522537E-05
   5.01719999        -4.14627248E-05
   5.02920008        -4.20870674E-05
   5.04120016        -4.27231062E-05
   5.05319977        -4.33679597E-05
   5.06519985        -4.40180884E-05
   5.07719994        -4.46693812E-05
   5.08920002        -4.53172834E-05
   5.10120010        -4.59569565E-05
   5.11320019        -4.65834310E-05
   5.12519979        -4.71918174E-05
   5.13719988        -4.77774884E-05
   5.14919996        -4.83362746E-05
   5.16120005        -4.88646692E-05
   5.17320013        -4.93599728E-05
   5.18520021        -4.98204390E-05
   5.19719982        -5.02453840E-05
   5.20919991        -5.06352480E-05
   5.22119999        -5.09916135E-05
   5.23320007        -5.13171981E-05
   5.24520016        -5.16157634E-05
   5.25719976        -5.18920315E-05
   5.26919985        -5.21515030E-05
   5.28119993        -5.24003117E-05
   5.29320002        -5.26449730E-05
   5.30520010        -5.28921883E-05
   5.31720018        -5.31485894E-05
   5.32919979        -5.34204883E-05
   5.34119987        -5.37136584E-05
   5.35319996        -5.40330911E-05
   5.36520004        -5.43828137E-05
   5.37720013        -5.47657037E-05
   5.38920021        -5.51833546E-05
   5.40119982        -5.56359701E-05
   5.41319990        -5.61223169E-05
   5.42519999        -5.66397175E-05
   5.43720007        -5.71840646E-05
   5.44920015        -5.77499377E-05
   5.46120024        -5.83307119E-05
   5.47319984        -5.89187330E-05
   5.48519993        -5.95055280E-05
   5.49720001        -6.00820604E-05
   5.50920010        -6.06389840E-05
   5.52120018        -6.11669529E-05
   5.53319979        -6.16569305E-05
   5.54519987        -6.21004583E-05
   5.55719995        -6.24899767E-05
   5.56920004        -6.28190974E-05
   5.58120012        -6.30828799E-05
   5.59320021        -6.32780211E-05
   5.60519981        -6.34030221E-05
   5.61719990        -6.34583048E-05
   5.62919998        -6.34462922E-05
   5.64120007        -6.33714153E-05
   5.65320015        -6.32400479E-05
   5.66520023        -6.30604482E-05
   5.67719984        -6.28425332E-05
   5.68919992        -6.25977700E-05
   5.70120001        -6.23389060E-05
   5.71320009        -6.20797218E-05
   5.72520018        -6.18347622E-05
   5.73719978        -6.16190664E-05
   5.74919987        -6.14478340E-05
   5.76119995        -6.13361917E-05
   5.77320004        -6.12988661E-05
   5.78520012        -6.13499433E-05
   5.79720020        -6.15025347E-05
   5.80919981        -6.17685873E-05
   5.82119989        -6.21585714E-05
   5.83319998        -6.26813198E-05
   5.84520006        -6.33437303E-05
   5.85720015        -6.41505758E-05
   5.86920023        -6.51043229E-05
   5.88119984        -6.62049133E-05
   5.89319992        -6.74496187E-05
   5.90520000        -6.88328655E-05
   5.91720009        -7.03461119E-05
   5.92920017        -7.19777381E-05
   5.94119978        -7.37129885E-05
   5.95319986        -7.55339061E-05
   5.96519995        -7.74193395E-05
   5.97720003        -7.93449435E-05
   5.98920012        -8.12832368E-05
   6.00120020        -8.32036530E-05
   6.01319981        -8.50726865E-05
   6.02519989        -8.68539719E-05
   6.03719997        -8.85084592E-05
   6.04920006        -8.99945371E-05
   6.06120014        -9.12682663E-05
   6.07320023        -9.22835388E-05
   6.08519983        -9.29922680E-05
   6.09719992        -9.33447081E-05
   6.10920000        -9.32896801E-05
   6.12120008        -9.27748988E-05
   6.13320017        -9.17473808E-05
   6.14519978        -9.01538297E-05
   6.15719986        -8.79411891E-05
   6.16919994        -8.50572033E-05
   6.18120003        -8.14510713E-05
   6.19320011        -7.70742190E-05
   6.20520020        -7.18811498E-05
   6.21719980        -6.58302815E-05
   6.22919989        -5.88849834E-05
   6.24119997        -5.10145001E-05
   6.25320005        -4.21950390E-05
   6.26520014        -3.24107605E-05
   6.27720022        -2.16547796E-05
   6.28919983        -9.93008507E-06
   6.30119991         2.74962235E-06
   6.31320000         1.63592067E-05
   6.32520008         3.08615490E-05
   6.33720016         4.62071475E-05
   6.34919977         6.23339220E-05
   6.36119986         7.91672865E-05
   6.37319994         9.66203515E-05
   6.38520002         1.14594441E-04
   6.39720011         1.32979752E-04
   6.40920019         1.51656350E-04
   6.42119980         1.70495245E-04
   6.43319988         1.89359678E-04
   6.44519997         2.08106605E-04
   6.45720005         2.26588367E-04
   6.46920013         2.44654249E-04
   6.48120022         2.62152316E-04
   6.49319983         2.78931344E-04
   6.50519991         2.94842437E-04
   6.51719999         3.09741154E-04
   6.52920008         3.23488988E-04
   6.54120016         3.35955410E-04
   6.55319977         3.47019464E-04
   6.56519985         3.56571254E-04
   6.57719994         3.64513515E-04
   6.58920002         3.70763039E-04
   6.60120010         3.75251693E-04
   6.61320019         3.77927441E-04
   6.62519979         3.78755416E-04
   6.63719988         3.77718272E-04
   6.64919996         3.74816736E-04
   6.66120005         3.70069902E-04
   6.67320013         3.63514991E-04
   6.68520021         3.55207332E-04
   6.69719982         3.45219712E-04
   6.70919991         3.33641801E-04
   6.72119999         3.20579013E-04
   6.73320007         3.06151633E-04
   6.74520016         2.90493219E-04
   6.75719976         2.73749232E-04
   6.76919985         2.56075262E-04
   6.78119993         2.37635250E-04
   6.79320002         2.18599511E-04
   6.80520010         1.99142611E-04
   6.81720018         1.79441267E-04
   6.82919979         1.59672200E-04
   6.84119987         1.40009812E-04
   6.85319996         1.20624034E-04
   6.86520004         1.01678161E-04
   6.87720013         8.33266458E-05
   6.88920021         6.57132114E-05
   6.90119982         4.89688136E-05
   6.91319990         3.32100790E-05
   6.92519999         1.85377030E-05
   6.93720007         5.03524188E-06
   6.94920015        -7.23186440E-06
   6.96120024        -1.82169642E-05
   6.97319984        -2.78924945E-05
   6.98519993        -3.62499777E-05
   6.99720001        -4.32996130E-05
   7.00920010        -4.90695311E-05
   7.02120018        -5.36046973E-05
   7.03319979        -5.69655058E-05
   7.04519987        -5.92260221E-05
   7.05719995        -6.04720371E-05
   7.06920004        -6.07988914E-05
   7.08120012        -6.03091612E-05
   7.09320021        -5.91102362E-05
   7.10519981        -5.73119141E-05
   7.11719990        -5.50240075E-05
   7.12919998        -5.23540984E-05
   7.14120007        -4.94054511E-05
   7.15320015        -4.62751304E-05
   7.16520023        -4.30524269E-05
   7.17719984        -3.98175689E-05
   7.18919992        -3.66407585E-05
   7.20120001        -3.35815603E-05
   7.21320009        -3.06886286E-05
   7.22520018        -2.79997639E-05
   7.23719978        -2.55422565E-05
   7.24919987        -2.33335231E-05
   7.26119995        -2.13819694E-05
   7.27320004        -1.96880283E-05
   7.28520012        -1.82453332E-05
   7.29720020        -1.70419880E-05
   7.30919981        -1.60618365E-05
   7.32119989        -1.52857465E-05
   7.33319998        -1.46928005E-05
   7.34520006        -1.42614081E-05
   7.35720015        -1.39702743E-05
   7.36920023        -1.37992201E-05
   7.38119984        -1.37298248E-05
   7.39319992        -1.37459019E-05
   7.40520000        -1.38337837E-05
   7.41720009        -1.39824406E-05
   7.42920017        -1.41834425E-05
   7.44119978        -1.44307905E-05
   7.45319986        -1.47206274E-05
   7.46519995        -1.50508677E-05
   7.47720003        -1.54207846E-05
   7.48920012        -1.58305484E-05
   7.50120020        -1.62807955E-05
   7.51319981        -1.67721973E-05
   7.52519989        -1.73050812E-05
   7.53719997        -1.78791324E-05
   7.54920006        -1.84931469E-05
   7.56120014        -1.91448908E-05
   7.57320023        -1.98310390E-05
   7.58519983        -2.05472043E-05
   7.59719992        -2.12880386E-05
   7.60920000        -2.20474176E-05
   7.62120008        -2.28186636E-05
   7.63320017        -2.35947828E-05
   7.64519978        -2.43687409E-05
   7.65719986        -2.51336860E-05
   7.66919994        -2.58831515E-05
   7.68120003        -2.66111965E-05
   7.69320011        -2.73124751E-05
   7.70520020        -2.79822216E-05
   7.71719980        -2.86161485E-05
   7.72919989        -2.92102504E-05
   7.74119997        -2.97605675E-05
   7.75320005        -3.02628305E-05
   7.76520014        -3.07121263E-05
   7.77720022        -3.11025105E-05
   7.78919983        -3.14266690E-05
   7.80119991        -3.16756195E-05
   7.81320000        -3.18384955E-05
   7.82520008        -3.19024730E-05
   7.83720016        -3.18528255E-05
   7.84919977        -3.16731239E-05
   7.86119986        -3.13456003E-05
   7.87319994        -3.08517156E-05
   7.88520002        -3.01728123E-05
   7.89720011        -2.92909608E-05
   7.90920019        -2.81898720E-05
   7.92119980        -2.68558688E-05
   7.93319988        -2.52788959E-05
   7.94519997        -2.34534727E-05
   7.95720005        -2.13795756E-05
   7.96920013        -1.90633709E-05
   7.98120022        -1.65177644E-05
   7.99319983        -1.37627403E-05
   8.00520039        -1.08254317E-05
   8.01720047        -7.73993179E-06
   8.02919960        -4.54682049E-06
   8.04119968        -1.29243290E-06
   8.05319977         1.97213922E-06
   8.06519985         5.19225478E-06
   8.07719994         8.31111993E-06
   8.08920002         1.12713187E-05
   8.10120010         1.40164238E-05
   8.11320019         1.64926241E-05
   8.12520027         1.86503312E-05
   8.13720036         2.04456774E-05
   8.14920044         2.18418936E-05
   8.16119957         2.28104745E-05
   8.17319965         2.33321480E-05
   8.18519974         2.33975879E-05
   8.19719982         2.30078567E-05
   8.20919991         2.21746013E-05
   8.22119999         2.09199588E-05
   8.23320007         1.92762309E-05
   8.24520016         1.72853015E-05
   8.25720024         1.49978414E-05
   8.26920033         1.24723365E-05
   8.28120041         9.77392756E-06
   8.29319954         6.97313408E-06
   8.30519962         4.14446231E-06
   8.31719971         1.36492804E-06
   8.32919979        -1.28748059E-06
   8.34119987        -3.73537478E-06
   8.35319996        -5.90356285E-06
   8.36520004        -7.72064232E-06
   8.37720013        -9.12057749E-06
   8.38920021        -1.00442257E-05
   8.40120029        -1.04408018E-05
   8.41320038        -1.02692538E-05
   8.42520046        -9.49950572E-06
   8.43719959        -8.11355585E-06
   8.44919968        -6.10637699E-06
   8.46119976        -3.48660296E-06
   8.47319984        -2.76952676E-07
   8.48519993         3.48563799E-06
   8.49720001         7.75020089E-06
   8.50920010         1.24522558E-05
   8.52120018         1.75146979E-05
   8.53320026         2.28490226E-05
   8.54520035         2.83569461E-05
   8.55720043         3.39322796E-05
   8.56919956         3.94631861E-05
   8.58119965         4.48346182E-05
   8.59319973         4.99309826E-05
   8.60519981         5.46388983E-05
   8.61719990         5.88500261E-05
   8.62919998         6.24638415E-05
   8.64120007         6.53902825E-05
   8.65320015         6.75522169E-05
   8.66520023         6.88876316E-05
   8.67720032         6.93514521E-05
   8.68920040         6.89169465E-05
   8.70119953         6.75767442E-05
   8.71319962         6.53432653E-05
   8.72519970         6.22487496E-05
   8.73719978         5.83446636E-05
   8.74919987         5.37007218E-05
   8.76119995         4.84033590E-05
   8.77320004         4.25537983E-05
   8.78520012         3.62657374E-05
   8.79720020         2.96627186E-05
   8.80920029         2.28752360E-05
   8.82120037         1.60377040E-05
   8.83320045         9.28530244E-06
   8.84519958         2.75083835E-06
   8.85719967        -3.43832767E-06
   8.86919975        -9.16317640E-06
   8.88119984        -1.43156949E-05
   8.89319992        -1.88012291E-05
   8.90520000        -2.25404656E-05
   8.91720009        -2.54709739E-05
   8.92920017        -2.75483053E-05
   8.94120026        -2.87465937E-05
   8.95320034        -2.90586668E-05
   8.96520042        -2.84956768E-05
   8.97719955        -2.70862674E-05
   8.98919964        -2.48753204E-05
   9.00119972        -2.19223530E-05
   9.01319981        -1.82995936E-05
   9.02519989        -1.40898455E-05
   9.03719997        -9.38419907E-06
   9.04920006        -4.27966688E-06
   9.06120014         1.12316911E-06
   9.07320023         6.72242095E-06
   9.08520031         1.24170274E-05