 -0.622799993         1.00000002E-24
 -0.610800028         1.00000002E-24
 -0.598800004         1.00000002E-24
 -0.586799979         1.00000002E-24
 -0.574800014         1.00000012E-24
 -0.562799990         1.00000012E-24
 -0.550800025         1.00000022E-24
 -0.538800001         1.00000022E-24
 -0.526799977         1.00000022E-24
 -0.514800012         1.00000012E-24
 -0.502799988         1.00000012E-24
 -0.490799993         1.00000002E-24
 -0.478799999         9.99999921E-25
 -0.466800004         9.99999822E-25
 -0.454800010         9.99999822E-25
 -0.442799985         9.99999921E-25
 -0.430799991         1.00000002E-24
 -0.418799996         1.00000012E-24
 -0.406800002         9.99999822E-25
 -0.394800007         9.99998245E-25
 -0.382800013         9.99993413E-25
 -0.370799989         9.99982566E-25
 -0.358799994         9.99965211E-25
 -0.346799999         9.99952688E-25
 -0.334800005         9.99986609E-25
 -0.322800010         1.00016065E-24
 -0.310799986         1.00062144E-24
 -0.298799992         1.00149678E-24
 -0.286799997         1.00268234E-24
 -0.274800003         1.00346410E-24
 -0.262800008         1.00210332E-24
 -0.250800014         9.95800716E-25
 -0.238800004         9.81759287E-25
 -0.226799995         9.60066007E-25
 -0.214800000         9.38319873E-25
 -0.202800006         9.35931103E-25
 -0.190799996         9.83089011E-25
 -0.178800002         1.10718216E-24
 -0.166800007         1.30129331E-24
 -0.154799998         1.47931881E-24
 -0.142800003         1.44213644E-24
 -0.130799994         9.04064081E-25
 -0.118799999        -3.57511097E-25
 -0.106799997        -2.19102172E-24
  -9.48000029E-02    -3.65056428E-24
  -8.28000009E-02    -2.68276093E-24
  -7.07999989E-02     3.67167932E-24
  -5.88000007E-02     1.80537334E-23
  -4.67999987E-02     4.02063881E-23
  -3.48000005E-02     6.33373139E-23
  -2.28000004E-02     7.08479766E-23
  -1.08000003E-02     3.62038562E-23
   1.20000006E-03    -7.04080572E-23
   1.31999999E-02    -2.65672500E-22
   2.52000000E-02    -5.27355105E-22
   3.72000001E-02    -7.65867920E-22
   4.91999984E-02    -8.08207511E-22
   6.12000003E-02    -4.16121124E-22
   7.32000023E-02     6.39624174E-22
   8.51999968E-02     2.43970480E-21
   9.71999988E-02     4.73117341E-21
  0.109200001         6.75876313E-21
  0.121200003         7.21735199E-21
  0.133200005         4.45140259E-21
  0.145199999        -3.00140264E-21
  0.157199994        -1.55253561E-20
  0.169200003        -3.13766667E-20
  0.181199998        -4.58544600E-20
  0.193200007        -5.12498199E-20
  0.205200002        -3.81514245E-20
  0.217199996         1.54906745E-21
  0.229200006         7.01565740E-20
  0.241200000         1.59186127E-19
  0.253199995         2.45753731E-19
  0.265199989         2.92763259E-19
  0.277200013         2.55144299E-19
  0.289200008         9.31783482E-20
  0.301200002        -2.08392452E-19
  0.313199997        -6.19876950E-19
  0.325199991        -1.05213817E-18
  0.337199986        -1.35702847E-18
  0.349200010        -1.35052259E-18
  0.361200005        -8.61518586E-19
  0.373199999         1.99014447E-19
  0.385199994         1.76408384E-18
  0.397199988         3.55658712E-18
  0.409200013         5.08388555E-18
  0.421200007         5.70522764E-18
  0.433200002         4.78086861E-18
  0.445199996         1.88680725E-18
  0.457199991        -2.95039629E-18
  0.469199985        -9.06952918E-18
  0.481200010        -1.51228518E-17
  0.493200004        -1.92249099E-17
  0.505200028        -1.93298229E-17
  0.517199993        -1.38004952E-17
  0.529200017        -2.05898241E-18
  0.541199982         1.48558693E-17
  0.553200006         3.40251580E-17
  0.565199971         5.08557225E-17
  0.577199996         5.98406476E-17
  0.589200020         5.58199212E-17
  0.601199985         3.55246214E-17
  0.613200009        -9.51942403E-19
  0.625199974        -4.91840136E-17
  0.637199998        -1.00338365E-16
  0.649200022        -1.42238868E-16
  0.661199987        -1.61567617E-16
  0.673200011        -1.46905940E-16
  0.685199976        -9.20479373E-17
  0.697200000         1.15617495E-18
  0.709200025         1.21196055E-16
  0.721199989         2.47162573E-16
  0.733200014         3.51203789E-16
  0.745199978         4.03105150E-16
  0.757200003         3.76482958E-16
  0.769200027         2.55670516E-16
  0.781199992         4.20468412E-17
  0.793200016        -2.41630733E-16
  0.805199981        -5.50335358E-16
  0.817200005        -8.20519440E-16
  0.829200029        -9.79137794E-16
  0.841199994        -9.57645709E-16
  0.853200018        -7.09401634E-16
  0.865199983        -2.27454551E-16
  0.877200007         4.41595015E-16
  0.889199972         1.19262070E-15
  0.901199996         1.87031651E-15
  0.913200021         2.29321550E-15
  0.925199986         2.29209000E-15
  0.937200010         1.75676719E-15
  0.949199975         6.80862659E-16
  0.961199999        -8.08917206E-16
  0.973200023        -2.45183449E-15
  0.985199988        -3.88880111E-15
  0.997200012        -4.73418234E-15
   1.00919998        -4.67201308E-15
   1.02119994        -3.55429170E-15
   1.03320003        -1.47270495E-15
   1.04519999         1.22352469E-15
   1.05719995         3.98040687E-15
   1.06920004         6.16070271E-15
   1.08120000         7.20998341E-15
   1.09319997         6.82364152E-15
   1.10520005         5.06219627E-15
   1.11720002         2.36883119E-15
   1.12919998        -5.33261980E-16
   1.14119995        -2.85010218E-15
   1.15320003        -3.98022307E-15
   1.16520000        -3.75094988E-15
   1.17719996        -2.54013767E-15
   1.18920004        -1.21842185E-15
   1.20120001        -8.96664313E-16
   1.21319997        -2.52809519E-15
   1.22520006        -6.47523993E-15
   1.23720002        -1.21863443E-14
   1.24919999        -1.81178806E-14
   1.26119995        -2.19836204E-14
   1.27320004        -2.13171833E-14
   1.28520000        -1.42288101E-14
   1.29719996        -1.52020656E-16
   1.30920005         1.96564058E-14
   1.32120001         4.20600749E-14
   1.33319998         6.25180246E-14
   1.34519994         7.60262621E-14
   1.35720003         7.83088872E-14
   1.36919999         6.69408580E-14
   1.38119996         4.20734038E-14
   1.39320004         6.52656335E-15
   1.40520000        -3.48077619E-14
   1.41719997        -7.60954274E-14
   1.42920005        -1.11884365E-13
   1.44120002        -1.38203156E-13
   1.45319998        -1.53066836E-13
   1.46519995        -1.56211171E-13
   1.47720003        -1.48148732E-13
   1.48920000        -1.28912668E-13
   1.50119996        -9.70310597E-14
   1.51320004        -4.92804345E-14
   1.52520001         1.84261023E-14
   1.53719997         1.09019144E-13
   1.54920006         2.21552025E-13
   1.56120002         3.48576067E-13
   1.57319999         4.74585649E-13
   1.58519995         5.76403834E-13
   1.59720004         6.25983477E-13
   1.60920000         5.95488719E-13
   1.62119997         4.63836272E-13
   1.63320005         2.23317675E-13
   1.64520001        -1.15347144E-13
   1.65719998        -5.21032165E-13
   1.66919994        -9.44258127E-13
   1.68120003        -1.32336308E-12
   1.69319999        -1.59390112E-12
   1.70519996        -1.69954166E-12
   1.71720004        -1.60226758E-12
   1.72920001        -1.28971844E-12
   1.74119997        -7.78107721E-13
   1.75320005        -1.10146321E-13
   1.76520002         6.51422872E-13
   1.77719998         1.43303544E-12
   1.78919995         2.16000265E-12
   1.80120003         2.76444514E-12
   1.81320000         3.18986959E-12
   1.82519996         3.39195078E-12
   1.83720005         3.33641426E-12
   1.84920001         2.99605436E-12
   1.86119998         2.34943597E-12
   1.87320006         1.38353445E-12
   1.88520002         1.01390989E-13
   1.89719999        -1.46593111E-12
   1.90919995        -3.24577409E-12
   1.92120004        -5.11293091E-12
   1.93320000        -6.88613836E-12
   1.94519997        -8.33613820E-12
   1.95720005        -9.20735016E-12
   1.96920002        -9.25219450E-12
   1.98119998        -8.27367862E-12
   1.99319994        -6.16909822E-12
   2.00519991        -2.96614708E-12
   2.01719999         1.15685055E-12
   2.02920008         5.87253683E-12
   2.04119992         1.07299707E-11
   2.05320001         1.52013853E-11
   2.06520009         1.87434252E-11
   2.07719994         2.08632521E-11
   2.08920002         2.11791765E-11
   2.10120010         1.94670079E-11
   2.11319995         1.56866551E-11
   2.12520003         9.98776062E-12
   2.13720012         2.69704072E-12
   2.14919996        -5.70731873E-12
   2.16120005        -1.46283038E-11
   2.17319989        -2.33850838E-11
   2.18519998        -3.12485211E-11
   2.19720006        -3.74782150E-11
   2.20919991        -4.13643043E-11
   2.22119999        -4.22774732E-11
   2.23320007        -3.97287307E-11
   2.24519992        -3.34367083E-11
   2.25720000        -2.33955685E-11
   2.26920009        -9.93250534E-12
   2.28119993         6.25848505E-12
   2.29320002         2.41191823E-11
   2.30520010         4.22747636E-11
   2.31719995         5.91287713E-11
   2.32920003         7.29997035E-11
   2.34120011         8.22858656E-11
   2.35319996         8.56393775E-11
   2.36520004         8.21275339E-11
   2.37719989         7.13606882E-11
   2.38919997         5.35700997E-11
   2.40120006         2.96258851E-11
   2.41319990         9.92807832E-13
   2.42519999        -3.03710841E-11
   2.43720007        -6.21623378E-11
   2.44919991        -9.19120197E-11
   2.46120000        -1.17181931E-10
   2.47320008        -1.35761111E-10
   2.48519993        -1.45848042E-10
   2.49720001        -1.46205256E-10
   2.50920010        -1.36274700E-10
   2.52119994        -1.16244070E-10
   2.53320003        -8.70561609E-11
   2.54520011        -5.03569131E-11
   2.55719995        -8.38197914E-12
   2.56920004         3.62124219E-11
   2.58119988         8.05618419E-11
   2.59319997         1.21829935E-10
   2.60520005         1.57444169E-10
   2.61719990         1.85303689E-10
   2.62919998         2.03932815E-10
   2.64120007         2.12558970E-10
   2.65319991         2.11102580E-10
   2.66520000         2.00078232E-10
   2.67720008         1.80419082E-10
   2.68919992         1.53247401E-10
   2.70120001         1.19623325E-10
   2.71320009         8.03071498E-11
   2.72519994         3.55689263E-11
   2.73720002        -1.49262634E-11
   2.74920011        -7.21389268E-11
   2.76119995        -1.37573786E-10
   2.77320004        -2.13098830E-10
   2.78520012        -3.00675013E-10
   2.79719996        -4.02012146E-10
   2.80920005        -5.18168453E-10
   2.82119989        -6.49112319E-10
   2.83319998        -7.93266786E-10
   2.84520006        -9.47059320E-10
   2.85719991        -1.10450904E-09
   2.86919999        -1.25689148E-09
   2.88120008        -1.39253531E-09
   2.89319992        -1.49681789E-09
   2.90520000        -1.55243074E-09
   2.91720009        -1.53998581E-09
   2.92919993        -1.43902157E-09
   2.94120002        -1.22943755E-09
   2.95320010        -8.93348562E-10
   2.96519995        -4.17294782E-10
   2.97720003         2.05319511E-10
   2.98920012         9.71745684E-10
   3.00119996         1.86763582E-09
   3.01320004         2.86533020E-09
   3.02519989         3.92306942E-09
   3.03719997         4.98556219E-09
   3.04920006         5.98636696E-09
   3.06119990         6.85255808E-09
   3.07319999         7.51215801E-09
   3.08520007         7.90476307E-09
   3.09719992         7.99573918E-09
   3.10920000         7.79423548E-09
   3.12120008         7.37514316E-09
   3.13319993         6.90488333E-09
   3.14520001         6.67070665E-09
   3.15720010         7.11285741E-09
   3.16919994         8.85869511E-09
   3.18120003         1.27574600E-08
   3.19320011         1.99141734E-08
   3.20519996         3.17207203E-08
   3.21720004         4.98821038E-08
   3.22919989         7.64354979E-08
   3.24119997         1.13759974E-07
   3.25320005         1.64574459E-07
   3.26519990         2.31921916E-07
   3.27719998         3.19138366E-07
   3.28920007         4.29804430E-07
   3.30119991         5.67680388E-07
   3.31320000         7.36621985E-07
   3.32520008         9.40481129E-07
   3.33719993         1.18298942E-06
   3.34920001         1.46763034E-06
   3.36120009         1.79750032E-06
   3.37319994         2.17516435E-06
   3.38520002         2.60251272E-06
   3.39720011         3.08062022E-06
   3.40919995         3.60961758E-06
   3.42120004         4.18858053E-06
   3.43319988         4.81544021E-06
   3.44519997         5.48692242E-06
   3.45720005         6.19852153E-06
   3.46919990         6.94451046E-06
   3.48119998         7.71799023E-06
   3.49320006         8.51098230E-06
   3.50519991         9.31455088E-06
   3.51719999         1.01189817E-05
   3.52920008         1.09139728E-05
   3.54119992         1.16888668E-05
   3.55320001         1.24328972E-05
   3.56520009         1.31354545E-05
   3.57719994         1.37863462E-05
   3.58920002         1.43760553E-05
   3.60120010         1.48959916E-05
   3.61319995         1.53387045E-05
   3.62520003         1.56980805E-05
   3.63720012         1.59694901E-05
   3.64919996         1.61498938E-05
   3.66120005         1.62379129E-05
   3.67319989         1.62338256E-05
   3.68519998         1.61395401E-05
   3.69720006         1.59585161E-05
   3.70919991         1.56956376E-05
   3.72119999         1.53570563E-05
   3.73320007         1.49500065E-05
   3.74519992         1.44825963E-05
   3.75720000         1.39635886E-05
   3.76920009         1.34021775E-05
   3.78119993         1.28077645E-05
   3.79320002         1.21897483E-05
   3.80520010         1.15573303E-05
   3.81719995         1.09193370E-05
   3.82920003         1.02840686E-05
   3.84120011         9.65917388E-06
   3.85319996         9.05154684E-06
   3.86520004         8.46725652E-06
   3.87719989         7.91149341E-06
   3.88919997         7.38854351E-06
   3.90120006         6.90177740E-06
   3.91319990         6.45366208E-06
   3.92519999         6.04578599E-06
   3.93720007         5.67889492E-06
   3.94919991         5.35294112E-06
   3.96120000         5.06714014E-06
   3.97320008         4.82003361E-06
   3.98519993         4.60956426E-06
   3.99720001         4.43315093E-06
   4.00920010         4.28777275E-06
   4.02120018         4.17006095E-06
   4.03319979         4.07638800E-06
   4.04519987         4.00296722E-06
   4.05719995         3.94595600E-06
   4.06920004         3.90155310E-06
   4.08120012         3.86610282E-06
   4.09320021         3.83618635E-06
   4.10519981         3.80871575E-06
   4.11719990         3.78100754E-06
   4.12919998         3.75085051E-06
   4.14120007         3.71655005E-06
   4.15320015         3.67695566E-06
   4.16520023         3.63146432E-06
   4.17719984         3.58000261E-06
   4.18919992         3.52298457E-06
   4.20120001         3.46124557E-06
   4.21320009         3.39595795E-06
   4.22520018         3.32852937E-06
   4.23719978         3.26048553E-06
   4.24919987         3.19334708E-06
   4.26119995         3.12850398E-06
   4.27320004         3.06709580E-06
   4.28520012         3.00990177E-06
   4.29720020         2.95725113E-06
   4.30919981         2.90895946E-06
   4.32119989         2.86429395E-06
   4.33319998         2.82197516E-06
   4.34520006         2.78021707E-06
   4.35720015         2.73680394E-06
   4.36920023         2.68920576E-06
   4.38119984         2.63472657E-06
   4.39319992         2.57068018E-06
   4.40520000         2.49458571E-06
   4.41720009         2.40437203E-06
   4.42920017         2.29857937E-06
   4.44119978         2.17654906E-06
   4.45319986         2.03858258E-06
   4.46519995         1.88606407E-06
   4.47720003         1.72153136E-06
   4.48920012         1.54868997E-06
   4.50120020         1.37236214E-06
   4.51319981         1.19836955E-06
   4.52519989         1.03335083E-06
   4.53719997         8.84521171E-07
   4.54920006         7.59382317E-07
   4.56120014         6.65396044E-07
   4.57320023         6.09637823E-07
   4.58519983         5.98448821E-07
   4.59719992         6.37106837E-07
   4.60920000         7.29534634E-07
   4.62120008         8.78063815E-07
   4.63320017         1.08327208E-06
   4.64519978         1.34390370E-06
   4.65719986         1.65688266E-06
   4.66919994         2.01741932E-06
   4.68120003         2.41920657E-06
   4.69320011         2.85469878E-06
   4.70520020         3.31545584E-06
   4.71719980         3.79253470E-06
   4.72919989         4.27690429E-06
   4.74119997         4.75986326E-06
   4.75320005         5.23343078E-06
   4.76520014         5.69069107E-06
   4.77720022         6.12606846E-06
   4.78919983         6.53551751E-06
   4.80119991         6.91661626E-06
   4.81320000         7.26855524E-06
   4.82520008         7.59203067E-06
   4.83720016         7.88903799E-06
   4.84919977         8.16258671E-06
   4.86119986         8.41635119E-06
   4.87319994         8.65428410E-06
   4.88520002         8.88020713E-06
   4.89720011         9.09741902E-06
   4.90920019         9.30833266E-06
   4.92119980         9.51418133E-06
   4.93319988         9.71478403E-06
   4.94519997         9.90842364E-06
   4.95720005         1.00918160E-05
   4.96920013         1.02601880E-05
   4.98120022         1.04074579E-05
   4.99319983         1.05265026E-05
   5.00519991         1.06095176E-05
   5.01719999         1.06484204E-05
   5.02920008         1.06353091E-05
   5.04120016         1.05629242E-05
   5.05319977         1.04251112E-05
   5.06519985         1.02172362E-05
   5.07719994         9.93655431E-06
   5.08920002         9.58249893E-06
   5.10120010         9.15687633E-06
   5.11320019         8.66395476E-06
   5.12519979         8.11044538E-06
   5.13719988         7.50536901E-06
   5.14919996         6.85981422E-06
   5.16120005         6.18659760E-06
   5.17320013         5.49983815E-06
   5.18520021         4.81446250E-06
   5.19719982         4.14566148E-06
   5.20919991         3.50832988E-06
   5.22119999         2.91649371E-06
   5.23320007         2.38277062E-06
   5.24520016         1.91787103E-06
   5.25719976         1.53017174E-06
   5.26919985         1.22537472E-06
   5.28119993         1.00626926E-06
   5.29320002         8.72606734E-07
   5.30520010         8.21098467E-07
   5.31720018         8.45533975E-07
   5.32919979         9.37016466E-07
   5.34119987         1.08430822E-06
   5.35319996         1.27427097E-06
   5.36520004         1.49238394E-06
   5.37720013         1.72331761E-06
   5.38920021         1.95154030E-06
   5.40119982         2.16193007E-06
   5.41319990         2.34036725E-06
   5.42519999         2.47428625E-06
   5.43720007         2.55315854E-06
   5.44920015         2.56889166E-06
   5.46120024         2.51612664E-06
   5.47319984         2.39242263E-06
   5.48519993         2.19832305E-06
   5.49720001         1.93730557E-06
   5.50920010         1.61561877E-06
   5.52120018         1.24201335E-06
   5.53319979         8.27387396E-07
   5.54519987         3.84358970E-07
   5.55719995        -7.32161141E-08
   5.56920004        -5.30755528E-07
   5.58120012        -9.73474357E-07
   5.59320021        -1.38690075E-06
   5.60519981        -1.75736307E-06
   5.61719990        -2.07243875E-06
   5.62919998        -2.32134335E-06
   5.64120007        -2.49525942E-06
   5.65320015        -2.58759565E-06
   5.66520023        -2.59417084E-06
   5.67719984        -2.51332449E-06
   5.68919992        -2.34595632E-06
   5.70120001        -2.09549626E-06
   5.71320009        -1.76780793E-06
   5.72520018        -1.37103189E-06
   5.73719978        -9.15373107E-07
   5.74919987        -4.12836613E-07
   5.76119995         1.23083595E-07
   5.77320004         6.77756702E-07
   5.78520012         1.23580082E-06
   5.79720020         1.78150276E-06
   5.80919981         2.29925558E-06
   5.82119989         2.77401045E-06
   5.83319998         3.19172955E-06
   5.84520006         3.53983069E-06
   5.85720015         3.80760457E-06
   5.86920023         3.98659904E-06
   5.88119984         4.07094694E-06
   5.89319992         4.05762648E-06
   5.90520000         3.94664494E-06
   5.91720009         3.74111914E-06
   5.92920017         3.44726141E-06
   5.94119978         3.07425125E-06
   5.95319986         2.63399602E-06
   5.96519995         2.14078636E-06
   5.97720003         1.61085086E-06
   5.98920012         1.06182802E-06
   6.00120020         5.12169436E-07
   6.01319981        -1.95014103E-08
   6.02519989        -5.15047816E-07
   6.03719997        -9.57476118E-07
   6.04920006        -1.33155834E-06
   6.06120014        -1.62439687E-06
   6.07320023        -1.82591134E-06
   6.08519983        -1.92922198E-06
   6.09719992        -1.93091682E-06
   6.10920000        -1.83118323E-06
   6.12120008        -1.63380673E-06
   6.13320017        -1.34602601E-06
   6.14519978        -9.78257617E-07
   6.15719986        -5.43694682E-07
   6.16919994        -5.77982924E-08
   6.18120003         4.62294082E-07
   6.19320011         9.98426458E-07
   6.20520020         1.53211181E-06
   6.21719980         2.04522712E-06
   6.22919989         2.52068571E-06
   6.24119997         2.94305892E-06
   6.25320005         3.29912700E-06
   6.26520014         3.57833051E-06
   6.27720022         3.77311494E-06
   6.28919983         3.87914679E-06
   6.30119991         3.89540719E-06
   6.31320000         3.82414919E-06
   6.32520008         3.67073540E-06
   6.33720016         3.44336468E-06
   6.34919977         3.15269767E-06
   6.36119986         2.81140956E-06
   6.37319994         2.43369186E-06
   6.38520002         2.03472155E-06
   6.39720011         1.63013215E-06
   6.40920019         1.23550342E-06
   6.42119980         8.65892446E-07
   6.43319988         5.35424419E-07
   6.44519997         2.56955275E-07
   6.45720005         4.18075174E-08
   6.46920013        -1.00411981E-07
   6.48120022        -1.61923253E-07
   6.49319983        -1.36821726E-07
   6.50519991        -2.10649791E-08
   6.51719999         1.87582188E-07
   6.52920008         4.89631304E-07
   6.54120016         8.83977464E-07
   6.55319977         1.36800145E-06
   6.56519985         1.93768165E-06
   6.57719994         2.58769592E-06
   6.58920002         3.31151250E-06
   6.60120010         4.10147322E-06
   6.61320019         4.94887172E-06
   6.62519979         5.84403506E-06
   6.63719988         6.77642038E-06
   6.64919996         7.73471857E-06
   6.66120005         8.70700205E-06
   6.67320013         9.68089262E-06
   6.68520021         1.06437710E-05
   6.69719982         1.15830208E-05
   6.70919991         1.24862972E-05
   6.72119999         1.33418243E-05
   6.73320007         1.41386899E-05
   6.74520016         1.48671306E-05
   6.75719976         1.55188100E-05
   6.76919985         1.60870368E-05
   6.78119993         1.65669408E-05
   6.79320002         1.69555879E-05
   6.80520010         1.72520176E-05
   6.81720018         1.74572142E-05
   6.82919979         1.75739933E-05
   6.84119987         1.76068279E-05
   6.85319996         1.75616060E-05
   6.86520004         1.74453435E-05
   6.87720013         1.72658620E-05
   6.88920021         1.70314397E-05
   6.90119982         1.67504841E-05
   6.91319990         1.64312059E-05
   6.92519999         1.60813306E-05
   6.93720007         1.57078739E-05
   6.94920015         1.53169585E-05
   6.96120024         1.49137059E-05
   6.97319984         1.45021841E-05
   6.98519993         1.40854363E-05
   6.99720001         1.36655399E-05
   7.00920010         1.32437399E-05
   7.02120018         1.28206002E-05
   7.03319979         1.23961927E-05
   7.04519987         1.19702945E-05
   7.05719995         1.15425755E-05
   7.06920004         1.11127902E-05
   7.08120012         1.06809230E-05
   7.09320021         1.02473105E-05
   7.10519981         9.81271569E-06
   7.11719990         9.37835557E-06
   7.12919998         8.94587720E-06
   7.14120007         8.51729146E-06
   7.15320015         8.09486755E-06
   7.16520023         7.68098926E-06
   7.17719984         7.27799397E-06
   7.18919992         6.88799764E-06
   7.20120001         6.51271785E-06
   7.21320009         6.15331237E-06
   7.22520018         5.81023824E-06
   7.23719978         5.48314574E-06
   7.24919987         5.17081708E-06
   7.26119995         4.87115085E-06
   7.27320004         4.58120894E-06
   7.28520012         4.29730972E-06
   7.29720020         4.01518400E-06
   7.30919981         3.73016746E-06
   7.32119989         3.43743864E-06
   7.33319998         3.13227883E-06
   7.34520006         2.81034522E-06
   7.35720015         2.46794139E-06
   7.36920023         2.10227131E-06
   7.38119984         1.71166164E-06
   7.39319992         1.29574016E-06
   7.40520000         8.55556664E-07
   7.41720009         3.93637549E-07
   7.42920017        -8.60302976E-08
   7.44119978        -5.78091999E-07
   7.45319986        -1.07599124E-06
   7.46519995        -1.57220597E-06
   7.47720003        -2.05854326E-06
   7.48920012        -2.52648078E-06
   7.50120020        -2.96754160E-06
   7.51319981        -3.37368442E-06
   7.52519989        -3.73768808E-06
   7.53719997        -4.05351602E-06
   7.54920006        -4.31664057E-06
   7.56120014        -4.52430913E-06
   7.57320023        -4.67573909E-06
   7.58519983        -4.77223557E-06
   7.59719992        -4.81721145E-06
   7.60920000        -4.81611414E-06
   7.62120008        -4.77626327E-06
   7.63320017        -4.70659597E-06
   7.64519978        -4.61733316E-06
   7.65719986        -4.51958476E-06
   7.66919994        -4.42489591E-06
   7.68120003        -4.34477033E-06
   7.69320011        -4.29017655E-06
   7.70520020        -4.27106716E-06
   7.71719980        -4.29592501E-06
   7.72919989        -4.37135895E-06
   7.74119997        -4.50176549E-06
   7.75320005        -4.68907319E-06
   7.76520014        -4.93257721E-06
   7.77720022        -5.22887831E-06
   7.78919983        -5.57192789E-06
   7.80119991        -5.95317942E-06
   7.81320000        -6.36184723E-06
   7.82520008        -6.78525703E-06
   7.83720016        -7.20929165E-06
   7.84919977        -7.61889487E-06
   7.86119986        -7.99864847E-06
   7.87319994        -8.33336071E-06
   7.88520002        -8.60868022E-06
   7.89720011        -8.81168944E-06
   7.90920019        -8.93146171E-06
   7.92119980        -8.95955145E-06
   7.93319988        -8.89039984E-06
   7.94519997        -8.72164856E-06
   7.95720005        -8.45432714E-06
   7.96920013        -8.09292214E-06
   7.98120022        -7.64530887E-06
   7.99319983        -7.12256133E-06
   8.00520039        -6.53863071E-06
   8.01720047        -5.90990658E-06
   8.02919960        -5.25467976E-06
   8.04119968        -4.59251578E-06
   8.05319977        -3.94357039E-06
   8.06519985        -3.32786840E-06
   8.07719994        -2.76457763E-06
   8.08920002        -2.27129954E-06
   8.10120010        -1.86341629E-06
   8.11320019        -1.55350756E-06
   8.12520027        -1.35086827E-06
   8.13720036        -1.26114048E-06
   8.14920044        -1.28607633E-06
   8.16119957        -1.42343708E-06
   8.17319965        -1.66703751E-06
   8.18519974        -2.00692944E-06
   8.19719982        -2.42972510E-06
   8.20919991        -2.91904826E-06
   8.22119999        -3.45609988E-06
   8.23320007        -4.02032265E-06
   8.24520016        -4.59013836E-06
   8.25720024        -5.14374005E-06
   8.26920033        -5.65990467E-06
   8.28120041        -6.11880250E-06
   8.29319954        -6.50276888E-06
   8.30519962        -6.79701043E-06
   8.31719971        -6.99021939E-06
   8.32919979        -7.07506842E-06
   8.34119987        -7.04856984E-06
   8.35319996        -6.91226842E-06
   8.36520004        -6.67226914E-06
   8.37720013        -6.33909622E-06
   8.38920021        -5.92736933E-06
   8.40120029        -5.45531930E-06
   8.41320038        -4.94415190E-06
   8.42520046        -4.41728798E-06
   8.43719959        -3.89949992E-06
   8.44919968        -3.41598707E-06
   8.46119976        -2.99142675E-06
   8.47319984        -2.64903542E-06
   8.48519993        -2.40968870E-06
   8.49720001        -2.29113766E-06
   8.50920010        -2.30735191E-06
   8.52120018        -2.46802347E-06
   8.53320026        -2.77824711E-06
   8.54520035        -3.23839367E-06
   8.55720043        -3.84417308E-06
   8.56919956        -4.58687646E-06
   8.58119965        -5.45378589E-06
   8.59319973        -6.42872055E-06
   8.60519981        -7.49269157E-06
   8.61719990        -8.62462639E-06
   8.62919998        -9.80212735E-06
   8.64120007        -1.10022411E-05
   8.65320015        -1.22021784E-05
   8.66520023        -1.33799849E-05
   8.67720032        -1.45151125E-05
   8.68920040        -1.55888938E-05
   8.70119953        -1.65849069E-05
   8.71319962        -1.74892029E-05
   8.72519970        -1.82904478E-05
   8.73719978        -1.89799412E-05
   8.74919987        -1.95515659E-05
   8.76119995        -2.00016639E-05
   8.77320004        -2.03288837E-05
   8.78520012        -2.05339911E-05
   8.79720020        -2.06196873E-05
   8.80920029        -2.05904234E-05
   8.82120037        -2.04522330E-05
   8.83320045        -2.02125702E-05
   8.84519958        -1.98801790E-05
   8.85719967        -1.94649729E-05
   8.86919975        -1.89779003E-05
   8.88119984        -1.84308356E-05
   8.89319992        -1.78364371E-05
   8.90520000        -1.72080199E-05
   8.91720009        -1.65593701E-05
   8.92920017        -1.59045667E-05
   8.94120026        -1.52577468E-05
   8.95320034        -1.46328557E-05
   8.96520042        -1.40433694E-05
   8.97719955        -1.35019918E-05
   8.98919964        -1.30203425E-05
   9.00119972        -1.26086452E-05
   9.01319981        -1.22754327E-05
   9.02519989        -1.20272634E-05
   9.03719997        -1.18684757E-05
   9.04920006        -1.18009912E-05
   9.06120014        -1.18241624E-05
   9.07320023        -1.19346769E-05
   9.08520031        -1.21265393E-05