 -0.622799993         1.00000002E-24
 -0.610800028         1.00000002E-24
 -0.598800004         1.00000002E-24
 -0.586799979         2.69615802E-16
 -0.574800014         9.68918871E-16
 -0.562799990         2.20847364E-16
 -0.550800025        -8.65464299E-15
 -0.538800001        -3.78580359E-14
 -0.526799977        -1.00276937E-13
 -0.514800012        -1.98224100E-13
 -0.502799988        -3.10333275E-13
 -0.490799993        -3.86526884E-13
 -0.478799999        -3.61897605E-13
 -0.466800004        -1.93951233E-13
 -0.454800010         8.51321509E-14
 -0.442799985         3.23264175E-13
 -0.430799991         2.38827241E-13
 -0.418799996        -5.31901617E-13
 -0.406800002        -2.33048108E-12
 -0.394800007        -5.34449438E-12
 -0.382800013        -9.50132507E-12
 -0.370799989        -1.44459332E-11
 -0.358799994        -1.96409763E-11
 -0.346799999        -2.45863295E-11
 -0.334800005        -2.91071958E-11
 -0.322800010        -3.36258417E-11
 -0.310799986        -3.93277216E-11
 -0.298799992        -4.81628487E-11
 -0.286799997        -6.26785499E-11
 -0.274800003        -8.57374310E-11
 -0.262800008        -1.20211993E-10
 -0.250800014        -1.68749431E-10
 -0.238800004        -2.33667363E-10
 -0.226799995        -3.16987242E-10
 -0.214800000        -4.20564750E-10
 -0.202800006        -5.46248768E-10
 -0.190799996        -6.96007141E-10
 -0.178800002        -8.71979322E-10
 -0.166800007        -1.07644660E-09
 -0.154799998        -1.31171218E-09
 -0.142800003        -1.57987767E-09
 -0.130799994        -1.88246729E-09
 -0.118799999        -2.21984453E-09
 -0.106799997        -2.59039235E-09
  -9.48000029E-02    -2.98949976E-09
  -8.28000009E-02    -3.40850792E-09
  -7.07999989E-02    -3.83386034E-09
  -5.88000007E-02    -4.24675717E-09
  -4.67999987E-02    -4.62356065E-09
  -3.48000005E-02    -4.93706365E-09
  -2.28000004E-02    -5.15856380E-09
  -1.08000003E-02    -5.26050936E-09
   1.20000006E-03    -5.21939780E-09
   1.31999999E-02    -5.01865838E-09
   2.52000000E-02    -4.65140193E-09
   3.72000001E-02    -4.12307122E-09
   4.91999984E-02    -3.45416207E-09
   6.12000003E-02    -2.68310929E-09
   7.32000023E-02    -1.86918347E-09
   8.51999968E-02    -1.09479670E-09
   9.71999988E-02    -4.66229721E-10
  0.109200001        -1.11407272E-10
  0.121200003        -1.73439624E-10
  0.133200005        -7.99061317E-10
  0.145199999        -2.12185891E-09
  0.157199994        -4.24134772E-09
  0.169200003        -7.19991844E-09
  0.181199998        -1.09606280E-08
  0.193200007        -1.53891335E-08
  0.205200002        -2.02429771E-08
  0.217199996        -2.51708201E-08
  0.229200006        -2.97232923E-08
  0.241200000        -3.33761001E-08
  0.253199995        -3.55650585E-08
  0.265199989        -3.57318122E-08
  0.277200013        -3.33784200E-08
  0.289200008        -2.81279711E-08
  0.301200002        -1.97876435E-08
  0.313199997        -8.40937631E-09
  0.325199991         5.65805447E-09
  0.337199986         2.17330740E-08
  0.349200010         3.87895547E-08
  0.361200005         5.54774537E-08
  0.373199999         7.01824590E-08
  0.385199994         8.11286398E-08
  0.397199988         8.65236558E-08
  0.409200013         8.47416644E-08
  0.421200007         7.45334745E-08
  0.433200002         5.52491457E-08
  0.445199996         2.70542948E-08
  0.457199991        -8.88033380E-09
  0.469199985        -5.02372117E-08
  0.481200010        -9.34774604E-08
  0.493200004        -1.33849511E-07
  0.505200028        -1.65490917E-07
  0.517199993        -1.81627371E-07
  0.529200017        -1.74863956E-07
  0.541199982        -1.37554508E-07
  0.553200006        -6.22250056E-08
  0.565199971         5.79823229E-08
  0.577199996         2.28882882E-07
  0.589200020         4.54888038E-07
  0.601199985         7.38750714E-07
  0.613200009         1.08145889E-06
  0.625199974         1.48230731E-06
  0.637199998         1.93916617E-06
  0.649200022         2.44894386E-06
  0.661199987         3.00822694E-06
  0.673200011         3.61406046E-06
  0.685199976         4.26481483E-06
  0.697200000         4.96106713E-06
  0.709200025         5.70642078E-06
  0.721199989         6.50818583E-06
  0.733200014         7.37783193E-06
  0.745199978         8.33114609E-06
  0.757200003         9.38804624E-06
  0.769200027         1.05720119E-05
  0.781199992         1.19091274E-05
  0.793200016         1.34267784E-05
  0.805199981         1.51520353E-05
  0.817200005         1.71098181E-05
  0.829200029         1.93209726E-05
  0.841199994         2.18003333E-05
  0.853200018         2.45549636E-05
  0.865199983         2.75826515E-05
  0.877200007         3.08708077E-05
  0.889199972         3.43958709E-05
  0.901199996         3.81232421E-05
  0.913200021         4.20078577E-05
  0.925199986         4.59953299E-05
  0.937200010         5.00236674E-05
  0.949199975         5.40254914E-05
  0.961199999         5.79306434E-05
  0.973200023         6.16690450E-05
  0.985199988         6.51737428E-05
  0.997200012         6.83838734E-05
   1.00919998         7.12474866E-05
   1.02119994         7.37240989E-05
   1.03320003         7.57867674E-05
   1.04519999         7.74237269E-05
   1.05719995         7.86392993E-05
   1.06920004         7.94542793E-05
   1.08120000         7.99055560E-05
   1.09319997         8.00451380E-05
   1.10520005         7.99385089E-05
   1.11720002         7.96625100E-05
   1.12919998         7.93026484E-05
   1.14119995         7.89501064E-05
   1.15320003         7.86984601E-05
   1.16520000         7.86402888E-05
   1.17719996         7.88637044E-05
   1.18920004         7.94490334E-05
   1.20120001         8.04656520E-05
   1.21319997         8.19692214E-05
   1.22520006         8.39992426E-05
   1.23720002         8.65771945E-05
   1.24919999         8.97052087E-05
   1.26119995         9.33653937E-05
   1.27320004         9.75197690E-05
   1.28520000         1.02110898E-04
   1.29719996         1.07063199E-04
   1.30920005         1.12284804E-04
   1.32120001         1.17669908E-04
   1.33319998         1.23101738E-04
   1.34519994         1.28455766E-04
   1.35720003         1.33603244E-04
   1.36919999         1.38414849E-04
   1.38119996         1.42764475E-04
   1.39320004         1.46532708E-04
   1.40520000         1.49610307E-04
   1.41719997         1.51901360E-04
   1.42920005         1.53325702E-04
   1.44120002         1.53821296E-04
   1.45319998         1.53345623E-04
   1.46519995         1.51876768E-04
   1.47720003         1.49413638E-04
   1.48920000         1.45975777E-04
   1.50119996         1.41602475E-04
   1.51320004         1.36351257E-04
   1.52520001         1.30296015E-04
   1.53719997         1.23524660E-04
   1.54920006         1.16136463E-04
   1.56120002         1.08239146E-04
   1.57319999         9.99459589E-05
   1.58519995         9.13726253E-05
   1.59720004         8.26344985E-05
   1.60920000         7.38438757E-05
   1.62119997         6.51076261E-05
   1.63320005         5.65251030E-05
   1.64520001         4.81866045E-05
   1.65719998         4.01721227E-05
   1.66919994         3.25506626E-05
   1.68120003         2.53800117E-05
   1.69319999         1.87068763E-05
   1.70519996         1.25674160E-05
   1.71720004         6.98806525E-06
   1.72920001         1.98656221E-06
   1.74119997        -2.42690612E-06
   1.75320005        -6.24853010E-06
   1.76520002        -9.47976787E-06
   1.77719998        -1.21263647E-05
   1.78919995        -1.41975670E-05
   1.80120003        -1.57055565E-05
   1.81320000        -1.66651225E-05
   1.82519996        -1.70935746E-05
   1.83720005        -1.70108942E-05
   1.84920001        -1.64400171E-05
   1.86119998        -1.54072495E-05
   1.87320006        -1.39427248E-05
   1.88520002        -1.20808118E-05
   1.89719999        -9.86040959E-06
   1.90919995        -7.32505168E-06
   1.92120004        -4.52275026E-06
   1.93320000        -1.50558265E-06
   1.94519997         1.67102814E-06
   1.95720005         4.94928508E-06
   1.96920002         8.27024633E-06
   1.98119998         1.15752055E-05
   1.99319994         1.48071795E-05
   2.00519991         1.79124054E-05
   2.01719999         2.08417787E-05
   2.02920008         2.35521384E-05
   2.04119992         2.60073593E-05
   2.05320001         2.81791563E-05
   2.06520009         3.00475895E-05
   2.07719994         3.16012665E-05
   2.08920002         3.28372298E-05
   2.10120010         3.37605779E-05
   2.11319995         3.43838365E-05
   2.12520003         3.47261339E-05
   2.13720012         3.48122558E-05
   2.14919996         3.46716042E-05
   2.16120005         3.43371212E-05
   2.17319989         3.38442369E-05
   2.18519998         3.32298405E-05
   2.19720006         3.25313049E-05
   2.20919991         3.17856357E-05
   2.22119999         3.10286232E-05
   2.23320007         3.02941353E-05
   2.24519992         2.96134313E-05
   2.25720000         2.90145326E-05
   2.26920009         2.85216593E-05
   2.28119993         2.81546454E-05
   2.29320002         2.79284759E-05
   2.30520010         2.78528460E-05
   2.31719995         2.79318301E-05
   2.32920003         2.81636967E-05
   2.34120011         2.85408860E-05
   2.35319996         2.90501848E-05
   2.36520004         2.96731305E-05
   2.37719989         3.03866400E-05
   2.38919997         3.11638614E-05
   2.40120006         3.19752326E-05
   2.41319990         3.27896669E-05
   2.42519999         3.35759178E-05
   2.43720007         3.43039101E-05
   2.44919991         3.49460788E-05
   2.46120000         3.54786498E-05
   2.47320008         3.58826728E-05
   2.48519993         3.61448692E-05
   2.49720001         3.62581704E-05
   2.50920010         3.62219180E-05
   2.52119994         3.60417653E-05
   2.53320003         3.57292010E-05
   2.54520011         3.53008181E-05
   2.55719995         3.47773566E-05
   2.56920004         3.41825398E-05
   2.58119988         3.35418445E-05
   2.59319997         3.28812821E-05
   2.60520005         3.22262167E-05
   2.61719990         3.16003789E-05
   2.62919998         3.10250325E-05
   2.64120007         3.05184076E-05
   2.65319991         3.00953852E-05
   2.66520000         2.97674360E-05
   2.67720008         2.95427744E-05
   2.68919992         2.94266993E-05
   2.70120001         2.94220390E-05
   2.71320009         2.95296850E-05
   2.72519994         2.97490533E-05
   2.73720002         3.00785578E-05
   2.74920011         3.05158919E-05
   2.76119995         3.10581891E-05
   2.77320004         3.17020240E-05
   2.78520012         3.24432513E-05
   2.79719996         3.32767049E-05
   2.80920005         3.41958112E-05
   2.82119989         3.51921481E-05
   2.83319998         3.62550818E-05
   2.84520006         3.73714138E-05
   2.85719991         3.85252206E-05
   2.86919999         3.96978903E-05
   2.88120008         4.08683081E-05
   2.89319992         4.20133547E-05
   2.90520000         4.31085464E-05
   2.91720009         4.41288867E-05
   2.92919993         4.50498810E-05
   2.94120002         4.58485811E-05
   2.95320010         4.65046760E-05
   2.96519995         4.70015038E-05
   2.97720003         4.73269029E-05
   2.98920012         4.74738772E-05
   3.00119996         4.74409426E-05
   3.01320004         4.72321808E-05
   3.02519989         4.68569597E-05
   3.03719997         4.63293218E-05
   3.04920006         4.56671150E-05
   3.06119990         4.48909195E-05
   3.07319999         4.40227996E-05
   3.08520007         4.30850450E-05
   3.09719992         4.20989454E-05
   3.10920000         4.10836292E-05
   3.12120008         4.00551762E-05
   3.13319993         3.90258974E-05
   3.14520001         3.80039746E-05
   3.15720010         3.69933987E-05
   3.16919994         3.59942715E-05
   3.18120003         3.50034061E-05
   3.19320011         3.40152255E-05
   3.20519996         3.30228904E-05
   3.21720004         3.20194922E-05
   3.22919989         3.09993411E-05
   3.24119997         2.99591229E-05
   3.25320005         2.88989286E-05
   3.26519990         2.78229982E-05
   3.27719998         2.67401974E-05
   3.28920007         2.56641706E-05
   3.30119991         2.46131513E-05
   3.31320000         2.36094293E-05
   3.32520008         2.26785596E-05
   3.33719993         2.18482619E-05
   3.34920001         2.11471779E-05
   3.36120009         2.06034365E-05
   3.37319994         2.02432166E-05
   3.38520002         2.00893192E-05
   3.39720011         2.01598796E-05
   3.40919995         2.04672360E-05
   3.42120004         2.10171038E-05
   3.43319988         2.18079931E-05
   3.44519997         2.28309582E-05
   3.45720005         2.40696554E-05
   3.46919990         2.55007162E-05
   3.48119998         2.70943674E-05
   3.49320006         2.88153296E-05
   3.50519991         3.06239199E-05
   3.51719999         3.24773355E-05
   3.52920008         3.43311040E-05
   3.54119992         3.61405801E-05
   3.55320001         3.78625118E-05
   3.56520009         3.94565686E-05
   3.57719994         4.08867818E-05
   3.58920002         4.21228178E-05
   3.60120010         4.31410954E-05
   3.61319995         4.39256000E-05
   3.62520003         4.44684665E-05
   3.63720012         4.47701605E-05
   3.64919996         4.48394312E-05
   3.66120005         4.46928170E-05
   3.67319989         4.43538775E-05
   3.68519998         4.38520365E-05
   3.69720006         4.32211928E-05
   3.70919991         4.24980535E-05
   3.72119999         4.17203264E-05
   3.73320007         4.09248569E-05
   3.74519992         4.01457946E-05
   3.75720000         3.94128838E-05
   3.76920009         3.87500259E-05
   3.78119993         3.81741338E-05
   3.79320002         3.76944117E-05
   3.80520010         3.73120529E-05
   3.81719995         3.70204034E-05
   3.82920003         3.68056171E-05
   3.84120011         3.66476779E-05
   3.85319996         3.65218548E-05
   3.86520004         3.64004118E-05
   3.87719989         3.62545288E-05
   3.88919997         3.60563099E-05
   3.90120006         3.57807621E-05
   3.91319990         3.54076146E-05
   3.92519999         3.49229049E-05
   3.93720007         3.43201937E-05
   3.94919991         3.36013582E-05
   3.96120000         3.27769230E-05
   3.97320008         3.18658749E-05
   3.98519993         3.08950075E-05
   3.99720001         2.98978048E-05
   4.00920010         2.89129584E-05
   4.02120018         2.79825435E-05
   4.03319979         2.71499885E-05
   4.04519987         2.64579285E-05
   4.05719995         2.59460667E-05
   4.06920004         2.56490821E-05
   4.08120012         2.55947980E-05
   4.09320021         2.58025611E-05
   4.10519981         2.62820304E-05
   4.11719990         2.70323690E-05
   4.12919998         2.80418863E-05
   4.14120007         2.92881559E-05
   4.15320015         3.07386217E-05
   4.16520023         3.23516397E-05
   4.17719984         3.40779261E-05
   4.18919992         3.58623583E-05
   4.20120001         3.76460121E-05
   4.21320009         3.93684204E-05
   4.22520018         4.09698805E-05
   4.23719978         4.23937781E-05
   4.24919987         4.35888069E-05
   4.26119995         4.45110309E-05
   4.27320004         4.51256383E-05
   4.28520012         4.54084184E-05
   4.29720020         4.53467983E-05
   4.30919981         4.49404797E-05
   4.32119989         4.42016208E-05
   4.33319998         4.31544941E-05
   4.34520006         4.18347699E-05
   4.35720015         4.02882542E-05
   4.36920023         3.85693020E-05
   4.38119984         3.67388639E-05
   4.39319992         3.48622671E-05
   4.40520000         3.30068287E-05
   4.41720009         3.12393640E-05
   4.42920017         2.96237358E-05
   4.44119978         2.82184719E-05
   4.45319986         2.70746150E-05
   4.46519995         2.62338581E-05
   4.47720003         2.57270349E-05
   4.48920012         2.55730338E-05
   4.50120020         2.57782140E-05
   4.51319981         2.63363036E-05
   4.52519989         2.72288271E-05
   4.53719997         2.84260113E-05
   4.54920006         2.98881714E-05
   4.56120014         3.15674515E-05
   4.57320023         3.34098804E-05
   4.58519983         3.53576179E-05
   4.59719992         3.73512921E-05
   4.60920000         3.93323317E-05
   4.62120008         4.12451518E-05
   4.63320017         4.30391628E-05
   4.64519978         4.46704726E-05
   4.65719986         4.61032541E-05
   4.66919994         4.73106775E-05
   4.68120003         4.82754840E-05
   4.69320011         4.89900813E-05
   4.70520020         4.94562082E-05
   4.71719980         4.96842586E-05
   4.72919989         4.96922621E-05
   4.74119997         4.95046297E-05
   4.75320005         4.91507344E-05
   4.76520014         4.86634308E-05
   4.77720022         4.80775379E-05
   4.78919983         4.74284425E-05
   4.80119991         4.67508326E-05
   4.81320000         4.60775300E-05
   4.82520008         4.54385772E-05
   4.83720016         4.48604806E-05
   4.84919977         4.43656536E-05
   4.86119986         4.39720716E-05
   4.87319994         4.36930932E-05
   4.88520002         4.35374313E-05
   4.89720011         4.35092988E-05
   4.90920019         4.36085975E-05
   4.92119980         4.38312891E-05
   4.93319988         4.41697011E-05
   4.94519997         4.46129852E-05
   4.95720005         4.51475316E-05
   4.96920013         4.57574497E-05
   4.98120022         4.64250406E-05
   4.99319983         4.71313033E-05
   5.00519991         4.78564652E-05
   5.01719999         4.85805176E-05
   5.02920008         4.92838008E-05
   5.04120016         4.99475718E-05
   5.05319977         5.05545759E-05
   5.06519985         5.10896170E-05
   5.07719994         5.15400643E-05
   5.08920002         5.18962770E-05
   5.10120010         5.21519614E-05
   5.11320019         5.23043636E-05
   5.12519979         5.23543458E-05
   5.13719988         5.23062808E-05
   5.14919996         5.21678339E-05
   5.16120005         5.19495916E-05
   5.17320013         5.16646214E-05
   5.18520021         5.13279338E-05
   5.19719982         5.09558922E-05
   5.20919991         5.05656608E-05
   5.22119999         5.01745417E-05
   5.23320007         4.97993788E-05
   5.24520016         4.94559936E-05
   5.25719976         4.91586325E-05
   5.26919985         4.89194754E-05
   5.28119993         4.87482030E-05
   5.29320002         4.86517383E-05
   5.30520010         4.86339632E-05
   5.31720018         4.86956669E-05
   5.32919979         4.88344886E-05
   5.34119987         4.90449711E-05
   5.35319996         4.93186963E-05
   5.36520004         4.96444191E-05
   5.37720013         5.00083006E-05
   5.38920021         5.03941810E-05
   5.40119982         5.07839541E-05
   5.41319990         5.11579710E-05
   5.42519999         5.14955718E-05
   5.43720007         5.17756671E-05
   5.44920015         5.19774148E-05
   5.46120024         5.20808862E-05
   5.47319984         5.20678477E-05
   5.48519993         5.19224814E-05
   5.49720001         5.16321525E-05
   5.50920010         5.11881663E-05
   5.52120018         5.05864446E-05
   5.53319979         4.98281515E-05
   5.54519987         4.89202139E-05
   5.55719995         4.78756156E-05
   5.56920004         4.67135396E-05
   5.58120012         4.54592337E-05
   5.59320021         4.41435768E-05
   5.60519981         4.28024068E-05
   5.61719990         4.14755596E-05
   5.62919998         4.02056430E-05
   5.64120007         3.90366331E-05
   5.65320015         3.80122510E-05
   5.66520023         3.71742717E-05
   5.67719984         3.65607484E-05
   5.68919992         3.62042738E-05
   5.70120001         3.61303355E-05
   5.71320009         3.63558829E-05
   5.72520018         3.68881920E-05
   5.73719978         3.77240431E-05
   5.74919987         3.88493863E-05
   5.76119995         4.02394289E-05
   5.77320004         4.18591808E-05
   5.78520012         4.36645387E-05
   5.79720020         4.56037087E-05
   5.80919981         4.76190507E-05
   5.82119989         4.96491848E-05
   5.83319998         5.16312866E-05
   5.84520006         5.35034487E-05
   5.85720015         5.52069905E-05
   5.86920023         5.66886083E-05
   5.88119984         5.79022781E-05
   5.89319992         5.88107432E-05
   5.90520000         5.93866753E-05
   5.91720009         5.96132850E-05
   5.92920017         5.94845660E-05
   5.94119978         5.90049931E-05
   5.95319986         5.81888780E-05
   5.96519995         5.70593293E-05
   5.97720003         5.56468476E-05
   5.98920012         5.39877547E-05
   6.00120020         5.21224101E-05
   6.01319981         5.00933966E-05
   6.02519989         4.79437695E-05
   6.03719997         4.57153765E-05
   6.04920006         4.34474896E-05
   6.06120014         4.11756228E-05
   6.07320023         3.89307097E-05
   6.08519983         3.67385364E-05
   6.09719992         3.46194865E-05
   6.10920000         3.25885412E-05
   6.12120008         3.06554866E-05
   6.13320017         2.88253523E-05
   6.14519978         2.70990076E-05
   6.15719986         2.54738970E-05
   6.16919994         2.39448891E-05
   6.18120003         2.25051754E-05
   6.19320011         2.11471670E-05
   6.20520020         1.98633352E-05
   6.21719980         1.86469661E-05
   6.22919989         1.74927845E-05
   6.24119997         1.63974400E-05
   6.25320005         1.53598867E-05
   6.26520014         1.43816287E-05
   6.27720022         1.34668735E-05
   6.28919983         1.26225996E-05
   6.30119991         1.18585194E-05
   6.31320000         1.11869476E-05
   6.32520008         1.06225643E-05
   6.33720016         1.01820406E-05
   6.34919977         9.88357988E-06
   6.36119986         9.74634804E-06
   6.37319994         9.78980643E-06
   6.38520002         1.00329789E-05
   6.39720011         1.04936371E-05
   6.40920019         1.11874269E-05
   6.42119980         1.21269595E-05
   6.43319988         1.33208778E-05
   6.44519997         1.47729215E-05
   6.45720005         1.64810681E-05
   6.46920013         1.84368146E-05
   6.48120022         2.06246586E-05
   6.49319983         2.30218320E-05
   6.50519991         2.55983850E-05
   6.51719999         2.83175905E-05
   6.52920008         3.11367221E-05
   6.54120016         3.40081278E-05
   6.55319977         3.68806577E-05
   6.56519985         3.97013137E-05
   6.57719994         4.24170794E-05
   6.58920002         4.49769104E-05
   6.60120010         4.73336731E-05
   6.61320019         4.94460219E-05
   6.62519979         5.12800980E-05
   6.63719988         5.28108139E-05
   6.64919996         5.40228175E-05
   6.66120005         5.49109245E-05
   6.67320013         5.54800281E-05
   6.68520021         5.57444910E-05
   6.69719982         5.57270396E-05
   6.70919991         5.54572907E-05
   6.72119999         5.49698925E-05
   6.73320007         5.43024944E-05
   6.74520016         5.34936407E-05
   6.75719976         5.25806827E-05
   6.76919985         5.15979154E-05
   6.78119993         5.05749995E-05
   6.79320002         4.95358036E-05
   6.80520010         4.84977209E-05
   6.81720018         4.74715089E-05
   6.82919979         4.64615732E-05
   6.84119987         4.54667606E-05
   6.85319996         4.44814577E-05
   6.86520004         4.34969879E-05
   6.87720013         4.25031540E-05
   6.88920021         4.14898459E-05
   6.90119982         4.04485581E-05
   6.91319990         3.93737901E-05
   6.92519999         3.82641338E-05
   6.93720007         3.71231035E-05
   6.94920015         3.59595506E-05
   6.96120024         3.47876958E-05
   6.97319984         3.36267549E-05
   6.98519993         3.25002438E-05
   6.99720001         3.14349709E-05
   7.00920010         3.04598489E-05
   7.02120018         2.96045800E-05
   7.03319979         2.88983301E-05
   7.04519987         2.83684130E-05
   7.05719995         2.80390886E-05
   7.06920004         2.79304913E-05
   7.08120012         2.80577078E-05
   7.09320021         2.84300531E-05
   7.10519981         2.90505523E-05
   7.11719990         2.99156254E-05
   7.12919998         3.10149881E-05
   7.14120007         3.23317508E-05
   7.15320015         3.38427199E-05
   7.16520023         3.55188204E-05
   7.17719984         3.73257099E-05
   7.18919992         3.92244619E-05
   7.20120001         4.11724395E-05
   7.21320009         4.31242370E-05
   7.22520018         4.50328116E-05
   7.23719978         4.68507205E-05
   7.24919987         4.85314449E-05
   7.26119995         5.00308706E-05
   7.27320004         5.13087325E-05
   7.28520012         5.23300478E-05
   7.29720020         5.30664547E-05
   7.30919981         5.34974424E-05
   7.32119989         5.36113075E-05
   7.33319998         5.34059072E-05
   7.34520006         5.28890923E-05
   7.35720015         5.20787835E-05
   7.36920023         5.10026657E-05
   7.38119984         4.96974608E-05
   7.39319992         4.82077739E-05
   7.40520000         4.65845769E-05
   7.41720009         4.48833707E-05
   7.42920017         4.31620720E-05
   7.44119978         4.14787937E-05
   7.45319986         3.98896045E-05
   7.46519995         3.84463929E-05
   7.47720003         3.71948918E-05
   7.48920012         3.61730563E-05
   7.50120020         3.54096919E-05
   7.51319981         3.49235925E-05
   7.52519989         3.47230416E-05
   7.53719997         3.48058129E-05
   7.54920006         3.51596318E-05
   7.56120014         3.57630161E-05
   7.57320023         3.65865344E-05
   7.58519983         3.75943055E-05
   7.59719992         3.87456930E-05
   7.60920000         3.99970668E-05
   7.62120008         4.13035777E-05
   7.63320017         4.26207916E-05
   7.64519978         4.39062242E-05
   7.65719986         4.51206797E-05
   7.66919994         4.62294011E-05
   7.68120003         4.72029969E-05
   7.69320011         4.80181443E-05
   7.70520020         4.86580029E-05
   7.71719980         4.91124774E-05
   7.72919989         4.93781445E-05
   7.74119997         4.94580054E-05
   7.75320005         4.93610387E-05
   7.76520014         4.91015817E-05
   7.77720022         4.86986355E-05
   7.78919983         4.81750103E-05
   7.80119991         4.75564448E-05
   7.81320000         4.68706712E-05
   7.82520008         4.61463860E-05
   7.83720016         4.54122346E-05
   7.84919977         4.46957274E-05
   7.86119986         4.40221884E-05
   7.87319994         4.34138055E-05
   7.88520002         4.28887251E-05
   7.89720011         4.24603495E-05
   7.90920019         4.21368823E-05
   7.92119980         4.19210010E-05
   7.93319988         4.18099080E-05
   7.94519997         4.17955598E-05
   7.95720005         4.18652162E-05
   7.96920013         4.20021825E-05
   7.98120022         4.21868026E-05
   7.99319983         4.23975871E-05
   8.00520039         4.26124752E-05
   8.01720047         4.28101230E-05
   8.02919960         4.29711508E-05
   8.04119968         4.30792861E-05
   8.05319977         4.31223707E-05
   8.06519985         4.30930959E-05
   8.07719994         4.29895517E-05
   8.08920002         4.28154599E-05
   8.10120010         4.25801227E-05
   8.11320019         4.22980702E-05
   8.12520027         4.19884273E-05
   8.13720036         4.16740331E-05
   8.14920044         4.13802554E-05
   8.16119957         4.11337023E-05
   8.17319965         4.09607892E-05
   8.18519974         4.08862907E-05
   8.19719982         4.09319618E-05
   8.20919991         4.11153123E-05
   8.22119999         4.14485694E-05
   8.23320007         4.19378848E-05
   8.24520016         4.25828330E-05
   8.25720024         4.33761525E-05
   8.26920033         4.43037934E-05
   8.28120041         4.53452449E-05
   8.29319954         4.64741170E-05
   8.30519962         4.76589848E-05
   8.31719971         4.88644400E-05
   8.32919979         5.00523638E-05
   8.34119987         5.11832804E-05
   8.35319996         5.22178743E-05
   8.36520004         5.31183978E-05
   8.37720013         5.38501372E-05
   8.38920021         5.43826864E-05
   8.40120029         5.46910851E-05
   8.41320038         5.47567288E-05
   8.42520046         5.45680996E-05
   8.43719959         5.41212248E-05
   8.44919968         5.34198516E-05
   8.46119976         5.24753632E-05
   8.47319984         5.13064369E-05
   8.48519993         4.99384842E-05
   8.49720001         4.84028533E-05
   8.50920010         4.67358259E-05
   8.52120018         4.49775034E-05
   8.53320026         4.31706030E-05
   8.54520035         4.13591006E-05
   8.55720043         3.95869538E-05
   8.56919956         3.78967816E-05
   8.58119965         3.63286235E-05
   8.59319973         3.49187867E-05
   8.60519981         3.36988633E-05
   8.61719990         3.26948866E-05
   8.62919998         3.19266983E-05
   8.64120007         3.14075623E-05
   8.65320015         3.11439289E-05
   8.66520023         3.11354488E-05
   8.67720032         3.13751516E-05
   8.68920040         3.18498169E-05
   8.70119953         3.25405053E-05
   8.71319962         3.34232172E-05
   8.72519970         3.44697255E-05
   8.73719978         3.56484816E-05
   8.74919987         3.69256049E-05
   8.76119995         3.82659673E-05
   8.77320004         3.96342475E-05
   8.78520012         4.09959757E-05
   8.79720020         4.23185411E-05
   8.80920029         4.35720904E-05
   8.82120037         4.47303064E-05
   8.83320045         4.57710848E-05
   8.84519958         4.66770471E-05
   8.85719967         4.74358567E-05
   8.86919975         4.80403869E-05
   8.88119984         4.84886477E-05
   8.89319992         4.87835314E-05
   8.90520000         4.89323429E-05
   8.91720009         4.89461927E-05
   8.92920017         4.88392143E-05
   8.94120026         4.86277422E-05
   8.95320034         4.83294061E-05
   8.96520042         4.79622577E-05
   8.97719955         4.75439483E-05
   8.98919964         4.70910127E-05
   9.00119972         4.66182573E-05
   9.01319981         4.61383133E-05
   9.02519989         4.56613452E-05
   9.03719997         4.51949454E-05
   9.04920006         4.47442108E-05
   9.06120014         4.43119316E-05
   9.07320023         4.38989555E-05
   9.08520031         4.35046350E-05