 -0.622799993         1.00000002E-24
 -0.610800028         1.00000002E-24
 -0.598800004         1.00000002E-24
 -0.586799979         1.00000002E-24
 -0.574800014         1.05241687E-25
 -0.562799990        -4.77126465E-24
 -0.550800025        -1.75119706E-23
 -0.538800001        -4.81749403E-23
 -0.526799977        -1.87139188E-22
 -0.514800012        -8.80534671E-22
 -0.502799988        -3.49782087E-21
 -0.490799993        -1.09479761E-20
 -0.478799999        -2.74983625E-20
 -0.466800004        -5.66026768E-20
 -0.454800010        -9.63891984E-20
 -0.442799985        -1.35061676E-19
 -0.430799991        -1.51794906E-19
 -0.418799996        -1.29592280E-19
 -0.406800002        -8.11206592E-20
 -0.394800007        -7.57874833E-20
 -0.382800013        -2.42136419E-19
 -0.370799989        -7.17017577E-19
 -0.358799994        -1.53557426E-18
 -0.346799999        -2.50568021E-18
 -0.334800005        -3.16562331E-18
 -0.322800010        -2.94055553E-18
 -0.310799986        -1.54557570E-18
 -0.298799992         4.79635922E-19
 -0.286799997         1.41994144E-18
 -0.274800003        -1.35836188E-18
 -0.262800008        -1.02502691E-17
 -0.250800014        -2.55037154E-17
 -0.238800004        -4.33542300E-17
 -0.226799995        -5.55264177E-17
 -0.214800000        -5.14072667E-17
 -0.202800006        -2.33051173E-17
 -0.190799996         2.64994208E-17
 -0.178800002         8.01219317E-17
 -0.166800007         1.04143263E-16
 -0.154799998         5.87847748E-17
 -0.142800003        -8.37271223E-17
 -0.130799994        -3.16631557E-16
 -0.118799999        -5.81882836E-16
 -0.106799997        -7.71092791E-16
  -9.48000029E-02    -7.52714982E-16
  -8.28000009E-02    -4.24723999E-16
  -7.07999989E-02     2.20974207E-16
  -5.88000007E-02     1.04797796E-15
  -4.67999987E-02     1.76864164E-15
  -3.48000005E-02     2.00317320E-15
  -2.28000004E-02     1.40547573E-15
  -1.08000003E-02    -1.72796031E-16
   1.20000006E-03    -2.53596370E-15
   1.31999999E-02    -5.08472099E-15
   2.52000000E-02    -6.90012394E-15
   3.72000001E-02    -6.98847498E-15
   4.91999984E-02    -4.64484408E-15
   6.12000003E-02     1.68416606E-16
   7.32000023E-02     6.57127356E-15
   8.51999968E-02     1.27824827E-14
   9.71999988E-02     1.64825903E-14
  0.109200001         1.54959968E-14
  0.121200003         8.63604046E-15
  0.133200005        -3.55129109E-15
  0.145199999        -1.84513049E-14
  0.157199994        -3.16994152E-14
  0.169200003        -3.82337391E-14
  0.181199998        -3.39126920E-14
  0.193200007        -1.72693924E-14
  0.205200002         9.20375751E-15
  0.217199996         3.88528727E-14
  0.229200006         6.21334039E-14
  0.241200000         6.93082473E-14
  0.253199995         5.39760599E-14
  0.265199989         1.63414306E-14
  0.277200013        -3.50847857E-14
  0.289200008        -8.44537249E-14
  0.301200002        -1.12614162E-13
  0.313199997        -1.03551933E-13
  0.325199991        -5.14500280E-14
  0.337199986         3.41713352E-14
  0.349200010         1.27770637E-13
  0.361200005         1.93107141E-13
  0.373199999         1.94257682E-13
  0.385199994         1.09751584E-13
  0.397199988        -5.46617500E-14
  0.409200013        -2.59828969E-13
  0.421200007        -4.37775928E-13
  0.433200002        -5.08380393E-13
  0.445199996        -4.05374546E-13
  0.457199991        -1.04814737E-13
  0.469199985         3.53481242E-13
  0.481200010         8.60920493E-13
  0.493200004         1.25751493E-12
  0.505200028         1.37137263E-12
  0.517199993         1.07250558E-12
  0.529200017         3.26668895E-13
  0.541199982        -7.68159353E-13
  0.553200006        -1.97814638E-12
  0.565199971        -2.97113527E-12
  0.577199996        -3.39258287E-12
  0.589200020        -2.96500866E-12
  0.601199985        -1.58631951E-12
  0.613200009         6.01655769E-13
  0.625199974         3.19951661E-12
  0.637199998         5.60538291E-12
  0.649200022         7.13585831E-12
  0.661199987         7.19166263E-12
  0.673200011         5.43147081E-12
  0.685199976         1.90975664E-12
  0.697200000        -2.86292604E-12
  0.709200025        -7.96509386E-12
  0.721199989        -1.22201858E-11
  0.733200014        -1.44412763E-11
  0.745199978        -1.37174751E-11
  0.757200003        -9.67765625E-12
  0.769200027        -2.66373317E-12
  0.781199992         6.24141103E-12
  0.793200016         1.53576700E-11
  0.805199981         2.27105296E-11
  0.817200005         2.64393750E-11
  0.829200029         2.52251380E-11
  0.841199994         1.86366408E-11
  0.853200018         7.30475836E-12
  0.865199983        -7.13207835E-12
  0.877200007        -2.23148097E-11
  0.889199972        -3.56283059E-11
  0.901199996        -4.47396772E-11
  0.913200021        -4.80813375E-11
  0.925199986        -4.51579191E-11
  0.937200010        -3.65973918E-11
  0.949199975        -2.39324966E-11
  0.961199999        -9.17201991E-12
  0.973200023         5.71825833E-12
  0.985199988         1.92733694E-11
  0.997200012         3.07825432E-11
   1.00919998         4.02406372E-11
   1.02119994         4.79713491E-11
   1.03320003         5.39733605E-11
   1.04519999         5.71043351E-11
   1.05719995         5.42493411E-11
   1.06920004         3.96127610E-11
   1.08120000         4.22876578E-12
   1.09319997        -6.42834119E-11
   1.10520005        -1.81779855E-10
   1.11720002        -3.67603253E-10
   1.12919998        -6.44753528E-10
   1.14119995        -1.04046360E-09
   1.15320003        -1.58748581E-09
   1.16520000        -2.32639330E-09
   1.17719996        -3.30926042E-09
   1.18920004        -4.60506522E-09
   1.20120001        -6.30731201E-09
   1.21319997        -8.54431992E-09
   1.22520006        -1.14928138E-08
   1.23720002        -1.53955906E-08
   1.24919999        -2.05842294E-08
   1.26119995        -2.75078804E-08
   1.27320004        -3.67697339E-08
   1.28520000        -4.91724137E-08
   1.29719996        -6.57740529E-08
   1.30920005        -8.79562165E-08
   1.32120001        -1.17504555E-07
   1.33319998        -1.56702640E-07
   1.34519994        -2.08437200E-07
   1.35720003        -2.76313301E-07
   1.36919999        -3.64774706E-07
   1.38119996        -4.79224184E-07
   1.39320004        -6.26135602E-07
   1.40520000        -8.13150336E-07
   1.41719997        -1.04914648E-06
   1.42920005        -1.34427034E-06
   1.44120002        -1.70991939E-06
   1.45319998        -2.15866589E-06
   1.46519995        -2.70411397E-06
   1.47720003        -3.36067546E-06
   1.48920000        -4.14326951E-06
   1.50119996        -5.06693596E-06
   1.51320004        -6.14637156E-06
   1.52520001        -7.39539519E-06
   1.53719997        -8.82635504E-06
   1.54920006        -1.04495020E-05
   1.56120002        -1.22723413E-05
   1.57319999        -1.42990129E-05
   1.58519995        -1.65297060E-05
   1.59720004        -1.89601706E-05
   1.60920000        -2.15813216E-05
   1.62119997        -2.43790073E-05
   1.63320005        -2.73339228E-05
   1.64520001        -3.04217228E-05
   1.65719998        -3.36133344E-05
   1.66919994        -3.68754481E-05
   1.68120003        -4.01712277E-05
   1.69319999        -4.34611793E-05
   1.70519996        -4.67041682E-05
   1.71720004        -4.98585759E-05
   1.72920001        -5.28834971E-05
   1.74119997        -5.57400199E-05
   1.75320005        -5.83924520E-05
   1.76520002        -6.08094779E-05
   1.77719998        -6.29652204E-05
   1.78919995        -6.48401110E-05
   1.80120003        -6.64215622E-05
   1.81320000        -6.77043863E-05
   1.82519996        -6.86909407E-05
   1.83720005        -6.93910042E-05
   1.84920001        -6.98213844E-05
   1.86119998        -7.00051824E-05
   1.87320006        -6.99709490E-05
   1.88520002        -6.97515352E-05
   1.89719999        -6.93828333E-05
   1.90919995        -6.89024455E-05
   1.92120004        -6.83482867E-05
   1.93320000        -6.77572534E-05
   1.94519997        -6.71639500E-05
   1.95720005        -6.65995976E-05
   1.96920002        -6.60910810E-05
   1.98119998        -6.56602788E-05
   1.99319994        -6.53235911E-05
   2.00519991        -6.50917573E-05
   2.01719999        -6.49698995E-05
   2.02920008        -6.49578578E-05
   2.04119992        -6.50506699E-05
   2.05320001        -6.52393355E-05
   2.06520009        -6.55116455E-05
   2.07719994        -6.58532008E-05
   2.08920002        -6.62484308E-05
   2.10120010        -6.66816923E-05
   2.11319995        -6.71383023E-05
   2.12520003        -6.76055206E-05
   2.13720012        -6.80734593E-05
   2.14919996        -6.85357736E-05
   2.16120005        -6.89902008E-05
   2.17319989        -6.94389310E-05
   2.18519998        -6.98886506E-05
   2.19720006        -7.03503902E-05
   2.20919991        -7.08390653E-05
   2.22119999        -7.13727422E-05
   2.23320007        -7.19716845E-05
   2.24519992        -7.26571598E-05
   2.25720000        -7.34500427E-05
   2.26920009        -7.43693527E-05
   2.28119993        -7.54307257E-05
   2.29320002        -7.66449230E-05
   2.30520010        -7.80165356E-05
   2.31719995        -7.95428932E-05
   2.32920003        -8.12133367E-05
   2.34120011        -8.30088611E-05
   2.35319996        -8.49023272E-05
   2.36520004        -8.68590796E-05
   2.37719989        -8.88381765E-05
   2.38919997        -9.07940848E-05
   2.40120006        -9.26788271E-05
   2.41319990        -9.44444400E-05
   2.42519999        -9.60456891E-05
   2.43720007        -9.74428331E-05
   2.44919991        -9.86043597E-05
   2.46120000        -9.95094088E-05
   2.47320008        -1.00149868E-04
   2.48519993        -1.00531935E-04
   2.49720001        -1.00677025E-04
   2.50920010        -1.00621968E-04
   2.52119994        -1.00418445E-04
   2.53320003        -1.00131700E-04
   2.54520011        -9.98384494E-05
   2.55719995        -9.96242670E-05
   2.56920004        -9.95803057E-05
   2.58119988        -9.97997704E-05
   2.59319997        -1.00374033E-04
   2.60520005        -1.01388825E-04
   2.61719990        -1.02920436E-04
   2.62919998        -1.05032312E-04
   2.64120007        -1.07772008E-04
   2.65319991        -1.11168782E-04
   2.66520000        -1.15231742E-04
   2.67720008        -1.19948905E-04
   2.68919992        -1.25286824E-04
   2.70120001        -1.31191060E-04
   2.71320009        -1.37587398E-04
   2.72519994        -1.44383608E-04
   2.73720002        -1.51471715E-04
   2.74920011        -1.58730894E-04
   2.76119995        -1.66030295E-04
   2.77320004        -1.73232373E-04
   2.78520012        -1.80195915E-04
   2.79719996        -1.86779173E-04
   2.80920005        -1.92842679E-04
   2.82119989        -1.98251772E-04
   2.83319998        -2.02878844E-04
   2.84520006        -2.06605167E-04
   2.85719991        -2.09322359E-04
   2.86919999        -2.10933518E-04
   2.88120008        -2.11354112E-04
   2.89319992        -2.10512604E-04
   2.90520000        -2.08350830E-04
   2.91720009        -2.04824493E-04
   2.92919993        -1.99903341E-04
   2.94120002        -1.93571730E-04
   2.95320010        -1.85828874E-04
   2.96519995        -1.76689398E-04
   2.97720003        -1.66183891E-04
   2.98920012        -1.54359499E-04
   3.00119996        -1.41280427E-04
   3.01320004        -1.27028528E-04
   3.02519989        -1.11703528E-04
   3.03719997        -9.54231582E-05
   3.04920006        -7.83229043E-05
   3.06119990        -6.05554014E-05
   3.07319999        -4.22894009E-05
   3.08520007        -2.37081767E-05
   3.09719992        -5.00750502E-06
   3.10920000         1.36069193E-05
   3.12120008         3.19225292E-05
   3.13319993         4.97234032E-05
   3.14520001         6.67941131E-05
   3.15720010         8.29239143E-05
   3.16919994         9.79110846E-05
   3.18120003         1.11567329E-04
   3.19320011         1.23722144E-04
   3.20519996         1.34226939E-04
   3.21720004         1.42958845E-04
   3.22919989         1.49824045E-04
   3.24119997         1.54760448E-04
   3.25320005         1.57739763E-04
   3.26519990         1.58768613E-04
   3.27719998         1.57888950E-04
   3.28920007         1.55177418E-04
   3.30119991         1.50743814E-04
   3.31320000         1.44728634E-04
   3.32520008         1.37299779E-04
   3.33719993         1.28648302E-04
   3.34920001         1.18983662E-04
   3.36120009         1.08528191E-04
   3.37319994         9.75113435E-05
   3.38520002         8.61635490E-05
   3.39720011         7.47101876E-05
   3.40919995         6.33656236E-05
   3.42120004         5.23277449E-05
   3.43319988         4.17729971E-05
   3.44519997         3.18522470E-05
   3.45720005         2.26875763E-05
   3.46919990         1.43700863E-05
   3.48119998         6.95884410E-06
   3.49320006         4.80972119E-07
   3.50519991        -5.06712286E-06
   3.51719999        -9.71746795E-06
   3.52920008        -1.35272867E-05
   3.54119992        -1.65749661E-05
   3.55320001        -1.89554248E-05
   3.56520009        -2.07750982E-05
   3.57719994        -2.21467471E-05
   3.58920002        -2.31843551E-05
   3.60120010        -2.39982928E-05
   3.61319995        -2.46909840E-05
   3.62520003        -2.53531944E-05
   3.63720012        -2.60610977E-05
   3.64919996        -2.68741660E-05
   3.66120005        -2.78339357E-05
   3.67319989        -2.89636191E-05
   3.68519998        -3.02685239E-05
   3.69720006        -3.17371814E-05
   3.70919991        -3.33430835E-05
   3.72119999        -3.50469018E-05
   3.73320007        -3.67990542E-05
   3.74519992        -3.85424974E-05
   3.75720000        -4.02155893E-05
   3.76920009        -4.17549854E-05
   3.78119993        -4.30983819E-05
   3.79320002        -4.41871562E-05
   3.80520010        -4.49687032E-05
   3.81719995        -4.53985631E-05
   3.82920003        -4.54422516E-05
   3.84120011        -4.50767729E-05
   3.85319996        -4.42917808E-05
   3.86520004        -4.30904620E-05
   3.87719989        -4.14899805E-05
   3.88919997        -3.95215866E-05
   3.90120006        -3.72302675E-05
   3.91319990        -3.46740053E-05
   3.92519999        -3.19225401E-05
   3.93720007        -2.90557073E-05
   3.94919991        -2.61613040E-05
   3.96120000        -2.33325827E-05
   3.97320008        -2.06653585E-05
   3.98519993        -1.82548702E-05
   3.99720001        -1.61924636E-05
   4.00920010        -1.45622398E-05
   4.02120018        -1.34377724E-05
   4.03319979        -1.28790816E-05
   4.04519987        -1.29299606E-05
   4.05719995        -1.36158160E-05
   4.06920004        -1.49421367E-05
   4.08120012        -1.68936804E-05
   4.09320021        -1.94344411E-05
   4.10519981        -2.25084314E-05
   4.11719990        -2.60412398E-05
   4.12919998        -2.99423482E-05
   4.14120007        -3.41080813E-05
   4.15320015        -3.84250525E-05
   4.16520023        -4.27739906E-05
   4.17719984        -4.70337363E-05
   4.18919992        -5.10852333E-05
   4.20120001        -5.48153876E-05
   4.21320009        -5.81205641E-05
   4.22520018        -6.09096678E-05
   4.23719978        -6.31066359E-05
   4.24919987        -6.46523040E-05
   4.26119995        -6.55055919E-05
   4.27320004        -6.56440607E-05
   4.28520012        -6.50637812E-05
   4.29720020        -6.37786507E-05
   4.30919981        -6.18192425E-05
   4.32119989        -5.92311881E-05
   4.33319998        -5.60733606E-05
   4.34520006        -5.24158168E-05
   4.35720015        -4.83376425E-05
   4.36920023        -4.39248397E-05
   4.38119984        -3.92682159E-05
   4.39319992        -3.44613836E-05
   4.40520000        -2.95988666E-05
   4.41720009        -2.47743210E-05
   4.42920017        -2.00788436E-05
   4.44119978        -1.55993930E-05
   4.45319986        -1.14172635E-05
   4.46519995        -7.60665216E-06
   4.47720003        -4.23327356E-06
   4.48920012        -1.35307664E-06
   4.50120020         9.88935199E-07
   4.51319981         2.75972479E-06
   4.52519989         3.93903792E-06
   4.53719997         4.51995811E-06
   4.54920006         4.50914695E-06
   4.56120014         3.92671382E-06
   4.57320023         2.80567951E-06
   4.58519983         1.19102049E-06
   4.59719992        -8.61713772E-07
   4.60920000        -3.28817123E-06
   4.62120008        -6.01731017E-06
   4.63320017        -8.97376594E-06
   4.64519978        -1.20803888E-05
   4.65719986        -1.52608209E-05
   4.66919994        -1.84420078E-05
   4.68120003        -2.15565087E-05
   4.69320011        -2.45445081E-05
   4.70520020        -2.73554360E-05
   4.71719980        -2.99491221E-05
   4.72919989        -3.22964406E-05
   4.74119997        -3.43794345E-05
   4.75320005        -3.61909661E-05
   4.76520014        -3.77338874E-05
   4.77720022        -3.90198511E-05
   4.78919983        -4.00678327E-05
   4.80119991        -4.09024433E-05
   4.81320000        -4.15521863E-05
   4.82520008        -4.20477008E-05
   4.83720016        -4.24201389E-05
   4.84919977        -4.26997140E-05
   4.86119986        -4.29145330E-05
   4.87319994        -4.30896980E-05
   4.88520002        -4.32467386E-05
   4.89720011        -4.34033427E-05
   4.90920019        -4.35733928E-05
   4.92119980        -4.37672170E-05
   4.93319988        -4.39920477E-05
   4.94519997        -4.42526143E-05
   4.95720005        -4.45517653E-05
   4.96920013        -4.48911487E-05
   4.98120022        -4.52718050E-05
   4.99319983        -4.56947055E-05
   5.00519991        -4.61611562E-05
   5.01719999        -4.66730817E-05
   5.02920008        -4.72331667E-05
   5.04120016        -4.78448055E-05
   5.05319977        -4.85119526E-05
   5.06519985        -4.92387953E-05
   5.07719994        -5.00293427E-05
   5.08920002        -5.08869089E-05
   5.10120010        -5.18135494E-05
   5.11320019        -5.28095225E-05
   5.12519979        -5.38727545E-05
   5.13719988        -5.49984288E-05
   5.14919996        -5.61786801E-05
   5.16120005        -5.74024634E-05
   5.17320013        -5.86555943E-05
   5.18520021        -5.99210071E-05
   5.19719982        -6.11791766E-05
   5.20919991        -6.24087552E-05
   5.22119999        -6.35873294E-05
   5.23320007        -6.46922563E-05
   5.24520016        -6.57016499E-05
   5.25719976        -6.65952830E-05
   5.26919985        -6.73554459E-05
   5.28119993        -6.79677396E-05
   5.29320002        -6.84216066E-05
   5.30520010        -6.87107095E-05
   5.31720018        -6.88330838E-05
   5.32919979        -6.87910215E-05
   5.34119987        -6.85907071E-05
   5.35319996        -6.82417303E-05
   5.36520004        -6.77563439E-05
   5.37720013        -6.71487287E-05
   5.38920021        -6.64342442E-05
   5.40119982        -6.56286356E-05
   5.41319990        -6.47474735E-05
   5.42519999        -6.38056445E-05
   5.43720007        -6.28171401E-05
   5.44920015        -6.17949991E-05
   5.46120024        -6.07514557E-05
   5.47319984        -5.96982391E-05
   5.48519993        -5.86470123E-05
   5.49720001        -5.76098319E-05
   5.50920010        -5.65995615E-05
   5.52120018        -5.56301929E-05
   5.53319979        -5.47169584E-05
   5.54519987        -5.38762288E-05
   5.55719995        -5.31251171E-05
   5.56920004        -5.24808529E-05
   5.58120012        -5.19598761E-05
   5.59320021        -5.15768043E-05
   5.60519981        -5.13432678E-05
   5.61719990        -5.12667539E-05
   5.62919998        -5.13496198E-05
   5.64120007        -5.15882639E-05
   5.65320015        -5.19726855E-05
   5.66520023        -5.24864226E-05
   5.67719984        -5.31069345E-05
   5.68919992        -5.38064342E-05
   5.70120001        -5.45531511E-05
   5.71320009        -5.53129103E-05
   5.72520018        -5.60509616E-05
   5.73719978        -5.67339193E-05
   5.74919987        -5.73316356E-05
   5.76119995        -5.78188847E-05
   5.77320004        -5.81767781E-05
   5.78520012        -5.83936635E-05
   5.79720020        -5.84656045E-05
   5.80919981        -5.83962792E-05
   5.82119989        -5.81963686E-05
   5.83319998        -5.78824765E-05
   5.84520006        -5.74756959E-05
   5.85720015        -5.69998956E-05
   5.86920023        -5.64799193E-05
   5.88119984        -5.59398359E-05
   5.89319992        -5.54013568E-05
   5.90520000        -5.48825774E-05
   5.91720009        -5.43971073E-05
   5.92920017        -5.39536813E-05
   5.94119978        -5.35561994E-05
   5.95319986        -5.32042286E-05
   5.96519995        -5.28938654E-05
   5.97720003        -5.26188342E-05
   5.98920012        -5.23717499E-05
   6.00120020        -5.21453803E-05
   6.01319981        -5.19337700E-05
   6.02519989        -5.17331719E-05
   6.03719997        -5.15426218E-05
   6.04920006        -5.13642117E-05
   6.06120014        -5.12029110E-05
   6.07320023        -5.10661193E-05
   6.08519983        -5.09628371E-05
   6.09719992        -5.09026577E-05
   6.10920000        -5.08946141E-05
   6.12120008        -5.09459860E-05
   6.13320017        -5.10611499E-05
   6.14519978        -5.12406332E-05
   6.15719986        -5.14803360E-05
   6.16919994        -5.17710832E-05
   6.18120003        -5.20984577E-05
   6.19320011        -5.24429961E-05
   6.20520020        -5.27806733E-05
   6.21719980        -5.30836805E-05
   6.22919989        -5.33214516E-05
   6.24119997        -5.34618848E-05
   6.25320005        -5.34726969E-05
   6.26520014        -5.33228122E-05
   6.27720022        -5.29837998E-05
   6.28919983        -5.24312272E-05
   6.30119991        -5.16459113E-05
   6.31320000        -5.06150209E-05
   6.32520008        -4.93330263E-05
   6.33720016        -4.78023758E-05
   6.34919977        -4.60339834E-05
   6.36119986        -4.40474105E-05
   6.37319994        -4.18707641E-05
   6.38520002        -3.95403222E-05
   6.39720011        -3.70998096E-05
   6.40920019        -3.45993685E-05
   6.42119980        -3.20942745E-05
   6.43319988        -2.96433500E-05
   6.44519997        -2.73071873E-05
   6.45720005        -2.51462025E-05
   6.46920013        -2.32186285E-05
   6.48120022        -2.15784821E-05
   6.49319983        -2.02736228E-05
   6.50519991        -1.93439555E-05
   6.51719999        -1.88198792E-05
   6.52920008        -1.87210080E-05
   6.54120016        -1.90552710E-05
   6.55319977        -1.98183952E-05
   6.56519985        -2.09938262E-05
   6.57719994        -2.25530966E-05
   6.58920002        -2.44566054E-05
   6.60120010        -2.66548286E-05
   6.61320019        -2.90898843E-05
   6.62519979        -3.16973783E-05
   6.63719988        -3.44084947E-05
   6.64919996        -3.71522037E-05
   6.66120005        -3.98575539E-05
   6.67320013        -4.24559221E-05
   6.68520021        -4.48831888E-05
   6.69719982        -4.70817249E-05
   6.70919991        -4.90021994E-05
   6.72119999        -5.06050565E-05
   6.73320007        -5.18617016E-05
   6.74520016        -5.27553093E-05
   6.75719976        -5.32811900E-05
   6.76919985        -5.34467799E-05
   6.78119993        -5.32711128E-05
   6.79320002        -5.27839184E-05
   6.80520010        -5.20242465E-05
   6.81720018        -5.10387763E-05
   6.82919979        -4.98797635E-05
   6.84119987        -4.86028075E-05
   6.85319996        -4.72644497E-05
   6.86520004        -4.59197690E-05
   6.87720013        -4.46200429E-05
   6.88920021        -4.34106114E-05
   6.90119982        -4.23290148E-05
   6.91319990        -4.14035712E-05
   6.92519999        -4.06523650E-05
   6.93720007        -4.00828030E-05
   6.94920015        -3.96917312E-05
   6.96120024        -3.94660783E-05
   6.97319984        -3.93840564E-05
   6.98519993        -3.94167982E-05
   6.99720001        -3.95303541E-05
   7.00920010        -3.96879404E-05
   7.02120018        -3.98522825E-05
   7.03319979        -3.99879573E-05
   7.04519987        -4.00635072E-05
   7.05719995        -4.00533208E-05
   7.06920004        -3.99390956E-05
   7.08120012        -3.97107942E-05
   7.09320021        -3.93671544E-05
   7.10519981        -3.89155975E-05
   7.11719990        -3.83716724E-05
   7.12919998        -3.77580182E-05
   7.14120007        -3.71029309E-05
   7.15320015        -3.64386324E-05
   7.16520023        -3.57993777E-05
   7.17719984        -3.52194547E-05
   7.18919992        -3.47312271E-05
   7.20120001        -3.43633474E-05
   7.21320009        -3.41391715E-05
   7.22520018        -3.40755178E-05
   7.23719978        -3.41817504E-05
   7.24919987        -3.44592590E-05
   7.26119995        -3.49013608E-05
   7.27320004        -3.54935328E-05
   7.28520012        -3.62140490E-05
   7.29720020        -3.70349298E-05
   7.30919981        -3.79231642E-05
   7.32119989        -3.88422050E-05
   7.33319998        -3.97536314E-05
   7.34520006        -4.06189683E-05
   7.35720015        -4.14015412E-05
   7.36920023        -4.20683609E-05
   7.38119984        -4.25918952E-05
   7.39319992        -4.29516658E-05
   7.40520000        -4.31356202E-05
   7.41720009        -4.31410954E-05
   7.42920017        -4.29754364E-05
   7.44119978        -4.26560764E-05
   7.45319986        -4.22101402E-05
   7.46519995        -4.16734802E-05
   7.47720003        -4.10892171E-05
   7.48920012        -4.05057726E-05
   7.50120020        -3.99744749E-05
   7.51319981        -3.95468778E-05
   7.52519989        -3.92718612E-05
   7.53719997        -3.91927388E-05
   7.54920006        -3.93444461E-05
   7.56120014        -3.97510958E-05
   7.57320023        -4.04239945E-05
   7.58519983        -4.13602975E-05
   7.59719992        -4.25424187E-05
   7.60920000        -4.39382602E-05
   7.62120008        -4.55023219E-05
   7.63320017        -4.71776075E-05
   7.64519978        -4.88982951E-05
   7.65719986        -5.05930038E-05
   7.66919994        -5.21884758E-05
   7.68120003        -5.36134576E-05
   7.69320011        -5.48025964E-05
   7.70520020        -5.57000385E-05
   7.71719980        -5.62626155E-05
   7.72919989        -5.64623078E-05
   7.74119997        -5.62879686E-05
   7.75320005        -5.57461099E-05
   7.76520014        -5.48607604E-05
   7.77720022        -5.36723965E-05
   7.78919983        -5.22360351E-05
   7.80119991        -5.06185861E-05
   7.81320000        -4.88956866E-05
   7.82520008        -4.71481326E-05
   7.83720016        -4.54582041E-05
   7.84919977        -4.39060277E-05
   7.86119986        -4.25662111E-05
   7.87319994        -4.15048598E-05
   7.88520002        -4.07771659E-05
   7.89720011        -4.04255625E-05
   7.90920019        -4.04785460E-05
   7.92119980        -4.09501117E-05
   7.93319988        -4.18397321E-05
   7.94519997        -4.31329136E-05
   7.95720005        -4.48020910E-05
   7.96920013        -4.68079052E-05
   7.98120022        -4.91006904E-05
   7.99319983        -5.16221335E-05
   8.00520039        -5.43070128E-05
   8.01720047        -5.70850098E-05
   8.02919960        -5.98824809E-05
   8.04119968        -6.26242690E-05
   8.05319977        -6.52355011E-05
   8.06519985        -6.76433992E-05
   8.07719994        -6.97790529E-05
   8.08920002        -7.15792776E-05
   8.10120010        -7.29884341E-05
   8.11320019        -7.39602401E-05
   8.12520027        -7.44595018E-05
   8.13720036        -7.44636927E-05
   8.14920044        -7.39642928E-05
   8.16119957        -7.29678140E-05
   8.17319965        -7.14963389E-05
   8.18519974        -6.95875715E-05
   8.19719982        -6.72942624E-05
   8.20919991        -6.46830085E-05
   8.22119999        -6.18324120E-05
   8.23320007        -5.88305957E-05
   8.24520016        -5.57722269E-05
   8.25720024        -5.27551019E-05
   8.26920033        -4.98764384E-05
   8.28120041        -4.72290812E-05
   8.29319954        -4.48977953E-05
   8.30519962        -4.29558131E-05
   8.31719971        -4.14618517E-05
   8.32919979        -4.04577331E-05
   8.34119987        -3.99667624E-05
   8.35319996        -3.99929304E-05
   8.36520004        -4.05209466E-05
   8.37720013        -4.15171744E-05
   8.38920021        -4.29313004E-05
   8.40120029        -4.46987324E-05
   8.41320038        -4.67434911E-05
   8.42520046        -4.89815247E-05
   8.43719959        -5.13241794E-05
   8.44919968        -5.36817352E-05
   8.46119976        -5.59667460E-05
   8.47319984        -5.80971282E-05
   8.48519993        -5.99987980E-05
   8.49720001        -6.16078105E-05
   8.50920010        -6.28719863E-05
   8.52120018        -6.37518897E-05
   8.53320026        -6.42213708E-05
   8.54520035        -6.42674931E-05
   8.55720043        -6.38900892E-05
   8.56919956        -6.31009243E-05
   8.58119965        -6.19225902E-05
   8.59319973        -6.03872140E-05
   8.60519981        -5.85350281E-05
   8.61719990        -5.64129077E-05
   8.62919998        -5.40729052E-05
   8.64120007        -5.15708271E-05
   8.65320015        -4.89648955E-05
   8.66520023        -4.63144497E-05
   8.67720032        -4.36787996E-05
   8.68920040        -4.11160654E-05
   8.70119953        -3.86821157E-05
   8.71319962        -3.64295629E-05
   8.72519970        -3.44067266E-05
   8.73719978        -3.26567097E-05
   8.74919987        -3.12164339E-05
   8.76119995        -3.01157925E-05
   8.77320004        -2.93768499E-05
   8.78520012        -2.90131757E-05
   8.79720020        -2.90293374E-05
   8.80920029        -2.94205820E-05
   8.82120037        -3.01727268E-05
   8.83320045        -3.12623524E-05
   8.84519958        -3.26572153E-05
   8.85719967        -3.43170286E-05
   8.86919975        -3.61944840E-05
   8.88119984        -3.82365906E-05
   8.89319992        -4.03862941E-05
   8.90520000        -4.25842627E-05
   8.91720009        -4.47708953E-05
   8.92920017        -4.68883700E-05
   8.94120026        -4.88826954E-05
   8.95320034        -5.07056793E-05
   8.96520042        -5.23166746E-05
   8.97719955        -5.36840598E-05
   8.98919964        -5.47863383E-05
   9.00119972        -5.56128070E-05
   9.01319981        -5.61637244E-05
   9.02519989        -5.64499896E-05
   9.03719997        -5.64922993E-05
   9.04920006        -5.63198082E-05
   9.06120014        -5.59683758E-05
   9.07320023        -5.54784565E-05
   9.08520031        -5.48927346E-05