  -6.00000000        -1.28082526E-25
  -5.88640022        -9.11114131E-26
  -5.77279997        -3.22239573E-26
  -5.65920019         2.54974081E-26
  -5.54559994         6.10748624E-26
  -5.43200016         6.38596092E-26
  -5.31839991         3.67542868E-26
  -5.20480013        -5.90612687E-27
  -5.09119987        -4.44555414E-26
  -4.97760010        -6.19084233E-26
  -4.86399984        -5.11402101E-26
  -4.75040007        -1.80479080E-26
  -4.63679981         2.13708536E-26
  -4.52320004         4.89811039E-26
  -4.40959978         5.32970636E-26
  -4.29600000         3.43065593E-26
  -4.18240023         2.24383184E-27
  -4.06879997        -2.87116712E-26
  -3.95519996        -2.58787022E-26
  -3.84159994        -4.42322543E-25
  -3.72799993         6.68279808E-24
  -3.61439991        -9.03402436E-23
  -3.50079989         1.02333339E-21
  -3.38720012        -9.98416693E-21
  -3.27360010         8.53985659E-20
  -3.16000009        -6.48773161E-19
  -3.04640007         4.42323955E-18
  -2.93280005        -2.72974664E-17
  -2.81920004         1.53607943E-16
  -2.70560002        -7.93141111E-16
  -2.59200001         3.77832768E-15
  -2.47839999        -1.66845382E-14
  -2.36479998         6.85780778E-14
  -2.25119996        -2.63325928E-13
  -2.13759995         9.47662196E-13
  -2.02399993        -3.20591080E-12
  -1.91040003         1.02229119E-11
  -1.79680002        -3.08059273E-11
  -1.68320000         8.79395445E-11
  -1.56959999        -2.38361858E-10
  -1.45599997         6.14858886E-10
  -1.34239995        -1.51273927E-09
  -1.22880006         3.55755403E-09
  -1.11520004        -8.01443534E-09
  -1.00160003         1.73319545E-08
 -0.888000011        -3.60555958E-08
 -0.774399996         7.22963023E-08
 -0.660799980        -1.39992920E-07
 -0.547200024         2.62253650E-07
 -0.433600008        -4.76083869E-07
 -0.319999993         8.38781034E-07
 -0.206400007        -1.43616580E-06
  -9.27999988E-02     2.39259180E-06
   2.08000001E-02    -3.88227318E-06
  0.134399995         6.14088412E-06
  0.247999996        -9.47557146E-06
  0.361600012         1.42705039E-05
  0.475199997        -2.09839382E-05
  0.588800013         3.01316886E-05
  0.702400029        -4.22510493E-05
  0.815999985         5.78389227E-05
  0.929600000        -7.72586718E-05
   1.04320002         1.00612553E-04
   1.15680003        -1.27580046E-04
   1.27040005         1.57228933E-04
   1.38399994        -1.87812446E-04
   1.49759996         2.16576707E-04
   1.61119998        -2.39609828E-04
   1.72479999         2.51774210E-04
   1.83840001        -2.46765354E-04
   1.95200002         2.17344816E-04
   2.06559992        -1.55784583E-04
   2.17919993         5.45435323E-05
   2.29279995         9.28257286E-05
   2.40639997        -2.90570519E-04
   2.51999998         5.39504341E-04
   2.63360000        -8.35756829E-04
   2.74720001         1.16964267E-03
   2.86080003        -1.52482302E-03
   2.97440004         1.87792489E-03
   3.08800006        -2.19875714E-03
   3.20160007         2.45125964E-03
   3.31520009        -2.59522116E-03
   3.42880011         2.58871191E-03
   3.54239988        -2.39113532E-03
   3.65599990         1.96662825E-03
   3.76959991        -1.28739723E-03
   3.88319993         3.36726604E-04
   3.99679995         8.88927083E-04
   4.11040020        -2.37930613E-03
   4.22399998         4.11109533E-03
   4.33760023        -6.05072035E-03
   4.45120001         8.15919507E-03
   4.56479979        -1.03975171E-02
   4.67840004         1.27332220E-02
   4.79199982        -1.51467053E-02
   4.90560007         1.76329017E-02
   5.01919985        -2.02012118E-02
   5.13280010         2.28689928E-02
   5.24639988        -2.56416481E-02
   5.36000013         2.84921732E-02
   5.47359991        -3.13270576E-02
   5.58720016         3.39351930E-02
   5.70079994        -3.59572321E-02
   5.81440020         3.68326977E-02
   5.92799997        -3.57513539E-02
   6.04160023         3.16780359E-02
   6.15520000        -2.33252272E-02
   6.26879978         9.21011064E-03
   6.38240004         1.21622076E-02
   6.49599981        -4.22738492E-02
   6.60960007         8.22813287E-02
   6.72319984       -0.132682651    
   6.83680010        0.193327427    
   6.95039988       -0.262714595    
   7.06400013        0.337920696    
   7.17759991       -0.414783567    
   7.29120016        0.486833185    
   7.40479994       -0.546538591    
   7.51840019        0.585262775    
   7.63199997       -0.592435360    
   7.74560022        0.559347570    
   7.85920000       -0.476868182    
   7.97279978        0.337421954    
   8.08640003       -0.140042394    
   8.19999981       -0.117013618    
   8.31359959        0.425818056    
   8.42720032       -0.771826148    
   8.54080009         1.14209175    
   8.65439987        -1.50368834    
   8.76799965         1.83370721    
   8.88160038        -2.09902406    
   8.99520016         2.25803971    
   9.10879993        -2.29674602    
   9.22239971         2.16858721    
   9.33600044        -1.87884188    
   9.44960022         1.40046823    
   9.56320000       -0.782507181    
   9.67679977        -4.22952473E-02
   9.79039955        0.800160885    
   9.90400028        -1.95919263    
   10.0176001         2.34620118    
   10.1311998        -4.07007074    
   10.2447996         2.92122650    
   10.3584003        -6.35009527    
   10.4720001         1.08430314    
   10.5855999        -9.50541496    
   10.6991997        -4.90993738    
   10.8128004        -14.3507338    
   10.9264002        -13.6664429    
   11.0400000        -13.1265440    
   11.1535997        0.214928359    
   11.2672005         55.0288849    
   11.3808002         174.640335    
   11.4944000         470.166595    
   11.6079998         1053.63330    
   11.7215996         2226.49170    
   11.8352003         4376.62158    
   11.9488001         8227.54590    
   12.0623999         14782.5352    
   12.1759996         25562.9355    
   12.2896004         42618.3594    
   12.4032001         68622.1406    
   12.5167999         106855.820    
   12.6303997         160962.312    
   12.7440004         234678.297    
   12.8576002         331057.000    
   12.9712000         451740.344    
   13.0847998         595679.938    
   13.1983995         758073.312    
   13.3120003         929131.625    
   13.4256001         1093402.25    
   13.5391998         1229702.88    
   13.6527996         1311986.38    
   13.7664003         1311542.88    
   13.8800001         1200158.75    
   13.9935999         954574.688    
   14.1071997         561099.000    
   14.2208004         20337.3047    
   14.3344002        -649472.625    
   14.4480000        -1410844.75    
   14.5615997        -2208240.25    
   14.6752005        -2972168.75    
   14.7888002        -3625975.25    
   14.9024000        -4094900.00    
   15.0159998        -4315680.00    
   15.1295996        -4245873.50    
   15.2432003        -3870633.75    
   15.3568001        -3206484.25    
   15.4703999        -2300511.75    
   15.5839996        -1225678.38    
   15.6976004        -72373.8125    
   15.8112001         1062317.12    
   15.9247999         2085891.75    
   16.0384007         2920908.50    
   16.1520004         3512656.25    
   16.2656002         3833808.00    
   16.3792000         3884733.00    
   16.4927998         3690823.25    
   16.6063995         3296684.00    
   16.7199993         2759021.00    
   16.8335991         2138984.25    
   16.9472008         1495158.25    
   17.0608006         878240.438    
   17.1744003         327281.750    
   17.2880001        -131680.406    
   17.4015999        -485743.531    
   17.5151997        -733378.688    
   17.6287994        -882159.938    
   17.7423992        -945919.000    
   17.8560009        -941941.438    
   17.9696007        -888533.500    
   18.0832005        -802892.625    
   18.1968002        -700014.062    
   18.3104000        -591697.562    
   18.4239998        -486556.844    
   18.5375996        -390131.562    
   18.6511993        -305479.469    
   18.7647991        -233825.516    
   18.8784008        -175036.734    
   18.9920006        -128285.586    
   19.1056004        -92207.7969    
   19.2192001        -65309.9258    
   19.3327999        -45876.0586    
   19.4463997        -32186.9570    
   19.5599995        -22620.4668    
   19.6735992        -15696.6289    
   19.7872009        -10320.1787    
   19.9008007        -5728.50439    
   20.0144005        -1692.75623    
   20.1280003         1728.51562    
   20.2416000         4242.70117    
   20.3551998         5551.45752    
   20.4687996         5525.85010    
   20.5823994         4249.21436    
   20.6959991         2153.52734    
   20.8096008        -237.685196    
   20.9232006        -2371.85815    
   21.0368004        -3815.52808    
   21.1504002        -4395.96289    
   21.2639999        -4191.30762    
   21.3775997        -3518.26904    
   21.4911995        -2684.82031    
   21.6047993        -1985.18298    
   21.7183990        -1494.71240    
   21.8320007        -1107.62878    
   21.9456005        -657.289368    
   22.0592003         117.785606    
   22.1728001         1285.39392    
   22.2863998         2740.14111    
   22.3999996         4155.57764    
   22.5135994         5164.17432    
   22.6271992         5386.01270    
   22.7408009         4580.16162    
   22.8544006         2826.66650    
   22.9680004         410.794464    
   23.0816002        -2116.54077    
   23.1952000        -4214.30029    
   23.3087997        -5436.01514    
   23.4223995        -5546.29492    
   23.5359993        -4616.45459    
   23.6495991        -2963.25098    
   23.7632008        -1078.09607    
   23.8768005         606.962097    
   23.9904003         1736.24243    
   24.1040001         2216.54980    
   24.2175999         2139.28125    
   24.3311996         1737.23303    
   24.4447994         1318.73401    
   24.5583992         1090.35229    
   24.6720009         1125.96558    
   24.7856007         1347.17029    
   24.8992004         1568.75037    
   25.0128002         1534.74731    
   25.1264000         1107.93286    
   25.2399998         270.039703    
   25.3535995        -857.713745    
   25.4671993        -2019.57654    
   25.5807991        -2905.52539    
   25.6944008        -3273.94653    
   25.8080006        -3000.96631    
   25.9216003        -2113.93359    
   26.0352001        -811.179504    
   26.1487999         622.484497    
   26.2623997         1851.35815    
   26.3759995         2615.39355    
   26.4895992         2787.52246    
   26.6032009         2372.82129    
   26.7168007         1515.62073    
   26.8304005         455.632690    
   26.9440002        -532.336670    
   27.0576000        -1245.30420    
   27.1711998        -1553.35229    
   27.2847996        -1451.65710    
   27.3983994        -1035.54175    
   27.5119991        -452.272705    
   27.6256008         104.477829    
   27.7392006         480.367706    
   27.8528004         587.458374    
   27.9664001         429.598969    
   28.0799999         94.2128983    
   28.1935997        -259.759705    
   28.3071995        -472.359100    
   28.4207993        -438.245789    
   28.5344009        -120.287743    
   28.6480007         422.266266    
   28.7616005         1009.26221    
   28.8752003         1440.85986    
   28.9888000         1529.52612    
   29.1023998         1179.63965    
   29.2159996         406.255280    
   29.3295994        -646.173279    
   29.4431992        -1716.95569    
   29.5568008        -2528.39380    
   29.6704006        -2812.51440    
   29.7840004        -2462.39722    
   29.8976002        -1499.15210    
   30.0112000        -143.826477    
   30.1247997         1277.36523    
   30.2383995         2415.71997    
   30.3519993         2960.87427    
   30.4655991         2739.06226    
   30.5792007         1756.42944    
   30.6928005         219.426498    
   30.8064003        -1618.14270    
   30.9200001        -3497.09204    
   31.0335999        -5225.06738    
   31.1471996        -6745.34326    
   31.2607994        -8147.69287    
   31.3743992        -9628.59473    
   31.4880009        -11376.7744    
   31.6016006        -13423.5752    
   31.7152004        -15597.9980    
   31.8288002        -17510.8262    
   31.9424000        -18576.3613    
   32.0559998        -18058.4863    
   32.1696014        -15303.1709    
   32.2831993        -9899.24609    
   32.3968010        -1742.63000    
   32.5103989         8873.40234    
   32.6240005         21243.5352    
   32.7375984         34351.2617    
   32.8512001         47041.8320    
   32.9648018         58102.6797    
   33.0783997         66409.8594    
   33.1920013         71074.6016    
   33.3055992         71452.2188    
   33.4192009         67185.0156    
   33.5327988         58246.5234    
   33.6464005         44937.3828    
   33.7599983         27916.8223    
   33.8736000         8227.50488    
   33.9872017        -12773.5625    
   34.1007996        -33487.1016    
   34.2144012        -52125.2461    
   34.3279991        -67017.0469    
   34.4416008        -76879.7344    
   34.5551987        -80917.2188    
   34.6688004        -79002.8750    
   34.7823982        -71781.2812    
   34.8959999        -60526.4688    
   35.0096016        -46904.6758    
   35.1231995        -32709.5176    
   35.2368011        -19523.0605    
   35.3503990        -8471.18945    
   35.4640007        -119.348473    
   35.5775986         5619.06836    
   35.6912003         9318.91992    
   35.8047981         11790.1777    
   35.9183998         13828.5176    
   36.0320015         16020.5400    
   36.1455994         18579.7520    
   36.2592010         21359.5449    
   36.3727989         23934.3242    
   36.4864006         25734.4043    
   36.5999985         26280.3848    
   36.7136002         25331.8340    
   36.8272018         22951.1074    
   36.9407997         19433.1895    
   37.0544014         15276.6182    
   37.1679993         11028.1729    
   37.2816010         7136.20996    
   37.3951988         3821.93188    
   37.5088005         1080.37512    
   37.6223984        -1271.57336    
   37.7360001        -3518.58667    
   37.8496017        -5913.07812    
   37.9631996        -8594.91113    
   38.0768013        -11472.8408    
   38.1903992        -14251.9453    
   38.3040009        -16522.0391    
   38.4175987        -17853.8047    
   38.5312004        -17870.1836    
   38.6447983        -16402.7500    
   38.7584000        -13558.9385    
   38.8720016        -9700.35352    
   38.9855995        -5386.25244    
   39.0992012        -1221.71472    
   39.2127991         2229.92090    
   39.3264008         4564.66113    
   39.4399986         5642.71582    
   39.5536003         5685.54102    
   39.6671982         5089.57080    
   39.7807999         4362.40332    
   39.8944016         3987.85132    
   40.0079994         4282.06445    
   40.1216011         5319.88574    
   40.2351990         6847.30615    
   40.3488007         8389.31543    
   40.4623985         9370.55762    
   40.5760002         9363.64844    
   40.6896019         8082.03223    
   40.8031998         5580.53223    
   40.9168015         2259.45020    
   41.0303993        -1255.19019    
   41.1440010        -4256.26123    
   41.2575989        -6180.61230    
   41.3712006        -6688.95850    
   41.4847984        -5814.06445    
   41.5984001        -3903.86035    
   41.7120018        -1575.86560    
   41.8255997         539.573853    
   41.9392014         1937.06689    
   42.0527992         2354.95288    
   42.1664009         1875.21436    
   42.2799988         831.297607    
   42.3936005        -245.342239    
   42.5071983        -853.833557    
   42.6208000        -678.068237    
   42.7344017         321.463470    
   42.8479996         1932.90247    
   42.9616013         3680.21436    
   43.0751991         5006.14844    
   43.1888008         5474.79639    
   43.3023987         4816.89600    
   43.4160004         3083.32227    
   43.5295982         623.136108    
   43.6431999        -2056.04297    
   43.7568016        -4397.99072    
   43.8703995        -5887.73145    
   43.9840012        -6281.39893    
   44.0975990        -5609.17725    
   44.2112007        -4097.65625    
   44.3247986        -2175.96240    
   44.4384003        -323.130524    
   44.5519981         1093.80725    
   44.6655998         1859.85950    
   44.7792015         1976.80688    
   44.8927994         1662.61096    
   45.0064011         1231.36279    
   45.1199989         996.164612    
   45.2336006         1244.12341    
   45.3471985         2122.02075    
   45.4608002         3589.08740    
   45.5744019         5460.81445    
   45.6879997         7469.56592    
   45.8016014         9372.36621    
   45.9151993         10910.1367    
   46.0288010         11901.0361    
   46.1423988         12258.3564    
   46.2560005         11974.3184    
   46.3695984         11027.7627    
   46.4832001         9378.46191    
   46.5968018         6945.82861    
   46.7103996         3607.42773    
   46.8240013        -681.165161    
   46.9375992        -5947.19385    
   47.0512009        -12085.2715    
   47.1647987        -18789.0410    
   47.2784004        -25526.5156    
   47.3919983        -31674.0684    
   47.5056000        -36553.4414    
   47.6192017        -39478.6680    
   47.7327995        -39918.6445    
   47.8464012        -37580.7812    
   47.9599991        -32511.4492    
   48.0736008        -24997.7461    
   48.1871986        -15598.2422    
   48.3008003        -5030.65771    
   48.4143982         5885.31104    
   48.5279999         16336.1514    
   48.6416016         25645.6094    
   48.7551994         33300.7461    
   48.8688011         38946.7148    
   48.9823990         42367.5547    
   49.0960007         43616.3867    
   49.2095985         42831.4414    
   49.3232002         40210.1484    
   49.4367981         36016.6484    
   49.5503998         30553.4434    
   49.6640015         24106.2031    
   49.7775993         16943.1230    
   49.8912010         9343.19238    
   50.0047989         1575.88745    
   50.1184006        -6010.37939    
   50.2319984        -13057.4600    
   50.3456001        -19180.1816    
   50.4592018        -23985.5273    
   50.5727997        -27134.9043    
   50.6864014        -28411.7559    
   50.7999992        -27780.3340    
   50.9136009        -25420.5527    
   51.0271988        -21699.4551    
   51.1408005        -17118.6777    
   51.2543983        -12280.7959    
   51.3680000        -7753.27148    
   51.4816017        -3959.63770    
   51.5951996        -1129.13611    
   51.7088013         730.666504    
   51.8223991         1816.60938    
   51.9360008         2429.80176    
   52.0495987         2922.06860    
   52.1632004         3572.63379    
   52.2767982         4483.69922    
   52.3903999         5598.76660    
   52.5040016         6691.67285    
   52.6175995         7437.83008    
   52.7312012         7486.03320    
   52.8447990         6583.81348    
   52.9584007         4620.12061    
   53.0719986         1703.51001    
   53.1856003        -1866.85632    
   53.2991982        -5684.77002    
   53.4127998        -9245.67676    
   53.5264015        -12123.5703    
   53.6399994        -13976.8818    
   53.7536011        -14639.8008    
   53.8671989        -14107.2500    
   53.9808006        -12516.6934    
   54.0943985        -10063.8447    
   54.2080002        -6953.79004    
   54.3216019        -3424.89771    
   54.4351997         391.312592    
   54.5488014         4336.03809    
   54.6623993         8269.68066    
   54.7760010         11982.4150    
   54.8895988         15214.7871    
   55.0032005         17673.0391    
   55.1167984         19058.7891    
   55.2304001         19181.1641    
   55.3440018         17969.9824    
   55.4575996         15637.4873    
   55.5712013         12576.0498    
   55.6847992         9393.29883    
   55.7984009         6759.88135    
   55.9119987         5284.37939    
   56.0256004         5378.94092    
   56.1391983         7106.33105    
   56.2528000         10166.3682    
   56.3664017         13894.7344    
   56.4799995         17390.4531    
   56.5936012         19625.5371    
   56.7071991         19696.6504    
   56.8208008         16982.7188    
   56.9343987         11257.6777    
   57.0480003         2771.52979    
   57.1615982        -7795.61035    
   57.2751999        -19432.1855    
   57.3888016        -30925.0020    
   57.5023994        -41080.0625    
   57.6160011        -48889.0586    
   57.7295990        -53606.5234    
   57.8432007        -54829.7500    
   57.9567986        -52532.5664    
   58.0704002        -46989.5156    
   58.1839981        -38664.8398    
   58.2975998        -28179.9785    
   58.4112015        -16206.9141    
   58.5247993        -3457.07446    
   58.6384010         9358.99414    
   58.7519989         21532.3789    
   58.8656006         32314.4395    
   58.9791985         40959.7461    
   59.0928001         46786.0352    
   59.2064018         49272.2812    
   59.3199997         48086.6406    
   59.4336014         43256.4727    
   59.5471992         35193.5156    
   59.6608009         24710.7773    
   59.7743988         12936.9082    
   59.8880005         1165.78101    
   60.0015984        -9316.49414    
   60.1152000        -17426.2559    
   60.2288017        -22450.3242    
   60.3423996        -24197.4434    
   60.4560013        -22933.2871    
   60.5695992        -19344.2559    
   60.6832008        -14352.0186    
   60.7967987        -8942.01465    
   60.9104004        -3957.20239    
   61.0239983         31.4111271    
   61.1375999         2798.02930    
   61.2512016         4421.75977    
   61.3647995         5149.64844    
   61.4784012         5317.60742    
   61.5919991         5185.80762    
   61.7056007         4849.50977    
   61.8191986         4211.30322    
   61.9328003         3054.17285    
   62.0463982         1165.05762    
   62.1599998        -1563.43408    
   62.2736015        -5020.87012    
   62.3871994        -8838.71094    
   62.5008011        -12396.9033    
   62.6143990        -14939.8672    
   62.7280006        -15770.8662    
   62.8415985        -14365.4443    
   62.9552002        -10543.4531    
   63.0688019        -4501.84473    
   63.1823997         3149.57373    
   63.2960014         11528.9971    
   63.4095993         19627.1230    
   63.5232010         26449.7930    
   63.6367989         31215.3320    
   63.7504005         33418.6172    
   63.8639984         32936.1328    
   63.9776001         29947.3574    
   64.0912018         24927.8887    
   64.2048035         18519.0918    
   64.3183975         11427.4053    
   64.4319992         4336.97705    
   64.5456009        -2208.06641    
   64.6592026        -7796.54053    
   64.7727966        -12235.4131    
   64.8863983        -15499.8828    
   65.0000000        -17735.8965    
   65.1136017        -19189.7891    
   65.2272034        -20129.3691    
   65.3407974        -20818.0449    
   65.4543991        -21424.6055    
   65.5680008        -22020.8984    
   65.6816025        -22501.7266    
   65.7951965        -22704.1621    
   65.9087982        -22402.1758    
   66.0223999        -21353.0898    
   66.1360016        -19394.0547    
   66.2496033        -16454.4785    
   66.3631973        -12579.9277    
   66.4767990        -7899.55420    
   66.5904007        -2645.35986    
   66.7040024         2967.21167    
   66.8175964         8688.54004    
   66.9311981         14265.0947    
   67.0447998         19453.4238    
   67.1584015         23966.0039    
   67.2720032         27481.4082    
   67.3855972         29663.4023    
   67.4991989         30196.6250    
   67.6128006         28829.6758    
   67.7264023         25497.8164    
   67.8399963         20348.8848    
   67.9535980         13777.5742    
   68.0671997         6424.80664    
   68.1808014        -945.197693    
   68.2944031        -7542.92773    
   68.4079971        -12688.9473    
   68.5215988        -15948.0869    
   68.6352005        -17199.8613    
   68.7488022        -16628.7168    
   68.8623962        -14701.0195    
   68.9759979        -12021.2666    
   69.0895996        -9197.50684    
   69.2032013        -6767.54248    
   69.3168030        -5078.70459    
   69.4303970        -4266.83984    
   69.5439987        -4308.74854    
   69.6576004        -5095.51807    
   69.7712021        -6455.22412    
   69.8848038        -8277.71680    
   69.9983978        -10483.3691    
   70.1119995        -13006.8535    
   70.2256012        -15750.9473    
   70.3392029        -18481.7441    
   70.4527969        -20803.8184    
   70.5663986        -22139.0508    
   70.6800003        -21813.5078    
   70.7936020        -19129.3086    
   70.9072037        -13597.0078    
   71.0207977        -5041.35547    
   71.1343994         6261.97949    
   71.2480011         19508.8867    
   71.3616028         33475.0703    
   71.4751968         46634.3516    
   71.5887985         57420.5664    
   71.7024002         64445.5898    
   71.8160019         66765.3203    
   71.9296036         64018.0508    
   72.0431976         56494.6992    
   72.1567993         45066.8320    
   72.2704010         30985.3711    
   72.3840027         15720.1475    
   72.4975967         681.006104    
   72.6111984        -12972.4775    
   72.7248001        -24440.9590    
   72.8384018        -33311.4023    
   72.9520035        -39509.5664    
   73.0655975        -43207.9336    
   73.1791992        -44678.5000    
   73.2928009        -44210.9922    
   73.4064026        -42043.2969    
   73.5199966        -38367.1523    
   73.6335983        -33366.0039    
   73.7472000        -27245.8164    
   73.8608017        -20303.6211    
   73.9744034        -12943.3955    
   74.0879974        -5660.08398    
   74.2015991         1031.93591    
   74.3152008         6676.65967    
   74.4288025         10947.0527    
   74.5423965         13684.3213    
   74.6559982         14926.3125    
   74.7695999         14872.6289    
   74.8832016         13831.3730    
   74.9968033         12125.9170    
   75.1103973         10037.7188    
   75.2239990         7757.82471    
   75.3376007         5384.33545    
   75.4512024         2964.26709    
   75.5647964         494.439331    
   75.6783981        -1986.48120    
   75.7919998        -4376.48633    
   75.9056015        -6481.91162    
   76.0192032        -8073.17578    
   76.1327972        -8924.08496    
   76.2463989        -8859.45020    
   76.3600006        -7838.25488    
   76.4736023        -5968.31543    
   76.5871964        -3532.46582    
   76.7007980        -919.541870    
   76.8143997         1446.78882    
   76.9280014         3175.90747    
   77.0416031         4022.27515    
   77.1551971         3930.55322    
   77.2687988         3078.40674    
   77.3824005         1821.46240    
   77.4960022         637.751648    
   77.6095963         41.1424026    
   77.7231979         449.122040    
   77.8367996         2115.42065    
   77.9504013         5018.63379    
   78.0640030         8897.83301    
   78.1775970         13264.0625    
   78.2911987         17475.6914    
   78.4048004         20854.4453    
   78.5184021         22778.9219    
   78.6320038         22823.4863    
   78.7455978         20787.1621    
   78.8591995         16733.0801    
   78.9728012         10956.4482    
   79.0864029         3956.37646    
   79.1999969        -3638.76855    
   79.3135986        -11197.1709    
   79.4272003        -18102.6582    
   79.5408020        -23848.7012    
   79.6544037        -28070.5547    
   79.7679977        -30547.7031    
   79.8815994        -31242.4941    
   79.9952011        -30244.6152    
   80.1088028        -27760.2109    
   80.2223969        -24048.5020    
   80.3359985        -19432.8926    
   80.4496002        -14210.8096    
   80.5632019        -8624.24805    
   80.6768036        -2904.49902    
   80.7903976         2800.54443    
   80.9039993         8331.54688    
   81.0176010         13548.3730    
   81.1312027         18271.5723    
   81.2447968         22285.8262    
   81.3583984         25352.0664    
   81.4720001         27224.8984    
   81.5856018         27731.4473    
   81.6992035         26765.0332    
   81.8127975         24404.7148    
   81.9263992         20839.4297    
   82.0400009         16377.1348    
   82.1536026         11434.9854    
   82.2671967         6402.77539    
   82.3807983         1635.58447    
   82.4944000        -2616.55664    
   82.6080017        -6199.95117    
   82.7216034        -9092.08496    
   82.8351974        -11317.1436    
   82.9487991        -12913.7334    
   83.0624008        -13952.5869    
   83.1760025        -14413.9717    
   83.2895966        -14290.0342    
   83.4031982        -13547.8955    
   83.5167999        -12186.4541    
   83.6304016        -10270.2061    
   83.7440033        -7931.45703    
   83.8575974        -5398.76855    
   83.9711990        -2904.68237    
   84.0848007        -735.085449    
   84.1984024         924.597717    
   84.3119965         1955.10547    
   84.4255981         2371.52881    
   84.5391998         2309.49780    
   84.6528015         1952.84741    
   84.7664032         1559.46753    
   84.8799973         1317.84351    
   84.9935989         1352.65259    
   85.1072006         1650.59070    
   85.2208023         2123.29321    
   85.3343964         2579.97876    
   85.4479980         2821.29492    
   85.5615997         2715.72729    
   85.6752014         2201.15283    
   85.7888031         1355.85352    
   85.9023972         360.360291    