# Aki and Richards - double-couple solution eq.(4.32) and (4.33)
#
# homogeneous elastic medium: rho/vp/vs   = 2300.0 / 2800.0 / 1500.0
# receiver station          : x/y/z       = 3000.0 / 1000.0 / 4000.0
#                           : r/theta/phi = 5099.019513592785 / 0.6689640742684072 / 0.3217505543966422
#
# solution component        : cartesian Z / spherical PHI
#
# format:
#time 	#u_cartesian 	#u_spherical
-4.0 	2.4752223232774946e-13 	1.0626760409322524e-14 	1.913813567678966e-15 8.712946841643558e-15 0.0
-3.999 	2.4946723930677003e-13 	1.0711126416489796e-14 	1.9292740698426845e-15 8.781852346647112e-15 0.0
-3.998 	2.513543065928322e-13 	1.0796175772678263e-14 	1.944856953551311e-15 8.851318819126951e-15 0.0
-3.997 	2.53307091071546e-13 	1.0881815970233297e-14 	1.9605632057296047e-15 8.921252764503694e-15 0.0
-3.996 	2.55388617613597e-13 	1.0968188238456194e-14 	1.9763938138097823e-15 8.991794424646411e-15 0.0
-3.995 	2.573500941644649e-13 	1.1055246740989902e-14 	1.99234968872449e-15 9.062897052265412e-15 0.0
-3.994 	2.593154761157145e-13 	1.1142945718949561e-14 	2.008431818878554e-15 9.134513900071006e-15 0.0
-3.993 	2.613471913479938e-13 	1.1231332908537182e-14 	2.024641193184297e-15 9.206691715352885e-15 0.0
-3.992 	2.6338312022429694e-13 	1.1320409299172512e-14 	2.040978801061465e-15 9.279430498111047e-15 0.0
-3.991 	2.654232676208625e-13 	1.1410175880782789e-14 	2.057445632437295e-15 9.352730248345494e-15 0.0
-3.99 	2.674676384164287e-13 	1.1500633643802696e-14 	2.0740426777464705e-15 9.426590966056225e-15 0.0
-3.989 	2.6951623749223346e-13 	1.1591783579174366e-14 	2.0907709279311256e-15 9.50101265124324e-15 0.0
-3.988 	2.716933187535037e-13 	1.1683626678347403e-14 	2.1076313744408653e-15 9.575995303906537e-15 0.0
-3.987 	2.738131109308964e-13 	1.177625750486528e-14 	2.1246250862397794e-15 9.651632418625501e-15 0.0
-3.986 	2.7587472379668967e-13 	1.186953688637276e-14 	2.141753132841702e-15 9.727783753531058e-15 0.0
-3.985 	2.7806513277209923e-13 	1.1963559310505788e-14 	2.159016507303197e-15 9.80454280320259e-15 0.0
-3.984 	2.8026009410911403e-13 	1.2058325847835403e-14 	2.1764162801953076e-15 9.881909567640096e-15 0.0
-3.983 	2.823974881938502e-13 	1.2153837492475369e-14 	2.193953445631792e-15 9.959884046843576e-15 0.0
-3.982 	2.8453914669639975e-13 	1.2250048645771277e-14 	2.2116291522479378e-15 1.003841949352334e-14 0.0
-3.981 	2.868096220391931e-13 	1.2347007050226072e-14 	2.2294443952569937e-15 1.0117562654969078e-14 0.0
-3.98 	2.890228448520878e-13 	1.2444760602864242e-14 	2.24740032439376e-15 1.0197360278470481e-14 0.0
-3.979 	2.9124034755619285e-13 	1.2543216805419144e-14 	2.2654979359709744e-15 1.027771886944817e-14 0.0
-3.978 	2.935248573284249e-13 	1.2642470303304433e-14 	2.2837383808229115e-15 1.0358731922481522e-14 0.0
-3.977 	2.9581395683113466e-13 	1.2742475500656737e-14 	2.3021228103758886e-15 1.0440352690280848e-14 0.0
-3.976 	2.981700739897559e-13 	1.2843280142770019e-14 	2.3206522226341793e-15 1.052262792013584e-14 0.0
-3.975 	3.0040684132855586e-13 	1.294488545917712e-14 	2.3393278471306254e-15 1.0605557612046494e-14 0.0
-3.974 	3.0271004068341514e-13 	1.3047199031451775e-14 	2.3581507600183408e-15 1.0689048271433435e-14 0.0
-3.973 	3.05142697744079e-13 	1.3150362255172905e-14 	2.377122115007177e-15 1.0773240140165729e-14 0.0
-3.972 	3.0745602127550354e-13 	1.3254329460345722e-14 	2.396242989392033e-15 1.0858086470953688e-14 0.0
-3.971 	3.098360923792167e-13 	1.3359055131539226e-14 	2.415514615031603e-15 1.0943540516507623e-14 0.0
-3.97 	3.1228351374430397e-13 	1.3464633918818768e-14 	2.434938147411856e-15 1.1029695771406912e-14 0.0
-3.969 	3.1467374354528507e-13 	1.3571020230972696e-14 	2.454514742610829e-15 1.1116505488361866e-14 0.0
-3.968 	3.1706891199049447e-13 	1.3678215224671064e-14 	2.4742455572985805e-15 1.1203969667372483e-14 0.0
-3.967 	3.1959327418125283e-13 	1.378622013418298e-14 	2.494131825744213e-15 1.1292088308438767e-14 0.0
-3.966 	3.2212318379702983e-13 	1.3895129611984267e-14 	2.5141747058441714e-15 1.1380954906140095e-14 0.0
-3.9650000000000003 	3.2453380090488e-13 	1.4004851398991015e-14 	2.5343754330939255e-15 1.1470475965897089e-14 0.0
-3.964 	3.27073629636779e-13 	1.4115386731333026e-14 	2.5547352436232794e-15 1.1560651487709747e-14 0.0
-3.963 	3.295568991706171e-13 	1.4226830263346795e-14 	2.575255297189345e-15 1.1651574966157449e-14 0.0
-3.962 	3.3210696950625457e-13 	1.4339043067526444e-14 	2.5959369081553157e-15 1.1743106159371128e-14 0.0
-3.9610000000000003 	3.3472504035739313e-13 	1.445221329405649e-14 	2.6167812375469468e-15 1.183543205650954e-14 0.0
-3.96 	3.3734809857723363e-13 	1.4566202093706724e-14 	2.6377896780031058e-15 1.1928412415703619e-14 0.0
-3.959 	3.3997704538727123e-13 	1.468115087068292e-14 	2.6589633918604873e-15 1.2022187478822432e-14 0.0
-3.958 	3.425488668885132e-13 	1.4796920623051765e-14 	2.6803036190548535e-15 1.211661700399691e-14 0.0
-3.9570000000000003 	3.4518841558997176e-13 	1.491360616296973e-14 	2.7018116771632953e-15 1.2211794485806434e-14 0.0
-3.956 	3.4783327459644023e-13 	1.503116198439384e-14 	2.723488807432526e-15 1.2307673176961313e-14 0.0
-3.955 	3.5060799830404944e-13 	1.5149636230508835e-14 	2.7453364057575995e-15 1.2404299824751237e-14 0.0
-3.954 	3.5326439366867797e-13 	1.5269076968211363e-14 	2.7673557917454656e-15 1.2501721176465897e-14 0.0
-3.9530000000000003 	3.559879448507684e-13 	1.5389345198908894e-14 	2.7895482086726718e-15 1.2599796990236223e-14 0.0
-3.952 	3.587798523516278e-13 	1.5510629232678047e-14 	2.8119149774570748e-15 1.2698714255220973e-14 0.0
-3.951 	3.615149785430836e-13 	1.5632790226251307e-14 	2.8344574967002303e-15 1.2798332729551078e-14 0.0
-3.95 	3.643803004682229e-13 	1.5755922996521416e-14 	2.857177088715495e-15 1.289874590780592e-14 0.0
-3.9490000000000003 	3.6712732698025034e-13 	1.5880028943485448e-14 	2.880075153499953e-15 1.2999953789985496e-14 0.0
-3.948 	3.6994184113447034e-13 	1.600501589627291e-14 	2.9031530147624816e-15 1.3101862881510429e-14 0.0
-3.947 	3.7282474532993293e-13 	1.6131025498145427e-14 	2.92641207389564e-15 1.3204613424249787e-14 0.0
-3.946 	3.7571332496516357e-13 	1.6257965656635075e-14 	2.949853733010884e-15 1.330811192362419e-14 0.0
-3.9450000000000003 	3.7867030845837505e-13 	1.638593126915161e-14 	2.9734793949385892e-15 1.341245187421302e-14 0.0
-3.944 	3.8150903069234986e-13 	1.651487699195455e-14 	2.997290463227965e-15 1.3517586528726585e-14 0.0
-3.943 	3.844776981286251e-13 	1.6644757482022413e-14 	3.021288342147217e-15 1.3623469139875196e-14 0.0
-3.942 	3.875150890525372e-13 	1.677571446321832e-14 	3.045474513690396e-15 1.3730239949527923e-14 0.0
-3.9410000000000003 	3.9043423985903657e-13 	1.690765584671116e-14 	3.0698503836057746e-15 1.3837805463105386e-14 0.0
-3.94 	3.9348365589848166e-13 	1.7040583115975097e-14 	3.094417435367514e-15 1.3946165680607585e-14 0.0
-3.939 	3.965396924578404e-13 	1.7174591249824875e-14 	3.1191771532109763e-15 1.4055414096613899e-14 0.0
-3.938 	3.995396349645928e-13 	1.730958816167066e-14 	3.14413094512571e-15 1.416545721654495e-14 0.0
-3.9370000000000003 	4.0260803825731234e-13 	1.7445622084517573e-14 	3.1692802968271443e-15 1.4276341787690428e-14 0.0
-3.936 	4.056827855267491e-13 	1.7582694581849314e-14 	3.194626771798984e-15 1.438806781005033e-14 0.0
-3.935 	4.088881331205195e-13 	1.7720807140945995e-14 	3.2201718573213353e-15 1.450063528362466e-14 0.0
-3.934 	4.1203831183359425e-13 	1.7860054744428295e-14 	3.2459170414355015e-15 1.4614137702992793e-14 0.0
-3.9330000000000003 	4.1519455877300293e-13 	1.8000298793243727e-14 	3.271863966958063e-15 1.4728434826285664e-14 0.0
-3.932 	4.183577767725301e-13 	1.81416810189096e-14 	3.29801412353726e-15 1.4843666895372342e-14 0.0
-3.931 	4.2158920218846975e-13 	1.8284062669966336e-14 	3.3243690015825786e-15 1.4959693668383757e-14 0.0
-3.93 	4.2489003711942103e-13 	1.8427632380757395e-14 	3.350930246278729e-15 1.5076702134478666e-14 0.0
-3.9290000000000003 	4.2813514439735905e-13 	1.8572251401430087e-14 	3.377699349642084e-15 1.5194552051788003e-14 0.0
-3.928 	4.314493785322852e-13 	1.8718014950362526e-14 	3.404678035471381e-15 1.5313336914891146e-14 0.0
-3.927 	4.3470819936162704e-13 	1.886487777393064e-14 	3.4318677974322324e-15 1.543300997649841e-14 0.0
-3.926 	4.380979889169262e-13 	1.9012841597582374e-14 	3.459270360972589e-15 1.5553571236609783e-14 0.0
-3.9250000000000003 	4.4149510253972674e-13 	1.9162001411212017e-14 	3.486887221407361e-15 1.5675114189804656e-14 0.0
-3.924 	4.4483682760871246e-13 	1.9312265524344394e-14 	3.51472018284075e-15 1.5797545341503644e-14 0.0
-3.923 	4.4830984352881905e-13 	1.9463682181275603e-14 	3.542770742279162e-15 1.5920911438996443e-14 0.0
-3.922 	4.517902082929848e-13 	1.9616299858084068e-14 	3.571040628511334e-15 1.6045259229572736e-14 0.0
-3.9210000000000003 	4.552155070326132e-13 	1.9770073460149824e-14 	3.5995314942069866e-15 1.6170541965942835e-14 0.0
-3.92 	4.586478727827532e-13 	1.9925004717995394e-14 	3.628245069888651e-15 1.6296759648106742e-14 0.0
-3.919 	4.622115627142473e-13 	2.0081095286024347e-14 	3.657183009959891e-15 1.6423912276064455e-14 0.0
-3.918 	4.657829337151041e-13 	2.023844046807941e-14 	3.6863471236840516e-15 1.6552093344395358e-14 0.0
-3.9170000000000003 	4.693613969460973e-13 	2.039694842576089e-14 	3.715739067240829e-15 1.6681209358520063e-14 0.0
-3.916 	4.730096828362189e-13 	2.055671446468765e-14 	3.745360651669692e-15 1.6811353813017958e-14 0.0
-3.915 	4.766653765429108e-13 	2.071769349552577e-14 	3.775213534926419e-15 1.694247996059935e-14 0.0
-3.914 	4.802666609837603e-13 	2.0879934078380526e-14 	3.805299529826597e-15 1.707463454855393e-14 0.0
-3.9130000000000003 	4.838750726064342e-13 	2.1043344532418465e-14 	3.835620450116146e-15 1.720772408230232e-14 0.0
-3.912 	4.876775901206772e-13 	2.120802001288122e-14 	3.86617795645733e-15 1.734184205642389e-14 0.0
-3.911 	4.914881481945698e-13 	2.1374009236594543e-14 	3.8969740183862e-15 1.747703521820834e-14 0.0
-3.91 	4.952443323873765e-13 	2.1541267195798714e-14 	3.928010375432733e-15 1.7613256820365982e-14 0.0
-3.9090000000000003 	4.990082761622149e-13 	2.1709795707918736e-14 	3.959288845021927e-15 1.7750506862896808e-14 0.0
-3.908 	5.027799888553667e-13 	2.1879596668317e-14 	3.9908113225161796e-15 1.788878534580082e-14 0.0
-3.907 	5.066216039393235e-13 	2.2050671896321504e-14 	4.022579627243484e-15 1.802809226907802e-14 0.0
-3.906 	5.105955541484747e-13 	2.2223070113494304e-14 	4.054595733476205e-15 1.81684743800181e-14 0.0
-3.9050000000000002 	5.144536489098347e-13 	2.2396839888398383e-14 	4.086861462487636e-15 1.8309978425910746e-14 0.0
-3.904 	5.183813752355572e-13 	2.2571842801368243e-14 	4.1193786364813535e-15 1.845246416488689e-14 0.0
-3.903 	5.22442061749514e-13 	2.274826789571767e-14 	4.152149309612378e-15 1.859611858610529e-14 0.0
-3.902 	5.263866223971005e-13 	2.2926023501058433e-14 	4.1851753060718616e-15 1.874084819498657e-14 0.0
-3.9010000000000002 	5.304635653495568e-13 	2.3105111673533097e-14 	4.2184586820023686e-15 1.8886652991530728e-14 0.0
-3.9 	5.344871234467951e-13 	2.3285627810906793e-14 	4.2520013405896485e-15 1.9033626470317145e-14 0.0
-3.899 	5.385806599732469e-13 	2.346743365247579e-14 	4.285805262999041e-15 1.9181628389476747e-14 0.0
-3.898 	5.428075031982474e-13 	2.3650718169579194e-14 	4.319872431410893e-15 1.93308457381683e-14 0.0
-3.8970000000000002 	5.46918567850423e-13 	2.3835389850832833e-14 	4.354204829020411e-15 1.948118502181242e-14 0.0
-3.896 	5.51038113104521e-13 	2.402145075745389e-14 	4.3888045170447786e-15 1.963264624040911e-14 0.0
-3.895 	5.552282736297517e-13 	2.42089029517167e-14 	4.423673557758334e-15 1.9785229393958364e-14 0.0
-3.894 	5.595514822198724e-13 	2.439779516723556e-14 	4.458813937485681e-15 1.993898122974988e-14 0.0
-3.8930000000000002 	5.638216740099854e-13 	2.4588176215646633e-14 	4.49422772057329e-15 2.0093948495073344e-14 0.0
-3.892 	5.681003870667132e-13 	2.4779954744781287e-14 	4.529917049431916e-15 2.0250037695349373e-14 0.0
-3.891 	5.724503530774249e-13 	2.4973226315722092e-14 	4.565883990564737e-15 2.0407342325157355e-14 0.0
-3.89 	5.768712841072865e-13 	2.5167946325746863e-14 	4.602130688539269e-15 2.0565815637207593e-14 0.0
-3.8890000000000002 	5.813637873435458e-13 	2.536421033809483e-14 	4.638659212015359e-15 2.072555112607947e-14 0.0
-3.888 	5.857412013297576e-13 	2.556197375220047e-14 	4.675471707717173e-15 2.0886502044483297e-14 0.0
-3.887 	5.901274871686164e-13 	2.576119196859773e-14 	4.7125703234683476e-15 2.1048621645129383e-14 0.0
-3.886 	5.947093282349567e-13 	2.59619140375135e-14 	4.7499573622060835e-15 2.1211956675307417e-14 0.0
-3.8850000000000002 	5.993009582056643e-13 	2.6164235526627334e-14 	4.787634897030555e-15 2.137660062959678e-14 0.0
-3.884 	6.037775420375729e-13 	2.6368065169531324e-14 	4.8256051561132334e-15 2.154246001341809e-14 0.0
-3.883 	6.083875887549358e-13 	2.6573405195538682e-14 	4.863870368767334e-15 2.170953482677135e-14 0.0
-3.882 	6.13131706341981e-13 	2.6780351329683804e-14 	4.902432765447866e-15 2.187791856423594e-14 0.0
-3.8810000000000002 	6.178235326383232e-13 	2.698890588057052e-14 	4.94129465475866e-15 2.204761122581186e-14 0.0
-3.88 	6.225249042750735e-13 	2.7199024256682962e-14 	4.980458192473547e-15 2.2218566064209417e-14 0.0
-3.879 	6.272361318926449e-13 	2.741075567021231e-14 	5.019925843494005e-15 2.2390829826718304e-14 0.0
-3.878 	6.319569276230688e-13 	2.7624055532010838e-14 	5.0596997659620054e-15 2.2564355766048833e-14 0.0
-3.8770000000000002 	6.368739752713318e-13 	2.7838972979630797e-14 	5.099782350140109e-15 2.2739190629490688e-14 0.0
-3.876 	6.418015097033315e-13 	2.8055603822133486e-14 	5.140175910510233e-15 2.2915427911623255e-14 0.0
-3.875 	6.466146966862124e-13 	2.8273856957612543e-14 	5.180882839745394e-15 2.3092974117867148e-14 0.0
-3.874 	6.514999215442104e-13 	2.84937347799673e-14 	5.221905531744925e-15 2.3271829248222373e-14 0.0
-3.873 	6.56519618705453e-13 	2.871528635460616e-14 	5.26324630462754e-15 2.345204004997862e-14 0.0
-3.872 	6.615498502096414e-13 	2.893856097914264e-14 	5.304907708717066e-15 2.3633653270425574e-14 0.0
-3.871 	6.665903289891196e-13 	2.9163514226900785e-14 	5.346892064627237e-15 2.381662216227355e-14 0.0
-3.87 	6.716413657380434e-13 	2.939019532098209e-14 	5.3892018481698606e-15 2.4000993472812234e-14 0.0
-3.869 	6.767026741594892e-13 	2.961855999117739e-14 	5.4318395364254555e-15 2.4186720454751938e-14 0.0
-3.868 	6.818988139816005e-13 	2.9848657463125453e-14 	5.474807607743101e-15 2.437384985538235e-14 0.0
-3.867 	6.871058468957915e-13 	3.008053696373381e-14 	5.518108541740644e-15 2.4562428421993167e-14 0.0
-3.866 	6.923856111346306e-13 	3.031415422659914e-14 	5.56174481930445e-15 2.4752409407294692e-14 0.0
-3.865 	6.976765921700898e-13 	3.054960538246999e-14 	5.605719076603687e-15 2.4943886305866307e-14 0.0
-3.864 	7.029160807274998e-13 	3.0786799420275306e-14 	5.650033797146678e-15 2.513676562312863e-14 0.0
-3.863 	7.082907618360619e-13 	3.102578572609575e-14 	5.694691619724393e-15 2.5331094106371358e-14 0.0
-3.862 	7.136766979779202e-13 	3.126661368736525e-14 	5.739695184481075e-15 2.5526918502884175e-14 0.0
-3.861 	7.190736029073948e-13 	3.150923904427756e-14 	5.785046978900163e-15 2.5724192065377393e-14 0.0
-3.86 	7.246060375418487e-13 	3.175371126389547e-14 	5.830749722754773e-15 2.59229615411407e-14 0.0
-3.859 	7.301500643832149e-13 	3.2000079737670315e-14 	5.8768060602065254e-15 2.612327367746379e-14 0.0
-3.858 	7.356432738328343e-13 	3.224830044083426e-14 	5.923218713777293e-15 2.632508172705697e-14 0.0
-3.857 	7.412720524612391e-13 	3.2498376020297696e-14 	5.969990330377456e-15 2.652838568992024e-14 0.0
-3.856 	7.469127612892321e-13 	3.275040261890358e-14 	6.0171235582705964e-15 2.6733279060632982e-14 0.0
-3.855 	7.525648171297662e-13 	3.300428954570338e-14 	6.064621201087565e-15 2.6939668344615814e-14 0.0
-3.854 	7.582909553082772e-13 	3.326013310034519e-14 	6.1124860638970754e-15 2.714764703644812e-14 0.0
-3.853 	7.640287658811511e-13 	3.3517889188031756e-14 	6.1607207991915504e-15 2.7357168388840204e-14 0.0
-3.852 	7.698406864475591e-13 	3.3777607517926455e-14 	6.209328368844693e-15 2.756827914908176e-14 0.0
-3.851 	7.756646055767158e-13 	3.403929074539736e-14 	6.2583114282245726e-15 2.778097931717279e-14 0.0
-3.85 	7.816247868940378e-13 	3.430294183519386e-14 	6.307672942080567e-15 2.799526889311329e-14 0.0
-3.849 	7.875975922281391e-13 	3.4568657094152935e-14 	6.357415722670294e-15 2.821124137148264e-14 0.0
-3.848 	7.9345818942006e-13 	3.4836345841390776e-14 	6.4075425836893134e-15 2.8428803257701464e-14 0.0
-3.847 	7.995172156491149e-13 	3.510601104605468e-14 	6.458056494284925e-15 2.8647954551769756e-14 0.0
-3.846 	8.056513316435713e-13 	3.537779584367646e-14 	6.508960348119864e-15 2.88688354955566e-14 0.0
-3.845 	8.117357060249922e-13 	3.565160971182648e-14 	6.5602571173438804e-15 2.9091352594482595e-14 0.0
-3.844 	8.178949005820857e-13 	3.592750229445968e-14 	6.611949698622234e-15 2.9315552595837447e-14 0.0
-3.843 	8.241289307286732e-13 	3.6205476720742335e-14 	6.664041221121186e-15 2.954143549962115e-14 0.0
-3.842 	8.303138598463644e-13 	3.648558256070933e-14 	6.716534507585937e-15 2.976904805312339e-14 0.0
-3.841 	8.365733553881403e-13 	3.676772945199243e-14 	6.769432690227632e-15 2.99982967617648e-14 0.0
-3.84 	8.430325773082178e-13 	3.705206077027873e-14 	6.82273890286429e-15 3.022932186741444e-14 0.0
-3.839 	8.493809177388727e-13 	3.7338579496979157e-14 	6.876456126906844e-15 3.0462123370072315e-14 0.0
-3.838 	8.558041686671612e-13 	3.762719527446176e-14 	6.930587499302722e-15 3.069660777515904e-14 0.0
-3.837 	8.623653651805604e-13 	3.791805140614292e-14 	6.98513608159923e-15 3.0932915324543687e-14 0.0
-3.8360000000000003 	8.688157262051997e-13 	3.8211104284851954e-14 	7.0401050139153865e-15 3.1170999270936567e-14 0.0
-3.835 	8.75403467140408e-13 	3.850631038203213e-14 	7.0954975149841375e-15 3.141081286704799e-14 0.0
-3.834 	8.819916105423561e-13 	3.8665384694458185e-14 	7.151316805187789e-15 3.165249635474703e-14 -1.3842846547663727e-16
-3.833 	8.886681313308859e-13 	3.896484932724735e-14 	7.20756588577047e-15 3.189571190695351e-14 -1.3842846547663727e-16
-3.8320000000000003 	8.954974618610258e-13 	3.9405289884364056e-14 	7.264248201115663e-15 3.2141041683248395e-14 0.0
-3.831 	9.022648194862371e-13 	3.9709561580394565e-14 	7.321366976553362e-15 3.23881946038412e-14 0.0
-3.83 	9.090462832723576e-13 	4.001614293209135e-14 	7.37892551606973e-15 3.2637217416021616e-14 0.0
-3.829 	9.15965820025504e-13 	4.0324990497842553e-14 	7.436927125342592e-15 3.288806337249996e-14 0.0
-3.8280000000000003 	9.229000925118032e-13 	4.0636247826886555e-14 	7.495375111741258e-15 3.31408727151453e-14 0.0
-3.827 	9.298482219145437e-13 	4.0949778063422164e-14 	7.55427286133361e-15 3.3395505202088553e-14 0.0
-3.826 	9.369353694390295e-13 	4.126572483712009e-14 	7.613623761921286e-15 3.365210107519881e-14 0.0
-3.825 	9.439748797507247e-13 	4.1584044790226223e-14 	7.673431203039855e-15 3.391061358718637e-14 0.0
-3.8240000000000003 	9.510910189553471e-13 	4.1904741391016845e-14 	7.733698652965619e-15 3.417104273805123e-14 0.0
-3.823 	9.583462267759573e-13 	4.222786477982711e-14 	7.794429504744023e-15 3.4433435275083085e-14 0.0
-3.822 	9.656165701705734e-13 	4.255346525274002e-14 	7.855627307168399e-15 3.4697837945571625e-14 0.0
-3.821 	9.728396432402616e-13 	4.288149953607059e-14 	7.917295533843436e-15 3.4964204002227154e-14 0.0
-3.8200000000000003 	9.802018370158056e-13 	4.32119711822066e-14 	7.979437737156921e-15 3.5232533445049685e-14 0.0
-3.819 	9.876416418706206e-13 	4.354497731694071e-14 	8.042057548322121e-15 3.550291976861859e-14 0.0
-3.818 	9.950966519326449e-13 	4.3880474672043096e-14 	8.10515844639892e-15 3.5775316225644174e-14 0.0
-3.817 	1.0026293081160328e-12 	4.421851362965344e-14 	8.168744066237309e-15 3.604976956341613e-14 0.0
-3.8160000000000003 	1.0101775038239524e-12 	4.4559097826482496e-14 	8.23281804454803e-15 3.632627978193447e-14 0.0
-3.815 	1.0178033818695505e-12 	4.4902230978108737e-14 	8.297384096909553e-15 3.6604846881199184e-14 0.0
-3.814 	1.0254451341731982e-12 	4.524796347229622e-14 	8.362445863796262e-15 3.688551760849996e-14 0.0
-3.813 	1.0332267299579877e-12 	4.5596252358104344e-14 	8.428007141557234e-15 3.716824521654711e-14 0.0
-3.8120000000000003 	1.041024833649621e-12 	4.5947241521682533e-14 	8.49407157447282e-15 3.745316994720971e-14 0.0
-3.811 	1.0488385688504463e-12 	4.630079459832381e-14 	8.560643039705127e-15 3.774015155861868e-14 0.0
-3.81 	1.0567930988067505e-12 	4.665705563203986e-14 	8.627725339396758e-15 3.8029330292643096e-14 0.0
-3.809 	1.0648260188681872e-12 	4.70159816026219e-14 	8.695322200628626e-15 3.832065940199327e-14 0.0
-3.8080000000000003 	1.0728758210277523e-12 	4.737766996465414e-14 	8.763437583405557e-15 3.861423238124858e-14 0.0
-3.807 	1.0808176784037134e-12 	4.7742031108584994e-14 	8.832075372755348e-15 3.8909955735829646e-14 0.0
-3.806 	1.0890243568280892e-12 	4.810906884442263e-14 	8.901239378686166e-15 3.9207829465736464e-14 0.0
-3.805 	1.0972485721676667e-12 	4.8478974204300485e-14 	8.970933644172685e-15 3.95080405601278e-14 0.0
-3.8040000000000003 	1.1054891499737793e-12 	4.8851564167099436e-14 	9.041162137254542e-15 3.981040202984489e-14 0.0
-3.803 	1.1138715528185627e-12 	4.922702969204781e-14 	9.111928828001309e-15 4.01151008640465e-14 0.0
-3.802 	1.1222088301177673e-12 	4.960528133367261e-14 	9.18323776551936e-15 4.042204356815325e-14 0.0
-3.801 	1.130687673857812e-12 	4.9986369890441995e-14 	9.255093000987174e-15 4.073127688945482e-14 0.0
-3.8000000000000003 	1.139184153481599e-12 	5.037034616289636e-14 	9.327498587655459e-15 4.1042847575240906e-14 0.0
-3.799 	1.147760115735794e-12 	5.075716761308286e-14 	9.400458734861036e-15 4.1356708878221825e-14 0.0
-3.798 	1.1564161779836088e-12 	5.1146931870067344e-14 	9.473977577090402e-15 4.1672954292976944e-14 0.0
-3.797 	1.1650899375919334e-12 	5.1539596323161064e-14 	9.548059250944484e-15 4.199153707221658e-14 0.0
-3.7960000000000003 	1.1739059628469601e-12 	5.193521193537604e-14 	9.622707972145614e-15 4.231250396323043e-14 0.0
-3.795 	1.1828024485132733e-12 	5.2333829671881095e-14 	9.697927958572927e-15 4.263590171330817e-14 0.0
-3.794 	1.1915930426045755e-12 	5.2735453906726035e-14 	9.773723584276218e-15 4.2961730322449815e-14 0.0
-3.793 	1.2005256673441694e-12 	5.313999544461556e-14 	9.850099148539582e-15 4.328989629607597e-14 0.0
-3.7920000000000003 	1.2096636620466158e-12 	5.3547645499184445e-14 	9.927058875839036e-15 4.362058662334541e-14 0.0
-3.791 	1.2186961276172863e-12 	5.395836178079683e-14 	1.0004607223828402e-14 4.395375455696843e-14 0.0
-3.79 	1.227871285190177e-12 	5.437210192509348e-14 	1.0082748575438125e-14 4.4289353349655354e-14 0.0
-3.789 	1.237127927351258e-12 	5.478901055911504e-14 	1.0161487315839795e-14 4.462752324327524e-14 0.0
-3.7880000000000003 	1.2463412300728e-12 	5.520899865270208e-14 	1.0240827909453362e-14 4.496817074324872e-14 0.0
-3.787 	1.2557600122781079e-12 	5.563211749685492e-14 	1.0320774899989442e-14 4.5311342596865473e-14 0.0
-3.786 	1.2651985198253944e-12 	5.605846513218929e-14 	1.0401332833484402e-14 4.5657132298704886e-14 0.0
-3.785 	1.274718302632652e-12 	5.64879526124881e-14 	1.0482506258300522e-14 4.600544635418758e-14 0.0
-3.7840000000000003 	1.2842581541011604e-12 	5.692072473030855e-14 	1.0564299725125932e-14 4.6356425005182624e-14 0.0
-3.783 	1.2938793264318132e-12 	5.735664595080964e-14 	1.0646717940988697e-14 4.6709928009820944e-14 0.0
-3.782 	1.3036451609486987e-12 	5.779590789558151e-14 	1.0729765538320198e-14 4.7066142357261304e-14 0.0
-3.781 	1.313355070171139e-12 	5.809999323936778e-14 	1.0813447151920104e-14 4.742497455292432e-14 -1.3842846547663727e-16
-3.7800000000000002 	1.3232224801438553e-12 	5.854561272260182e-14 	1.0897767429189863e-14 4.7786273758888595e-14 -1.3842846547663727e-16
-3.779 	1.3331866860586418e-12 	5.913321320036804e-14 	1.098273130750203e-14 4.8150481892866e-14 0.0
-3.778 	1.3432198835358465e-12 	5.958574495258925e-14 	1.1068343582943807e-14 4.8517401369645445e-14 0.0
-3.777 	1.3532739099817728e-12 	6.004168799057175e-14 	1.1154609054055132e-14 4.888707893651662e-14 0.0
-3.7760000000000002 	1.3634106154368247e-12 	6.050100044502563e-14 	1.12415325988358e-14 4.9259467846189836e-14 0.0
-3.775 	1.3736306213182668e-12 	6.096378076803192e-14 	1.132911917478745e-14 4.963466159324447e-14 0.0
-3.774 	1.3839336531805456e-12 	6.142998709533289e-14 	1.1417373664942054e-14 5.001261343039084e-14 0.0
-3.773 	1.3943203324657164e-12 	6.189971788404216e-14 	1.1506301031833844e-14 5.0393416852208314e-14 0.0
-3.7720000000000002 	1.40472826100092e-12 	6.237293142894833e-14 	1.159590631754112e-14 5.0777025111407214e-14 0.0
-3.771 	1.4152820111555663e-12 	6.284967952199902e-14 	1.1686194566721801e-14 5.116348495527722e-14 0.0
-3.77 	1.4259197821588634e-12 	6.333001403472846e-14 	1.1777170903620437e-14 5.1552843131108024e-14 0.0
-3.769 	1.436579474374945e-12 	6.381394001699615e-14 	1.1868840378096512e-14 5.1945099638899634e-14 0.0
-3.7680000000000002 	1.4473232379607917e-12 	6.430146267525517e-14 	1.1961208196603128e-14 5.2340254478652044e-14 0.0
-3.767 	1.4581513974537525e-12 	6.479263404291938e-14 	1.2054279645264448e-14 5.273835439765494e-14 0.0
-3.766 	1.4691261026579377e-12 	6.528745925480562e-14 	1.2148059858897289e-14 5.313939939590833e-14 0.0
-3.765 	1.4800616031033718e-12 	6.578603709694563e-14 	1.2242554128954036e-14 5.35434829679916e-14 0.0
-3.7640000000000002 	1.4910812783938153e-12 	6.628823262162949e-14 	1.2337767749593829e-14 5.395046487203566e-14 0.0
-3.763 	1.5023727225270793e-12 	6.679423819188855e-14 	1.2433706094689258e-14 5.436053209719929e-14 0.0
-3.762 	1.5135632149231546e-12 	6.730405918434392e-14 	1.2530374540861443e-14 5.4773684643482476e-14 0.0
-3.761 	1.5248385589942726e-12 	6.781760756079331e-14 	1.2627778544487459e-14 5.5189829016305845e-14 0.0
-3.7600000000000002 	1.5362618016382437e-12 	6.833502902227382e-14 	1.2725923564735352e-14 5.5609105457538466e-14 0.0
-3.759 	1.5477705471298062e-12 	6.885628236046188e-14 	1.2824815140571236e-14 5.603146721989065e-14 0.0
-3.758 	1.5593654197643923e-12 	6.938146661173633e-14 	1.2924458813794559e-14 5.6457007797941776e-14 0.0
-3.757 	1.5709840234653277e-12 	6.991054049643315e-14 	1.302486005203099e-14 5.688568044440216e-14 0.0
-3.7560000000000002 	1.5827509342165508e-12 	7.044355654028689e-14 	1.3126024633725408e-14 5.731753190656148e-14 0.0
-3.755 	1.594542229214951e-12 	7.098056711797817e-14 	1.3227958186268742e-14 5.775260893170943e-14 0.0
-3.754 	1.606419762585816e-12 	7.152153118949106e-14 	1.333066641693472e-14 5.819086477255634e-14 0.0
-3.753 	1.6185084088548663e-12 	7.206654803660334e-14 	1.3434155112921784e-14 5.863239292368156e-14 0.0
-3.7520000000000002 	1.630559996619948e-12 	7.261567011975646e-14 	1.3538429987381668e-14 5.907724013237479e-14 0.0
-3.751 	1.6426982071997316e-12 	7.316880989146158e-14 	1.3643496987404918e-14 5.952531290405666e-14 0.0
-3.75 	1.6549860891518112e-12 	7.372611338970926e-14 	1.3749361909113014e-14 5.997675148059624e-14 0.0
-3.749 	1.6672991242801227e-12 	7.428753982030537e-14 	1.385603070560154e-14 6.043150911470382e-14 0.0
-3.748 	1.6797618894439061e-12 	7.485314188667987e-14 	1.3963509333010754e-14 6.088963255366912e-14 0.0
-3.747 	1.6923747124959122e-12 	7.542297229530777e-14 	1.4071803750525967e-14 6.13511685447818e-14 0.0
-3.746 	1.704951548530304e-12 	7.599708390972244e-14 	1.4180920074390869e-14 6.181616383533158e-14 0.0
-3.745 	1.7176160797143928e-12 	7.657538935471799e-14 	1.4290864423978942e-14 6.228452493073905e-14 0.0
-3.744 	1.730493480724223e-12 	7.715803499466599e-14 	1.4401642921792685e-14 6.27563920728733e-14 0.0
-3.743 	1.7433974082015393e-12 	7.774502695519836e-14 	1.451326169346404e-14 6.323176526173432e-14 0.0
-3.742 	1.7563278930943853e-12 	7.833637151909043e-14 	1.462572702176831e-14 6.371064449732212e-14 0.0
-3.741 	1.7694092150088008e-12 	7.893207489532438e-14 	1.473904511568769e-14 6.419302977963669e-14 0.0
-3.74 	1.7826420023009369e-12 	7.953223694464756e-14 	1.4853222341390126e-14 6.467901460325743e-14 0.0
-3.739 	1.7959020373241682e-12 	8.013686403648408e-14 	1.4968265068299768e-14 6.516859896818431e-14 0.0
-3.738 	1.8092514759801416e-12 	8.074596254351407e-14 	1.5084179669096717e-14 6.566178287441735e-14 0.0
-3.737 	1.8228148979546033e-12 	8.135958574297779e-14 	1.5200972673731546e-14 6.615861306924624e-14 0.0
-3.736 	1.8364065585153735e-12 	8.197783358573909e-14 	1.5318650538488733e-14 6.665918304725036e-14 0.0
-3.735 	1.8500258928634197e-12 	8.260061911380819e-14 	1.543721979995785e-14 6.716339931385033e-14 0.0
-3.734 	1.863797779611639e-12 	8.322804243870214e-14 	1.5556687075076626e-14 6.767135536362552e-14 0.0
-3.733 	1.8775980027286112e-12 	8.386011025774868e-14 	1.567705906117274e-14 6.818305119657594e-14 0.0
-3.732 	1.8915508438634427e-12 	8.449682919469387e-14 	1.5798342381992285e-14 6.869848681270158e-14 0.0
-3.731 	1.905719057927137e-12 	8.513829952526009e-14 	1.5920543818678263e-14 6.921775570658183e-14 0.0
-3.73 	1.919916603306138e-12 	8.57845747813479e-14 	1.604367015584152e-14 6.974090462550638e-14 0.0
-3.729 	1.9341432153182006e-12 	8.64356150807531e-14 	1.616772825856756e-14 7.026788682218553e-14 0.0
-3.728 	1.9485234749378623e-12 	8.70914739623537e-14 	1.6292724918444708e-14 7.079874904390899e-14 0.0
-3.727 	1.963057714893902e-12 	8.775220512250941e-14 	1.641866708454298e-14 7.133353803796643e-14 0.0
-3.726 	1.9776220196697594e-12 	8.841786241514625e-14 	1.6545561863498715e-14 7.187230055164754e-14 0.0
-3.725 	1.992340374053787e-12 	8.908840604923367e-14 	1.6673416211571015e-14 7.241498983766265e-14 0.0
-3.724 	2.0071515840729096e-12 	8.976398338046603e-14 	1.680223724258522e-14 7.296174613788082e-14 0.0
-3.723 	2.021992963278643e-12 	9.044450803172603e-14 	1.6932032074003357e-14 7.351247595772268e-14 0.0
-3.722 	2.0370515176573816e-12 	9.11300806956991e-14 	1.7062807903931523e-14 7.406727279176758e-14 0.0