# Aki and Richards - double-couple solution eq.(4.32) and (4.33)
#
# homogeneous elastic medium: rho/vp/vs   = 2300.0 / 2800.0 / 1500.0
# receiver station          : x/y/z       = 3000.0 / 1000.0 / 4000.0
#                           : r/theta/phi = 5099.019513592785 / 0.6689640742684072 / 0.3217505543966422
#
# solution component        : cartesian Y / spherical THETA
#
# format:
#time 	#u_cartesian 	#u_spherical
-4.0 	6.818145190238032e-14 	-9.378356312321092e-15 	-1.688983741206981e-15 -7.68937257111411e-15 0.0
-3.999 	6.871772653583722e-14 	-9.452811221003179e-15 	-1.7026279838993793e-15 -7.7501832371038e-15 0.0
-3.998 	6.923992142218148e-14 	-9.527869200645706e-15 	-1.7163802310719752e-15 -7.811488969573732e-15 0.0
-3.997 	6.97788959325238e-14 	-9.603448611152047e-15 	-1.7302413537081821e-15 -7.873207257443864e-15 0.0
-3.996 	7.035049002321018e-14 	-9.679674090573513e-15 	-1.744212223239255e-15 -7.935461867334258e-15 0.0
-3.995 	7.089247850299406e-14 	-9.756505187288741e-15 	-1.7582936435838487e-15 -7.998211543704892e-15 0.0
-3.994 	7.143582308808547e-14 	-9.833901518047317e-15 	-1.7724864870315677e-15 -8.06141503101575e-15 0.0
-3.993 	7.19961590527324e-14 	-9.911905211126744e-15 	-1.786791626319895e-15 -8.12511358480685e-15 0.0
-3.992 	7.255795707433718e-14 	-9.990517139712315e-15 	-1.801209934634125e-15 -8.18930720507819e-15 0.0
-3.991 	7.312121895891403e-14 	-1.0069738177437197e-14 	-1.8157422856074247e-15 -8.253995891829772e-15 0.0
-3.99 	7.36859465134031e-14 	-1.014956919838239e-14 	-1.8303895533207946e-15 -8.319179645061596e-15 0.0
-3.989 	7.425214154567021e-14 	-1.0230011077076733e-14 	-1.8451526123030707e-15 -8.384858464773661e-15 0.0
-3.988 	7.485086811987943e-14 	-1.0311064688496915e-14 	-1.860032337530945e-15 -8.45103235096597e-15 0.0
-3.987 	7.543573948797893e-14 	-1.0392813487107951e-14 	-1.875029672389393e-15 -8.517783814718558e-15 0.0
-3.986 	7.600645057398263e-14 	-1.0475134650159924e-14 	-1.8901455607485542e-15 -8.58498908941137e-15 0.0
-3.985 	7.66098012574708e-14 	-1.055811156512774e-14 	-1.9053808790032964e-15 -8.652730686124443e-15 0.0
-3.984 	7.721473123621118e-14 	-1.0641745176814547e-14 	-1.9207365719567694e-15 -8.721008604857778e-15 0.0
-3.983 	7.780571119616976e-14 	-1.0726036362548214e-14 	-1.9362135169368394e-15 -8.789822845611374e-15 0.0
-3.982 	7.83981720181934e-14 	-1.081094488048533e-14 	-1.951812727640117e-15 -8.859132152845213e-15 0.0
-3.981 	7.902328011571166e-14 	-1.0896512864464105e-14 	-1.967535082364793e-15 -8.928977782099312e-15 0.0
-3.98 	7.963454654563092e-14 	-1.0982782584691517e-14 	-1.9833815957778228e-15 -8.999400988913694e-15 0.0
-3.979 	8.024729956850301e-14 	-1.1069672409356041e-14 	-1.9993531471477218e-15 -9.070319262208319e-15 0.0
-3.978 	8.087727709638406e-14 	-1.115726586517498e-14 	-2.0154507521117557e-15 -9.141815113063223e-15 0.0
-3.977 	8.15088477598405e-14 	-1.1245522712768073e-14 	-2.031675426829681e-15 -9.213847285938391e-15 0.0
-3.976 	8.215764684970758e-14 	-1.1334485088436673e-14 	-2.048028052062832e-15 -9.286457036373841e-15 0.0
-3.975 	8.277708322607543e-14 	-1.1424154077271313e-14 	-2.0645097129017398e-15 -9.359644364369573e-15 0.0
-3.974 	8.341354755052826e-14 	-1.1514448117921402e-14 	-2.0811213590758565e-15 -9.433326758845546e-15 0.0
-3.973 	8.408288008276753e-14 	-1.160549199518203e-14 	-2.0978640087602087e-15 -9.507627986421821e-15 0.0
-3.972 	8.472285593505642e-14 	-1.169724540425028e-14 	-2.114738612691902e-15 -9.582506791558379e-15 0.0
-3.971 	8.537996839544624e-14 	-1.1789668176729281e-14 	-2.1317462580140828e-15 -9.657921918715198e-15 0.0
-3.97 	8.605442425679337e-14 	-1.1882843843441563e-14 	-2.1488879644692426e-15 -9.73395587897232e-15 0.0
-3.969 	8.671506103046467e-14 	-1.1976732169112108e-14 	-2.1661647523223856e-15 -9.810567416789723e-15 0.0
-3.968 	8.737741195436469e-14 	-1.2071334174528395e-14 	-2.183577642360988e-15 -9.887756532167407e-15 0.0
-3.967 	8.807254153565516e-14 	-1.2166650948960815e-14 	-2.201127723855439e-15 -9.965523225105376e-15 0.0
-3.966 	8.876959431621784e-14 	-1.2262766025359191e-14 	-2.218816018675527e-15 -1.0043950006683664e-14 0.0
-3.9650000000000003 	8.943730560990888e-14 	-1.2359597982996174e-14 	-2.2366436171739375e-15 -1.0122954365822237e-14 0.0
-3.964 	9.013780218265693e-14 	-1.245714791278426e-14 	-2.2546116102631694e-15 -1.020253630252109e-14 0.0
-3.963 	9.082469745205223e-14 	-1.255549934931536e-14 	-2.272721021455093e-15 -1.0282778327860267e-14 0.0
-3.962 	9.1528749044182e-14 	-1.2654529685924645e-14 	-2.2909730107049424e-15 -1.0363556675219703e-14 0.0
-3.9610000000000003 	9.225036844680768e-14 	-1.275440496940368e-14 	-2.3093686026441952e-15 -1.0445036366759484e-14 0.0
-3.96 	9.297372004576342e-14 	-1.2855002662167681e-14 	-2.327909026308137e-15 -1.0527093635859545e-14 0.0
-3.959 	9.369911298880321e-14 	-1.2956447556625128e-14 	-2.3465953074851785e-15 -1.060985224913995e-14 0.0
-3.958 	9.441071138317106e-14 	-1.3058616980427299e-14 	-2.3654285404466626e-15 -1.0693188439980637e-14 0.0
-3.9570000000000003 	9.513978457281334e-14 	-1.3161594607445807e-14 	-2.384409887984161e-15 -1.0777184719461645e-14 0.0
-3.956 	9.587070135216399e-14 	-1.3265340277568915e-14 	-2.403540445525959e-15 -1.0861799832042956e-14 0.0
-3.955 	9.663462886565278e-14 	-1.3369896478245591e-14 	-2.422821444981001e-15 -1.094707503326459e-14 0.0
-3.954 	9.73695473524132e-14 	-1.347530562959882e-14 	-2.4422540509322536e-15 -1.1033051578666566e-14 0.0
-3.9530000000000003 	9.812174543652881e-14 	-1.35814450622282e-14 	-2.4618393605993784e-15 -1.1119605701628822e-14 0.0
-3.952 	9.889163489746679e-14 	-1.368848096403369e-14 	-2.481578539722248e-15 -1.1206902424311443e-14 0.0
-3.951 	9.964784900425337e-14 	-1.3796290802692719e-14 	-2.501472822598354e-15 -1.1294817980094365e-14 0.0
-3.95 	1.0043718823716189e-13 	-1.3904958256256759e-14 	-2.5215233761991295e-15 -1.1383434880057629e-14 0.0
-3.9490000000000003 	1.0119753063958971e-13 	-1.401448456025489e-14 	-2.541731436053652e-15 -1.1472753124201237e-14 0.0
-3.948 	1.0197526732475952e-13 	-1.4124788371810078e-14 	-2.562098170364932e-15 -1.1562690201445146e-14 0.0
-3.947 	1.0277070787655671e-13 	-1.4235994694303004e-14 	-2.582624815893587e-15 -1.1653369878409417e-14 0.0
-3.946 	1.0356811904049626e-13 	-1.4348022254048685e-14 	-2.6033126100346748e-15 -1.1744709644014011e-14 0.0
-3.9450000000000003 	1.0438323918837366e-13 	-1.4460954800156684e-14 	-2.6241627908177178e-15 -1.1836792009338968e-14 0.0
-3.944 	1.0516937515535372e-13 	-1.457475231575089e-14 	-2.6451765969066247e-15 -1.1929575718844267e-14 0.0
-3.943 	1.0598855167171627e-13 	-1.4689374784589723e-14 	-2.6663552675998346e-15 -1.2023019516989888e-14 0.0
-3.942 	1.068255473407091e-13 	-1.4804947281186494e-14 	-2.687700110790603e-15 -1.2117247170395891e-14 0.0
-3.9410000000000003 	1.0763356665910979e-13 	-1.49213885350658e-14 	-2.709212367083561e-15 -1.2212176167982238e-14 0.0
-3.94 	1.084747368440999e-13 	-1.503869985542712e-14 	-2.7308933456781954e-15 -1.2307806509748927e-14 0.0
-3.939 	1.0931820303293096e-13 	-1.5156965063221767e-14 	-2.7527443564457685e-15 -1.2404220706775998e-14 0.0
-3.938 	1.1014823198184188e-13 	-1.52761028899523e-14 	-2.7747666419688885e-15 -1.2501336247983412e-14 0.0
-3.9370000000000003 	1.1099599099913e-13 	-1.53961559023362e-14 	-2.7969615134250117e-15 -1.2599194388911188e-14 0.0
-3.936 	1.1184595180951462e-13 	-1.5517125480183183e-14 	-2.819330350623854e-15 -1.2697795129559328e-14 0.0
-3.935 	1.1272917938174849e-13 	-1.5639012936051563e-14 	-2.841874466123735e-15 -1.279713846992783e-14 0.0
-3.934 	1.1359928773234042e-13 	-1.5761902094251478e-14 	-2.8645951731547452e-15 -1.2897306921096734e-14 0.0
-3.9330000000000003 	1.1447150395891897e-13 	-1.588567063798564e-14 	-2.8874939215396593e-15 -1.299817671644598e-14 0.0
-3.932 	1.1534613780638227e-13 	-1.6010443648522356e-14 	-2.910572025926726e-15 -1.309987162259563e-14 0.0
-3.931 	1.1623841609430869e-13 	-1.6136098674561634e-14 	-2.9338308016360135e-15 -1.3202267872925622e-14 0.0
-3.93 	1.1714875119375488e-13 	-1.6262802190176257e-14 	-2.9572717005802223e-15 -1.3305530489596036e-14 0.0
-3.9290000000000003 	1.1804577654417227e-13 	-1.6390431745484345e-14 	-2.980896039497533e-15 -1.3409535705986813e-14 0.0
-3.928 	1.189607622306143e-13 	-1.65190713728573e-14 	-3.0047053396793035e-15 -1.3514366033177994e-14 0.0
-3.927 	1.198625463803395e-13 	-1.6648681134948764e-14 	-3.028700919319206e-15 -1.3619980215629558e-14 0.0
-3.926 	1.207977255242981e-13 	-1.677926255450557e-14 	-3.0528843011640653e-15 -1.3726378253341503e-14 0.0
-3.9250000000000003 	1.2173544481995498e-13 	-1.691089946225697e-14 	-3.0772568048630968e-15 -1.3833642657393872e-14 0.0
-3.924 	1.2265997174621704e-13 	-1.704351093928567e-14 	-3.101820022579046e-15 -1.3941690916706623e-14 0.0
-3.923 	1.23618004759667e-13 	-1.7177139562273686e-14 	-3.1265752754539095e-15 -1.4050564286819777e-14 0.0
-3.922 	1.245785871013181e-13 	-1.731182811245619e-14 	-3.151524089182833e-15 -1.4160304023273355e-14 0.0
-3.9210000000000003 	1.2552608831620076e-13 	-1.7447536792811542e-14 	-3.1766679222842095e-15 -1.4270868870527333e-14 0.0
-3.92 	1.2647604268915078e-13 	-1.7584267130565013e-14 	-3.2020083019832958e-15 -1.4382258828581716e-14 0.0
-3.919 	1.2745951549381947e-13 	-1.7722020585765142e-14 	-3.2275466883286388e-15 -1.4494473897436504e-14 0.0
-3.918 	1.2844565246043637e-13 	-1.7860881266207778e-14 	-3.2532846780360466e-15 -1.4607596588171732e-14 0.0
-3.9170000000000003 	1.2943425192572252e-13 	-1.800076812242891e-14 	-3.2792237327215435e-15 -1.4721544389707365e-14 0.0
-3.916 	1.3044105300620636e-13 	-1.8141765263791843e-14 	-3.305365450668404e-15 -1.4836399813123437e-14 0.0
-3.915 	1.3145042525656213e-13 	-1.8283832897940025e-14 	-3.3317112950600876e-15 -1.4952121602879937e-14 0.0
-3.914 	1.324469431987872e-13 	-1.842701388026421e-14 	-3.358262865747333e-15 -1.5068751014516877e-14 0.0
-3.9130000000000003 	1.3344593658475106e-13 	-1.8571227300356142e-14 	-3.38502176340192e-15 -1.5186205536954222e-14 0.0
-3.912 	1.3449420651200776e-13 	-1.8716557134867847e-14 	-3.4119894535958408e-15 -1.5304567681272006e-14 0.0
-3.911 	1.3554526553310162e-13 	-1.8863046377499445e-14 	-3.4391676744891888e-15 -1.5423878703010256e-14 0.0
-3.91 	1.365834833515302e-13 	-1.9010655307885445e-14 	-3.466557961256495e-15 -1.554409734662895e-14 0.0
-3.9090000000000003 	1.3762439441067327e-13 	-1.9159385529944498e-14 	-3.49416191781641e-15 -1.566522361212809e-14 0.0
-3.908 	1.3866800216841297e-13 	-1.9309238716376768e-14 	-3.5219812168690993e-15 -1.578725749950767e-14 0.0
-3.907 	1.3972984107160095e-13 	-1.946021647278034e-14 	-3.5500174640126488e-15 -1.591019900876769e-14 0.0
-3.906 	1.408255481921672e-13 	-1.961236179703523e-14 	-3.578272401587055e-15 -1.6034089395448176e-14 0.0
-3.9050000000000002 	1.4189310468448063e-13 	-1.976571755199632e-14 	-3.6067476369071755e-15 -1.6158969915089145e-14 0.0
-3.904 	1.4297880022881417e-13 	-1.99201615791794e-14 	-3.635444778108863e-15 -1.628471680107054e-14 0.0
-3.903 	1.4409857907003232e-13 	-2.0075860713582795e-14 	-3.664365638030362e-15 -1.6411495075552432e-14 0.0
-3.902 	1.4519011534062993e-13 	-2.0232734054016398e-14 	-3.693511826561607e-15 -1.6539222227454792e-14 0.0
-3.9010000000000002 	1.4631553730255973e-13 	-2.0390783415072513e-14 	-3.7228851582948986e-15 -1.6667898256777613e-14 0.0
-3.9 	1.474284597297162e-13 	-2.0550092987435623e-14 	-3.752487312834684e-15 -1.679760567460094e-14 0.0
-3.899 	1.4855964146469447e-13 	-2.071054075290888e-14 	-3.782320038604169e-15 -1.692822071430471e-14 0.0
-3.898 	1.4972502662104912e-13 	-2.0872293482971324e-14 	-3.812385084922322e-15 -1.7059908398049e-14 0.0
-3.8970000000000002 	1.5086228962136068e-13 	-2.1035270416757527e-14 	-3.8426842020037505e-15 -1.7192586214753777e-14 0.0
-3.896 	1.520024964814674e-13 	-2.1199473373338253e-14 	-3.873219208919216e-15 -1.7326254164419037e-14 0.0
-3.895 	1.531611820914501e-13 	-2.1364904172717227e-14 	-3.903991925672449e-15 -1.746091224704478e-14 0.0
-3.894 	1.5435398354522682e-13 	-2.1531605823410847e-14 	-3.935004105239819e-15 -1.7596601718171028e-14 0.0
-3.8930000000000002 	1.5553441356831314e-13 	-2.1699621402791552e-14 	-3.966257569453756e-15 -1.7733363833337796e-14 0.0
-3.892 	1.5671780251219183e-13 	-2.1868870290505236e-14 	-3.997754209040189e-15 -1.787111608146505e-14 0.0
-3.891 	1.5791988995945695e-13 	-2.2039436821367718e-14 	-4.0294958477348905e-15 -1.8009940973632827e-14 0.0
-3.89 	1.5914057748023906e-13 	-2.2211281632468285e-14 	-4.0614843781671786e-15 -1.8149797254301107e-14 0.0
-3.8890000000000002 	1.6038007353338064e-13 	-2.2384489060526067e-14 	-4.093721625976136e-15 -1.829076743454993e-14 0.0
-3.888 	1.6159168630988833e-13 	-2.2559019744533657e-14 	-4.126209485694375e-15 -1.8432810258839282e-14 0.0
-3.887 	1.628063796412052e-13 	-2.2734834324453942e-14 	-4.158949852824811e-15 -1.8575884471629133e-14 0.0
-3.886 	1.6407085345424688e-13 	-2.29119760882211e-14 	-4.19194475976159e-15 -1.872003132845951e-14 0.0
-3.8850000000000002 	1.6533872283289817e-13 	-2.309052937647293e-14 	-4.225196036062483e-15 -1.8865333340410448e-14 0.0
-3.884 	1.6657872490204443e-13 	-2.3270413644541103e-14 	-4.25870564813919e-15 -1.9011707996401912e-14 0.0
-3.883 	1.6785298823956918e-13 	-2.3451630859844923e-14 	-4.2924755634110234e-15 -1.91591552964339e-14 0.0
-3.882 	1.691617215994927e-13 	-2.3634265501891406e-14 	-4.326507750304955e-15 -1.930775775158645e-14 0.0
-3.8810000000000002 	1.7045833581055243e-13 	-2.3818319608075622e-14 	-4.360804246216059e-15 -1.9457515361859562e-14 0.0
-3.88 	1.7175826359100963e-13 	-2.40037538253767e-14 	-4.395366953663478e-15 -1.9608386871713223e-14 0.0
-3.879 	1.7306161178020738e-13 	-2.4190611584665938e-14 	-4.430198047978495e-15 -1.9760413536687444e-14 0.0
-3.878 	1.7436828197304134e-13 	-2.43788535350124e-14 	-4.46529943377019e-15 -1.991355410124221e-14 0.0
-3.8770000000000002 	1.757249742557425e-13 	-2.4568523041416855e-14 	-4.500673220499313e-15 -2.0067849820917542e-14 0.0
-3.876 	1.7708530415257054e-13 	-2.4759704657541956e-14 	-4.536321450748481e-15 -2.0223383206793476e-14 0.0
-3.875 	1.7841800908852583e-13 	-2.4952317983895698e-14 	-4.572246236105726e-15 -2.0380071747789973e-14 0.0
-3.874 	1.7976968681407517e-13 	-2.5146365133148364e-14 	-4.6084496892413306e-15 -2.0537915443907035e-14 0.0
-3.873 	1.8115597502845873e-13 	-2.5341889406632152e-14 	-4.644933855947468e-15 -2.0696955550684684e-14 0.0
-3.872 	1.8254591847149099e-13 	-2.553893431060551e-14 	-4.681700986942574e-15 -2.0857233323662935e-14 0.0
-3.871 	1.8393941903447951e-13 	-2.5737460637522502e-14 	-4.718753130220733e-15 -2.101870750730177e-14 0.0
-3.87 	1.8533658357667215e-13 	-2.593751182788305e-14 	-4.756092470741839e-15 -2.118141935714121e-14 0.0
-3.869 	1.8673731427483307e-13 	-2.6139048812226685e-14 	-4.793721194585453e-15 -2.1345327617641234e-14 0.0
-3.868 	1.8817278024821138e-13 	-2.6342115033292526e-14 	-4.831641488950665e-15 -2.151047354434186e-14 0.0
-3.867 	1.8961202610762626e-13 	-2.65467539349394e-14 	-4.869855542156288e-15 -2.167689839278311e-14 0.0
-3.866 	1.9107048516447138e-13 	-2.6752926451065595e-14 	-4.908365543640626e-15 -2.1844560907424968e-14 0.0
-3.865 	1.925328357852621e-13 	-2.696071741923004e-14 	-4.94717381988257e-15 -2.201354359934747e-14 0.0
-3.864 	1.93983346688404e-13 	-2.7170046520104935e-14 	-4.98628256263436e-15 -2.2183763957470575e-14 0.0
-3.863 	1.9546871841354117e-13 	-2.738095733802299e-14 	-5.025694100688687e-15 -2.2355263237334303e-14 0.0
-3.862 	1.9695799586435572e-13 	-2.7593493458511212e-14 	-5.065410764032533e-15 -2.2528082694478678e-14 0.0
-3.861 	1.9845108123659077e-13 	-2.7807615821289946e-14 	-5.105434747926272e-15 -2.2702181073363675e-14 0.0
-3.86 	1.9997914408994726e-13 	-2.8023368082160485e-14 	-5.145768452631165e-15 -2.287759962952932e-14 0.0
-3.859 	2.0151122933543657e-13 	-2.824079383019525e-14 	-5.186414211679626e-15 -2.3054379618515626e-14 0.0
-3.858 	2.0303170846991764e-13 	-2.8459854212541336e-14 	-5.2273744277587534e-15 -2.323247978478258e-14 0.0
-3.857 	2.045871797054484e-13 	-2.868055156515698e-14 	-5.268651436826804e-15 -2.3411900128330176e-14 0.0
-3.856 	2.0614679030292286e-13 	-2.8902970736274715e-14 	-5.310247576036259e-15 -2.3592723160238456e-14 0.0
-3.855 	2.0771034069246157e-13 	-2.9127031689082114e-14 	-5.3521653196547294e-15 -2.3774866369427384e-14 0.0
-3.854 	2.0929357180409097e-13 	-2.935281941019577e-14 	-5.3944071432187715e-15 -2.3958412266976993e-14 0.0
-3.853 	2.1088085500690882e-13 	-2.9580294984960186e-14 	-5.4369753876129174e-15 -2.414331959734727e-14 0.0
-3.852 	2.124878291746162e-13 	-2.980950228283591e-14 	-5.479872666757673e-15 -2.432962961607823e-14 0.0
-3.851 	2.140989680239564e-13 	-3.0040443647245264e-14 	-5.5231013240753895e-15 -2.4517342323169875e-14 0.0
-3.85 	2.1574533921916364e-13 	-3.027312169464663e-14 	-5.566663976024424e-15 -2.4706457718622207e-14 0.0
-3.849 	2.1739609032032125e-13 	-3.050762141800096e-14 	-5.610563104485702e-15 -2.489705831351526e-14 0.0
-3.848 	2.1901995952053937e-13 	-3.0743862789378167e-14 	-5.654801192609167e-15 -2.5089061596769e-14 0.0
-3.847 	2.2069460787513432e-13 	-3.0981848429117865e-14 	-5.6993808607344395e-15 -2.5282467568383425e-14 0.0
-3.846 	2.2238928543510336e-13 	-3.12217046575629e-14 	-5.744304662584302e-15 -2.5477399994978594e-14 0.0
-3.845 	2.240727306826389e-13 	-3.1463351586622574e-14 	-5.789575221148104e-15 -2.5673776365474472e-14 0.0
-3.844 	2.2577611350016234e-13 	-3.1706833028209496e-14 	-5.835195092798426e-15 -2.587163793541107e-14 0.0
-3.843 	2.2749943959649645e-13 	-3.195215174388364e-14 	-5.881167039095239e-15 -2.6070984704788397e-14 0.0
-3.842 	2.2921175420845867e-13 	-3.2199351480321465e-14 	-5.927493551174997e-15 -2.6271857929146468e-14 0.0
-3.841 	2.3094392062100087e-13 	-3.244835249069009e-14 	-5.97417739328485e-15 -2.6474175097405243e-14 0.0
-3.84 	2.3272731383400203e-13 	-3.269928130727483e-14 	-6.0212213310900506e-15 -2.6678059976184783e-14 0.0
-3.839 	2.344842836482904e-13 	-3.295214056123824e-14 	-6.06862799575315e-15 -2.688351256548509e-14 0.0
-3.838 	2.362612244851448e-13 	-3.32068505099273e-14 	-6.116400155701174e-15 -2.709045035422612e-14 0.0
-3.837 	2.38073980084908e-13 	-3.3463537621846775e-14 	-6.1645405128188356e-15 -2.7298997109027937e-14 0.0
-3.8360000000000003 	2.3986032932324093e-13 	-3.372216341268268e-14 	-6.213051838332163e-15 -2.750911157435052e-14 0.0
-3.835 	2.416823002407164e-13 	-3.3982689467499596e-14 	-6.261936972845748e-15 -2.7720752494653846e-14 0.0
-3.834 	2.4342365555579556e-13 	-3.412307614458702e-14 	-6.311198758419783e-15 -2.793404363655798e-14 1.2216625039074426e-16
-3.833 	2.452703464376055e-13 	-3.438736045335636e-14 	-6.360839843720066e-15 -2.814868686002704e-14 1.2216625039074426e-16
-3.8320000000000003 	2.472388281953409e-13 	-3.477605920254563e-14 	-6.4108632684928895e-15 -2.8365195934052743e-14 0.0
-3.831 	2.491110785242022e-13 	-3.504458585330412e-14 	-6.461271879164892e-15 -2.858331397413923e-14 0.0
-3.83 	2.509882248506377e-13 	-3.531515082740509e-14 	-6.512068591578561e-15 -2.880308223582653e-14 0.0
-3.829 	2.529012331184691e-13 	-3.558771578664392e-14 	-6.563256323069312e-15 -2.902445946357461e-14 0.0
-3.8280000000000003 	2.548193541334563e-13 	-3.586240741646887e-14 	-6.614837992465331e-15 -2.924756942400354e-14 0.0
-3.827 	2.5674228704591347e-13 	-3.613910493854133e-14 	-6.6668165880480784e-15 -2.947228835049325e-14 0.0
-3.826 	2.58701407319085e-13 	-3.64179351092929e-14 	-6.719195099629094e-15 -2.9698740009663807e-14 0.0
-3.825 	2.606500254113513e-13 	-3.669885966452534e-14 	-6.771976518550146e-15 -2.9926883145975193e-14 0.0
-3.8240000000000003 	2.626192099055766e-13 	-3.698188166507088e-14 	-6.825163905643484e-15 -3.01567177594274e-14 0.0
-3.823 	2.646246004620878e-13 	-3.726704536090888e-14 	-6.8787602553484215e-15 -3.038828510556046e-14 0.0
-3.822 	2.6663524364229794e-13 	-3.755439513946968e-14 	-6.9327686995553044e-15 -3.062162643991438e-14 0.0
-3.821 	2.686355123133348e-13 	-3.784389281074796e-14 	-6.987192303798807e-15 -3.085670050694915e-14 0.0
-3.8200000000000003 	2.7067200633920115e-13 	-3.813554150980622e-14 	-7.042034203141461e-15 -3.1093507306664763e-14 0.0
-3.819 	2.727294059017615e-13 	-3.8429426952352337e-14 	-7.09729760221107e-15 -3.1332129350141264e-14 0.0
-3.818 	2.747920838780962e-13 	-3.8725510953195264e-14 	-7.152985571356634e-15 -3.157252538183863e-14 0.0
-3.817 	2.768756803696778e-13 	-3.902383797571234e-14 	-7.209101318415454e-15 -3.1814736657296884e-14 0.0
-3.8160000000000003 	2.7896467088360245e-13 	-3.932441122938299e-14 	-7.265648052866973e-15 -3.205876317651602e-14 0.0
-3.815 	2.8107459332622403e-13 	-3.962723399328924e-14 	-7.322629053793194e-15 -3.2304604939496044e-14 0.0
-3.814 	2.831900255539041e-13 	-3.993235073577204e-14 	-7.380047533995068e-15 -3.2552303201776975e-14 0.0
-3.813 	2.8534193440564065e-13 	-4.023972355165527e-14 	-7.437906843836479e-15 -3.280181670781879e-14 0.0
-3.8120000000000003 	2.874995713018511e-13 	-4.054947942371879e-14 	-7.496210199477232e-15 -3.305326922424156e-14 0.0
-3.811 	2.8966263628879736e-13 	-4.0861498007025744e-14 	-7.554961022600538e-15 -3.330653698442521e-14 0.0
-3.81 	2.9186250558564383e-13 	-4.117590642367301e-14 	-7.614162668683207e-15 -3.3561743754989805e-14 0.0
-3.809 	2.940835525219579e-13 	-4.149266670735374e-14 	-7.673818426958406e-15 -3.3818848280395333e-14 0.0
-3.8080000000000003 	2.9631045787944866e-13 	-4.181186486394174e-14 	-7.733931792219919e-15 -3.407793307172182e-14 0.0
-3.807 	2.985119618057551e-13 	-4.2133421810981854e-14 	-7.794506193092613e-15 -3.433891561788924e-14 0.0
-3.806 	3.007812580179387e-13 	-4.2457340910892413e-14 	-7.855544991994832e-15 -3.460179591889758e-14 0.0
-3.805 	3.030566387508177e-13 	-4.2783790753850066e-14 	-7.917051756943131e-15 -3.4866738996906934e-14 0.0
-3.8040000000000003 	3.0533770187405126e-13 	-4.311260981957941e-14 	-7.979029989822196e-15 -3.513357982975721e-14 0.0
-3.803 	3.0765592625556727e-13 	-4.344396663391668e-14 	-8.041483194308183e-15 -3.540248343960849e-14 0.0
-3.802 	3.09964521214662e-13 	-4.377778225920976e-14 	-8.10441494382901e-15 -3.5673367315380747e-14 0.0
-3.801 	3.1231018986772647e-13 	-4.411410152625525e-14 	-8.167828813641273e-15 -3.594627271261398e-14 0.0
-3.8000000000000003 	3.1466197969650137e-13 	-4.4452969267678584e-14 	-8.23172838083036e-15 -3.622124088684823e-14 0.0
-3.799 	3.170353271657499e-13 	-4.479434794277464e-14 	-8.296117360231179e-15 -3.649823058254346e-14 0.0
-3.798 	3.1943044450319e-13 	-4.5138323711401255e-14 	-8.360999400621534e-15 -3.677732431077972e-14 0.0
-3.797 	3.2183170578551373e-13 	-4.5484858968662256e-14 	-8.42637815264527e-15 -3.7058480816016985e-14 0.0
-3.7960000000000003 	3.242702833016182e-13 	-4.583399869056793e-14 	-8.492257336772651e-15 -3.734174135379528e-14 0.0
-3.795 	3.2673075596127716e-13 	-4.6185787855031995e-14 	-8.558640675377372e-15 -3.762714717965462e-14 0.0
-3.794 	3.2916653836140877e-13 	-4.654023032225227e-14 	-8.625532028657266e-15 -3.791469829359501e-14 0.0
-3.793 	3.316395581715344e-13 	-4.689724737536415e-14 	-8.692935190827746e-15 -3.8204312184536405e-14 0.0
-3.7920000000000003 	3.3416576359603285e-13 	-4.725700776472329e-14 	-8.760853890084405e-15 -3.849615387463889e-14 0.0
-3.791 	3.366674047865773e-13 	-4.761947416876996e-14 	-8.829292060407519e-15 -3.8790182108362437e-14 0.0
-3.79 	3.3920651190769206e-13 	-4.7984609199999335e-14 	-8.898253569832297e-15 -3.908635563016704e-14 0.0
-3.789 	3.4176786885915573e-13 	-4.835254049504455e-14 	-8.967742288371807e-15 -3.938479820667274e-14 0.0
-3.7880000000000003 	3.4432021684564496e-13 	-4.87231894827771e-14 	-9.037762155977585e-15 -3.9685427326799516e-14 0.0
-3.787 	3.4692579100980823e-13 	-4.909660142866435e-14 	-9.108317182576978e-15 -3.9988284246087376e-14 0.0
-3.786 	3.495382109471331e-13 	-4.9472862855766217e-14 	-9.179411380149854e-15 -4.0293451475616364e-14 0.0
-3.785 	3.5217281139849826e-13 	-4.98518952670352e-14 	-9.251048762728757e-15 -4.060084650430644e-14 0.0
-3.7840000000000003 	3.548143765656492e-13 	-5.023382644517651e-14 	-9.323233346398845e-15 -4.0910593098777666e-14 0.0
-3.783 	3.574781391365345e-13 	-5.061853677762878e-14 	-9.395969285218799e-15 -4.122256749240998e-14 0.0
-3.782 	3.601800480598022e-13 	-5.100619537477751e-14 	-9.469260667414048e-15 -4.153693470736346e-14 0.0
-3.781 	3.6278782579468234e-13 	-5.1274557565467404e-14 	-9.543111583300079e-15 -4.185361223255807e-14 1.2216625039074426e-16
-3.7800000000000002 	3.6551889813850507e-13 	-5.166782683404101e-14 	-9.617526134313744e-15 -4.2172466950118005e-14 1.2216625039074426e-16
-3.779 	3.6835835384169133e-13 	-5.218639754021287e-14 	-9.692508677797943e-15 -4.249388886241493e-14 0.0
-3.778 	3.711349715329736e-13 	-5.258576704244109e-14 	-9.768063446408063e-15 -4.2817703596033025e-14 0.0
-3.777 	3.7391881911007803e-13 	-5.2988147081476396e-14 	-9.844194674964088e-15 -4.3143952406512307e-14 0.0
-3.7760000000000002 	3.767253342576702e-13 	-5.3393500706723876e-14 	-9.920906668411118e-15 -4.3472594038312756e-14 0.0
-3.775 	3.795547307049699e-13 	-5.380191480437085e-14 	-9.99820380185643e-15 -4.3803711002514416e-14 0.0
-3.774 	3.82406915018137e-13 	-5.421335242826339e-14 	-1.0076090384686132e-14 -4.413726204357726e-14 0.0
-3.773 	3.8528210093557263e-13 	-5.4627900469030216e-14 	-1.0154570796448881e-14 -4.4473329672581336e-14 0.0
-3.7720000000000002 	3.8816466418591334e-13 	-5.5045522120879385e-14 	-1.0233649486892767e-14 -4.481187263398662e-14 0.0
-3.771 	3.910857785703591e-13 	-5.546626309137559e-14 	-1.0313330908042455e-14 -4.5152932183333134e-14 0.0
-3.77 	3.940300246522481e-13 	-5.58901691583205e-14 	-1.039361958215961e-14 -4.549654957616089e-14 0.0
-3.769 	3.969818805168122e-13 	-5.6317244778329294e-14 	-1.0474519965859393e-14 -4.58427248124699e-14 0.0
-3.7680000000000002 	3.999568867903437e-13 	-5.6747494546214537e-14 	-1.0556036653954375e-14 -4.619145789226016e-14 0.0
-3.767 	4.0295515545919864e-13 	-5.718096438264033e-14 	-1.063817431156864e-14 -4.654279007107169e-14 0.0
-3.766 	4.0599222701897667e-13 	-5.76176588191986e-14 	-1.0720937470294116e-14 -4.6896721348904486e-14 0.0
-3.765 	4.090217224250954e-13 	-5.805766503679576e-14 	-1.0804330799957166e-14 -4.725333423683859e-14 0.0
-3.7640000000000002 	4.120744065643459e-13 	-5.850086394102687e-14 	-1.0888358972772917e-14 -4.761250496825395e-14 0.0
-3.763 	4.151972919934277e-13 	-5.894742529661606e-14 	-1.0973026731305428e-14 -4.797439856531063e-14 0.0
-3.762 	4.1829720175528266e-13 	-5.939735384855303e-14 	-1.105833882054439e-14 -4.8339015028008645e-14 0.0
-3.761 	4.214205345027363e-13 	-5.985057190113388e-14 	-1.114430005586593e-14 -4.870627184526795e-14 0.0
-3.7600000000000002 	4.245831383503286e-13 	-6.030720803881787e-14 	-1.123091525510927e-14 -4.90762927837086e-14 0.0
-3.759 	4.2776938993321433e-13 	-6.076722589432781e-14 	-1.1318189306537232e-14 -4.944903658779058e-14 0.0
-3.758 	4.309795040466004e-13 	-6.123071286950704e-14 	-1.1406127100913116e-14 -4.982458576859393e-14 0.0
-3.757 	4.341978571954883e-13 	-6.169763253411883e-14 	-1.1494733463540193e-14 -5.020289907057863e-14 0.0
-3.7560000000000002 	4.374556245197922e-13 	-6.216803124331141e-14 	-1.1584013494026704e-14 -5.05840177492847e-14 0.0
-3.755 	4.407218563731e-13 	-6.264195521892453e-14 	-1.1673972158672371e-14 -5.096798306025216e-14 0.0
-3.754 	4.440119919529972e-13 	-6.311936824221628e-14 	-1.176461449427529e-14 -5.135475374794099e-14 0.0
-3.753 	4.4735730875776704e-13 	-6.360035793160016e-14 	-1.1855945608168919e-14 -5.174441232343123e-14 0.0
-3.7520000000000002 	4.506957950420863e-13 	-6.408497058460174e-14 	-1.1947970542338832e-14 -5.21370000422629e-14 0.0
-3.751 	4.540583192263472e-13 	-6.457312893858284e-14 	-1.2040694545226888e-14 -5.2532434393355956e-14 0.0
-3.75 	4.57460730039825e-13 	-6.50649618753718e-14 	-1.213412273204133e-14 -5.293083914333047e-14 0.0
-3.749 	4.60871873745522e-13 	-6.556043339317001e-14 	-1.2228260356523598e-14 -5.3332173036646406e-14 0.0
-3.748 	4.643229258075382e-13 	-6.605959000394593e-14 	-1.2323112675102133e-14 -5.3736477328843797e-14 0.0
-3.747 	4.678139994401563e-13 	-6.656247822235534e-14 	-1.2418684946892693e-14 -5.414379327546266e-14 0.0
-3.746 	4.712986147611368e-13 	-6.706914470166162e-14 	-1.2514982569618612e-14 -5.455416213204301e-14 0.0
-3.745 	4.748076405051833e-13 	-6.757951233127015e-14 	-1.2612010943765337e-14 -5.496750138750481e-14 0.0
-3.744 	4.783724571247037e-13 	-6.809371028104786e-14 	-1.270977547257974e-14 -5.538393480846812e-14 0.0
-3.743 	4.819464824121872e-13 	-6.861174395700343e-14 	-1.2808281562070499e-14 -5.580346239493294e-14 0.0
-3.742 	4.85529727829872e-13 	-6.913361890382814e-14 	-1.290753475692886e-14 -5.6226084146899275e-14 0.0
-3.741 	4.891532669607419e-13 	-6.965934060108911e-14 	-1.3007540536721984e-14 -5.665180006436712e-14 0.0
-3.74 	4.928173161039738e-13 	-7.018899717815353e-14 	-1.3108304519737012e-14 -5.708069265841652e-14 0.0
-3.739 	4.964908246245154e-13 	-7.072259425618221e-14 	-1.3209832327134758e-14 -5.751276192904746e-14 0.0
-3.738 	5.001893352763131e-13 	-7.126013745920942e-14 	-1.331212958294948e-14 -5.794800787625995e-14 0.0
-3.737 	5.039440245703207e-13 	-7.180167380560422e-14 	-1.3415202050010197e-14 -5.838647175559402e-14 0.0
-3.736 	5.077085155870654e-13 	-7.234729150426361e-14 	-1.3519055426133916e-14 -5.88282360781297e-14 0.0
-3.735 	5.114826155670437e-13 	-7.289691381279567e-14 	-1.3623695480008722e-14 -5.927321833278695e-14 0.0
-3.734 	5.152976035223075e-13 	-7.345062908187755e-14 	-1.372912805123175e-14 -5.97215010306458e-14 0.0
-3.733 	5.191224294160284e-13 	-7.400844322205238e-14 	-1.3835359050346099e-14 -6.017308417170628e-14 0.0
-3.732 	5.229881675878814e-13 	-7.45703620789258e-14 	-1.394239432295744e-14 -6.062796775596837e-14 0.0
-3.731 	5.269105662218069e-13 	-7.513647414808988e-14 	-1.4050239853577784e-14 -6.10862342945121e-14 0.0
-3.73 	5.308431466549283e-13 	-7.570682667265709e-14 	-1.4158901629779585e-14 -6.154792504287751e-14 0.0