# Aki and Richards - double-couple solution eq.(4.32) and (4.33)
#
# homogeneous elastic medium: rho/vp/vs   = 2300.0 / 2800.0 / 1500.0
# receiver station          : x/y/z       = 6000.0 / 1000.0 / 2000.0
#                           : r/theta/phi = 6403.1242374328485 / 1.253133133812636 / 0.16514867741462683
#
# solution component        : cartesian Z / spherical PHI
#
# format:
#time 	#u_cartesian 	#u_spherical
-4.0 	6.446767691287523e-16 	2.940059945822124e-17 	4.082037252092484e-18 2.5318562206128757e-17 0.0
-3.999 	6.427671080680465e-16 	2.964465388923867e-17 	4.117455930563045e-18 2.5527197958675625e-17 0.0
-3.998 	6.657445908713781e-16 	2.990128545675187e-17 	4.153179054203092e-18 2.5748106402548777e-17 0.0
-3.997 	6.637363778813126e-16 	3.015822159616057e-17 	4.1892067497386415e-18 2.5969014846421932e-17 0.0
-3.996 	6.617253169695508e-16 	3.041546243419078e-17 	4.225539143895698e-18 2.6189923290295087e-17 0.0
-3.995 	6.722028314797085e-16 	3.067300809756852e-17 	4.262176363400278e-18 2.6410831734168242e-17 0.0
-3.994 	6.826309154521127e-16 	3.093701115288681e-17 	4.299134629182268e-18 2.663787652370454e-17 0.0
-3.993 	6.80564723355528e-16 	3.120131929404499e-17 	4.336397980804152e-18 2.6864921313240836e-17 0.0
-3.992 	6.784955281061357e-16 	3.1465948741972926e-17 	4.3739826391957925e-18 2.7091966102777133e-17 0.0
-3.991 	6.889147529817473e-16 	3.173089963043698e-17 	4.411888738123545e-18 2.7319010892313433e-17 0.0
-3.99 	6.992845423843223e-16 	3.2002308438866646e-17 	4.4501164113537714e-18 2.7552192027512872e-17 0.0
-3.989 	7.096513248832736e-16 	3.2274038955365113e-17 	4.488665792652797e-18 2.7785373162712314e-17 0.0
-3.988 	7.199685189812083e-16 	3.2552243753565747e-17 	4.527553109990852e-18 2.80246906435749e-17 0.0
-3.987 	7.177912790810879e-16 	3.283077053440822e-17 	4.5667624099707416e-18 2.826400812443748e-17 0.0
-3.986 	7.156108780332891e-16 	3.310963552586275e-17 	4.606309920562681e-18 2.8503325605300066e-17 0.0
-3.985 	7.259187390498209e-16 	3.3388838868736e-17 	4.646195782573348e-18 2.874264308616265e-17 0.0
-3.984 	7.361770064668375e-16 	3.3674517049497814e-17 	4.686420136809435e-18 2.898809691268838e-17 0.0
-3.983 	7.464321087879488e-16 	3.396053386329172e-17 	4.72698312407762e-18 2.92335507392141e-17 0.0
-3.982 	7.566375396636762e-16 	3.425303384368948e-17 	4.767892932286509e-18 2.9485140911402977e-17 0.0
-3.981 	7.543483030366432e-16 	3.45458807893548e-17 	4.809149705762954e-18 2.9736731083591845e-17 0.0
-3.98 	7.520557468722387e-16 	3.483908289171647e-17 	4.850761635935756e-18 2.998832125578071e-17 0.0
-3.979 	7.62251294316668e-16 	3.513264029862149e-17 	4.8927288706519024e-18 3.023991142796959e-17 0.0
-3.978 	7.723970896402814e-16 	3.543268950358003e-17 	4.935051557758429e-18 3.04976379458216e-17 0.0
-3.977 	7.825395612808856e-16 	3.5733094308775966e-17 	4.9777298451023496e-18 3.0755364463673613e-17 0.0
-3.976 	7.926322028231976e-16 	3.603999925482135e-17 	5.020771927632582e-18 3.101922732718877e-17 0.0
-3.975 	8.027214426721217e-16 	3.6347268147420284e-17 	5.064177956716363e-18 3.1283090190703924e-17 0.0
-3.974 	8.002693498513885e-16 	3.6661045530704994e-17 	5.107956130822767e-18 3.1553089399882227e-17 0.0
-3.973 	7.97860207080771e-16 	3.696905886823654e-17 	5.152106604839164e-18 3.181695226339738e-17 0.0
-3.972 	8.203840023293829e-16 	3.728358100622858e-17 	5.196629533652894e-18 3.208695147257568e-17 0.0
-3.971 	8.178750360372044e-16 	3.760461209956844e-17 	5.241525072151317e-18 3.2363087027417124e-17 0.0
-3.97 	8.154088650246565e-16 	3.791989570602104e-17 	5.286809469425619e-18 3.263308623659542e-17 0.0
-3.969 	8.253841278806826e-16 	3.8241696631738454e-17 	5.332474840301587e-18 3.290922179143687e-17 0.0
-3.968 	8.353558284162995e-16 	3.856387868946504e-17 	5.3785213431867316e-18 3.318535734627831e-17 0.0
-3.967 	8.577688094318849e-16 	3.8892594477475315e-17 	5.4249652306924125e-18 3.34676292467829e-17 0.0
-3.966 	8.676402203248813e-16 	3.922784416121712e-17 	5.471806668266495e-18 3.3756037492950626e-17 0.0
-3.9650000000000003 	8.525251400542194e-16 	3.956348351337326e-17 	5.519037774254905e-18 3.404444573911836e-17 0.0
-3.964 	8.624355446109991e-16 	3.989339244441211e-17 	5.56667480478917e-18 3.432671763962294e-17 0.0
-3.963 	8.847407184287886e-16 	4.023598016029116e-17 	5.6147179288373434e-18 3.4621262231453817e-17 0.0
-3.962 	8.820592459834152e-16 	4.0578974138652106e-17 	5.663167315367421e-18 3.491580682328469e-17 0.0
-3.9610000000000003 	8.793739747517575e-16 	4.092237454846296e-17 	5.7120231333474016e-18 3.521035141511556e-17 0.0
-3.96 	9.016676769969755e-16 	4.126618960579372e-17 	5.761293598847287e-18 3.550489600694643e-17 0.0
-3.959 	9.113732178832518e-16 	4.1622692174458805e-17 	5.8109788843552134e-18 3.581171329010359e-17 0.0
-3.958 	8.96138385515649e-16 	4.197348143705894e-17 	5.861087209461332e-18 3.611239422759761e-17 0.0
-3.9570000000000003 	9.183738710698083e-16 	4.23246939152656e-17 	5.911618750173974e-18 3.6413075165091625e-17 0.0
-3.956 	9.405124644632933e-16 	4.268861052351535e-17 	5.962581729603424e-18 3.6726028793911925e-17 0.0
-3.955 	9.25172750073226e-16 	4.305295875001043e-17 	6.013976327278207e-18 3.7038982422732225e-17 0.0
-3.954 	9.348582034679993e-16 	4.341161047571817e-17 	6.06581076982878e-18 3.7345799705889387e-17 0.0
-3.9530000000000003 	9.569381841632916e-16 	4.378296687357472e-17 	6.118077193201888e-18 3.766488968037283e-17 0.0
-3.952 	9.54031126108789e-16 	4.415477152598621e-17 	6.1707918711299295e-18 3.798397965485628e-17 0.0
-3.951 	9.636113763586627e-16 	4.452701657241954e-17 	6.223946943079816e-18 3.830306962933972e-17 0.0
-3.95 	9.731409284268077e-16 	4.4905854635790395e-17 	6.277558686304089e-18 3.862829594948631e-17 0.0
-3.9490000000000003 	9.826662855699269e-16 	4.528514151342275e-17 	6.331619243789849e-18 3.89535222696329e-17 0.0
-3.948 	9.92140941010815e-16 	4.567102178465053e-17 	6.386136849207897e-18 3.9284884935442633e-17 0.0
-3.947 	9.891198230506551e-16 	4.6057367341001506e-17 	6.4411197397491434e-18 3.961624760125236e-17 0.0
-3.946 	1.011077278677813e-15 	4.644417032898296e-17 	6.496560061920869e-18 3.994761026706209e-17 0.0
-3.9450000000000003 	1.0204460224645267e-15 	4.6843719724214094e-17 	6.55247410001598e-18 4.029124562419811e-17 0.0
-3.944 	1.0173653420273481e-15 	4.7237606686834775e-17 	6.608862051163786e-18 4.0628744635670986e-17 0.0
-3.943 	1.0392166494686523e-15 	4.763810410530069e-17 	6.665724112493683e-18 4.0972379992807006e-17 0.0
-3.942 	1.0360342448335965e-15 	4.804521217674117e-17 	6.723060481135003e-18 4.1322151695606164e-17 0.0
-3.9410000000000003 	1.0453851090758636e-15 	4.844667450116314e-17 	6.780887448420954e-18 4.1665787052742184e-17 0.0
-3.94 	1.0671299508280867e-15 	4.8860900319725736e-17 	6.839205218521251e-18 4.202169510120449e-17 0.0
-3.939 	1.0638873542370744e-15 	4.927561714527237e-17 	6.89801399560558e-18 4.237760314966679e-17 0.0
-3.938 	1.0606401664506866e-15 	4.96908251819727e-17 	6.957313983843606e-18 4.2733511198129095e-17 0.0
-3.9370000000000003 	1.0823710841893455e-15 	5.010654072820031e-17 	7.01712148160891e-18 4.30894192465914e-17 0.0
-3.936 	1.104004396783399e-15 	5.053503668649148e-17 	7.077436700111486e-18 4.345759998637999e-17 0.0
-3.935 	1.1006501128419351e-15 	5.096404057672997e-17 	7.138259850561387e-18 4.3825780726168586e-17 0.0
-3.934 	1.0972910794470096e-15 	5.139355261012579e-17 	7.199591144168623e-18 4.4193961465957173e-17 0.0
-3.9330000000000003 	1.1189099932532425e-15 	5.182358909209284e-17 	7.261446886347072e-18 4.456214220574577e-17 0.0
-3.932 	1.1404312187388943e-15 	5.226641488510581e-17 	7.323819248245177e-18 4.494259563686064e-17 0.0
-3.931 	1.136964689266434e-15 	5.2709765559670555e-17 	7.386716491695037e-18 4.5323049067975516e-17 0.0
-3.93 	1.1334931766383959e-15 	5.315364938113938e-17 	7.450146882048982e-18 4.5703502499090394e-17 0.0
-3.9290000000000003 	1.1549995278381294e-15 	5.359806657128275e-17 	7.514110641077479e-18 4.608395593020527e-17 0.0
-3.928 	1.176408032097276e-15 	5.405529004319753e-17 	7.578607990551096e-18 4.6476682052646433e-17 0.0
-3.927 	1.1728285474987824e-15 	5.4513063421531804e-17 	7.643655246444206e-18 4.68694081750876e-17 0.0
-3.926 	1.1817353454882795e-15 	5.497138693509643e-17 	7.709252637567665e-18 4.726213429752876e-17 0.0
-3.9250000000000003 	1.1905905695793748e-15 	5.5436397158365385e-17 	7.775400392732317e-18 4.766099676563307e-17 0.0
-3.924 	1.1994405722394123e-15 	5.590196602158838e-17 	7.842106787850996e-18 4.8059859233737376e-17 0.0
-3.923 	1.2082388462634648e-15 	5.637423814986145e-17 	7.909380102356622e-18 4.846485804750483e-17 0.0
-3.922 	1.2295233190085932e-15 	5.684706938627073e-17 	7.977212524998454e-18 4.8869856861272274e-17 0.0
-3.9210000000000003 	1.2507095537083813e-15 	5.733274874867742e-17 	8.045620382311408e-18 4.928712836636601e-17 0.0
-3.92 	1.246907558708703e-15 	5.781900378512657e-17 	8.114603913666823e-18 4.9704399871459746e-17 0.0
-3.919 	1.243100180828399e-15 	5.830583473498956e-17 	8.184163358436077e-18 5.012167137655348e-17 0.0
-3.918 	1.2642701164588731e-15 	5.879325793184158e-17 	8.254315050194364e-18 5.053894288164722e-17 0.0
-3.9170000000000003 	1.2853416546014539e-15 	5.929354631342067e-17 	8.325059235353424e-18 5.0968487078067243e-17 0.0
-3.916 	1.2814248035362111e-15 	5.979442743481212e-17 	8.396396160324852e-18 5.1398031274487263e-17 0.0
-3.915 	1.2899938345442664e-15 	6.029590154242777e-17 	8.468326071520471e-18 5.182757547090729e-17 0.0
-3.914 	1.2985107405472805e-15 	6.080412132254622e-17 	8.540865309555768e-18 5.2263256012990454e-17 0.0
-3.9130000000000003 	1.3070219489960034e-15 	6.131295068295639e-17 	8.61401412788277e-18 5.269893655507362e-17 0.0
-3.912 	1.3404638015442646e-15 	6.182853426987539e-17 	8.687780827055461e-18 5.314075344281993e-17 0.0
-3.911 	1.3363327433301188e-15 	6.235700868593854e-17 	8.762165664046012e-18 5.3594843021892523e-17 0.0
-3.91 	1.3322886896010054e-15 	6.287383685256738e-17 	8.83717694292855e-18 5.4036659909638833e-17 0.0
-3.9090000000000003 	1.37811161675578e-15 	6.340356441290687e-17 	8.912814924195439e-18 5.449074948871143e-17 0.0
-3.908 	1.373869975707592e-15 	6.394620772165323e-17 	8.989095962542909e-18 5.495711175911031e-17 0.0
-3.907 	1.3697151813469772e-15 	6.447722166368656e-17 	9.066020325503656e-18 5.5411201338182905e-17 0.0
-3.906 	1.4029357854789031e-15 	6.502115188919218e-17 	9.143588280610396e-18 5.587756360858178e-17 0.0
-3.9050000000000002 	1.4111210175683723e-15 	6.557187036714152e-17 	9.221808142497708e-18 5.635006222464381e-17 0.0
-3.904 	1.4193001539577925e-15 	6.612324102292434e-17 	9.30068018221851e-18 5.682256084070583e-17 0.0
-3.903 	1.4274266870803161e-15 	6.668140852035856e-17 	9.380212717927564e-18 5.7301195802431e-17 0.0
-3.902 	1.4355468937618445e-15 	6.724025288255795e-17 	9.460422118401787e-18 5.777983076415617e-17 0.0
-3.9010000000000002 	1.4436144167642604e-15 	6.780590268969706e-17 	9.541300618152578e-18 5.826460207154448e-17 0.0
-3.9 	1.4641669574086464e-15 	6.83722379684098e-17 	9.622864589477005e-18 5.874937337893279e-17 0.0
-3.899 	1.4846203040762139e-15 	6.895152364805409e-17 	9.705106270406687e-18 5.92464173776474e-17 0.0
-3.898 	1.4925757388186613e-15 	6.953150341312083e-17 	9.788042036758835e-18 5.974346137636199e-17 0.0
-3.8970000000000002 	1.500478253646433e-15 	7.011831389792693e-17 	9.871672177187186e-18 6.024664172073974e-17 0.0
-3.896 	1.5083742004675432e-15 	7.070582709256477e-17 	9.956005027447307e-18 6.074982206511747e-17 0.0
-3.895 	1.5162171467314465e-15 	7.130017963487149e-17 	1.0041040879713134e-17 6.125913875515835e-17 0.0
-3.894 	1.536544868841341e-15 	7.189524351845962e-17 	1.0126788073260391e-17 6.176845544519923e-17 0.0
-3.8930000000000002 	1.5567729294385745e-15 	7.25033078245534e-17 	1.0213262997987e-17 6.22900448265664e-17 0.0
-3.892 	1.5645027608048732e-15 	7.311210016456093e-17 	1.030046595662735e-17 6.281163420793358e-17 0.0
-3.891 	1.572179354819072e-15 	7.372775718687969e-17 	1.0388397251915799e-17 6.333935993496389e-17 0.0
-3.89 	1.5923405629993792e-15 	7.434414284858088e-17 	1.0477057186586673e-17 6.386708566199421e-17 0.0
-3.8890000000000002 	1.61240194792134e-15 	7.497354623792906e-17 	1.0566462157578257e-17 6.44070840803508e-17 0.0
-3.888 	1.6074734420590743e-15 	7.560370302047458e-17 	1.0656620521767175e-17 6.494708249870741e-17 0.0
-3.887 	1.6275207405966496e-15 	7.623461350951228e-17 	1.0747532592448271e-17 6.5487080917064e-17 0.0
-3.886 	1.6474680566965419e-15 	7.687855875676523e-17 	1.0839206730018335e-17 6.603935202674689e-17 0.0
-3.8850000000000002 	1.6424253227670641e-15 	7.752327443482414e-17 	1.093165129839437e-17 6.659162313642977e-17 0.0
-3.884 	1.6623582339264822e-15 	7.816876086402421e-17 	1.1024866617911556e-17 6.714389424611266e-17 0.0
-3.883 	1.6821910032714662e-15 	7.882729910312887e-17 	1.1118861056007037e-17 6.770843804712183e-17 0.0
-3.882 	1.6895249124588938e-15 	7.948663287887106e-17 	1.1213651030740048e-17 6.827298184813101e-17 0.0
-3.8810000000000002 	1.709296452846189e-15 	8.015289082070765e-17 	1.1309228825904328e-17 6.884366199480333e-17 0.0
-3.88 	1.7290140464179551e-15 	8.082608935021803e-17 	1.1405610863079258e-17 6.942047848713878e-17 0.0
-3.879 	1.7361862655204285e-15 	8.150622880181821e-17 	1.1502797476680825e-17 7.000343132513739e-17 0.0
-3.878 	1.743350886161981e-15 	8.218718121136271e-17 	1.1600797048226727e-17 7.058638416313599e-17 0.0
-3.8770000000000002 	1.762952824678713e-15 	8.287509130955271e-17 	1.1699617962754981e-17 7.117547334679773e-17 0.0
-3.876 	1.782500578137339e-15 	8.356996748494627e-17 	1.1799268608823657e-17 7.177069887612262e-17 0.0
-3.875 	1.78950271878539e-15 	8.427181008251986e-17 	1.189974933140921e-17 7.237206075111065e-17 0.0
-3.874 	1.8089884470606145e-15 	8.497449114868861e-17 	1.200106852258993e-17 7.297342262609868e-17 0.0
-3.873 	1.8283734003245555e-15 	8.569029177037723e-17 	1.210323457796422e-17 7.3587057192413e-17 0.0
-3.872 	1.8352589351845914e-15 	8.64069476553781e-17 	1.2206255896650782e-17 7.420069175872732e-17 0.0
-3.871 	1.8545813923403965e-15 	8.713060355199314e-17 	1.2310140881288355e-17 7.482046267070478e-17 0.0
-3.87 	1.8738493439078942e-15 	8.78612598192794e-17 	1.2414889890934027e-17 7.544636992834538e-17 0.0
-3.869 	1.8805712115755717e-15 	8.859893291049784e-17 	1.252051937884871e-17 7.607841353164913e-17 0.0
-3.868 	1.899776270797486e-15 	8.933748684608265e-17 	1.2627029711129768e-17 7.671045713495288e-17 0.0
-3.867 	1.9063888094563013e-15 	9.008919468345748e-17 	1.2734421253874566e-17 7.735477342958291e-17 0.0
-3.866 	1.913039387689927e-15 	9.083566384593413e-17 	1.2842710467384326e-17 7.79929533785498e-17 0.0
-3.865 	1.957062835708523e-15 	9.159531983784363e-17 	1.2951913819000653e-17 7.864340601884298e-17 0.0
-3.864 	1.9760021025319802e-15 	9.236815499226206e-17 	1.3062023641799614e-17 7.930613135046244e-17 0.0
-3.863 	1.9699498938517333e-15 	9.314191308872486e-17 	1.3173056406642956e-17 7.99688566820819e-17 0.0
-3.862 	1.988871904193813e-15 	9.391659451093035e-17 	1.3285012497228973e-17 8.063158201370137e-17 0.0
-3.861 	2.007692346062656e-15 	9.470448038100479e-17 	1.3397900344357669e-17 8.130658003664712e-17 0.0
-3.86 	2.0265040002647084e-15 	9.54933064419423e-17 	1.351172838234944e-17 8.198157805959287e-17 0.0
-3.859 	2.0452139282947703e-15 	9.629535382290965e-17 	1.3626505049044743e-17 8.266884877386491e-17 0.0
-3.858 	2.051423411151681e-15 	9.709836632104308e-17 	1.374224683290614e-17 8.335611948813694e-17 0.0
-3.857 	2.0700688643211082e-15 	9.79084806833048e-17 	1.3858954135232674e-17 8.404952654807212e-17 0.0
-3.856 	2.0886588595241533e-15 	9.872569731099388e-17 	1.3976627357323444e-17 8.474906995367044e-17 0.0
-3.855 	2.1071932425825646e-15 	9.955003269961315e-17 	1.409528299468124e-17 8.545474970493191e-17 0.0
-3.854 	2.125671934466006e-15 	1.0038149530460401e-16 	1.421492950274749e-17 8.616656580185652e-17 0.0
-3.853 	2.1440948561112356e-15 	1.0122009358492786e-16 	1.4335575340483593e-17 8.688451824444427e-17 0.0
-3.852 	2.1624619284221158e-15 	1.0206583600306638e-16 	1.445722897037122e-17 8.760860703269517e-17 0.0
-3.851 	2.1807731474833195e-15 	1.0291872297791952e-16 	1.4579890811310327e-17 8.83388321666092e-17 0.0
-3.85 	2.1865369344240037e-15 	1.037787710225909e-16 	1.470357737640451e-17 8.907519364618639e-17 0.0
-3.849 	2.2047824889251753e-15 	1.0463985226445954e-16 	1.4828297138695987e-17 8.981155512576356e-17 0.0
-3.848 	2.2354169473334317e-15 	1.0551423982431214e-16 	1.4954050527645113e-17 9.056018929666703e-17 0.0
-3.847 	2.2535037359708244e-15 	1.0639581388014985e-16 	1.5080854066916207e-17 9.131495981323365e-17 0.0
-3.846 	2.271534275285604e-15 	1.0728457486847331e-16 	1.5208708193009917e-17 9.207586667546339e-17 0.0
-3.845 	2.2895084107704993e-15 	1.0818053931998712e-16 	1.533762943663083e-17 9.284290988335629e-17 0.0
-3.844 	2.2949346385380707e-15 	1.0908371572533427e-16 	1.546762628842193e-17 9.361608943691234e-17 0.0
-3.843 	2.312842233285632e-15 	1.0998796818591282e-16 	1.559869919544445e-17 9.438926899046837e-17 0.0
-3.842 	2.3431381807678385e-15 	1.1090558593431413e-16 	1.5730864698963416e-17 9.517472123535071e-17 0.0
-3.841 	2.3608859822901412e-15 	1.1183044112607856e-16 	1.586413130018238e-17 9.596630982589618e-17 0.0
-3.84 	2.378576982889665e-15 	1.1276254226592973e-16 	1.5998507503824948e-17 9.676403476210479e-17 0.0
-3.839 	2.3962111030425428e-15 	1.1370189786211152e-16 	1.6134001818134974e-17 9.756789604397655e-17 0.0
-3.838 	2.4262796877200915e-15 	1.1464851642638777e-16 	1.6270622754876332e-17 9.837789367151144e-17 0.0
-3.837 	2.4437533784567866e-15 	1.1560854281970603e-16 	1.64083788293334e-17 9.920016399037263e-17 0.0
-3.8360000000000003 	2.4487249552694315e-15 	1.16569712869544e-16 	1.65472785603102e-17 1.0002243430923381e-16 0.0
-3.835 	2.478622182267118e-15 	1.175381714438896e-16 	1.668733047013146e-17 1.0085084097375814e-16 0.0
-3.834 	2.495924201143816e-15 	1.1852007146135234e-16 	1.6828551131743578e-17 1.0169152032960876e-16 0.0
-3.833 	2.5132152915265195e-15 	1.1950314071638914e-16 	1.6970941030929757e-17 1.0253219968545937e-16 0.0
-3.8320000000000003 	2.5428938633360453e-15 	1.204996684803131e-16 	1.711451674767682e-17 1.0338515173263628e-16 0.0
-3.831 	2.547532068201563e-15 	1.215035189002845e-16 	1.7259278774808184e-17 1.0424424012547632e-16 0.0
-3.83 	2.5771418790213928e-15 	1.2250857221766742e-16 	1.7405243699351055e-17 1.0510332851831636e-16 0.0
-3.829 	2.6066010021808056e-15 	1.2353325406351902e-16 	1.7552428115373195e-17 1.0598082594814584e-16 0.0
-3.8280000000000003 	2.6110658733448184e-15 	1.2455915590775373e-16 	1.7700832529778425e-17 1.0685832337797531e-16 0.0
-3.827 	2.6404556056407766e-15 	1.2559243069714268e-16 	1.785047354367474e-17 1.0774195715346793e-16 0.0
-3.826 	2.6697409153891468e-15 	1.2663921529129341e-16 	1.8001351671006582e-17 1.0863786362028684e-16 0.0
-3.825 	2.6864766526504196e-15 	1.2769338995269112e-16 	1.815348351992223e-17 1.0953990643276888e-16 0.0
-3.8240000000000003 	2.7031542370832008e-15 	1.287549552023204e-16 	1.8306869611406346e-17 1.1044808559091407e-16 0.0
-3.823 	2.719773438176857e-15 	1.2982393570247182e-16 	1.8461534607749423e-17 1.113624010947224e-16 0.0
-3.822 	2.748825675491288e-15 	1.3090033198469057e-16 	1.8617479040496684e-17 1.122828529441939e-16 0.0
-3.821 	2.7777729392831002e-15 	1.3199029702038896e-16 	1.87747195353973e-17 1.1321557748499165e-16 0.0
-3.8200000000000003 	2.794170154596189e-15 	1.330877030495913e-16 	1.8933264678138755e-17 1.1415443837145255e-16 0.0
-3.819 	2.8105086656780305e-15 	1.3419255866150524e-16 	1.909312305792863e-17 1.150994356035766e-16 0.0
-3.818 	2.8392798167431983e-15 	1.3530487244885858e-16 	1.925430326749478e-17 1.160505691813638e-16 0.0
-3.817 	2.867945597883791e-15 	1.3643079740066447e-16 	1.9416821950187195e-17 1.1701397545047727e-16 0.0
-3.8160000000000003 	2.884060933979195e-15 	1.3756420577454798e-16 	1.958068770929409e-17 1.179835180652539e-16 0.0
-3.815 	2.900117093898657e-15 	1.3870511422441962e-16 	1.9745917198725946e-17 1.1895919702569367e-16 0.0
-3.814 	2.9286054968730584e-15 	1.398535233170262e-16 	1.9912510985229644e-17 1.1994101233179656e-16 0.0
-3.813 	2.9694795573580717e-15 	1.4101558605898175e-16 	2.0080485729755983e-17 1.2093510032922577e-16 0.0
-3.8120000000000003 	2.9852649211927212e-15 	1.421913110711753e-16 	2.024985005319406e-17 1.2194146101798124e-16 0.0
-3.811 	3.001037141249198e-15 	1.4336844233379192e-16 	2.0420620627055183e-17 1.2294782170673674e-16 0.0
-3.81 	3.0291947769545024e-15 	1.4455925312250558e-16 	2.0592798035687095e-17 1.239664550868185e-16 0.0
-3.809 	3.0448012531830047e-15 	1.4575762377020476e-16 	2.076639895764134e-17 1.249912248125634e-16 0.0
-3.8080000000000003 	3.072839263035916e-15 	1.4696357096248133e-16 	2.0941440078509854e-17 1.2602213088397146e-16 0.0
-3.807 	3.1007708713584306e-15 	1.481832396905288e-16 	2.111793004382298e-17 1.270653096467058e-16 0.0
-3.806 	3.128642351916574e-15 	1.4941051030483644e-16 	2.129588554973316e-17 1.281146247551033e-16 0.0
-3.805 	3.1439158446705488e-15 	1.5065151976005636e-16 	2.1475307205229282e-17 1.2917621255482707e-16 0.0
-3.8040000000000003 	3.1716669021964332e-15 	1.5189401206805493e-16 	2.165621171350411e-17 1.3023780035455082e-16 0.0
-3.803 	3.211756078849904e-15 	1.531564129760548e-16 	2.183861578479077e-17 1.3131779719126403e-16 0.0
-3.802 	3.226801879648726e-15 	1.5442645846290105e-16 	2.202252808926067e-17 1.3240393037364037e-16 0.0
-3.801 	3.254278497106899e-15 	1.5570415720228546e-16 	2.2207957300605625e-17 1.3349619990167985e-16 0.0
-3.8000000000000003 	3.281647920559779e-15 	1.5699566226418493e-16 	2.2394920143139302e-17 1.3460074212104562e-16 0.0
-3.799 	3.296464998916289e-15 	1.582948540342903e-16 	2.258343334821577e-17 1.3571142068607453e-16 0.0
-3.798 	3.3237125752115532e-15 	1.5960173315679228e-16 	2.2773497560025705e-17 1.368282355967666e-16 0.0
-3.797 	3.3633440631774027e-15 	1.609224527157484e-16 	2.2965129516963466e-17 1.3795732319878494e-16 0.0
-3.7960000000000003 	3.4028678065577526e-15 	1.622570375036953e-16 	2.3158354011565723e-17 1.3909868349212958e-16 0.0
-3.795 	3.4173009501108755e-15 	1.6360548818242445e-16 	2.3353171705623967e-17 1.4025231647680048e-16 0.0
-3.794 	3.4317190459193234e-15 	1.6495554881660484e-16 	2.3549599355133426e-17 1.414059494614714e-16 0.0
-3.793 	3.4710120019348143e-15 	1.6631950081349637e-16 	2.374764567602777e-17 1.425718551374686e-16 0.0
-3.7920000000000003 	3.4977053878614007e-15 	1.676973609396549e-16 	2.3947327434862785e-17 1.4375003350479212e-16 0.0
-3.791 	3.5243369764830693e-15 	1.6908300157591133e-16 	2.4148653358132582e-17 1.4493434821777875e-16 0.0
-3.79 	3.5508601811697303e-15 	1.7048257584504522e-16 	2.4351640222953552e-17 1.4613093562209167e-16 0.0
-3.789 	3.5773212748648674e-15 	1.7188996418554993e-16 	2.4556304813482185e-17 1.4733365937206773e-16 0.0
-3.7880000000000003 	3.616165095334865e-15 	1.7331131973428557e-16 	2.47626639209155e-17 1.4854865581337006e-16 0.0
-3.787 	3.629917362415097e-15 	1.7474664319528553e-16 	2.497071824928681e-17 1.497759249459987e-16 0.0
-3.786 	3.65614505232137e-15 	1.7618367867546084e-16 	2.5180484596833494e-17 1.5100319407862735e-16 0.0
-3.785 	3.707200143049096e-15 	1.7764085201707852e-16 	2.539197976883311e-17 1.522488722482454e-16 0.0
-3.7840000000000003 	3.733163209166199e-15 	1.7911204368679342e-16 	2.560522057760366e-17 1.5350682310918976e-16 0.0
-3.783 	3.759063372343313e-15 	1.8059113415830054e-16 	2.58202238425033e-17 1.5477091031579725e-16 0.0
-3.782 	3.7723626961753546e-15 	1.8208426855655978e-16 	2.6036998342828752e-17 1.5604727021373103e-16 0.0
-3.781 	3.810628156582018e-15 	1.8357919102016371e-16 	2.6255560908498902e-17 1.573236301116648e-16 0.0
-3.7800000000000002 	3.848691103072373e-15 	1.85100455721622e-16 	2.6475920329370846e-17 1.5862453539225117e-16 0.0
-3.779 	3.874245672994444e-15 	1.8662353411876138e-16 	2.6698093445923832e-17 1.5992544067283754e-16 0.0
-3.778 	3.924626693004989e-15 	1.8816685209609082e-16 	2.6922097105677516e-17 1.612447549904133e-16 0.0
-3.777 	3.949914737277109e-15 	1.8972429016250722e-16 	2.714794816319184e-17 1.6257634199931537e-16 0.0
-3.7760000000000002 	3.962647502558528e-15 	1.9128972883394762e-16 	2.7375663480067038e-17 1.6391406535388058e-16 0.0
-3.775 	3.987807755453279e-15 	1.928631769319508e-16 	2.760525187784184e-17 1.6525792505410896e-16 0.0
-3.774 	4.03784033297101e-15 	1.9445078767434062e-16 	2.783673022867703e-17 1.666140574456636e-16 0.0
-3.773 	4.075224449156942e-15 	1.960587062388795e-16 	2.8070107364671835e-17 1.6798859887420765e-16 0.0
-3.7720000000000002 	4.1000527306392695e-15 	1.9767468486406424e-16 	2.8305408215649355e-17 1.6936927664841488e-16 0.0
-3.771 	4.124770014230226e-15 	1.9930487678883986e-16 	2.8542649674891465e-17 1.707622271139484e-16 0.0
-3.77 	4.1619140715293306e-15 	2.0094315452076334e-16 	2.8781840595618306e-17 1.7216131392514502e-16 0.0
-3.769 	4.211391884902345e-15 	2.0260180765500328e-16 	2.902299788167217e-17 1.735788097733311e-16 0.0
-3.7680000000000002 	4.235775452524023e-15 	2.042747167567792e-16 	2.9266138443935753e-17 1.7500857831284345e-16 0.0
-3.767 	4.260093895143746e-15 	2.0595576239835083e-16 	2.951127920033187e-17 1.7644448319801896e-16 0.0
-3.766 	4.296792049277626e-15 	2.076510978503447e-16 	2.975843707582394e-17 1.7789266077452075e-16 0.0
-3.765 	4.333378332139497e-15 	2.0936074004476424e-16 	3.000762900241541e-17 1.7935311104234884e-16 0.0
-3.7640000000000002 	4.369852660619186e-15 	2.1108469787355168e-16 	3.02588638720485e-17 1.8082583400150319e-16 0.0
-3.763 	4.4062148763599025e-15 	2.1282298827927112e-16 	3.0512158627287276e-17 1.8231082965198385e-16 0.0
-3.762 	4.4424647457253315e-15 	2.1457563625862888e-16 	3.076753826483809e-17 1.8380809799379078e-16 0.0
-3.761 	4.478602110194175e-15 	2.1634265877178994e-16 	3.102501974486594e-17 1.85317639026924e-16 0.0
-3.7600000000000002 	4.514626886393047e-15 	2.181240647388577e-16 	3.1284611987474175e-17 1.8683945275138351e-16 0.0
-3.759 	4.55053891570194e-15 	2.1991987113055752e-16 	3.1546331963388225e-17 1.883735391671693e-16 0.0
-3.758 	4.5738465396932426e-15 	2.2173010297175715e-16 	3.181020469747577e-17 1.8991989827428138e-16 0.0
-3.757 	4.60957887845829e-15 	2.235486409051198e-16 	3.2076247178063146e-17 1.9147239372705662e-16 0.0
-3.7560000000000002 	4.657642988721115e-15 	2.253877665702364e-16 	3.234446835341513e-17 1.9304329821682126e-16 0.0
-3.755 	4.6931022171482916e-15 	2.272413686674326e-16 	3.261489326952041e-17 1.946264753979122e-16 0.0
-3.754 	4.740939329027779e-15 	2.2910945615905364e-16 	3.2887530888724235e-17 1.9622192527032943e-16 0.0
-3.753 	4.77612481125518e-15 	2.3099819045083227e-16 	3.316240627109618e-17 1.978357841797361e-16 0.0
-3.7520000000000002 	4.798751364356328e-15 	2.328953158749699e-16 	3.343953644016405e-17 1.9945577943480587e-16 0.0
-3.751 	4.833755248388368e-15 	2.348069858076982e-16 	3.3718938426496225e-17 2.0108804738120197e-16 0.0
-3.75 	4.881136228892439e-15 	2.3673322533372767e-16 	3.400063731480334e-17 2.0273258801892433e-16 0.0
-3.749 	4.9283562921769265e-15 	2.3868018784689057e-16 	3.428465015325445e-17 2.0439553769363613e-16 0.0
-3.748 	4.962970359337496e-15 	2.4064174600963125e-16 	3.457098594995704e-17 2.0607076005967422e-16 0.0
-3.747 	4.9974696202459585e-15 	2.4261792492778143e-16 	3.4859669810742826e-17 2.077582551170386e-16 0.0
-3.746 	5.044345339889144e-15 	2.4460874167063106e-16 	3.5150718804901806e-17 2.0945802286572927e-16 0.0
-3.745 	5.0785680797841325e-15 	2.466203496601739e-16 	3.544415000876452e-17 2.1117619965140935e-16 0.0
-3.744 	5.112721889211794e-15 	2.4864050133555625e-16 	3.573998855280363e-17 2.129005127827526e-16 0.0
-3.743 	5.171696673031073e-15 	2.506814784349339e-16 	3.6038243483848633e-17 2.1464323495108526e-16 0.0
-3.742 	5.205526422897724e-15 	2.527433141499621e-16 	3.6338947993554733e-17 2.1640436615640735e-16 0.0
-3.741 	5.239286762784918e-15 	2.548137448537449e-16 	3.664211114635234e-17 2.1817163370739257e-16 0.0
-3.74 	5.28537602239867e-15 	2.5690506839976264e-16 	3.694775810439541e-17 2.1995731029536724e-16 0.0
-3.739 	5.331349046962893e-15 	2.5901116556796514e-16 	3.7255905993296943e-17 2.2175525957466818e-16 0.0
-3.738 	5.377159246524405e-15 	2.6113818983666864e-16 	3.756657194571006e-17 2.235716178909586e-16 0.0
-3.737 	5.410361390961795e-15 	2.632800300470053e-16 	3.787978114843011e-17 2.2540024889857523e-16 0.0
-3.736 	5.443446744505145e-15 	2.654367033492293e-16 	3.819555075171112e-17 2.272411525975182e-16 0.0
-3.735 	5.501397845419379e-15 	2.676082429948387e-16 	3.851391400705125e-17 2.2909432898778743e-16 0.0
-3.734 	5.546647550412896e-15 	2.6980692275233087e-16 	3.883487199162164e-17 2.3097205076070923e-16 0.0
-3.733 	5.579334838021904e-15 	2.720143668502954e-16 	3.9158457971001186e-17 2.328559088792942e-16 0.0
-3.732 	5.63684096156426e-15 	2.7424286516551403e-16 	3.948468913064547e-17 2.347581760348686e-16 0.0
-3.731 	5.669199987021089e-15 	2.7649244293758473e-16 	3.981359071015228e-17 2.3667885222743243e-16 0.0
-3.73 	5.7139788868244815e-15 	2.7875084467823773e-16 	4.0145179912578405e-17 2.3860566476565934e-16 0.0
-3.729 	5.7710381354443254e-15 	2.810365046816611e-16 	4.047948199512223e-17 2.405570226865389e-16 0.0
-3.728 	5.815487582507787e-15 	2.8333716747718605e-16 	4.081651417844134e-17 2.425206532987447e-16 0.0
-3.727 	5.859772061701419e-15 	2.856589866381734e-16 	4.1156293690233416e-17 2.4450269294793996e-16 0.0
-3.726 	5.903937691329824e-15 	2.879958591479017e-16 	4.149885385944021e-17 2.464970052884615e-16 0.0
-3.725 	5.947937880354061e-15 	2.903539386008527e-16 	4.184421193488026e-17 2.4850972666597244e-16 0.0
-3.724 	6.00431032183684e-15 	2.927271059072225e-16 	4.219238517241276e-17 2.505347207348097e-16 0.0
-3.723 	6.0479789953043215e-15 	2.9512766711544027e-16 	4.254340692914073e-17 2.5258426018629954e-16 0.0
-3.722 	6.091574453261178e-15 	2.9753723046549677e-16 	4.28972944820443e-17 2.5463993598345247e-16 0.0
-3.721 	6.134957244700075e-15 	2.999742222784018e-16 	4.3254065115143803e-17 2.5672015716325804e-16 0.0