  -9.37500000        -1.06881561E-30
  -9.26500034        -7.85494477E-31
  -9.15499973        -3.26161079E-31
  -9.04500008         1.41180621E-31
  -8.93500042         4.56921989E-31
  -8.82499981         5.29276723E-31
  -8.71500015         3.62111623E-31
  -8.60499954         4.63270582E-32
  -8.49499989        -2.77852117E-31
  -8.38500023        -4.74681640E-31
  -8.27499962         1.69870292E-32
  -8.16499996        -1.80506806E-29
  -8.05500031         3.20394576E-28
  -7.94500017        -3.80314542E-27
  -7.83500004         3.37042208E-26
  -7.72499990        -2.37883841E-25
  -7.61499977         1.38618402E-24
  -7.50500011        -6.80257478E-24
  -7.39499998         2.84453871E-23
  -7.28499985        -1.02190133E-22
  -7.17500019         3.17515429E-22
  -7.06500006        -8.57404007E-22
  -6.95499992         2.01442410E-21
  -6.84499979        -4.09390830E-21
  -6.73500013         7.06700060E-21
  -6.62500000        -9.89669662E-21
  -6.51499987         9.73176941E-21
  -6.40500021        -1.58467267E-21
  -6.29500008        -2.04727848E-20
  -6.18499994         5.92742699E-20
  -6.07499981        -1.07159258E-19
  -5.96500015         1.38259608E-19
  -5.85500002        -1.08331774E-19
  -5.74499989        -2.88736569E-20
  -5.63500023         2.84368435E-19
  -5.52500010        -5.88212735E-19
  -5.41499996         7.77000373E-19
  -5.30499983        -6.47523911E-19
  -5.19500017         5.13953099E-20
  -5.08500004         9.84013230E-19
  -4.97499990        -2.12480428E-18
  -4.86499977         2.77040551E-18
  -4.75500011        -2.30506182E-18
  -4.64499998         3.53624908E-19
  -4.53499985         2.72608352E-18
  -4.42500019        -5.53251233E-18
  -4.31500006         6.71113469E-18
  -4.20499992        -5.63437342E-18
  -4.09499979         1.76498484E-18
  -3.98499990         4.02177861E-18
  -3.87500000        -9.84350967E-18
  -3.76500010         1.47211828E-17
  -3.65499997        -1.43808476E-17
  -3.54500008         6.06798976E-18
  -3.43499994         4.46281311E-18
  -3.32500005        -1.60706784E-17
  -3.21499991         2.54560036E-17
  -3.10500002        -2.43131196E-17
  -2.99499989         1.99333339E-17
  -2.88499999        -4.39642980E-18
  -2.77500010        -2.16382425E-17
  -2.66499996         3.13276492E-17
  -2.55500007        -4.60176060E-17
  -2.44499993         4.36440972E-17
  -2.33500004        -1.60238699E-17
  -2.22499990         1.50858437E-17
  -2.11500001         4.15213632E-17
  -2.00500011        -7.51473469E-17
  -1.89499998         6.59255272E-17
  -1.78499997        -1.24894015E-16
  -1.67499995         1.39130919E-17
  -1.56500006         2.22377631E-17
  -1.45500004        -5.25387174E-17
  -1.34500003         2.44539074E-16
  -1.23500001        -6.07556947E-17
  -1.12500000         2.27816393E-16
  -1.01499999        -9.12102945E-17
 -0.904999971        -2.87283030E-16
 -0.795000017        -3.93688539E-17
 -0.685000002        -6.84950811E-16
 -0.574999988         1.66767420E-16
 -0.465000004        -1.47215153E-17
 -0.354999989         4.34907717E-16
 -0.245000005         1.26714392E-15
 -0.135000005         2.81498695E-16
  -2.50000004E-02     1.07830735E-15
   8.50000009E-02    -6.03125151E-16
  0.194999993        -1.22326963E-15
  0.305000007        -1.27387731E-15
  0.414999992        -2.67094857E-15
  0.524999976         2.22489800E-16
  0.634999990         7.48609519E-16
  0.745000005         4.23663222E-15
  0.855000019         7.63929952E-15
  0.964999974         7.18406590E-15
   1.07500005         9.08959526E-15
   1.18499994         2.88437546E-15
   1.29499996        -3.51598802E-15
   1.40499997        -1.34188408E-14
   1.51499999        -2.90046646E-14
   1.62500000        -4.01922690E-14
   1.73500001        -5.81028552E-14
   1.84500003        -7.23036065E-14
   1.95500004        -8.90789043E-14
   2.06500006        -1.13296633E-13
   2.17499995        -1.39064663E-13
   2.28500009        -1.84062550E-13
   2.39499998        -2.39647332E-13
   2.50500011        -3.17725176E-13
   2.61500001        -4.24036538E-13
   2.72499990        -5.52130986E-13
   2.83500004        -7.23824917E-13
   2.94499993        -9.33610828E-13
   3.05500007        -1.19745088E-12
   3.16499996        -1.53179617E-12
   3.27500010        -1.94342350E-12
   3.38499999        -2.46205422E-12
   3.49499989        -3.10000159E-12
   3.60500002        -3.88800927E-12
   3.71499991        -4.85044210E-12
   3.82500005        -6.01442290E-12
   3.93499994        -7.42804776E-12
   4.04500008        -9.11674729E-12
   4.15500021        -1.11297247E-11
   4.26499987        -1.35224236E-11
   4.37500000        -1.63353706E-11
   4.48500013        -1.96306478E-11
   4.59499979        -2.34725538E-11
   4.70499992        -2.79079902E-11
   4.81500006        -3.29968379E-11
   4.92500019        -3.88068709E-11
   5.03499985        -4.53771569E-11
   5.14499998        -5.27437087E-11
   5.25500011        -6.09492734E-11
   5.36499977        -7.00174155E-11
   5.47499990        -7.99324912E-11
   5.58500004        -9.06912254E-11
   5.69500017        -1.02261553E-10
   5.80499983        -1.14525056E-10
   5.91499996        -1.27407362E-10
   6.02500010        -1.40767384E-10
   6.13500023        -1.54364369E-10
   6.24499989        -1.67991537E-10
   6.35500002        -1.81379189E-10
   6.46500015        -1.94185848E-10
   6.57499981        -2.06029471E-10
   6.68499994        -2.16535193E-10
   6.79500008        -2.25231958E-10
   6.90500021        -2.31598365E-10
   7.01499987        -2.35224396E-10
   7.12500000        -2.35540393E-10
   7.23500013        -2.31993494E-10
   7.34499979        -2.24180619E-10
   7.45499992        -2.11623122E-10
   7.56500006        -1.93895761E-10
   7.67500019        -1.70687908E-10
   7.78499985        -1.41810466E-10
   7.89499998        -1.07069034E-10
   8.00500011        -6.64997987E-11
   8.11499977        -2.03552591E-11
   8.22500038         3.12264867E-11
   8.33500004         8.77090206E-11
   8.44499969         1.48349930E-10
   8.55500031         2.12441134E-10
   8.66499996         2.79005569E-10
   8.77499962         3.46896872E-10
   8.88500023         4.14822343E-10
   8.99499989         4.81518936E-10
   9.10499954         5.45456014E-10
   9.21500015         6.05122452E-10
   9.32499981         6.59252042E-10
   9.43500042         7.06175562E-10
   9.54500008         7.44532436E-10
   9.65499973         7.73239861E-10
   9.76500034         7.91123111E-10
   9.87500000         7.97318267E-10
   9.98499966         7.91155641E-10
   10.0950003         7.72363673E-10
   10.2049999         7.40764172E-10
   10.3149996         6.96596780E-10
   10.4250002         6.40553555E-10
   10.5349998         5.73167180E-10
   10.6450005         4.95677777E-10
   10.7550001         4.09559719E-10
   10.8649998         3.16223187E-10
   10.9750004         2.17510412E-10
   11.0850000         1.15276635E-10
   11.1949997         1.15817876E-11
   11.3050003        -9.16050222E-11
   11.4150000        -1.92283897E-10
   11.5249996        -2.88448793E-10
   11.6350002        -3.78528903E-10
   11.7449999        -4.60730454E-10
   11.8549995        -5.33609767E-10
   11.9650002        -5.96192207E-10
   12.0749998        -6.47491671E-10
   12.1850004        -6.86959323E-10
   12.2950001        -7.14256654E-10
   12.4049997        -7.29376448E-10
   12.5150003        -7.32636840E-10
   12.6250000        -7.24506788E-10
   12.7349997        -7.05843051E-10
   12.8450003        -6.77505219E-10
   12.9549999        -6.40585252E-10
   13.0649996        -5.96473426E-10
   13.1750002        -5.46410361E-10
   13.2849998        -4.91754082E-10
   13.3950005        -4.33893477E-10
   13.5050001        -3.74144798E-10
   13.6149998        -3.13853304E-10
   13.7250004        -2.54135379E-10
   13.8350000        -1.96064651E-10
   13.9449997        -1.40597381E-10
   14.0550003        -8.84527798E-11
   14.1650000        -4.03699088E-11
   14.2749996         3.23331965E-12
   14.3850002         4.20684321E-11
   14.4949999         7.58574870E-11
   14.6049995         1.04615136E-10
   14.7150002         1.28342587E-10
   14.8249998         1.47251086E-10
   14.9350004         1.61600941E-10
   15.0450001         1.71630030E-10
   15.1549997         1.77821452E-10
   15.2650003         1.80499296E-10
   15.3750000         1.80123125E-10
   15.4849997         1.77154624E-10
   15.5950003         1.71955797E-10
   15.7049999         1.65035083E-10
   15.8149996         1.56695948E-10
   15.9250002         1.47355933E-10
   16.0349998         1.37348383E-10
   16.1450005         1.26903849E-10
   16.2549992         1.16367430E-10
   16.3649998         1.05864560E-10
   16.4750004         9.56248275E-11
   16.5849991         8.57845392E-11
   16.6949997         7.64318192E-11
   16.8050003         6.76825956E-11
   16.9150009         5.95153024E-11
   17.0249996         5.20623440E-11
   17.1350002         4.52467022E-11
   17.2450008         3.90766690E-11
   17.3549995         3.36031897E-11
   17.4650002         2.86818260E-11
   17.5750008         2.43781714E-11
   17.6849995         2.06016263E-11
   17.7950001         1.73238975E-11
   17.9050007         1.44865968E-11
   18.0149994         1.20091419E-11
   18.1250000         9.97960308E-12
   18.2350006         8.18614967E-12
   18.3449993         6.69273447E-12
   18.4549999         5.48572255E-12
   18.5650005         4.38944020E-12
   18.6749992         3.55480315E-12
   18.7849998         2.85100893E-12
   18.8950005         2.26620025E-12
   19.0049992         1.78149834E-12
   19.1149998         1.35242230E-12
   19.2250004         1.09994934E-12
   19.3349991         8.18060897E-13
   19.4449997         6.00515460E-13
   19.5550003         4.64834388E-13
   19.6650009         2.80175216E-13
   19.7749996         2.14765543E-13
   19.8850002         1.20791953E-13
   19.9950008         3.32885846E-14
   20.1049995        -3.83935429E-15
   20.2150002        -9.29774514E-14
   20.3250008        -8.46461166E-14
   20.4349995        -1.19420139E-13
   20.5450001        -1.77971123E-13
   20.6550007        -1.73119115E-13
   20.7649994        -2.15680148E-13
   20.8750000        -2.01604331E-13
   20.9850006        -2.15822707E-13
   21.0949993        -2.29662399E-13
   21.2049999        -2.01840389E-13
   21.3150005        -2.51613400E-13
   21.4249992        -2.02631870E-13
   21.5349998        -1.64752841E-13
   21.6450005        -1.98630405E-13
   21.7549992        -1.38468569E-13
   21.8649998        -1.16824275E-13
   21.9750004        -9.05732669E-14
   22.0849991        -3.45250019E-14
   22.1949997         9.04075619E-15
   22.3050003         6.05290693E-14
   22.4150009         6.88450965E-14
   22.5249996         1.61522637E-13
   22.6350002         2.37839560E-13
   22.7450008         2.41495409E-13
   22.8549995         3.36504940E-13
   22.9650002         3.85715955E-13
   23.0750008         4.16748558E-13
   23.1849995         5.02518329E-13
   23.2950001         5.48477496E-13
   23.4050007         5.77783318E-13
   23.5149994         6.06282656E-13
   23.6250000         6.63881493E-13
   23.7350006         6.95647153E-13
   23.8449993         6.90335972E-13
   23.9549999         7.24803572E-13
   24.0650005         7.28409195E-13
   24.1749992         7.09237194E-13
   24.2849998         7.12035845E-13
   24.3950005         6.92085170E-13
   24.5049992         6.58377324E-13
   24.6149998         6.28143262E-13
   24.7250004         5.83330693E-13
   24.8349991         5.37738636E-13
   24.9449997         4.87675763E-13
   25.0550003         4.15855338E-13
   25.1650009         3.60445018E-13
   25.2749996         2.91437610E-13
   25.3850002         2.04003671E-13
   25.4950008         1.39314450E-13
   25.6049995         7.40276438E-14
   25.7150002         5.58957338E-15
   25.8250008        -8.86325586E-14
   25.9349995        -1.54508622E-13
   26.0450001        -1.98034609E-13
   26.1550007        -2.86601201E-13
   26.2649994        -3.30902704E-13
   26.3750000        -3.76480883E-13
   26.4850006        -4.45746684E-13
   26.5949993        -4.76279227E-13
   26.7049999        -5.02126173E-13
   26.8150005        -5.18692294E-13
   26.9249992        -5.58391549E-13
   27.0349998        -5.69384492E-13
   27.1450005        -5.47674048E-13
   27.2549992        -5.64751533E-13
   27.3649998        -5.47457695E-13
   27.4750004        -5.21949454E-13
   27.5849991        -5.04664669E-13
   27.6949997        -4.77441762E-13
   27.8050003        -4.49556625E-13
   27.9150009        -3.91047383E-13
   28.0249996        -3.59441562E-13
   28.1350002        -3.24917014E-13
   28.2450008        -2.63506692E-13
   28.3549995        -2.23329588E-13
   28.4650002        -1.77828320E-13
   28.5750008        -1.36403611E-13
   28.6849995        -8.80861614E-14
   28.7950001        -5.21345865E-14
   28.9050007        -3.05195593E-14
   29.0149994         1.72584776E-14
   29.1250000         3.06008372E-14
   29.2350006         3.37570683E-14
   29.3449993         5.64667501E-14
   29.4549999         5.72407247E-14
   29.5650005         4.56235798E-14
   29.6749992         2.25092924E-14
   29.7849998         1.52212278E-14
   29.8950005        -2.90434172E-15
   30.0049992        -5.16594417E-14
   30.1149998        -7.88699753E-14
   30.2250004        -1.20857371E-13
   30.3349991        -1.60931883E-13
   30.4449997        -1.89206032E-13
   30.5550003        -2.45170529E-13
   30.6650009        -2.78712546E-13
   30.7749996        -3.09445801E-13
   30.8850002        -3.39194493E-13
   30.9950008        -3.54115581E-13
   31.1049995        -3.82406021E-13
   31.2150002        -3.84769338E-13
   31.3250008        -3.89230206E-13
   31.4349995        -3.83080828E-13
   31.5450001        -3.54448865E-13
   31.6550007        -3.47278575E-13
   31.7649994        -3.05862242E-13
   31.8750000        -2.70551295E-13
   31.9850006        -2.42258579E-13
   32.0950012        -1.76620139E-13
   32.2050018        -1.32898900E-13
   32.3149986        -7.72969132E-14
   32.4249992        -1.79580150E-14
   32.5349998         2.84962585E-14
   32.6450005         8.62929994E-14
   32.7550011         1.37574725E-13
   32.8650017         2.02146703E-13
   32.9749985         2.36906550E-13
   33.0849991         2.63400060E-13
   33.1949997         3.21415447E-13
   33.3050003         3.45153756E-13
   33.4150009         3.67379114E-13
   33.5250015         3.94336040E-13
   33.6349983         3.93543786E-13
   33.7449989         3.99130327E-13
   33.8549995         4.10620756E-13
   33.9650002         4.08873564E-13
   34.0750008         3.83835596E-13
   34.1850014         3.62025595E-13
   34.2949982         3.55315549E-13
   34.4049988         3.29161936E-13
   34.5149994         2.94161153E-13
   34.6250000         2.67007363E-13
   34.7350006         2.34009752E-13
   34.8450012         1.96103062E-13
   34.9550018         1.59794039E-13
   35.0649986         1.28997426E-13
   35.1749992         9.96357470E-14
   35.2849998         5.37704816E-14
   35.3950005         1.73590509E-14
   35.5050011         7.53752512E-15
   35.6150017        -2.54527505E-14
   35.7249985        -6.23988979E-14
   35.8349991        -6.24481478E-14
   35.9449997        -7.39127048E-14
   36.0550003        -1.06575922E-13
   36.1650009        -1.08435972E-13
   36.2750015        -9.01622052E-14
   36.3849983        -1.04669935E-13
   36.4949989        -1.17103579E-13
   36.6049995        -8.58539991E-14
   36.7150002        -7.56543740E-14
   36.8250008        -8.68758190E-14
   36.9350014        -6.00917767E-14
   37.0449982        -3.84996193E-14
   37.1549988        -4.28187657E-14
   37.2649994        -2.88662289E-14
   37.3750000        -4.29036587E-15
   37.4850006         3.75385817E-15
   37.5950012         5.88130233E-16
   37.7050018         1.53436749E-14
   37.8149986         3.34866107E-14
   37.9249992         2.64206432E-14
   38.0349998         2.58704767E-14
   38.1450005         3.62037704E-14
   38.2550011         3.87072779E-14
   38.3650017         3.13063038E-14
   38.4749985         2.73490862E-14
   38.5849991         4.23008965E-14
   38.6949997         3.74053104E-14
   38.8050003         2.39865009E-14
   38.9150009         3.85169835E-14
   39.0250015         4.35506056E-14
   39.1349983         3.09614462E-14
   39.2449989         3.48844963E-14
   39.3549995         5.62271279E-14
   39.4650002         5.41556241E-14
   39.5750008         4.60380974E-14
   39.6850014         6.80076926E-14
   39.7949982         7.93630501E-14
   39.9049988         7.43084861E-14
   40.0149994         8.22359013E-14
   40.1250000         1.00936918E-13
   40.2350006         1.03814377E-13
   40.3450012         1.01302281E-13
   40.4550018         1.21004267E-13
   40.5649986         1.28383008E-13
   40.6749992         1.27008416E-13
   40.7849998         1.35382740E-13
   40.8950005         1.46484401E-13
   41.0050011         1.53686336E-13
   41.1150017         1.46804633E-13
   41.2249985         1.61498866E-13
   41.3349991         1.76804860E-13
   41.4449997         1.70032025E-13
   41.5550003         1.75311398E-13
   41.6650009         1.84412313E-13
   41.7750015         1.91848206E-13
   41.8849983         1.87390102E-13
   41.9949989         1.90742970E-13
   42.1049995         2.02297678E-13
   42.2150002         1.88062795E-13
   42.3250008         1.85328518E-13
   42.4350014         1.89560783E-13
   42.5449982         1.76621006E-13
   42.6549988         1.59255408E-13
   42.7649994         1.45984177E-13
   42.8750000         1.35390505E-13
   42.9850006         1.06655441E-13
   43.0950012         7.84936894E-14
   43.2050018         5.52656946E-14
   43.3149986         2.15998077E-14
   43.4249992        -1.43162324E-14
   43.5349998        -5.13637560E-14
   43.6450005        -8.65421152E-14
   43.7550011        -1.28823940E-13
   43.8650017        -1.69963585E-13
   43.9749985        -2.07450146E-13
   44.0849991        -2.47210591E-13
   44.1949997        -2.83917367E-13
   44.3050003        -3.23474320E-13
   44.4150009        -3.53085399E-13
   44.5250015        -3.84818913E-13
   44.6349983        -4.15062543E-13
   44.7449989        -4.29910746E-13
   44.8549995        -4.52244118E-13
   44.9650002        -4.69006019E-13
   45.0750008        -4.76968237E-13
   45.1850014        -4.79075818E-13
   45.2949982        -4.79093599E-13
   45.4049988        -4.80591641E-13
   45.5149994        -4.65775151E-13
   45.6250000        -4.54671050E-13
   45.7350006        -4.40940253E-13
   45.8450012        -4.15527882E-13
   45.9550018        -3.96509350E-13
   46.0649986        -3.70988044E-13
   46.1749992        -3.41701981E-13
   46.2849998        -3.12480781E-13
   46.3950005        -2.79659840E-13
   46.5050011        -2.44959326E-13
   46.6150017        -2.10607641E-13
   46.7249985        -1.79375124E-13
   46.8349991        -1.42234992E-13
   46.9449997        -1.04780734E-13
   47.0550003        -7.27398149E-14
   47.1650009        -3.94020516E-14
   47.2750015        -5.83762063E-15
   47.3849983         2.34560787E-14
   47.4949989         5.51461647E-14
   47.6049995         8.59882776E-14
   47.7150002         1.05965306E-13
   47.8250008         1.29879560E-13
   47.9350014         1.53750425E-13
   48.0449982         1.72493042E-13
   48.1549988         1.89579404E-13
   48.2649994         1.99933454E-13
   48.3750000         2.10613401E-13
   48.4850006         2.15809372E-13
   48.5950012         2.21877258E-13
   48.7050018         2.22888683E-13
   48.8149986         2.16847035E-13
   48.9249992         2.17850653E-13
   49.0349998         2.06000974E-13
   49.1450005         1.97054260E-13
   49.2550011         1.89717748E-13
   49.3650017         1.72280200E-13
   49.4749985         1.57090703E-13
   49.5849991         1.35545099E-13
   49.6949997         1.24498868E-13
   49.8050003         1.05710593E-13
   49.9150009         8.43914850E-14
   50.0250015         7.54463630E-14
   50.1349983         5.10844351E-14
   50.2449989         3.93763865E-14
   50.3549995         2.70266191E-14
   50.4650002         1.54654528E-14
   50.5750008         1.37972104E-14
   50.6850014        -1.04064943E-15
   50.7949982         5.00928805E-15
   50.9049988         4.98435818E-15
   51.0149994         7.30356361E-15
   51.1250000         2.66683004E-14
   51.2350006         2.79274437E-14
   51.3450012         4.60661579E-14
   51.4550018         6.21310390E-14
   51.5649986         8.34635909E-14
   51.6749992         1.12499765E-13
   51.7849998         1.20866099E-13
   51.8950005         1.53625647E-13
   52.0050011         1.74837101E-13
   52.1150017         1.90287293E-13
   52.2249985         2.21075437E-13
   52.3349991         2.30961382E-13
   52.4449997         2.50358518E-13
   52.5550003         2.59072901E-13
   52.6650009         2.65843391E-13
   52.7750015         2.75682363E-13
   52.8849983         2.62900433E-13
   52.9949989         2.67689706E-13
   53.1049995         2.54404137E-13
   53.2150002         2.29797464E-13
   53.3250008         2.20523496E-13
   53.4350014         1.93590491E-13
   53.5449982         1.68590809E-13
   53.6549988         1.32653721E-13
   53.7649994         9.95210045E-14
   53.8750000         7.41521712E-14
   53.9850006         3.26118967E-14
   54.0950012         3.76073862E-15
   54.2050018        -3.43949892E-14
   54.3149986        -7.05279138E-14
   54.4249992        -9.35645197E-14
   54.5349998        -1.27857577E-13
   54.6450005        -1.49847840E-13
   54.7550011        -1.73658925E-13
   54.8650017        -1.91937232E-13
   54.9749985        -2.01506726E-13
   55.0849991        -2.15418978E-13
   55.1949997        -2.16524240E-13
   55.3050003        -2.21995924E-13
   55.4150009        -2.16015601E-13
   55.5250015        -2.09722566E-13
   55.6349983        -2.12183488E-13
   55.7449989        -1.90041342E-13
   55.8549995        -1.76452860E-13
   55.9650002        -1.65160623E-13
   56.0750008        -1.47119391E-13
   56.1850014        -1.30381030E-13
   56.2949982        -1.06715099E-13
   56.4049988        -9.70227384E-14
   56.5149994        -7.41993679E-14
   56.6250000        -5.53545077E-14
   56.7350006        -4.96353345E-14
   56.8450012        -2.29472593E-14
   56.9550018        -1.36766361E-14
   57.0649986        -4.53523590E-15
   57.1749992         9.28481603E-15
   57.2849998         1.32305420E-14
   57.3950005         2.63515558E-14
   57.5050011         2.25112050E-14
   57.6150017         2.99732502E-14
   57.7249985         4.04073578E-14
   57.8349991         3.07438062E-14
   57.9449997         3.71459421E-14
   58.0550003         3.37852372E-14
   58.1650009         3.22497427E-14
   58.2750015         3.41499086E-14
   58.3849983         2.41153312E-14
   58.4949989         2.91438965E-14
   58.6049995         1.89666652E-14
   58.7150002         1.37986300E-14
   58.8250008         2.19129948E-14
   58.9350014         7.93090416E-15
   59.0449982         6.11535850E-15
   59.1549988         5.27686957E-15
   59.2649994         6.96440442E-16
   59.3750000         3.12932659E-15
   59.4850006        -7.22821156E-15
   59.5950012        -6.93971129E-15
   59.7050018        -7.66214061E-15
   59.8149986        -1.37656373E-14
   59.9249992        -1.00046602E-14
   60.0349998        -1.76575893E-14
   60.1450005        -1.61543735E-14
   60.2550011        -1.35043886E-14
   60.3650017        -2.27659722E-14
   60.4749985        -1.68404821E-14
   60.5849991        -1.95123916E-14
   60.6949997        -2.29025664E-14
   60.8050003        -1.55237643E-14
   60.9150009        -2.23901301E-14
   61.0250015        -2.11692626E-14
   61.1349983        -1.71868830E-14
   61.2449989        -1.86127003E-14
   61.3549995        -1.49090182E-14
   61.4650002        -1.82626419E-14
   61.5750008        -1.27907599E-14
   61.6850014        -1.11522907E-14
   61.7949982        -1.33610952E-14
   61.9049988        -2.39340658E-15
   62.0149994        -8.26929044E-15
   62.1250000        -5.37994332E-15
   62.2350006         6.02230049E-15
   62.3450012        -2.83130371E-16
   62.4550018         5.97864357E-15
   62.5649986         9.55339916E-15
   62.6749992         9.15283135E-15
   62.7849998         1.41356738E-14
   62.8950005         1.41257940E-14
   63.0050011         2.11584104E-14
   63.1150017         2.03990674E-14
   63.2249985         2.33378787E-14
   63.3349991         2.98260731E-14
   63.4449997         2.28402604E-14
   63.5550003         3.02132756E-14
   63.6650009         3.41259139E-14
   63.7750015         2.98586500E-14
   63.8849983         3.47617849E-14
   63.9949989         3.32083502E-14
   64.1050034         3.54314288E-14
   64.2149963         3.84975323E-14
   64.3249969         3.67588819E-14
   64.4349976         3.80288757E-14
   64.5449982         3.72141079E-14
   64.6549988         3.92417591E-14
   64.7649994         3.81102857E-14
   64.8750000         3.56041456E-14
   64.9850006         3.87795468E-14
   65.0950012         3.71455762E-14
   65.2050018         3.67426257E-14
   65.3150024         3.75692045E-14
   65.4250031         3.47590541E-14
   65.5350037         3.63302629E-14
   65.6449966         3.52069516E-14
   65.7549973         2.98370303E-14
   65.8649979         3.02367011E-14
   65.9749985         3.18677105E-14
   66.0849991         2.93504506E-14
   66.1949997         2.68291537E-14
   66.3050003         2.66497589E-14
   66.4150009         2.39878918E-14
   66.5250015         2.08849729E-14
   66.6350021         2.16783531E-14
   66.7450027         1.78229285E-14
   66.8550034         1.28059625E-14
   66.9649963         1.41645491E-14
   67.0749969         1.30564699E-14
   67.1849976         7.74364805E-15
   67.2949982         5.34265904E-15
   67.4049988         5.33876269E-15
   67.5149994         4.65847422E-16
   67.6250000        -2.83329323E-15
   67.7350006        -1.80362601E-15
   67.8450012        -7.36453220E-15
   67.9550018        -1.05621138E-14
   68.0650024        -9.58239395E-15
   68.1750031        -1.21027735E-14
   68.2850037        -1.55769478E-14
   68.3949966        -1.92253236E-14
   68.5049973        -1.84679288E-14
   68.6149979        -2.13025364E-14
   68.7249985        -2.60704764E-14
   68.8349991        -2.41691788E-14
   68.9449997        -2.59648412E-14
   69.0550003        -2.75448287E-14
   69.1650009        -3.00271384E-14
   69.2750015        -3.25067867E-14
   69.3850021        -2.92215084E-14
   69.4950027        -3.31933272E-14
   69.6050034        -3.59428978E-14
   69.7149963        -3.33802098E-14
   69.8249969        -3.48226764E-14
   69.9349976        -3.57676603E-14
   70.0449982        -3.73536752E-14
   70.1549988        -3.60229797E-14
   70.2649994        -3.58681218E-14
   70.3750000        -3.87274949E-14
   70.4850006        -3.40456965E-14
   70.5950012        -3.43338334E-14
   70.7050018        -3.73431687E-14
   70.8150024        -3.26478651E-14
   70.9250031        -3.26053881E-14
   71.0350037        -3.28882802E-14
   71.1449966        -3.05011550E-14
   71.2549973        -2.80940923E-14
   71.3649979        -2.45336266E-14
   71.4749985        -2.59150188E-14
   71.5849991        -2.26821718E-14
   71.6949997        -1.81575471E-14
   71.8050003        -1.86776321E-14
   71.9150009        -1.42983041E-14
   72.0250015        -1.22978545E-14
   72.1350021        -9.44742179E-15
   72.2450027        -5.91558747E-15
   72.3550034        -5.30465268E-15
   72.4649963         5.51986172E-16
   72.5749969         1.26698262E-17
   72.6849976         1.97663079E-16
   72.7949982         7.20126236E-15
   72.9049988         8.08860052E-15
   73.0149994         8.23730817E-15
   73.1250000         9.25737131E-15
   73.2350006         1.32665875E-14
   73.3450012         1.54077682E-14
   73.4550018         1.27922101E-14
   73.5650024         1.53778781E-14
   73.6750031         1.62190157E-14
   73.7850037         1.63887831E-14
   73.8949966         1.75061839E-14
   74.0049973         1.55705052E-14
   74.1149979         1.68637009E-14
   74.2249985         1.78688495E-14
   74.3349991         1.69693581E-14
   74.4449997         1.60161225E-14
   74.5550003         1.47709044E-14
   74.6650009         1.51939042E-14
   74.7750015         1.55169710E-14
   74.8850021         1.41619360E-14
   74.9950027         1.11899617E-14
   75.1050034         1.16717515E-14
   75.2149963         1.39947224E-14
   75.3249969         1.07366805E-14
   75.4349976         8.14660873E-15
   75.5449982         9.33958856E-15
   75.6549988         8.43528348E-15
   75.7649994         6.74361850E-15
   75.8750000         6.47776070E-15
   75.9850006         5.49216078E-15
   76.0950012         4.12996536E-15
   76.2050018         5.05089219E-15
   76.3150024         5.11980510E-15
   76.4250031         1.73492338E-15
   76.5350037         1.55308361E-15
   76.6449966         1.59768858E-15
   76.7549973        -7.35985234E-16
   76.8649979         1.40384244E-15
   76.9749985         4.61221139E-16
   77.0849991        -1.90192905E-15
   77.1949997        -1.09655648E-16
   77.3050003        -9.62984981E-16
   77.4150009        -2.36393555E-15
   77.5250015        -3.82830051E-15
   77.6350021        -2.36065922E-15
   77.7450027        -2.44374066E-15
   77.8550034        -5.40641310E-15
   77.9649963        -2.28793679E-15
   78.0749969        -4.25799609E-15
   78.1849976        -5.06093758E-15
   78.2949982        -2.97855176E-15
   78.4049988        -7.14677696E-15
   78.5149994        -4.89942491E-15
   78.6250000        -3.95140446E-15
   78.7350006        -6.31124291E-15
   78.8450012        -6.51973076E-15
   78.9550018        -6.02878792E-15
   79.0650024        -3.39156863E-15
   79.1750031        -7.18315364E-15
   79.2850037        -6.30944212E-15
   79.3949966        -3.48742290E-15
   79.5049973        -8.42833527E-15
   79.6149979        -6.35571257E-15