  -10.0000000         1.00000002E-24
  -9.98999977         1.00000002E-24
  -9.97999954         1.00000002E-24
  -9.97000027         1.00000002E-24
  -9.96000004         1.00000002E-24
  -9.94999981         1.00000002E-24
  -9.93999958         1.00000002E-24
  -9.93000031         1.00000002E-24
  -9.92000008         1.00000002E-24
  -9.90999985         1.00000002E-24
  -9.89999962         1.00000002E-24
  -9.89000034         1.00000002E-24
  -9.88000011         1.00000002E-24
  -9.86999989         1.00000002E-24
  -9.85999966         1.00000002E-24
  -9.85000038         1.00000002E-24
  -9.84000015         1.00000002E-24
  -9.82999992         1.00000002E-24
  -9.81999969         1.00000002E-24
  -9.81000042         1.00000002E-24
  -9.80000019         1.00000002E-24
  -9.78999996         1.00000002E-24
  -9.77999973         1.00000002E-24
  -9.77000046         1.00000002E-24
  -9.76000023         1.00000002E-24
  -9.75000000         1.00000002E-24
  -9.73999977         1.00000002E-24
  -9.72999954         1.00000002E-24
  -9.72000027         1.00000002E-24
  -9.71000004         1.00000002E-24
  -9.69999981         1.00000002E-24
  -9.68999958         1.00000002E-24
  -9.68000031         1.00000002E-24
  -9.67000008         1.00000002E-24
  -9.65999985         1.00000002E-24
  -9.64999962         1.00000002E-24
  -9.64000034         1.00000002E-24
  -9.63000011         1.00000002E-24
  -9.61999989         1.00000002E-24
  -9.60999966         1.00000002E-24
  -9.60000038         1.00000002E-24
  -9.59000015         1.00000002E-24
  -9.57999992         1.00000002E-24
  -9.56999969         1.00000002E-24
  -9.56000042         1.00000002E-24
  -9.55000019         1.00000002E-24
  -9.53999996         1.00000002E-24
  -9.52999973         1.00000002E-24
  -9.52000046         1.00000002E-24
  -9.51000023         1.00000002E-24
  -9.50000000         1.00000002E-24
  -9.48999977         1.00000002E-24
  -9.47999954         1.00000002E-24
  -9.47000027         1.00000002E-24
  -9.46000004         1.00000002E-24
  -9.44999981         1.00000002E-24
  -9.43999958         1.00000002E-24
  -9.43000031         1.00000002E-24
  -9.42000008         1.00000002E-24
  -9.40999985         1.00000002E-24
  -9.39999962         1.00000002E-24
  -9.39000034         1.00000002E-24
  -9.38000011         1.00000002E-24
  -9.36999989         1.00000002E-24
  -9.35999966         1.00000002E-24
  -9.35000038         1.00000002E-24
  -9.34000015         1.00000002E-24
  -9.32999992         1.00000002E-24
  -9.31999969         1.00000002E-24
  -9.31000042         1.00000002E-24
  -9.30000019         1.00000012E-24
  -9.28999996         1.00000012E-24
  -9.27999973         1.00000002E-24
  -9.27000046         1.00000002E-24
  -9.26000023         1.00000002E-24
  -9.25000000         1.00000002E-24
  -9.23999977         1.00000002E-24
  -9.22999954         1.00000002E-24
  -9.22000027         1.00000002E-24
  -9.21000004         1.00000002E-24
  -9.19999981         1.00000012E-24
  -9.18999958         1.00000022E-24
  -9.18000031         1.00000022E-24
  -9.17000008         1.00000022E-24
  -9.15999985         1.00000022E-24
  -9.14999962         1.00000022E-24
  -9.14000034         1.00000022E-24
  -9.13000011         1.00000022E-24
  -9.11999989         1.00000022E-24
  -9.10999966         1.00000022E-24
  -9.10000038         1.00000022E-24
  -9.09000015         1.00000022E-24
  -9.07999992         1.00000022E-24
  -9.06999969         1.00000022E-24
  -9.06000042         1.00000022E-24
  -9.05000019         1.00000032E-24
  -9.03999996         1.00000032E-24
  -9.02999973         1.00000032E-24
  -9.02000046         1.00000041E-24
  -9.01000023         1.00000041E-24
  -9.00000000         1.00000051E-24
  -8.98999977         1.00000051E-24
  -8.97999954         1.00000061E-24
  -8.97000027         1.00000061E-24
  -8.96000004         1.00000061E-24
  -8.94999981         1.00000061E-24
  -8.93999958         1.00000061E-24
  -8.93000031         1.00000051E-24
  -8.92000008         1.00000032E-24
  -8.90999985         1.00000002E-24
  -8.89999962         9.99999724E-25
  -8.89000034         9.99999231E-25
  -8.88000011         9.99998738E-25
  -8.86999989         9.99998047E-25
  -8.85999966         9.99997160E-25
  -8.85000038         9.99996371E-25
  -8.84000015         9.99995385E-25
  -8.82999992         9.99994300E-25
  -8.81999969         9.99993314E-25
  -8.81000042         9.99992427E-25
  -8.80000019         9.99991638E-25
  -8.78999996         9.99991145E-25
  -8.77999973         9.99991145E-25
  -8.77000046         9.99991539E-25
  -8.76000023         9.99992723E-25
  -8.75000000         9.99994892E-25
  -8.73999977         9.99998047E-25
  -8.72999954         1.00000239E-24
  -8.72000027         1.00000820E-24
  -8.71000004         1.00001550E-24
  -8.69999981         1.00002447E-24
  -8.68999958         1.00003522E-24
  -8.68000031         1.00004755E-24
  -8.67000008         1.00006135E-24
  -8.65999985         1.00007644E-24
  -8.64999962         1.00009212E-24
  -8.64000034         1.00010780E-24
  -8.63000011         1.00012269E-24
  -8.61999989         1.00013580E-24
  -8.60999966         1.00014586E-24
  -8.60000038         1.00015109E-24
  -8.59000015         1.00015010E-24
  -8.57999992         1.00014073E-24
  -8.56999969         1.00012121E-24
  -8.56000042         1.00008936E-24
  -8.55000019         1.00004331E-24
  -8.53999996         9.99980988E-25
  -8.52999973         9.99901215E-25
  -8.52000046         9.99802706E-25
  -8.51000023         9.99685165E-25
  -8.50000000         9.99548988E-25
  -8.48999977         9.99395752E-25
  -8.47999954         9.99228316E-25
  -8.47000027         9.99050724E-25
  -8.46000004         9.98868793E-25
  -8.44999981         9.98690510E-25
  -8.43999958         9.98525047E-25
  -8.43000031         9.98383742E-25
  -8.42000008         9.98279810E-25
  -8.40999985         9.98227844E-25
  -8.39999962         9.98244114E-25
  -8.39000034         9.98345187E-25
  -8.38000011         9.98548515E-25
  -8.36999989         9.98870667E-25
  -8.35999966         9.99327023E-25
  -8.35000038         9.99930698E-25
  -8.34000015         1.00069136E-24
  -8.32999992         1.00161373E-24
  -8.31999969         1.00269674E-24
  -8.31000042         1.00393180E-24
  -8.30000019         1.00530176E-24
  -8.28999996         1.00677969E-24
  -8.27999973         1.00832773E-24
  -8.27000046         1.00989667E-24
  -8.26000023         1.01142539E-24
  -8.25000000         1.01284110E-24
  -8.23999977         1.01405969E-24
  -8.22999954         1.01498729E-24
  -8.22000027         1.01552204E-24
  -8.21000004         1.01555655E-24
  -8.19999981         1.01498177E-24
  -8.18999958         1.01369031E-24
  -8.18000031         1.01158217E-24
  -8.17000008         1.00856951E-24
  -8.15999985         1.00458271E-24
  -8.14999962         9.99576993E-25
  -8.14000034         9.93538164E-25
  -8.13000011         9.86489692E-25
  -8.11999989         9.78497742E-25
  -8.10999966         9.69676404E-25
  -8.10000038         9.60192422E-25
  -8.09000015         9.50266777E-25
  -8.07999992         9.40176161E-25
  -8.06999969         9.30251601E-25
  -8.06000042         9.20874411E-25
  -8.05000019         9.12470775E-25
  -8.03999996         9.05501780E-25
  -8.02999973         9.00452676E-25
  -8.02000046         8.97818275E-25
  -8.01000023         8.98086389E-25
  -8.00000000         9.01718896E-25
  -7.98999977         9.09132118E-25
  -7.98000002         9.20675027E-25
  -7.96999979         9.36609031E-25
  -7.96000004         9.57086677E-25
  -7.94999981         9.82134391E-25
  -7.94000006         1.01163641E-24
  -7.92999983         1.04532343E-24
  -7.92000008         1.08276573E-24
  -7.90999985         1.12337303E-24
  -7.90000010         1.16639918E-24
  -7.88999987         1.21095563E-24
  -7.88000011         1.25603055E-24
  -7.86999989         1.30051530E-24
  -7.86000013         1.34323725E-24
  -7.84999990         1.38299692E-24
  -7.84000015         1.41860955E-24
  -7.82999992         1.44894707E-24
  -7.82000017         1.47297992E-24
  -7.80999994         1.48981470E-24
  -7.80000019         1.49872518E-24
  -7.78999996         1.49917306E-24
  -7.78000021         1.49081665E-24
  -7.76999998         1.47350323E-24
  -7.76000023         1.44724293E-24
  -7.75000000         1.41216416E-24
  -7.73999977         1.36844845E-24
  -7.73000002         1.31624519E-24
  -7.71999979         1.25556965E-24
  -7.71000004         1.18618697E-24
  -7.69999981         1.10748784E-24
  -7.69000006         1.01836283E-24
  -7.67999983         9.17085216E-25
  -7.67000008         8.01212643E-25
  -7.65999985         6.67519060E-25
  -7.65000010         5.11971714E-25
  -7.63999987         3.29766119E-25
  -7.63000011         1.15432821E-25
  -7.61999989        -1.36970696E-25
  -7.61000013        -4.33572202E-25
  -7.59999990        -7.80292150E-25
  -7.59000015        -1.18234167E-24
  -7.57999992        -1.64361132E-24
  -7.57000017        -2.16595626E-24
  -7.55999994        -2.74839199E-24
  -7.55000019        -3.38621857E-24
  -7.53999996        -4.07010575E-24
  -7.53000021        -4.78517424E-24
  -7.51999998        -5.51012045E-24
  -7.51000023        -6.21643929E-24
  -7.50000000        -6.86780884E-24
  -7.48999977        -7.41970224E-24
  -7.48000002        -7.81930289E-24
  -7.46999979        -8.00579750E-24
  -7.46000004        -7.91111446E-24
  -7.44999981        -7.46118055E-24
  -7.44000006        -6.57775534E-24
  -7.42999983        -5.18088265E-24
  -7.42000008        -3.19199529E-24
  -7.40999985        -5.37660821E-25
  -7.40000010         2.84603522E-24
  -7.38999987         7.00854557E-24
  -7.38000011         1.19794327E-23
  -7.36999989         1.77625933E-23
  -7.36000013         2.43303226E-23
  -7.34999990         3.16173905E-23
  -7.34000015         3.95154406E-23
  -7.32999992         4.78679504E-23
  -7.32000017         5.64660956E-23
  -7.30999994         6.50458604E-23
  -7.30000019         7.32867874E-23
  -7.28999996         8.08126529E-23
  -7.28000021         8.71944682E-23
  -7.26999998         9.19561715E-23
  -7.26000023         9.45832108E-23
  -7.25000000         9.45342257E-23
  -7.23999977         9.12560606E-23
  -7.23000002         8.42020222E-23
  -7.21999979         7.28533367E-23
  -7.21000004         5.67435916E-23
  -7.19999981         3.54856677E-23
  -7.19000006         8.80080442E-24
  -7.17999983        -2.34511986E-23
  -7.17000008        -6.12412411E-23
  -7.15999985        -1.04340953E-22
  -7.15000010        -1.52294596E-22
  -7.13999987        -2.04394138E-22
  -7.13000011        -2.59659133E-22
  -7.11999989        -3.16822670E-22
  -7.11000013        -3.74325051E-22
  -7.09999990        -4.30316985E-22
  -7.09000015        -4.82672964E-22
  -7.07999992        -5.29016989E-22
  -7.07000017        -5.66760942E-22
  -7.05999994        -5.93156859E-22
  -7.05000019        -6.05362821E-22
  -7.03999996        -6.00523330E-22
  -7.03000021        -5.75862655E-22
  -7.01999998        -5.28790252E-22
  -7.01000023        -4.57017389E-22
  -7.00000000        -3.58680867E-22
  -6.98999977        -2.32472689E-22
  -6.98000002        -7.77709063E-23
  -6.96999979         1.05232278E-22
  -6.96000004         3.15409562E-22
  -6.94999981         5.50590278E-22
  -6.94000006         8.07469995E-22
  -6.92999983         1.08154390E-21
  -6.92000008         1.36706894E-21
  -6.90999985         1.65706148E-21
  -6.90000010         1.94333342E-21
  -6.88999987         2.21657363E-21
  -6.88000011         2.46647649E-21
  -6.86999989         2.68192028E-21
  -6.86000013         2.85119726E-21
  -6.84999990         2.96229493E-21
  -6.84000015         3.00322563E-21
  -6.82999992         2.96240136E-21
  -6.82000017         2.82904736E-21
  -6.80999994         2.59364743E-21
  -6.80000019         2.24840878E-21
  -6.78999996         1.78773844E-21
  -6.78000021         1.20871181E-21
  -6.76999998         5.11523917E-22
  -6.76000023        -3.00097254E-22
  -6.75000000        -1.21853155E-21
  -6.73999977        -2.23198028E-21
  -6.73000002        -3.32426945E-21
  -6.71999979        -4.47476237E-21
  -6.71000004        -5.65839320E-21
  -6.69999981        -6.84584126E-21
  -6.69000006        -8.00385534E-21
  -6.67999983        -9.09573295E-21
  -6.67000008        -1.00819649E-20
  -6.65999985        -1.09210394E-20
  -6.65000010        -1.15704085E-20
  -6.63999987        -1.19875903E-20
  -6.63000011        -1.21314171E-20
  -6.61999989        -1.19633726E-20
  -6.61000013        -1.14490295E-20
  -6.59999990        -1.05595171E-20
  -6.59000015        -9.27300486E-21
  -6.57999992        -7.57615127E-21
  -6.57000017        -5.46546948E-21
  -6.55999994        -2.94855779E-21
  -6.55000019        -4.51567206E-23
  -6.53999996         3.21203441E-21
  -6.53000021         6.77681772E-21
  -6.51999998         1.05892907E-20
  -6.51000023         1.45760016E-20
  -6.50000000         1.86505075E-20
  -6.48999977         2.27143780E-20
  -6.48000002         2.66586159E-20
  -6.46999979         3.03655547E-20
  -6.46000004         3.37111643E-20
  -6.44999981         3.65678131E-20
  -6.44000006         3.88073820E-20
  -6.42999983         4.03047114E-20
  -6.42000008         4.09413206E-20
  -6.40999985         4.06093077E-20
  -6.40000010         3.92153307E-20
  -6.38999987         3.66845845E-20
  -6.38000011         3.29646402E-20
  -6.36999989         2.80290377E-20
  -6.36000013         2.18804879E-20
  -6.34999990         1.45536128E-20
  -6.34000015         6.11702123E-21
  -6.32999992        -3.32533311E-21
  -6.32000017        -1.36336409E-20
  -6.30999994        -2.46326486E-20
  -6.30000019        -3.61130932E-20
  -6.28999996        -4.78341649E-20
  -6.28000021        -5.95270317E-20
  -6.26999998        -7.08994791E-20
  -6.26000023        -8.16414857E-20
  -6.25000000        -9.14318791E-20
  -6.23999977        -9.99456872E-20
  -6.23000002        -1.06862332E-19
  -6.21999979        -1.11874317E-19
  -6.21000004        -1.14696243E-19
  -6.19999981        -1.15073993E-19
  -6.19000006        -1.12793793E-19
  -6.17999983        -1.07690825E-19
  -6.17000008        -9.96572920E-20
  -6.15999985        -8.86495214E-20
  -6.15000010        -7.46938988E-20
  -6.13999987        -5.78913338E-20
  -6.13000011        -3.84201290E-20
  -6.11999989        -1.65369415E-20
  -6.11000013         7.42422873E-21
  -6.09999990         3.30552262E-20
  -6.09000015         5.98790552E-20
  -6.07999992         8.73574394E-20
  -6.07000017         1.14900492E-19
  -6.05999994         1.41878316E-19
  -6.05000019         1.67634510E-19
  -6.03999996         1.91501165E-19
  -6.03000021         2.12815089E-19
  -6.01999998         2.30934920E-19
  -6.01000023         2.45258586E-19
  -6.00000000         2.55240769E-19
  -5.98999977         2.60409924E-19
  -5.98000002         2.60383946E-19
  -5.96999979         2.54884797E-19
  -5.96000004         2.43750481E-19
  -5.94999981         2.26944937E-19
  -5.94000006         2.04564790E-19
  -5.92999983         1.76842943E-19
  -5.92000008         1.44148358E-19
  -5.90999985         1.06982274E-19
  -5.90000010         6.59705037E-20
  -5.88999987         2.18518904E-20
  -5.88000011        -2.45370236E-20
  -5.86999989        -7.22805283E-20
  -5.86000013        -1.20405547E-19
  -5.84999990        -1.67905864E-19
  -5.84000015        -2.13768247E-19
  -5.82999992        -2.56999872E-19
  -5.82000017        -2.96656074E-19
  -5.80999994        -3.31867809E-19
  -5.80000019        -3.61867504E-19
  -5.78999996        -3.86013087E-19
  -5.78000021        -4.03808585E-19
  -5.76999998        -4.14920878E-19
  -5.76000023        -4.19191792E-19
  -5.75000000        -4.16644826E-19
  -5.73999977        -4.07485868E-19
  -5.73000002        -3.92097905E-19
  -5.71999979        -3.71029098E-19
  -5.71000004        -3.44974718E-19
  -5.69999981        -3.14752873E-19
  -5.69000006        -2.81274470E-19
  -5.67999983        -2.45508628E-19
  -5.67000008        -2.08443840E-19
  -5.65999985        -1.71046372E-19
  -5.65000010        -1.34217266E-19
  -5.63999987        -9.87492028E-20
  -5.63000011        -6.52851006E-20
  -5.61999989        -3.42798800E-20
  -5.61000013        -5.96726236E-21
  -5.59999990         1.96667926E-20
  -5.59000015         4.29023849E-20
  -5.57999992         6.42943127E-20
  -5.57000017         8.46697939E-20
  -5.55999994         1.05114474E-19
  -5.55000019         1.26945677E-19
  -5.53999996         1.51673104E-19
  -5.53000021         1.80947000E-19
  -5.51999998         2.16494182E-19
  -5.51000023         2.60043251E-19
  -5.50000000         3.13240451E-19
  -5.48999977         3.77558190E-19
  -5.48000002         4.54198670E-19
  -5.46999979         5.43995743E-19
  -5.46000004         6.47317530E-19
  -5.44999981         7.63974243E-19
  -5.44000006         8.93134204E-19
  -5.42999983         1.03325229E-18
  -5.42000008         1.18201442E-18
  -5.40999985         1.33630118E-18
  -5.40000010         1.49217551E-18
  -5.38999987         1.64489590E-18
  -5.38000011         1.78895840E-18
  -5.36999989         1.91816856E-18
  -5.36000013         2.02574629E-18
  -5.34999990         2.10446080E-18
  -5.34000015         2.14679735E-18
  -5.32999992         2.14515437E-18
  -5.32000017         2.09206529E-18
  -5.30999994         1.98044409E-18
  -5.30000019         1.80384951E-18
  -5.28999996         1.55675898E-18
  -5.28000021         1.23484944E-18
  -5.26999998         8.35274627E-19
  -5.26000023         3.56932338E-19
  -5.25000000        -1.99289665E-19
  -5.23999977        -8.30294431E-19
  -5.23000002        -1.53059619E-18
  -5.21999979        -2.29218634E-18
  -5.21000004        -3.10445578E-18
  -5.19999981        -3.95417810E-18
  -5.19000006        -4.82556448E-18
  -5.17999983        -5.70039111E-18
  -5.17000008        -6.55820636E-18
  -5.15999985        -7.37661803E-18
  -5.15000010        -8.13165774E-18
  -5.13999987        -8.79822966E-18
  -5.13000011        -9.35062335E-18
  -5.11999989        -9.76310441E-18
  -5.11000013        -1.00105480E-17
  -5.09999990        -1.00691265E-17
  -5.09000015        -9.91703031E-18
  -5.07999992        -9.53519630E-18
  -5.07000017        -8.90804202E-18
  -5.05999994        -8.02417307E-18
  -5.05000019        -6.87705264E-18
  -5.03999996        -5.46561079E-18
  -5.03000021        -3.79476964E-18
  -5.01999998        -1.87586841E-18
  -5.01000023         2.73032985E-19
  -5.00000000         2.62698687E-18
  -4.98999977         5.15414585E-18
  -4.98000002         7.81591463E-18
  -4.96999979         1.05672753E-17
  -4.96000004         1.33572943E-17
  -4.94999981         1.61298168E-17
  -4.94000006         1.88243213E-17
  -4.92999983         2.13769659E-17
  -4.92000008         2.37217781E-17
  -4.90999985         2.57919845E-17
  -4.90000010         2.75214636E-17
  -4.88999987         2.88462894E-17
  -4.88000011         2.97063388E-17
  -4.86999989         3.00468990E-17
  -4.86000013         2.98203045E-17
  -4.84999990         2.89874858E-17
  -4.84000015         2.75194619E-17
  -4.82999992         2.53986518E-17
  -4.82000017         2.26200711E-17
  -4.80999994         1.91922644E-17
  -4.80000019         1.51380190E-17
  -4.78999996         1.04948027E-17
  -4.78000021         5.31486291E-18
  -4.76999998        -3.34969012E-19
  -4.76000023        -6.37383028E-18
  -4.75000000        -1.27077375E-17
  -4.73999977        -1.92308276E-17
  -4.73000002        -2.58269593E-17
  -4.71999979        -3.23716107E-17
  -4.71000004        -3.87340888E-17
  -4.69999981        -4.47800147E-17
  -4.69000006        -5.03739527E-17
  -4.67999983        -5.53822798E-17
  -4.67000008        -5.96761181E-17
  -4.65999985        -6.31343088E-17
  -4.65000010        -6.56463570E-17
  -4.63999987        -6.71152975E-17
  -4.63000011        -6.74603377E-17
  -4.61999989        -6.66193332E-17
  -4.61000013        -6.45508920E-17
  -4.59999990        -6.12360947E-17
  -4.59000015        -5.66798648E-17
  -4.57999992        -5.09117623E-17
  -4.57000017        -4.39862853E-17
  -4.55999994        -3.59826610E-17
  -4.55000019        -2.70040076E-17
  -4.53999996        -1.71759720E-17
  -4.53000021        -6.64478157E-18
  -4.51999998         4.42521734E-18
  -4.51000023         1.58545146E-17
  -4.50000000         2.74518481E-17
  -4.48999977         3.90179573E-17
  -4.48000002         5.03496203E-17
  -4.46999979         6.12439099E-17
  -4.46000004         7.15025509E-17
  -4.44999981         8.09362083E-17
  -4.44000006         8.93687390E-17
  -4.42999983         9.66411322E-17
  -4.42000008         1.02615163E-16
  -4.40999985         1.07176601E-16
  -4.40000010         1.10237804E-16
  -4.38999987         1.11739792E-16
  -4.38000011         1.11653567E-16
  -4.36999989         1.09980644E-16
  -4.36000013         1.06752906E-16
  -4.34999990         1.02031524E-16
  -4.34000015         9.59051996E-17
  -4.32999992         8.84875401E-17
  -4.32000017         7.99138263E-17
  -4.30999994         7.03370667E-17
  -4.30000019         5.99235245E-17
  -4.28999996         4.88478971E-17
  -4.28000021         3.72881009E-17
  -4.26999998         2.54200328E-17
  -4.26000023         1.34122803E-17
  -4.25000000         1.42107644E-18
  -4.23999977        -1.04143818E-17
  -4.23000002        -2.19760978E-17
  -4.21999979        -3.31707367E-17
  -4.21000004        -4.39322208E-17
  -4.19999981        -5.42233634E-17
  -4.19000006        -6.40364320E-17
  -4.17999983        -7.33925329E-17
  -4.17000008        -8.23397949E-17
  -4.15999985        -9.09503612E-17
  -4.15000010        -9.93161218E-17
  -4.13999987        -1.07543359E-16
  -4.13000011        -1.15746417E-16
  -4.11999989        -1.24040339E-16
  -4.11000013        -1.32533009E-16
  -4.09999990        -1.41316581E-16
  -4.09000015        -1.50458965E-16
  -4.07999992        -1.59995100E-16
  -4.07000017        -1.69918647E-16
  -4.05999994        -1.80174469E-16
  -4.05000019        -1.90651857E-16
  -4.03999996        -2.01179245E-16
  -4.03000021        -2.11520406E-16
  -4.01999998        -2.21372431E-16
  -4.01000023        -2.30365989E-16
  -4.00000000        -2.38067768E-16
  -3.99000001        -2.43985379E-16
  -3.98000002        -2.47574866E-16
  -3.97000003        -2.48250904E-16
  -3.96000004        -2.45399156E-16
  -3.95000005        -2.38391600E-16
  -3.94000006        -2.26603680E-16
  -3.93000007        -2.09433621E-16
  -3.92000008        -1.86323240E-16
  -3.91000009        -1.56780041E-16
  -3.90000010        -1.20399990E-16
  -3.89000010        -7.68903422E-17
  -3.88000011        -2.60921137E-17
  -3.86999989         3.19986383E-17
  -3.85999990         9.72113244E-17
  -3.84999990         1.69183740E-16
  -3.83999991         2.47348126E-16
  -3.82999992         3.30921082E-16
  -3.81999993         4.18897762E-16
  -3.80999994         5.10051107E-16
  -3.79999995         6.02936369E-16
  -3.78999996         6.95901570E-16
  -3.77999997         7.87103778E-16
  -3.76999998         8.74531501E-16
  -3.75999999         9.56033382E-16
  -3.75000000         1.02935287E-15
  -3.74000001         1.09216820E-15
  -3.73000002         1.14213796E-15
  -3.72000003         1.17695059E-15
  -3.71000004         1.19437850E-15
  -3.70000005         1.19233355E-15
  -3.69000006         1.16892611E-15
  -3.68000007         1.12252247E-15
  -3.67000008         1.05180348E-15
  -3.66000009         9.55819294E-16
  -3.65000010         8.34041526E-16
  -3.64000010         6.86410513E-16
  -3.63000011         5.13375181E-16
  -3.61999989         3.15926110E-16
  -3.60999990         9.56187833E-17
  -3.59999990        -1.45412820E-16
  -3.58999991        -4.04454447E-16
  -3.57999992        -6.78221451E-16
  -3.56999993        -9.62881749E-16
  -3.55999994        -1.25409168E-15
  -3.54999995        -1.54704522E-15
  -3.53999996        -1.83653599E-15
  -3.52999997        -2.11703180E-15
  -3.51999998        -2.38276107E-15
  -3.50999999        -2.62781109E-15
  -3.50000000        -2.84623272E-15
  -3.49000001        -3.03215645E-15
  -3.48000002        -3.17991182E-15
  -3.47000003        -3.28414939E-15
  -3.46000004        -3.33996907E-15
  -3.45000005        -3.34304084E-15
  -3.44000006        -3.28972562E-15
  -3.43000007        -3.17718861E-15
  -3.42000008        -3.00350387E-15
  -3.41000009        -2.76774495E-15
  -3.40000010        -2.47006412E-15
  -3.39000010        -2.11175266E-15
  -3.38000011        -1.69528202E-15
  -3.36999989        -1.22432652E-15
  -3.35999990        -7.03760712E-16
  -3.34999990        -1.39635539E-16
  -3.33999991         4.60871156E-16
  -3.32999992         1.08952715E-15
  -3.31999993         1.73714408E-15
  -3.30999994         2.39369753E-15
  -3.29999995         3.04847009E-15
  -3.28999996         3.69021508E-15
  -3.27999997         4.30733745E-15
  -3.26999998         4.88808992E-15
  -3.25999999         5.42078089E-15
  -3.25000000         5.89399364E-15
  -3.24000001         6.29680608E-15
  -3.23000002         6.61901276E-15
  -3.22000003         6.85134415E-15
  -3.21000004         6.98567469E-15
  -3.20000005         7.01522004E-15
  -3.19000006         6.93471845E-15
  -3.18000007         6.74058528E-15
  -3.17000008         6.43104937E-15
  -3.16000009         6.00625472E-15
  -3.15000010         5.46833248E-15
  -3.14000010         4.82143944E-15
  -3.13000011         4.07175726E-15
  -3.11999989         3.22745663E-15
  -3.10999990         2.29861999E-15
  -3.09999990         1.29712815E-15
  -3.08999991         2.36510101E-16
  -3.07999992        -8.68246358E-16
  -3.06999993        -2.00091332E-15
  -3.05999994        -3.14427270E-15
  -3.04999995        -4.28039375E-15
  -3.03999996        -5.39093018E-15
  -3.02999997        -6.45743106E-15
  -3.01999998        -7.46166909E-15
  -3.00999999        -8.38596669E-15
  -3.00000000        -9.21352296E-15
  -2.99000001        -9.92873386E-15
  -2.98000002        -1.05174955E-14
  -2.97000003        -1.09674851E-14
  -2.96000004        -1.12684198E-14
  -2.95000005        -1.14122799E-14
  -2.94000006        -1.13934910E-14
  -2.93000007        -1.12090707E-14
  -2.92000008        -1.08587235E-14
  -2.91000009        -1.03448896E-14
  -2.90000010        -9.67274102E-15
  -2.89000010        -8.85013058E-15
  -2.88000011        -7.88747933E-15
  -2.86999989        -6.79762278E-15
  -2.85999990        -5.59560765E-15
  -2.84999990        -4.29843894E-15
  -2.83999991        -2.92478952E-15
  -2.82999992        -1.49467466E-15
  -2.81999993        -2.90959755E-17
  -2.80999994         1.45033492E-15
  -2.79999995         2.92178912E-15
  -2.78999996         4.36362025E-15
  -2.77999997         5.75476175E-15
  -2.76999998         7.07511417E-15
  -2.75999999         8.30591614E-15
  -2.75000000         9.43008895E-15
  -2.74000001         1.04325431E-14
  -2.73000002         1.13004504E-14
  -2.72000003         1.20234641E-14
  -2.71000004         1.25938883E-14
  -2.70000005         1.30067898E-14
  -2.69000006         1.32600518E-14
  -2.68000007         1.33543621E-14
  -2.67000008         1.32931445E-14
  -2.66000009         1.30824256E-14
  -2.65000010         1.27306367E-14
  -2.64000010         1.22483810E-14
  -2.63000011         1.16481235E-14
  -2.61999989         1.09438622E-14
  -2.60999990         1.01507480E-14
  -2.59999990         9.28468474E-15
  -2.58999991         8.36191095E-15
  -2.57999992         7.39857360E-15
  -2.56999993         6.41030257E-15
  -2.55999994         5.41180785E-15
  -2.54999995         4.41648950E-15
  -2.53999996         3.43609503E-15
  -2.52999997         2.48041084E-15
  -2.51999998         1.55701745E-15
  -2.50999999         6.71100763E-16
  -2.50000000        -1.74666055E-16
  -2.49000001        -9.80165351E-16
  -2.48000002        -1.74780039E-15
  -2.47000003        -2.48238442E-15
  -2.46000004        -3.19094612E-15
  -2.45000005        -3.88245937E-15
  -2.44000006        -4.56750192E-15
  -2.43000007        -5.25784436E-15
  -2.42000008        -5.96598508E-15
  -2.41000009        -6.70462915E-15
  -2.40000010        -7.48613648E-15
  -2.39000010        -8.32194709E-15
  -2.38000011        -9.22198651E-15
  -2.36999989        -1.01940890E-14
  -2.35999990        -1.12434349E-14
  -2.34999990        -1.23720267E-14
  -2.33999991        -1.35782185E-14
  -2.32999992        -1.48563141E-14
  -2.31999993        -1.61962525E-14
  -2.30999994        -1.75833825E-14
  -2.29999995        -1.89983510E-14
  -2.28999996        -2.04171142E-14
  -2.27999997        -2.18110713E-14
  -2.26999998        -2.31473200E-14
  -2.25999999        -2.43890635E-14
  -2.25000000        -2.54961440E-14
  -2.24000001        -2.64256949E-14
  -2.23000002        -2.71329336E-14
  -2.22000003        -2.75720507E-14
  -2.21000004        -2.76972049E-14
  -2.20000005        -2.74636067E-14
  -2.19000006        -2.68286505E-14
  -2.18000007        -2.57530966E-14
  -2.17000008        -2.42022809E-14
  -2.16000009        -2.21472976E-14
  -2.15000010        -1.95661663E-14
  -2.14000010        -1.64449211E-14
  -2.13000011        -1.27786338E-14
  -2.11999989        -8.57228768E-15
  -2.10999990        -3.84154556E-15
  -2.09999990         1.38668156E-15
  -2.08999991         7.07383218E-15
  -2.07999992         1.31695133E-14
  -2.06999993         1.96115537E-14
  -2.05999994         2.63262736E-14
  -2.04999995         3.32290144E-14
  -2.03999996         4.02249306E-14
  -2.02999997         4.72100081E-14
  -2.01999998         5.40723574E-14
  -2.00999999         6.06936850E-14
  -2.00000000         6.69510630E-14
  -1.99000001         7.27188017E-14
  -1.98000002         7.78705781E-14
  -1.97000003         8.22816004E-14
  -1.96000004         8.58309802E-14
  -1.95000005         8.84040833E-14
  -1.94000006         8.98949358E-14
  -1.92999995         9.02086091E-14
  -1.91999996         8.92634965E-14
  -1.90999997         8.69935295E-14