  -10.00000        1.0000000E-24
  -9.990000        1.0000000E-24
  -9.980000        1.0000000E-24
  -9.970000        1.0000000E-24
  -9.960000        1.0000000E-24
  -9.950000        1.0000000E-24
  -9.940000        1.0000000E-24
  -9.930000        1.0000000E-24
  -9.920000        1.0000000E-24
  -9.910000        1.0000000E-24
  -9.900000        1.0000000E-24
  -9.890000        1.0000000E-24
  -9.880000        1.0000000E-24
  -9.870000        1.0000000E-24
  -9.860000        1.0000000E-24
  -9.850000        1.0000000E-24
  -9.840000        1.0000000E-24
  -9.830000        1.0000000E-24
  -9.820000        1.0000000E-24
  -9.810000        1.0000000E-24
  -9.800000        1.0000000E-24
  -9.790000        1.0000000E-24
  -9.780000        1.0000000E-24
  -9.770000        1.0000000E-24
  -9.760000        1.0000000E-24
  -9.750000        1.0000000E-24
  -9.740000        1.0000000E-24
  -9.730000        1.0000000E-24
  -9.720000        1.0000000E-24
  -9.710000        1.0000000E-24
  -9.700000        1.0000000E-24
  -9.690000        1.0000000E-24
  -9.680000        1.0000000E-24
  -9.670000        1.0000000E-24
  -9.660000        1.0000000E-24
  -9.650000        1.0000000E-24
  -9.640000        1.0000000E-24
  -9.630000        1.0000000E-24
  -9.620000        1.0000000E-24
  -9.610000        1.0000000E-24
  -9.600000        1.0000000E-24
  -9.590000        1.0000000E-24
  -9.580000        1.0000000E-24
  -9.570000        1.0000000E-24
  -9.560000        1.0000000E-24
  -9.550000        1.0000000E-24
  -9.540000        1.0000000E-24
  -9.530000        1.0000000E-24
  -9.520000        1.0000000E-24
  -9.510000        1.0000000E-24
  -9.500000        1.0000000E-24
  -9.490000        1.0000000E-24
  -9.480000        1.0000000E-24
  -9.470000        1.0000000E-24
  -9.460000        1.0000000E-24
  -9.450000        1.0000000E-24
  -9.440000        1.0000000E-24
  -9.430000        1.0000000E-24
  -9.420000        1.0000000E-24
  -9.410000        1.0000000E-24
  -9.400000        1.0000000E-24
  -9.390000        1.0000000E-24
  -9.380000        1.0000000E-24
  -9.370000        1.0000000E-24
  -9.360000        1.0000000E-24
  -9.350000        1.0000000E-24
  -9.340000        1.0000000E-24
  -9.330000        1.0000000E-24
  -9.320000        1.0000000E-24
  -9.310000        1.0000000E-24
  -9.300000        1.0000001E-24
  -9.290000        1.0000001E-24
  -9.280000        1.0000001E-24
  -9.270000        1.0000000E-24
  -9.260000        1.0000000E-24
  -9.250000        1.0000000E-24
  -9.240000        1.0000000E-24
  -9.230000        1.0000000E-24
  -9.220000        1.0000000E-24
  -9.210000        1.0000000E-24
  -9.200000        1.0000001E-24
  -9.190000        1.0000002E-24
  -9.180000        1.0000002E-24
  -9.170000        1.0000002E-24
  -9.160000        1.0000002E-24
  -9.150000        1.0000002E-24
  -9.140000        1.0000002E-24
  -9.130000        1.0000002E-24
  -9.120000        1.0000002E-24
  -9.110000        1.0000002E-24
  -9.100000        1.0000002E-24
  -9.090000        1.0000002E-24
  -9.080000        1.0000002E-24
  -9.070000        1.0000002E-24
  -9.060000        1.0000002E-24
  -9.050000        1.0000002E-24
  -9.040000        1.0000002E-24
  -9.030000        1.0000002E-24
  -9.020000        1.0000002E-24
  -9.010000        1.0000002E-24
  -9.000000        1.0000002E-24
  -8.990000        1.0000002E-24
  -8.980000        1.0000002E-24
  -8.970000        1.0000002E-24
  -8.960000        1.0000002E-24
  -8.950000        1.0000002E-24
  -8.940000        1.0000002E-24
  -8.930000        1.0000002E-24
  -8.920000        1.0000002E-24
  -8.910000        1.0000002E-24
  -8.900000        1.0000002E-24
  -8.890000        1.0000002E-24
  -8.880000        1.0000002E-24
  -8.870000        1.0000002E-24
  -8.860000        1.0000002E-24
  -8.850000        1.0000002E-24
  -8.840000        1.0000002E-24
  -8.830000        1.0000002E-24
  -8.820000        1.0000002E-24
  -8.810000        1.0000002E-24
  -8.800000        1.0000002E-24
  -8.790000        1.0000002E-24
  -8.780000        1.0000002E-24
  -8.770000        1.0000002E-24
  -8.760000        1.0000002E-24
  -8.750000        1.0000002E-24
  -8.740000        1.0000002E-24
  -8.730000        1.0000003E-24
  -8.720000        1.0000003E-24
  -8.710000        1.0000003E-24
  -8.700000        1.0000003E-24
  -8.690000        1.0000003E-24
  -8.680000        1.0000003E-24
  -8.670000        1.0000003E-24
  -8.660000        1.0000003E-24
  -8.650000        1.0000003E-24
  -8.640000        1.0000003E-24
  -8.630000        1.0000002E-24
  -8.620000        1.0000002E-24
  -8.610000        1.0000001E-24
  -8.600000        1.0000001E-24
  -8.590000        1.0000000E-24
  -8.580000        9.9999992E-25
  -8.570000        9.9999982E-25
  -8.560000        9.9999972E-25
  -8.550000        9.9999963E-25
  -8.540000        9.9999953E-25
  -8.530000        9.9999943E-25
  -8.520000        9.9999933E-25
  -8.510000        9.9999923E-25
  -8.500000        9.9999913E-25
  -8.490000        9.9999913E-25
  -8.480000        9.9999923E-25
  -8.470000        9.9999943E-25
  -8.460000        9.9999963E-25
  -8.450000        9.9999992E-25
  -8.440000        1.0000002E-24
  -8.430000        1.0000006E-24
  -8.420000        1.0000012E-24
  -8.410000        1.0000019E-24
  -8.400000        1.0000026E-24
  -8.390000        1.0000034E-24
  -8.380000        1.0000042E-24
  -8.370000        1.0000051E-24
  -8.360000        1.0000060E-24
  -8.350000        1.0000068E-24
  -8.340000        1.0000076E-24
  -8.330000        1.0000082E-24
  -8.320000        1.0000085E-24
  -8.310000        1.0000086E-24
  -8.300000        1.0000083E-24
  -8.290000        1.0000076E-24
  -8.280000        1.0000065E-24
  -8.270000        1.0000049E-24
  -8.260000        1.0000025E-24
  -8.250000        9.9999963E-25
  -8.240000        9.9999598E-25
  -8.230000        9.9999164E-25
  -8.220000        9.9998661E-25
  -8.210000        9.9998099E-25
  -8.200000        9.9997487E-25
  -8.190000        9.9996817E-25
  -8.180000        9.9996137E-25
  -8.170000        9.9995466E-25
  -8.160000        9.9994825E-25
  -8.150000        9.9994253E-25
  -8.140000        9.9993790E-25
  -8.130000        9.9993504E-25
  -8.120000        9.9993415E-25
  -8.110000        9.9993612E-25
  -8.100000        9.9994125E-25
  -8.090000        9.9995022E-25
  -8.080000        9.9996344E-25
  -8.070000        9.9998128E-25
  -8.060000        1.0000042E-24
  -8.050000        1.0000323E-24
  -8.040000        1.0000654E-24
  -8.030000        1.0001034E-24
  -8.020000        1.0001456E-24
  -8.010000        1.0001910E-24
  -8.000000        1.0002384E-24
  -7.990000        1.0002861E-24
  -7.980000        1.0003320E-24
  -7.970000        1.0003737E-24
  -7.960000        1.0004086E-24
  -7.950000        1.0004332E-24
  -7.940000        1.0004444E-24
  -7.930000        1.0004388E-24
  -7.920000        1.0004129E-24
  -7.910000        1.0003636E-24
  -7.900000        1.0002877E-24
  -7.890000        1.0001828E-24
  -7.880000        1.0000477E-24
  -7.870000        9.9988189E-25
  -7.860000        9.9968586E-25
  -7.850000        9.9946192E-25
  -7.840000        9.9921402E-25
  -7.830000        9.9894817E-25
  -7.820000        9.9867187E-25
  -7.810000        9.9839538E-25
  -7.800000        9.9813012E-25
  -7.790000        9.9789001E-25
  -7.780000        9.9769053E-25
  -7.770000        9.9754804E-25
  -7.760000        9.9748000E-25
  -7.750000        9.9750416E-25
  -7.740000        9.9763748E-25
  -7.730000        9.9789554E-25
  -7.720000        9.9829154E-25
  -7.710000        9.9883537E-25
  -7.700000        9.9953252E-25
  -7.690000        1.0003829E-24
  -7.680000        1.0013802E-24
  -7.670000        1.0025106E-24
  -7.660000        1.0037518E-24
  -7.650000        1.0050735E-24
  -7.640000        1.0064357E-24
  -7.630000        1.0077906E-24
  -7.620000        1.0090812E-24
  -7.610000        1.0102433E-24
  -7.600000        1.0112068E-24
  -7.590000        1.0118973E-24
  -7.580000        1.0122386E-24
  -7.570000        1.0121555E-24
  -7.560000        1.0115768E-24
  -7.550000        1.0104394E-24
  -7.540000        1.0086920E-24
  -7.530000        1.0062984E-24
  -7.520000        1.0032429E-24
  -7.510000        9.9953301E-25
  -7.500000        9.9520345E-25
  -7.490000        9.9031912E-25
  -7.480000        9.8497735E-25
  -7.470000        9.7930909E-25
  -7.460000        9.7347930E-25
  -7.450000        9.6768542E-25
  -7.440000        9.6215531E-25
  -7.430000        9.5714249E-25
  -7.420000        9.5292090E-25
  -7.410000        9.4977689E-25
  -7.400000        9.4800028E-25
  -7.390000        9.4787406E-25
  -7.380000        9.4966241E-25
  -7.370000        9.5359764E-25
  -7.360000        9.5986721E-25
  -7.350000        9.6859961E-25
  -7.340000        9.7985103E-25
  -7.330000        9.9359319E-25
  -7.320000        1.0097015E-24
  -7.310000        1.0279466E-24
  -7.300000        1.0479870E-24
  -7.290000        1.0693665E-24
  -7.280000        1.0915144E-24
  -7.270000        1.1137499E-24
  -7.260000        1.1352916E-24
  -7.250000        1.1552722E-24
  -7.240000        1.1727571E-24
  -7.230000        1.1867687E-24
  -7.220000        1.1963155E-24
  -7.210000        1.2004250E-24
  -7.200000        1.1981811E-24
  -7.190000        1.1887628E-24
  -7.180000        1.1714863E-24
  -7.170000        1.1458460E-24
  -7.160000        1.1115565E-24
  -7.150000        1.0685902E-24
  -7.140000        1.0172122E-24
  -7.130000        9.5800905E-25
  -7.120000        8.9190981E-25
  -7.110000        8.2019914E-25
  -7.100000        7.4451884E-25
  -7.090000        6.6685819E-25
  -7.080000        5.8953153E-25
  -7.070000        5.1514229E-25
  -7.060000        4.4653314E-25
  -7.050000        3.8672225E-25
  -7.040000        3.3882621E-25
  -7.030000        3.0597065E-25
  -7.020000        2.9119003E-25
  -7.010000        2.9731877E-25
  -7.000000        3.2687509E-25
  -6.990000        3.8194271E-25
  -6.980000        4.6405172E-25
  -6.970000        5.7406296E-25
  -6.960000        7.1206096E-25
  -6.950000        8.7725760E-25
  -6.940000        1.0679132E-24
  -6.930000        1.2812766E-24
  -6.920000        1.5135514E-24
  -6.910000        1.7598883E-24
  -6.900000        2.0144111E-24
  -6.890000        2.2702750E-24
  -6.880000        2.5197620E-24
  -6.870000        2.7544134E-24
  -6.860000        2.9651996E-24
  -6.850000        3.1427252E-24
  -6.840000        3.2774713E-24
  -6.830000        3.3600647E-24
  -6.820000        3.3815769E-24
  -6.810000        3.3338410E-24
  -6.800000        3.2097851E-24
  -6.790000        3.0037680E-24
  -6.780000        2.7119131E-24
  -6.770000        2.3324286E-24
  -6.760000        1.8659018E-24
  -6.750000        1.3155594E-24
  -6.740000        6.8747946E-25
  -6.730000       -9.2541542E-27
  -6.720000       -7.6246636E-25
  -6.710000       -1.5568865E-24
  -6.700000       -2.3742295E-24
  -6.690000       -3.1933764E-24
  -6.680000       -3.9906533E-24
  -6.670000       -4.7402182E-24
  -6.660000       -5.4145523E-24
  -6.650000       -5.9850581E-24
  -6.640000       -6.4227517E-24
  -6.630000       -6.6990549E-24
  -6.620000       -6.7866548E-24
  -6.610000       -6.6604386E-24
  -6.600000       -6.2984658E-24
  -6.590000       -5.6829630E-24
  -6.580000       -4.8013203E-24
  -6.570000       -3.6470499E-24
  -6.560000       -2.2206823E-24
  -6.550000       -5.3057350E-25
  -6.540000        1.4064267E-24
  -6.530000        3.5644660E-24
  -6.520000        5.9083773E-24
  -6.510000        8.3935928E-24
  -6.500000        1.0966325E-23
  -6.490000        1.3564022E-23
  -6.480000        1.6116125E-23
  -6.470000        1.8545148E-23
  -6.460000        2.0768076E-23
  -6.450000        2.2698072E-23
  -6.440000        2.4246508E-23
  -6.430000        2.5325264E-23
  -6.420000        2.5849284E-23
  -6.410000        2.5739332E-23
  -6.400000        2.4924915E-23
  -6.390000        2.3347255E-23
  -6.380000        2.0962300E-23
  -6.370000        1.7743646E-23
  -6.360000        1.3685279E-23
  -6.350000        8.8040561E-24
  -6.340000        3.1418182E-24
  -6.330000       -3.2329825E-24
  -6.320000       -1.0224218E-23
  -6.310000       -1.7707693E-23
  -6.300000       -2.5531505E-23
  -6.290000       -3.3517229E-23
  -6.280000       -4.1461986E-23
  -6.270000       -4.9141440E-23
  -6.260000       -5.6313713E-23
  -6.250000       -6.2724230E-23
  -6.240000       -6.8111481E-23
  -6.230000       -7.2213552E-23
  -6.220000       -7.4775393E-23
  -6.210000       -7.5556687E-23
  -6.200000       -7.4340119E-23
  -6.190000       -7.0939939E-23
  -6.180000       -6.5210436E-23
  -6.170000       -5.7054296E-23
  -6.160000       -4.6430422E-23
  -6.150000       -3.3361013E-23
  -6.140000       -1.7937608E-23
  -6.130000       -3.2584822E-25
  -6.120000        1.9231377E-23
  -6.110000        4.0412581E-23
  -6.100000        6.2818357E-23
  -6.090000        8.5974315E-23
  -6.080000        1.0933637E-22
  -6.070000        1.3229851E-22
  -6.060000        1.5420301E-22
  -6.050000        1.7435307E-22
  -6.040000        1.9202790E-22
  -6.030000        2.0649978E-22
  -6.020000        2.1705310E-22
  -6.010000        2.2300484E-22
  -6.000000        2.2372630E-22
  -5.990000        2.1866533E-22
  -5.980000        2.0736848E-22
  -5.970000        1.8950312E-22
  -5.960000        1.6487774E-22
  -5.950000        1.3346085E-22
  -5.940000        9.5397208E-23
  -5.930000        5.1020810E-23
  -5.920000        8.6411054E-25
  -5.910000       -5.4337212E-23
  -5.900000       -1.1364446E-22
  -5.890000       -1.7592154E-22
  -5.880000       -2.3984628E-22
  -5.870000       -3.0392771E-22
  -5.860000       -3.6652926E-22
  -5.850000       -4.2589810E-22
  -5.840000       -4.8019990E-22
  -5.830000       -5.2755892E-22
  -5.820000       -5.6610279E-22
  -5.810000       -5.9401100E-22
  -5.800000       -6.0956653E-22
  -5.790000       -6.1120913E-22
  -5.780000       -5.9758947E-22
  -5.770000       -5.6762210E-22
  -5.760000       -5.2053677E-22
  -5.750000       -4.5592576E-22
  -5.740000       -3.7378623E-22
  -5.730000       -2.7455570E-22
  -5.720000       -1.5913957E-22
  -5.710000       -2.8929123E-23
  -5.700000        1.1419128E-22
  -5.690000        2.6784870E-22
  -5.680000        4.2919870E-22
  -5.670000        5.9495576E-22
  -5.660000        7.6143687E-22
  -5.650000        9.2461900E-22
  -5.640000        1.0802094E-21
  -5.630000        1.2237284E-21
  -5.620000        1.3506037E-21
  -5.610000        1.4562742E-21
  -5.600000        1.5363026E-21
  -5.590000        1.5864933E-21
  -5.580000        1.6030146E-21
  -5.570000        1.5825215E-21
  -5.560000        1.5222766E-21
  -5.550000        1.4202659E-21
  -5.540000        1.2753070E-21
  -5.530000        1.0871447E-21
  -5.520000        8.5653351E-22
  -5.510000        5.8530097E-22
  -5.500000        2.7639174E-22
  -5.490000       -6.6111914E-23
  -5.480000       -4.3699491E-22
  -5.470000       -8.2994150E-22
  -5.460000       -1.2375950E-21
  -5.450000       -1.6516480E-21
  -5.440000       -2.0629600E-21
  -5.430000       -2.4617049E-21
  -5.420000       -2.8375456E-21
  -5.410000       -3.1798333E-21
  -5.400000       -3.4778308E-21
  -5.390000       -3.7209516E-21
  -5.380000       -3.8990184E-21
  -5.370000       -4.0025283E-21
  -5.360000       -4.0229242E-21
  -5.350000       -3.9528655E-21
  -5.340000       -3.7864899E-21
  -5.330000       -3.5196636E-21
  -5.320000       -3.1502093E-21
  -5.310000       -2.6781079E-21
  -5.300000       -2.1056672E-21
  -5.290000       -1.4376488E-21
  -5.280000       -6.8135176E-22
  -5.270000        1.5335659E-22
  -5.260000        1.0540626E-21
  -5.250000        2.0058904E-21
  -5.240000        2.9916443E-21
  -5.230000        3.9920136E-21
  -5.220000        4.9858425E-21
  -5.210000        5.9504578E-21
  -5.200000        6.8620553E-21
  -5.190000        7.6961433E-21
  -5.180000        8.4280294E-21
  -5.170000        9.0333487E-21
  -5.160000        9.4886316E-21
  -5.150000        9.7718788E-21
  -5.140000        9.8631643E-21
  -5.130000        9.7452240E-21
  -5.120000        9.4040371E-21
  -5.110000        8.8293767E-21
  -5.100000        8.0153220E-21
  -5.090000        6.9607103E-21
  -5.080000        5.6695238E-21
  -5.070000        4.1511881E-21
  -5.060000        2.4207826E-21
  -5.050000        4.9913681E-22
  -5.040000       -1.5871836E-21
  -5.030000       -3.8060244E-21
  -5.020000       -6.1199022E-21
  -5.010000       -8.4864240E-21
  -5.000000       -1.0858820E-20
  -4.990000       -1.3186621E-20
  -4.980000       -1.5416461E-20
  -4.970000       -1.7492999E-20
  -4.960000       -1.9359957E-20
  -4.950000       -2.0961240E-20
  -4.940000       -2.2242152E-20
  -4.930000       -2.3150662E-20
  -4.920000       -2.3638702E-20
  -4.910000       -2.3663481E-20
  -4.900000       -2.3188789E-20
  -4.890000       -2.2186246E-20
  -4.880000       -2.0636487E-20
  -4.870000       -1.8530235E-20
  -4.860000       -1.5869247E-20
  -4.850000       -1.2667086E-20
  -4.840000       -8.9497226E-21
  -4.830000       -4.7558943E-21
  -4.820000       -1.3724246E-22
  -4.810000        4.8418262E-21
  -4.800000        1.0104539E-20
  -4.790000        1.5562460E-20
  -4.780000        2.1116477E-20
  -4.770000        2.6658084E-20
  -4.760000        3.2070965E-20
  -4.750000        3.7232828E-20
  -4.740000        4.2017528E-20
  -4.730000        4.6297399E-20
  -4.720000        4.9945799E-20
  -4.710000        5.2839810E-20
  -4.700000        5.4863071E-20
  -4.690000        5.5908634E-20
  -4.680000        5.5881905E-20
  -4.670000        5.4703451E-20
  -4.660000        5.2311768E-20
  -4.650000        4.8665850E-20
  -4.640000        4.3747489E-20
  -4.630000        3.7563319E-20
  -4.620000        3.0146455E-20
  -4.610000        2.1557734E-20
  -4.600000        1.1886425E-20
  -4.590000        1.2504432E-21
  -4.580000       -1.0204006E-20
  -4.570000       -2.2303421E-20
  -4.560000       -3.4848602E-20
  -4.550000       -4.7616904E-20
  -4.540000       -6.0365134E-20
  -4.530000       -7.2833046E-20
  -4.520000       -8.4747465E-20
  -4.510000       -9.5826935E-20
  -4.500000       -1.0578686E-19
  -4.490000       -1.1434512E-19
  -4.480000       -1.2122789E-19
  -4.470000       -1.2617592E-19
  -4.460000       -1.2895068E-19
  -4.450000       -1.2934074E-19
  -4.440000       -1.2716787E-19
  -4.430000       -1.2229297E-19
  -4.420000       -1.1462163E-19
  -4.410000       -1.0410904E-19
  -4.400000       -9.0764370E-20
  -4.390000       -7.4654259E-20
  -4.380000       -5.5905422E-20
  -4.370000       -3.4706182E-20
  -4.360000       -1.1306894E-20
  -4.350000        1.3980863E-20
  -4.340000        4.0786457E-20
  -4.330000        6.8683514E-20
  -4.320000        9.7194840E-20
  -4.310000        1.2579842E-19
  -4.300000        1.5393494E-19
  -4.290000        1.8101637E-19
  -4.280000        2.0643582E-19
  -4.270000        2.2957834E-19
  -4.260000        2.4983264E-19
  -4.250000        2.6660334E-19
  -4.240000        2.7932398E-19
  -4.230000        2.8747000E-19
  -4.220000        2.9057193E-19
  -4.210000        2.8822814E-19
  -4.200000        2.8011735E-19
  -4.190000        2.6600994E-19
  -4.180000        2.4577852E-19
  -4.170000        2.1940694E-19
  -4.160000        1.8699779E-19
  -4.150000        1.4877800E-19
  -4.140000        1.0510227E-19
  -4.130000        5.6454295E-20
  -4.120000        3.4455594E-21
  -4.110000       -5.3188566E-20
  -4.100000       -1.1259531E-19
  -4.090000       -1.7381356E-19
  -4.080000       -2.3578584E-19
  -4.070000       -2.9737259E-19
  -4.060000       -3.5736930E-19
  -4.050000       -4.1452541E-19
  -4.040000       -4.6756570E-19
  -4.030000       -5.1521343E-19
  -4.020000       -5.5621429E-19
  -4.010000       -5.8936221E-19
  -4.000000       -6.1352519E-19
  -3.990000       -6.2767147E-19
  -3.980000       -6.3089520E-19
  -3.970000       -6.2244152E-19
  -3.960000       -6.0172969E-19
  -3.950000       -5.6837482E-19
  -3.940000       -5.2220708E-19
  -3.930000       -4.6328732E-19
  -3.920000       -3.9192011E-19
  -3.910000       -3.0866252E-19
  -3.900000       -2.1432844E-19
  -3.890000       -1.0998878E-19
  -3.880000        3.0335179E-21
  -3.870000        1.2317335E-19
  -3.860000        2.4863816E-19
  -3.850000        3.7742837E-19
  -3.840000        5.0736203E-19
  -3.830000        6.3610510E-19
  -3.820000        7.6120541E-19
  -3.810000        8.8013144E-19
  -3.800000        9.9031448E-19
  -3.790000        1.0891936E-18
  -3.780000        1.1742639E-18
  -3.770000        1.2431250E-18
  -3.760000        1.2935315E-18
  -3.750000        1.3234434E-18
  -3.740000        1.3310747E-18
  -3.730000        1.3149412E-18
  -3.720000        1.2739042E-18
  -3.710000        1.2072115E-18
  -3.700000        1.1145333E-18
  -3.690000        9.9599194E-19
  -3.680000        8.5218582E-19
  -3.670000        6.8420539E-19
  -3.660000        4.9364185E-19
  -3.650000        2.8258651E-19
  -3.640000        5.3621667E-20
  -3.630000       -1.9019780E-19
  -3.620000       -4.4537296E-19
  -3.610000       -7.0799805E-19
  -3.600000       -9.7380758E-19
  -3.590000       -1.2382327E-18
  -3.580000       -1.4964649E-18
  -3.570000       -1.7435292E-18
  -3.560000       -1.9743633E-18
  -3.550000       -2.1839022E-18
  -3.540000       -2.3671690E-18
  -3.530000       -2.5193676E-18
  -3.520000       -2.6359785E-18
  -3.510000       -2.7128538E-18
  -3.500000       -2.7463126E-18
  -3.490000       -2.7332310E-18
  -3.480000       -2.6711300E-18
  -3.470000       -2.5582542E-18
  -3.460000       -2.3936442E-18
  -3.450000       -2.1771975E-18
  -3.440000       -1.9097189E-18
  -3.430000       -1.5929567E-18
  -3.420000       -1.2296251E-18
  -3.410000       -8.2340991E-19
  -3.400000       -3.7895889E-19
  -3.390000        9.8145691E-20
  -3.380000        6.0143387E-19
  -3.370000        1.1236112E-18
  -3.360000        1.6566393E-18
  -3.350000        2.1918365E-18
  -3.340000        2.7199932E-18
  -3.330000        3.2315029E-18
  -3.320000        3.7165076E-18
  -3.310000        4.1650570E-18
  -3.300000        4.5672749E-18
  -3.290000        4.9135380E-18
  -3.280000        5.1946558E-18
  -3.270000        5.4020535E-18
  -3.260000        5.5279579E-18
  -3.250000        5.5655760E-18
  -3.240000        5.5092665E-18
  -3.230000        5.3547028E-18
  -3.220000        5.0990196E-18
  -3.210000        4.7409447E-18
  -3.200000        4.2809082E-18
  -3.190000        3.7211274E-18
  -3.180000        3.0656707E-18
  -3.170000        2.3204838E-18
  -3.160000        1.4933937E-18
  -3.150000        5.9407398E-19
  -3.140000       -3.6602104E-19
  -3.130000       -1.3737563E-18
  -3.120000       -2.4144527E-18
  -3.110000       -3.4720563E-18
  -3.100000       -4.5293424E-18
  -3.090000       -5.5681473E-18
  -3.080000       -6.5696343E-18
  -3.070000       -7.5145827E-18
  -3.060000       -8.3836955E-18
  -3.050000       -9.1579341E-18
  -3.040000       -9.8188572E-18
  -3.030000       -1.0348973E-17
  -3.020000       -1.0732092E-17
  -3.010000       -1.0953677E-17
  -3.000000       -1.1001184E-17
  -2.990000       -1.0864380E-17
  -2.980000       -1.0535650E-17
  -2.970000       -1.0010262E-17
  -2.960000       -9.2866078E-18
  -2.950000       -8.3663901E-18
  -2.940000       -7.2547718E-18
  -2.930000       -5.9604732E-18
  -2.920000       -4.4958036E-18
  -2.910000       -2.8766409E-18
  -2.900000       -1.1223487E-18
  -2.890000        7.4437813E-19
  -2.880000        2.6977271E-18
  -2.870000        4.7090511E-18
  -2.860000        6.7472109E-18
  -2.850000        8.7789812E-18
  -2.840000        1.0769517E-17
  -2.830000        1.2682858E-17
  -2.820000        1.4482503E-17
  -2.810000        1.6131994E-17
  -2.800000        1.7595554E-17
  -2.790000        1.8838732E-17
  -2.780000        1.9829059E-17
  -2.770000        2.0536709E-17
  -2.760000        2.0935144E-17
  -2.750000        2.1001730E-17
  -2.740000        2.0718338E-17
  -2.730000        2.0071862E-17
  -2.720000        1.9054713E-17
  -2.710000        1.7665224E-17
  -2.700000        1.5907970E-17
  -2.690000        1.3794015E-17
  -2.680000        1.1341039E-17
  -2.670000        8.5733747E-18
  -2.660000        5.5219252E-18
  -2.650000        2.2239654E-18
  -2.640000       -1.2771762E-18
  -2.630000       -4.9325533E-18
  -2.620000       -8.6881468E-18
  -2.610000       -1.2485539E-17
  -2.600000       -1.6262687E-17
  -2.590000       -1.9954798E-17
  -2.580000       -2.3495278E-17
  -2.570000       -2.6816788E-17
  -2.560000       -2.9852340E-17
  -2.550000       -3.2536455E-17
  -2.540000       -3.4806334E-17
  -2.530000       -3.6603056E-17
  -2.520000       -3.7872779E-17
  -2.510000       -3.8567875E-17
  -2.500000       -3.8648059E-17
  -2.490000       -3.8081413E-17
  -2.480000       -3.6845351E-17
  -2.470000       -3.4927453E-17
  -2.460000       -3.2326165E-17
  -2.450000       -2.9051381E-17
  -2.440000       -2.5124810E-17
  -2.430000       -2.0580226E-17
  -2.420000       -1.5463478E-17
  -2.410000       -9.8323130E-18
  -2.400000       -3.7560183E-18
  -2.390000        2.6851852E-18
  -2.380000        9.4009341E-18
  -2.370000        1.6291732E-17
  -2.360000        2.3250163E-17
  -2.350000        3.0162258E-17
  -2.340000        3.6909097E-17
  -2.330000        4.3368534E-17
  -2.320000        4.9417034E-17
  -2.310000        5.4931711E-17
  -2.300000        5.9792340E-17
  -2.290000        6.3883496E-17
  -2.280000        6.7096722E-17
  -2.270000        6.9332664E-17
  -2.260000        7.0503145E-17
  -2.250000        7.0533214E-17
  -2.240000        6.9363038E-17
  -2.230000        6.6949663E-17
  -2.220000        6.3268564E-17
  -2.210000        5.8315002E-17
  -2.200000        5.2105109E-17
  -2.190000        4.4676716E-17
  -2.180000        3.6089821E-17
  -2.170000        2.6426803E-17
  -2.160000        1.5792205E-17
  -2.150000        4.3122059E-18
  -2.140000       -7.8663023E-18
  -2.130000       -2.0577023E-17
  -2.120000       -3.3635897E-17
  -2.110000       -4.6843192E-17
  -2.100000       -5.9985821E-17
  -2.090000       -7.2840142E-17
  -2.080000       -8.5174960E-17
  -2.070000       -9.6754873E-17
  -2.060000       -1.0734377E-16
  -2.050000       -1.1670863E-16
  -2.040000       -1.2462341E-16
  -2.030000       -1.3087298E-16
  -2.020000       -1.3525724E-16
  -2.010000       -1.3759502E-16
  -2.000000       -1.3772814E-16
  -1.990000       -1.3552507E-16
  -1.980000       -1.3088452E-16
  -1.970000       -1.2373879E-16
  -1.960000       -1.1405659E-16
  -1.950000       -1.0184568E-16
  -1.940000       -8.7154879E-17
  -1.930000       -7.0075658E-17
  -1.920000       -5.0743074E-17
  -1.910000       -2.9336156E-17
  -1.900000       -6.0776434E-18
  -1.890000        1.8767070E-17
  -1.880000        4.4891496E-17
  -1.870000        7.1950539E-17
  -1.860000        9.9563561E-17
  -1.850000        1.2731829E-16
  -1.840000        1.5477519E-16
  -1.830000        1.8147269E-16
  -1.820000        2.0693313E-16
  -1.810000        2.3066891E-16
  -1.800000        2.5218948E-16
  -1.790000        2.7100861E-16
  -1.780000        2.8665218E-16
  -1.770000        2.9866586E-16
  -1.760000        3.0662328E-16
  -1.750000        3.1013426E-16
  -1.740000        3.0885267E-16
  -1.730000        3.0248433E-16
  -1.720000        2.9079459E-16
  -1.710000        2.7361536E-16
  -1.700000        2.5085169E-16
  -1.690000        2.2248747E-16
  -1.680000        1.8859060E-16
  -1.670000        1.4931697E-16
  -1.660000        1.0491346E-16
  -1.650000        5.5719945E-17
  -1.640000        2.1698418E-18
  -1.630000       -5.5210627E-17
  -1.620000       -1.1580423E-16
  -1.610000       -1.7890638E-16
  -1.600000       -2.4373008E-16
  -1.590000       -3.0941219E-16
  -1.580000       -3.7502135E-16
  -1.570000       -4.3956719E-16
  -1.560000       -5.0201112E-16
  -1.550000       -5.6127828E-16
  -1.540000       -6.1627047E-16
  -1.530000       -6.6588098E-16
  -1.520000       -7.0900919E-16
  -1.510000       -7.4457717E-16
  -1.500000       -7.7154601E-16
  -1.490000       -7.8893300E-16
  -1.480000       -7.9582933E-16
  -1.470000       -7.9141708E-16
  -1.460000       -7.7498634E-16
  -1.450000       -7.4595195E-16
  -1.440000       -7.0386940E-16
  -1.430000       -6.4844957E-16
  -1.420000       -5.7957255E-16
  -1.410000       -4.9729966E-16
  -1.400000       -4.0188370E-16
  -1.390000       -2.9377760E-16
  -1.380000       -1.7364030E-16
  -1.370000       -4.2340547E-17
  -1.360000        9.9042087E-17
  -1.350000        2.4921861E-16
  -1.340000        4.0669554E-16
  -1.330000        5.6978218E-16
  -1.320000        7.3660134E-16
  -1.310000        9.0510362E-16
  -1.300000        1.0730837E-15
  -1.290000        1.2382002E-15
  -1.280000        1.3979989E-15
  -1.270000        1.5499387E-15
  -1.260000        1.6914194E-15
  -1.250000        1.8198124E-15
  -1.240000        1.9324949E-15
  -1.230000        2.0268834E-15
  -1.220000        2.1004698E-15
  -1.210000        2.1508610E-15
  -1.200000        2.1758144E-15
  -1.190000        2.1732780E-15
  -1.180000        2.1414283E-15
  -1.170000        2.0787078E-15
  -1.160000        1.9838606E-15
  -1.150000        1.8559686E-15
  -1.140000        1.6944819E-15
  -1.130000        1.4992499E-15
  -1.120000        1.2705465E-15
  -1.110000        1.0090922E-15
  -1.100000        7.1607265E-16
  -1.090000        3.9315182E-16
  -1.080000        4.2479778E-17
  -1.070000       -3.3330527E-16
  -1.060000       -7.3107964E-16
  -1.050000       -1.1472452E-15
  -1.040000       -1.5777448E-15
  -1.030000       -2.0180844E-15
  -1.020000       -2.4633649E-15
  -1.010000       -2.9083152E-15
  -1.000000       -3.3473372E-15
 -0.9900000       -3.7745541E-15
 -0.9800000       -4.1838655E-15
 -0.9700000       -4.5690088E-15
 -0.9600000       -4.9236259E-15
 -0.9500000       -5.2413357E-15
 -0.9400000       -5.5158074E-15
 -0.9300000       -5.7408416E-15
 -0.9200000       -5.9104545E-15