  -10.00000        1.0000000E-24
  -9.990000        1.0000000E-24
  -9.980000        1.0000000E-24
  -9.970000        1.0000000E-24
  -9.960000        1.0000000E-24
  -9.950000        1.0000000E-24
  -9.940000        1.0000000E-24
  -9.930000        1.0000000E-24
  -9.920000        1.0000001E-24
  -9.910000        1.0000009E-24
  -9.900000        1.0000049E-24
  -9.890000        1.0000215E-24
  -9.880000        1.0000791E-24
  -9.870000        1.0002534E-24
  -9.860000        1.0007281E-24
  -9.850000        1.0019104E-24
  -9.840000        1.0046408E-24
  -9.830000        1.0105473E-24
  -9.820000        1.0226141E-24
  -9.810000        1.0460431E-24
  -9.800000        1.0895017E-24
  -9.790000        1.1668411E-24
  -9.780000        1.2993526E-24
  -9.770000        1.5185810E-24
  -9.760000        1.8696394E-24
  -9.750000        2.4148535E-24
  -9.740000        3.2374165E-24
  -9.730000        4.4445382E-24
  -9.720000        6.1693652E-24
  -9.710000        8.5707197E-24
  -9.700000        1.1829480E-23
  -9.690000        1.6140268E-23
  -9.680000        2.1697032E-23
  -9.670000        2.8671131E-23
  -9.660000        3.7180797E-23
  -9.650000        4.7251314E-23
  -9.640000        5.8765897E-23
  -9.630000        7.1408421E-23
  -9.620000        8.4600328E-23
  -9.610000        9.7435656E-23
  -9.600000        1.0862000E-22
  -9.590000        1.1642098E-22
  -9.580000        1.1863972E-22
  -9.570000        1.1261448E-22
  -9.560000        9.5268567E-23
  -9.550000        6.3215577E-23
  -9.540000        1.2933900E-23
  -9.530000       -5.8978820E-23
  -9.520000       -1.5546373E-22
  -9.510000       -2.7856887E-22
  -9.500000       -4.2893091E-22
  -9.490000       -6.0518273E-22
  -9.480000       -8.0330789E-22
  -9.470000       -1.0159753E-21
  -9.460000       -1.2318964E-21
  -9.450000       -1.4352625E-21
  -9.440000       -1.6053249E-21
  -9.430000       -1.7161980E-21
  -9.420000       -1.7369601E-21
  -9.410000       -1.6321395E-21
  -9.400000       -1.3626641E-21
  -9.390000       -8.8734548E-22
  -9.380000       -1.6494877E-22
  -9.370000        8.4311762E-22
  -9.360000        2.1694987E-21
  -9.350000        3.8370130E-21
  -9.340000        5.8542815E-21
  -9.330000        8.2110164E-21
  -9.320000        1.0873149E-20
  -9.310000        1.3778044E-20
  -9.300000        1.6830112E-20
  -9.290000        1.9897164E-20
  -9.280000        2.2807882E-20
  -9.270000        2.5350837E-20
  -9.260000        2.7275421E-20
  -9.250000        2.8295144E-20
  -9.240000        2.8093587E-20
  -9.230000        2.6333337E-20
  -9.220000        2.2668067E-20
  -9.210000        1.6757799E-20
  -9.200000        8.2872681E-21
  -9.190000       -3.0128658E-21
  -9.180000       -1.7342502E-20
  -9.170000       -3.4806881E-20
  -9.160000       -5.5390605E-20
  -9.150000       -7.8931972E-20
  -9.140000       -1.0509882E-19
  -9.130000       -1.3336751E-19
  -9.120000       -1.6300627E-19
  -9.110000       -1.9306473E-19
  -9.100000       -2.2237122E-19
  -9.090000       -2.4953896E-19
  -9.080000       -2.7298310E-19
  -9.070000       -2.9094881E-19
  -9.060000       -3.0155213E-19
  -9.050000       -3.0283292E-19
  -9.040000       -2.9282044E-19
  -9.030000       -2.6961034E-19
  -9.020000       -2.3145204E-19
  -9.010000       -1.7684426E-19
  -9.000000       -1.0463631E-19
  -8.990000       -1.4131873E-20
  -8.980000        9.4808734E-20
  -8.970000        2.2167112E-19
  -8.960000        3.6520001E-19
  -8.950000        5.2332672E-19
  -8.940000        6.9311625E-19
  -8.930000        8.7073829E-19
  -8.920000        1.0514669E-18
  -8.910000        1.2297116E-18
  -8.900000        1.3990842E-18
  -8.890000        1.5525025E-18
  -8.880000        1.6823316E-18
  -8.870000        1.7805636E-18
  -8.860000        1.8390322E-18
  -8.850000        1.8496619E-18
  -8.840000        1.8047433E-18
  -8.830000        1.6972323E-18
  -8.820000        1.5210625E-18
  -8.810000        1.2714657E-18
  -8.800000        9.4528680E-19
  -8.790000        5.4128631E-19
  -8.780000        6.0417246E-20
  -8.770000       -4.9393405E-19
  -8.760000       -1.1157534E-18
  -8.750000       -1.7962622E-18
  -8.740000       -2.5238482E-18
  -8.730000       -3.2840700E-18
  -8.720000       -4.0597454E-18
  -8.710000       -4.8311264E-18
  -8.700000       -5.5761635E-18
  -8.690000       -6.2708608E-18
  -8.680000       -6.8897188E-18
  -8.670000       -7.4062650E-18
  -8.660000       -7.7936552E-18
  -8.650000       -8.0253501E-18
  -8.640000       -8.0758437E-18
  -8.630000       -7.9214389E-18
  -8.620000       -7.5410417E-18
  -8.610000       -6.9169778E-18
  -8.600000       -6.0357922E-18
  -8.590000       -4.8890245E-18
  -8.580000       -3.4739356E-18
  -8.570000       -1.7941701E-18
  -8.560000        1.3967365E-19
  -8.550000        2.3095724E-18
  -8.540000        4.6897414E-18
  -8.530000        7.2464355E-18
  -8.520000        9.9379067E-18
  -8.510000        1.2714546E-17
  -8.500000        1.5519195E-17
  -8.490000        1.8287675E-17
  -8.480000        2.0949504E-17
  -8.470000        2.3428827E-17
  -8.460000        2.5645577E-17
  -8.450000        2.7516815E-17
  -8.440000        2.8958306E-17
  -8.430000        2.9886280E-17
  -8.420000        3.0219379E-17
  -8.410000        2.9880755E-17
  -8.400000        2.8800341E-17
  -8.390000        2.6917197E-17
  -8.380000        2.4181942E-17
  -8.370000        2.0559225E-17
  -8.360000        1.6030153E-17
  -8.350000        1.0594662E-17
  -8.340000        4.2737184E-18
  -8.330000       -2.8886675E-18
  -8.320000       -1.0823731E-17
  -8.310000       -1.9436615E-17
  -8.300000       -2.8605457E-17
  -8.290000       -3.8181062E-17
  -8.280000       -4.7987113E-17
  -8.270000       -5.7821149E-17
  -8.260000       -6.7456241E-17
  -8.250000       -7.6643525E-17
  -8.240000       -8.5115568E-17
  -8.230000       -9.2590660E-17
  -8.220000       -9.8777932E-17
  -8.210000       -1.0338344E-16
  -8.200000       -1.0611697E-16
  -8.190000       -1.0669970E-16
  -8.180000       -1.0487244E-16
  -8.170000       -1.0040435E-16
  -8.160000       -9.3102116E-17
  -8.150000       -8.2819043E-17
  -8.140000       -6.9464219E-17
  -8.130000       -5.3011229E-17
  -8.120000       -3.3506152E-17
  -8.110000       -1.1074710E-17
  -8.100000        1.4071959E-17
  -8.090000        4.1633059E-17
  -8.080000        7.1215777E-17
  -8.070000        1.0233510E-16
  -8.060000        1.3441604E-16
  -8.050000        1.6679839E-16
  -8.040000        1.9874445E-16
  -8.030000        2.2944939E-16
  -8.020000        2.5805465E-16
  -8.010000        2.8366411E-16
  -8.000000        3.0536284E-16
  -7.990000        3.2223852E-16
  -7.980000        3.3340450E-16
  -7.970000        3.3802509E-16
  -7.960000        3.3534153E-16
  -7.950000        3.2469872E-16
  -7.940000        3.0557164E-16
  -7.930000        2.7759109E-16
  -7.920000        2.4056757E-16
  -7.910000        1.9451290E-16
  -7.900000        1.3965832E-16
  -7.890000        7.6468831E-17
  -7.880000        5.6524060E-18
  -7.870000       -7.1835978E-17
  -7.860000       -1.5479653E-16
  -7.850000       -2.4179313E-16
  -7.840000       -3.3116889E-16
  -7.830000       -4.2106839E-16
  -7.820000       -5.0946702E-16
  -7.810000       -5.9420690E-16
  -7.800000       -6.7303862E-16
  -7.790000       -7.4366962E-16
  -7.780000       -8.0381621E-16
  -7.770000       -8.5126012E-16
  -7.760000       -8.8390678E-16
  -7.750000       -8.9984609E-16
  -7.740000       -8.9741087E-16
  -7.730000       -8.7523581E-16
  -7.720000       -8.3231088E-16
  -7.710000       -7.6803061E-16
  -7.700000       -6.8223671E-16
  -7.690000       -5.7525216E-16
  -7.680000       -4.4790546E-16
  -7.670000       -3.0154452E-16
  -7.660000       -1.3803841E-16
  -7.650000        4.0233254E-17
  -7.640000        2.3040426E-16
  -7.630000        4.2915867E-16
  -7.620000        6.3278036E-16
  -7.610000        8.3721573E-16
  -7.600000        1.0381470E-15
  -7.590000        1.2310763E-15
  -7.580000        1.4114178E-15
  -7.570000        1.5745973E-15
  -7.560000        1.7161565E-15
  -7.550000        1.8318582E-15
  -7.540000        1.9177933E-15
  -7.530000        1.9704830E-15
  -7.520000        1.9869777E-15
  -7.510000        1.9649458E-15
  -7.500000        1.9027536E-15
  -7.490000        1.7995323E-15
  -7.480000        1.6552285E-15
  -7.470000        1.4706413E-15
  -7.460000        1.2474381E-15
  -7.450000        9.8815457E-16
  -7.440000        6.9617294E-16
  -7.430000        3.7568209E-16
  -7.420000        3.1618347E-17
  -7.410000       -3.3041220E-16
  -7.400000       -7.0422753E-16
  -7.390000       -1.0831794E-15
  -7.380000       -1.4602757E-15
  -7.370000       -1.8283113E-15
  -7.360000       -2.1800098E-15
  -7.350000       -2.5081670E-15
  -7.340000       -2.8057973E-15
  -7.330000       -3.0662781E-15
  -7.320000       -3.2834868E-15
  -7.310000       -3.4519341E-15
  -7.300000       -3.5668828E-15
  -7.290000       -3.6244548E-15
  -7.280000       -3.6217202E-15
  -7.270000       -3.5567722E-15
  -7.260000       -3.4287784E-15
  -7.250000       -3.2380134E-15
  -7.240000       -2.9858720E-15
  -7.230000       -2.6748578E-15
  -7.220000       -2.3085544E-15
  -7.210000       -1.8915726E-15
  -7.200000       -1.4294827E-15
  -7.190000       -9.2872663E-16
  -7.180000       -3.9651436E-16
  -7.170000        1.5929025E-16
  -7.160000        7.3029825E-16
  -7.150000        1.3077304E-15
  -7.140000        1.8825597E-15
  -7.130000        2.4456560E-15
  -7.120000        2.9879327E-15
  -7.110000        3.5004918E-15
  -7.100000        3.9747648E-15
  -7.090000        4.4026490E-15
  -7.080000        4.7766352E-15
  -7.070000        5.0899256E-15
  -7.060000        5.3365447E-15
  -7.050000        5.5114325E-15
  -7.040000        5.6105290E-15
  -7.030000        5.6308463E-15
  -7.020000        5.5705202E-15
  -7.010000        5.4288552E-15
  -7.000000        5.2063486E-15
  -6.990000        4.9047002E-15
  -6.980000        4.5268105E-15
  -6.970000        4.0767573E-15
  -6.960000        3.5597623E-15
  -6.950000        2.9821368E-15
  -6.940000        2.3512167E-15
  -6.930000        1.6752773E-15
  -6.920000        9.6343581E-16
  -6.910000        2.2553708E-16
  -6.900000       -5.2797358E-16
  -6.890000       -1.2861960E-15
  -6.880000       -2.0379318E-15
  -6.870000       -2.7718505E-15
  -6.860000       -3.4766692E-15
  -6.850000       -4.1413423E-15
  -6.840000       -4.7552548E-15
  -6.830000       -5.3084232E-15
  -6.820000       -5.7916903E-15
  -6.810000       -6.1969248E-15
  -6.800000       -6.5172091E-15
  -6.790000       -6.7470147E-15
  -6.780000       -6.8823701E-15
  -6.770000       -6.9209969E-15
  -6.760000       -6.8624289E-15
  -6.750000       -6.7080956E-15
  -6.740000       -6.4613761E-15
  -6.730000       -6.1276104E-15
  -6.720000       -5.7140703E-15
  -6.710000       -5.2298863E-15
  -6.700000       -4.6859231E-15
  -6.690000       -4.0946136E-15
  -6.680000       -3.4697388E-15
  -6.670000       -2.8261657E-15
  -6.660000       -2.1795401E-15
  -6.650000       -1.5459399E-15
  -6.640000       -9.4149152E-16
  -6.630000       -3.8196379E-16
  -6.620000        1.1765596E-16
  -6.610000        5.4360605E-16
  -6.600000        8.8378110E-16
  -6.590000        1.1281598E-15
  -6.580000        1.2692056E-15
  -6.570000        1.3022390E-15
  -6.560000        1.2257508E-15
  -6.550000        1.0416723E-15
  -6.540000        7.5556747E-16
  -6.530000        3.7674832E-16
  -6.520000       -8.1694025E-17
  -6.510000       -6.0295432E-16
  -6.500000       -1.1666727E-15
  -6.490000       -1.7491990E-15
  -6.480000       -2.3239554E-15
  -6.470000       -2.8618986E-15
  -6.460000       -3.3320756E-15
  -6.450000       -3.7022688E-15
  -6.440000       -3.9397163E-15
  -6.430000       -4.0118915E-15
  -6.420000       -3.8873425E-15
  -6.410000       -3.5365635E-15
  -6.400000       -2.9328721E-15
  -6.390000       -2.0532974E-15
  -6.380000       -8.7943683E-16
  -6.370000        6.0173316E-16
  -6.360000        2.3971011E-15
  -6.350000        4.5067620E-15
  -6.340000        6.9234487E-15
  -6.330000        9.6320936E-15
  -6.320000        1.2609522E-14
  -6.310000        1.5824295E-14
  -6.300000        1.9236715E-14
  -6.290000        2.2798988E-14
  -6.280000        2.6455573E-14
  -6.270000        3.0143700E-14
  -6.260000        3.3794033E-14
  -6.250000        3.7331537E-14
  -6.240000        4.0676474E-14
  -6.230000        4.3745532E-14
  -6.220000        4.6453116E-14
  -6.210000        4.8712706E-14
  -6.200000        5.0438325E-14
  -6.190000        5.1546068E-14
  -6.180000        5.1955663E-14
  -6.170000        5.1592048E-14
  -6.160000        5.0386947E-14
  -6.150000        4.8280377E-14
  -6.140000        4.5222123E-14
  -6.130000        4.1173103E-14
  -6.120000        3.6106626E-14
  -6.110000        3.0009490E-14
  -6.100000        2.2882959E-14
  -6.090000        1.4743527E-14
  -6.080000        5.6235157E-15
  -6.070000       -4.4285640E-15
  -6.060000       -1.5347842E-14
  -6.050000       -2.7053157E-14
  -6.040000       -3.9447351E-14
  -6.030000       -5.2417780E-14
  -6.020000       -6.5837093E-14
  -6.010000       -7.9564183E-14
  -6.000000       -9.3445366E-14
  -5.990000       -1.0731578E-13
  -5.980000       -1.2100099E-13
  -5.970000       -1.3431865E-13
  -5.960000       -1.4708052E-13
  -5.950000       -1.5909438E-13
  -5.940000       -1.7016629E-13
  -5.930000       -1.8010270E-13
  -5.920000       -1.8871280E-13
  -5.910000       -1.9581084E-13
  -5.900000       -2.0121837E-13
  -5.890000       -2.0476657E-13
  -5.880000       -2.0629853E-13
  -5.870000       -2.0567132E-13
  -5.860000       -2.0275810E-13
  -5.850000       -1.9744995E-13
  -5.840000       -1.8965772E-13
  -5.830000       -1.7931346E-13
  -5.820000       -1.6637187E-13
  -5.810000       -1.5081145E-13
  -5.800000       -1.3263532E-13
  -5.790000       -1.1187191E-13
  -5.780000       -8.8575421E-14
  -5.770000       -6.2825857E-14
  -5.760000       -3.4729015E-14
  -5.750000       -4.4160656E-15
  -5.740000        2.7957036E-14
  -5.730000        6.2210355E-14
  -5.720000        9.8141052E-14
  -5.710000        1.3552455E-13
  -5.700000        1.7411598E-13
  -5.690000        2.1365159E-13
  -5.680000        2.5385043E-13
  -5.670000        2.9441605E-13
  -5.660000        3.3503810E-13
  -5.650000        3.7539411E-13
  -5.640000        4.1515118E-13
  -5.630000        4.5396757E-13
  -5.620000        4.9149427E-13
  -5.610000        5.2737643E-13
  -5.600000        5.6125471E-13
  -5.590000        5.9276640E-13
  -5.580000        6.2154660E-13
  -5.570000        6.4722923E-13
  -5.560000        6.6944762E-13
  -5.550000        6.8783569E-13
  -5.540000        7.0202812E-13
  -5.530000        7.1166185E-13
  -5.520000        7.1637618E-13
  -5.510000        7.1581413E-13
  -5.500000        7.0962301E-13
  -5.490000        6.9745620E-13
  -5.480000        6.7897435E-13
  -5.470000        6.5384758E-13
  -5.460000        6.2175758E-13
  -5.450000        5.8240077E-13
  -5.440000        5.3549146E-13
  -5.430000        4.8076609E-13
  -5.420000        4.1798758E-13
  -5.410000        3.4695098E-13
  -5.400000        2.6748926E-13
  -5.390000        1.7948002E-13
  -5.380000        8.2852623E-14
  -5.370000       -2.2403723E-14
  -5.360000       -1.3623185E-13
  -5.350000       -2.5849776E-13
  -5.340000       -3.8898163E-13
  -5.330000       -5.2736868E-13
  -5.320000       -6.7323989E-13
  -5.310000       -8.2606318E-13
  -5.300000       -9.8518492E-13
  -5.290000       -1.1498219E-12
  -5.280000       -1.3190540E-12
  -5.270000       -1.4918189E-12
  -5.260000       -1.6669066E-12
  -5.250000       -1.8429572E-12
  -5.240000       -2.0184590E-12
  -5.230000       -2.1917494E-12
  -5.220000       -2.3610176E-12
  -5.210000       -2.5243108E-12
  -5.200000       -2.6795419E-12
  -5.190000       -2.8244995E-12
  -5.180000       -2.9568624E-12
  -5.170000       -3.0742156E-12
  -5.160000       -3.1740699E-12
  -5.150000       -3.2538839E-12
  -5.140000       -3.3110888E-12
  -5.130000       -3.3431164E-12
  -5.120000       -3.3474291E-12
  -5.110000       -3.3215529E-12
  -5.100000       -3.2631109E-12
  -5.090000       -3.1698591E-12
  -5.080000       -3.0397249E-12
  -5.070000       -2.8708446E-12
  -5.060000       -2.6616012E-12
  -5.050000       -2.4106645E-12
  -5.040000       -2.1170279E-12
  -5.030000       -1.7800445E-12
  -5.020000       -1.3994640E-12
  -5.010000       -9.7546342E-13
  -5.000000       -5.0867855E-13
  -4.990000       -2.2993400E-16
  -4.980000        5.4825426E-13
  -4.970000        1.1346197E-12
  -4.960000        1.7561729E-12
  -4.950000        2.4096725E-12
  -4.940000        3.0913269E-12
  -4.930000        3.7967979E-12
  -4.920000        4.5212107E-12
  -4.910000        5.2591690E-12
  -4.900000        6.0047800E-12
  -4.890000        6.7516812E-12
  -4.880000        7.4930799E-12
  -4.870000        8.2217939E-12
  -4.860000        8.9302992E-12
  -4.850000        9.6107896E-12
  -4.840000        1.0255237E-11
  -4.830000        1.0855452E-11
  -4.820000        1.1403164E-11
  -4.810000        1.1890090E-11
  -4.800000        1.2308017E-11
  -4.790000        1.2648886E-11
  -4.780000        1.2904873E-11
  -4.770000        1.3068478E-11
  -4.760000        1.3132606E-11
  -4.750000        1.3090665E-11
  -4.740000        1.2936634E-11
  -4.730000        1.2665164E-11
  -4.720000        1.2271645E-11
  -4.710000        1.1752286E-11
  -4.700000        1.1104188E-11
  -4.690000        1.0325409E-11
  -4.680000        9.4150208E-12
  -4.670000        8.3731641E-12
  -4.660000        7.2010883E-12
  -4.650000        5.9011906E-12
  -4.640000        4.4770385E-12
  -4.630000        2.9333892E-12
  -4.620000        1.2761941E-12
  -4.610000       -4.8740656E-13
  -4.600000       -2.3490970E-12
  -4.590000       -4.2994107E-12
  -4.580000       -6.3277699E-12
  -4.570000       -8.4225326E-12
  -4.560000       -1.0571047E-11
  -4.550000       -1.2759719E-11
  -4.540000       -1.4974098E-11
  -4.530000       -1.7198954E-11
  -4.520000       -1.9418375E-11
  -4.510000       -2.1615872E-11
  -4.500000       -2.3774493E-11
  -4.490000       -2.5876927E-11
  -4.480000       -2.7905641E-11
  -4.470000       -2.9842986E-11
  -4.460000       -3.1671350E-11
  -4.450000       -3.3373269E-11
  -4.440000       -3.4931561E-11
  -4.430000       -3.6329478E-11
  -4.420000       -3.7550796E-11
  -4.410000       -3.8579983E-11
  -4.400000       -3.9402304E-11
  -4.390000       -4.0003941E-11
  -4.380000       -4.0372105E-11
  -4.370000       -4.0495156E-11
  -4.360000       -4.0362692E-11
  -4.350000       -3.9965631E-11
  -4.340000       -3.9296323E-11
  -4.330000       -3.8348595E-11
  -4.320000       -3.7117840E-11
  -4.310000       -3.5601033E-11
  -4.300000       -3.3796820E-11
  -4.290000       -3.1705513E-11
  -4.280000       -2.9329140E-11
  -4.270000       -2.6671425E-11
  -4.260000       -2.3737812E-11
  -4.250000       -2.0535441E-11
  -4.240000       -1.7073136E-11
  -4.230000       -1.3361367E-11
  -4.220000       -9.4122141E-12
  -4.210000       -5.2393198E-12
  -4.200000       -8.5783079E-13
  -4.190000        3.7156615E-12
  -4.180000        8.4631920E-12
  -4.170000        1.3365501E-11
  -4.160000        1.8402106E-11
  -4.150000        2.3551397E-11
  -4.140000        2.8790709E-11
  -4.130000        3.4096427E-11
  -4.120000        3.9444076E-11
  -4.110000        4.4808390E-11
  -4.100000        5.0163457E-11
  -4.090000        5.5482768E-11
  -4.080000        6.0739316E-11
  -4.070000        6.5905718E-11
  -4.060000        7.0954277E-11
  -4.050000        7.5857098E-11
  -4.040000        8.0586149E-11
  -4.030000        8.5113389E-11
  -4.020000        8.9410805E-11
  -4.010000        9.3450553E-11
  -4.000000        9.7205015E-11
  -3.990000        1.0064686E-10
  -3.980000        1.0374918E-10
  -3.970000        1.0648555E-10
  -3.960000        1.0883011E-10
  -3.950000        1.1075763E-10
  -3.940000        1.1224365E-10
  -3.930000        1.1326454E-10
  -3.920000        1.1379758E-10
  -3.910000        1.1382106E-10
  -3.900000        1.1331441E-10
  -3.890000        1.1225826E-10
  -3.880000        1.1063457E-10
  -3.870000        1.0842672E-10
  -3.860000        1.0561966E-10
  -3.850000        1.0219997E-10
  -3.840000        9.8156053E-11
  -3.830000        9.3478204E-11
  -3.820000        8.8158751E-11
  -3.810000        8.2192218E-11
  -3.800000        7.5575421E-11
  -3.790000        6.8307630E-11
  -3.780000        6.0390699E-11
  -3.770000        5.1829180E-11
  -3.760000        4.2630507E-11
  -3.750000        3.2805082E-11
  -3.740000        2.2366421E-11
  -3.730000        1.1331286E-11
  -3.720000       -2.8022747E-13
  -3.710000       -1.2444558E-11
  -3.700000       -2.5134596E-11
  -3.690000       -3.8319611E-11
  -3.680000       -5.1965165E-11
  -3.670000       -6.6033075E-11
  -3.660000       -8.0481379E-11
  -3.650000       -9.5264317E-11
  -3.640000       -1.1033233E-10
  -3.630000       -1.2563212E-10
  -3.620000       -1.4110663E-10
  -3.610000       -1.5669521E-10
  -3.600000       -1.7233370E-10
  -3.590000       -1.8795449E-10
  -3.580000       -2.0348673E-10
  -3.570000       -2.1885652E-10
  -3.560000       -2.3398708E-10
  -3.550000       -2.4879904E-10
  -3.540000       -2.6321056E-10
  -3.530000       -2.7713784E-10
  -3.520000       -2.9049527E-10
  -3.510000       -3.0319569E-10
  -3.500000       -3.1515093E-10
  -3.490000       -3.2627209E-10
  -3.480000       -3.3646988E-10
  -3.470000       -3.4565506E-10
  -3.460000       -3.5373882E-10
  -3.450000       -3.6063325E-10
  -3.440000       -3.6625164E-10
  -3.430000       -3.7050907E-10
  -3.420000       -3.7332271E-10
  -3.410000       -3.7461217E-10
  -3.400000       -3.7430006E-10
  -3.390000       -3.7231232E-10
  -3.380000       -3.6857847E-10
  -3.370000       -3.6303216E-10
  -3.360000       -3.5561140E-10
  -3.350000       -3.4625885E-10
  -3.340000       -3.3492217E-10
  -3.330000       -3.2155414E-10
  -3.320000       -3.0611305E-10
  -3.310000       -2.8856276E-10
  -3.300000       -2.6887287E-10
  -3.290000       -2.4701885E-10
  -3.280000       -2.2298208E-10
  -3.270000       -1.9674991E-10
  -3.260000       -1.6831563E-10
  -3.250000       -1.3767845E-10
  -3.240000       -1.0484338E-10
  -3.230000       -6.9821107E-11
  -3.220000       -3.2627876E-11
  -3.210000        6.7147403E-12
  -3.200000        4.8180050E-11
  -3.190000        9.1736493E-11
  -3.180000        1.3734794E-10
  -3.170000        1.8497404E-10
  -3.160000        2.3457036E-10
  -3.150000        2.8608904E-10
  -3.140000        3.3947881E-10
  -3.130000        3.9468565E-10
  -3.120000        4.5165297E-10
  -3.110000        5.1032212E-10
  -3.100000        5.7063265E-10
  -3.090000        6.3252287E-10
  -3.080000        6.9592981E-10
  -3.070000        7.6079021E-10
  -3.060000        8.2704033E-10
  -3.050000        8.9461644E-10
  -3.040000        9.6345509E-10
  -3.030000        1.0334937E-09
  -3.020000        1.1046705E-09
  -3.010000        1.1769244E-09
  -3.000000        1.2501965E-09
  -2.990000        1.3244286E-09
  -2.980000        1.3995644E-09
  -2.970000        1.4755496E-09
  -2.960000        1.5523316E-09
  -2.950000        1.6298599E-09
  -2.940000        1.7080857E-09
  -2.930000        1.7869625E-09
  -2.920000        1.8664457E-09
  -2.910000        1.9464925E-09
  -2.900000        2.0270625E-09
  -2.890000        2.1081166E-09
  -2.880000        2.1896174E-09
  -2.870000        2.2715296E-09
  -2.860000        2.3538198E-09
  -2.850000        2.4364546E-09
  -2.840000        2.5194034E-09
  -2.830000        2.6026361E-09
  -2.820000        2.6861238E-09
  -2.810000        2.7698386E-09
  -2.800000        2.8537535E-09
  -2.790000        2.9378422E-09
  -2.780000        3.0220795E-09
  -2.770000        3.1064402E-09
  -2.760000        3.1909011E-09
  -2.750000        3.2754379E-09
  -2.740000        3.3600278E-09
  -2.730000        3.4446488E-09
  -2.720000        3.5292791E-09
  -2.710000        3.6138985E-09
  -2.700000        3.6984873E-09
  -2.690000        3.7830259E-09
  -2.680000        3.8674974E-09
  -2.670000        3.9518859E-09
  -2.660000        4.0361763E-09
  -2.650000        4.1203556E-09
  -2.640000        4.2044133E-09
  -2.630000        4.2883408E-09
  -2.620000        4.3721315E-09
  -2.610000        4.4557829E-09
  -2.600000        4.5392934E-09
  -2.590000        4.6226667E-09
  -2.580000        4.7059099E-09
  -2.570000        4.7890323E-09
  -2.560000        4.8720485E-09
  -2.550000        4.9549769E-09
  -2.540000        5.0378417E-09
  -2.530000        5.1206697E-09
  -2.520000        5.2034941E-09
  -2.510000        5.2863522E-09
  -2.500000        5.3692872E-09
  -2.490000        5.4523466E-09
  -2.480000        5.5355844E-09
  -2.470000        5.6190586E-09
  -2.460000        5.7028333E-09
  -2.450000        5.7869785E-09
  -2.440000        5.8715663E-09
  -2.430000        5.9566778E-09
  -2.420000        6.0423959E-09
  -2.410000        6.1288090E-09
  -2.400000        6.2160108E-09
  -2.390000        6.3040981E-09
  -2.380000        6.3931718E-09
  -2.370000        6.4833361E-09
  -2.360000        6.5746990E-09
  -2.350000        6.6673711E-09
  -2.340000        6.7614652E-09
  -2.330000        6.8570971E-09
  -2.320000        6.9543828E-09
  -2.310000        7.0534423E-09
  -2.300000        7.1543926E-09
  -2.290000        7.2573569E-09
  -2.280000        7.3624533E-09
  -2.270000        7.4698034E-09
  -2.260000        7.5795263E-09
  -2.250000        7.6917441E-09
  -2.240000        7.8065732E-09
  -2.230000        7.9241333E-09
  -2.220000        8.0445393E-09
  -2.210000        8.1679081E-09
  -2.200000        8.2943528E-09
  -2.190000        8.4239860E-09
  -2.180000        8.5569161E-09
  -2.170000        8.6932550E-09
  -2.160000        8.8331076E-09
  -2.150000        8.9765804E-09
  -2.140000        9.1237764E-09
  -2.130000        9.2747996E-09
  -2.120000        9.4297494E-09
  -2.110000        9.5887263E-09
  -2.100000        9.7518305E-09
  -2.090000        9.9191579E-09
  -2.080000        1.0090806E-08
  -2.070000        1.0266873E-08
  -2.060000        1.0447453E-08
  -2.050000        1.0632642E-08
  -2.040000        1.0822537E-08
  -2.030000        1.1017232E-08
  -2.020000        1.1216824E-08
  -2.010000        1.1421408E-08
  -2.000000        1.1631082E-08
  -1.990000        1.1845943E-08
  -1.980000        1.2066087E-08
  -1.970000        1.2291611E-08
  -1.960000        1.2522615E-08
  -1.950000        1.2759197E-08
  -1.940000        1.3001456E-08
  -1.930000        1.3249490E-08
  -1.920000        1.3503398E-08
  -1.910000        1.3763281E-08
  -1.900000        1.4029236E-08
  -1.890000        1.4301361E-08
  -1.880000        1.4579753E-08
  -1.870000        1.4864511E-08
  -1.860000        1.5155729E-08
  -1.850000        1.5453502E-08
  -1.840000        1.5757923E-08
  -1.830000        1.6069082E-08
  -1.820000        1.6387069E-08
  -1.810000        1.6711974E-08
  -1.800000        1.7043883E-08
  -1.790000        1.7382876E-08
  -1.780000        1.7729036E-08
  -1.770000        1.8082442E-08
  -1.760000        1.8443172E-08
  -1.750000        1.8811303E-08
  -1.740000        1.9186903E-08
  -1.730000        1.9570047E-08
  -1.720000        1.9960803E-08
  -1.710000        2.0359241E-08
  -1.700000        2.0765430E-08
  -1.690000        2.1179435E-08
  -1.680000        2.1601325E-08
  -1.670000        2.2031166E-08
  -1.660000        2.2469028E-08
  -1.650000        2.2914980E-08
  -1.640000        2.3369092E-08
  -1.630000        2.3831438E-08
  -1.620000        2.4302096E-08
  -1.610000        2.4781146E-08
  -1.600000        2.5268674E-08
  -1.590000        2.5764770E-08
  -1.580000        2.6269527E-08
  -1.570000        2.6783049E-08
  -1.560000        2.7305441E-08
  -1.550000        2.7836819E-08
  -1.540000        2.8377308E-08
  -1.530000        2.8927035E-08
  -1.520000        2.9486138E-08
  -1.510000        3.0054764E-08
  -1.500000        3.0633068E-08
  -1.490000        3.1221212E-08
  -1.480000        3.1819376E-08
  -1.470000        3.2427735E-08
  -1.460000        3.3046490E-08
  -1.450000        3.3675835E-08
  -1.440000        3.4315978E-08
  -1.430000        3.4967137E-08
  -1.420000        3.5629537E-08
  -1.410000        3.6303412E-08
  -1.400000        3.6989000E-08
  -1.390000        3.7686547E-08
  -1.380000        3.8396301E-08
  -1.370000        3.9118525E-08
  -1.360000        3.9853472E-08
  -1.350000        4.0601414E-08
  -1.340000        4.1362615E-08
  -1.330000        4.2137341E-08
  -1.320000        4.2925866E-08
  -1.310000        4.3728463E-08
  -1.300000        4.4545402E-08
  -1.290000        4.5376950E-08
  -1.280000        4.6223384E-08
  -1.270000        4.7084956E-08
  -1.260000        4.7961937E-08
  -1.250000        4.8854588E-08
  -1.240000        4.9763155E-08
  -1.230000        5.0687891E-08
  -1.220000        5.1629048E-08
  -1.210000        5.2586859E-08
  -1.200000        5.3561553E-08
  -1.190000        5.4553372E-08
  -1.180000        5.5562531E-08
  -1.170000        5.6589247E-08
  -1.160000        5.7633738E-08
  -1.150000        5.8696216E-08
  -1.140000        5.9776873E-08
  -1.130000        6.0875927E-08
  -1.120000        6.1993553E-08
  -1.110000        6.3129960E-08
  -1.100000        6.4285331E-08
  -1.090000        6.5459879E-08
  -1.080000        6.6653783E-08
  -1.070000        6.7867241E-08
  -1.060000        6.9100444E-08
  -1.050000        7.0353607E-08
  -1.040000        7.1626921E-08
  -1.030000        7.2920599E-08
  -1.020000        7.4234876E-08
  -1.010000        7.5569965E-08
  -1.000000        7.6926106E-08
 -0.9900000        7.8303550E-08
 -0.9800000        7.9702545E-08
 -0.9700000        8.1123368E-08
 -0.9600000        8.2566309E-08
 -0.9500000        8.4031662E-08
 -0.9400000        8.5519751E-08
 -0.9300000        8.7030898E-08
 -0.9200000        8.8565457E-08