 -0.300000012       0.00000000    
 -0.298200011       0.00000000    
 -0.296400011       0.00000000    
 -0.294600010       0.00000000    
 -0.292800009       0.00000000    
 -0.291000009       1.31921834E-35
 -0.289200008       1.60556537E-34
 -0.287400007       1.05854019E-33
 -0.285600007      -6.70687177E-32
 -0.283800006      -1.12598874E-30
 -0.282000005      -9.47593569E-30
 -0.280200005      -5.51470118E-29
 -0.278400004      -2.49990931E-28
 -0.276600003      -9.39094996E-28
 -0.274800003      -3.03395943E-27
 -0.273000002      -8.63302412E-27
 -0.271200001      -2.19700628E-26
 -0.269400001      -5.04549796E-26
 -0.267600000      -1.04867163E-25
 -0.265799999      -1.96306101E-25
 -0.263999999      -3.24876907E-25
 -0.262199998      -4.50813596E-25
 -0.260399997      -4.32389651E-25
 -0.258599997       9.36804372E-26
 -0.256799996       1.92435952E-24
 -0.254999995       6.64169133E-24
 -0.253199995       1.71609701E-23
 -0.251399994       3.85391621E-23
 -0.249599993       7.91031156E-23
 -0.247799993       1.51935835E-22
 -0.246000007       2.76711731E-22
 -0.244200006       4.81788379E-22
 -0.242400005       8.06332824E-22
 -0.240600005       1.30207659E-21
 -0.238800004       2.03405268E-21
 -0.237000003       3.07937209E-21
 -0.235200003       4.52275984E-21
 -0.233400002       6.44721816E-21
 -0.231600001       8.91786569E-21
 -0.229800001       1.19567609E-20
 -0.228000000       1.55064489E-20
 -0.226199999       1.93801277E-20
 -0.224399999       2.31968537E-20
 -0.222599998       2.63010929E-20
 -0.220799997       2.76673594E-20
 -0.218999997       2.57926450E-20
 -0.217199996       1.85816673E-20
 -0.215399995       3.23313963E-21
 -0.213599995      -2.38615628E-20
 -0.211799994      -6.71921590E-20
 -0.209999993      -1.32156785E-19
 -0.208199993      -2.25020088E-19
 -0.206400007      -3.52775910E-19
 -0.204600006      -5.22885060E-19
 -0.202800006      -7.42856218E-19
 -0.201000005      -1.01963607E-18
 -0.199200004      -1.35877475E-18
 -0.197400004      -1.76333131E-18
 -0.195600003      -2.23249140E-18
 -0.193800002      -2.75986930E-18
 -0.192000002      -3.33148026E-18
 -0.190200001      -3.92338217E-18
 -0.188400000      -4.49900516E-18
 -0.186600000      -5.00622239E-18
 -0.184799999      -5.37424042E-18
 -0.182999998      -5.51045183E-18
 -0.181199998      -5.29743546E-18
 -0.179399997      -4.59036602E-18
 -0.177599996      -3.21516046E-18
 -0.175799996      -9.67776708E-19
 -0.173999995       2.38485166E-18
 -0.172199994       7.10167643E-18
 -0.170399994       1.34615770E-17
 -0.168599993       2.17539187E-17
 -0.166800007       3.22649176E-17
 -0.165000007       4.52591872E-17
 -0.163200006       6.09558062E-17
 -0.161400005       7.94983765E-17
 -0.159600005       1.00918794E-16
 -0.157800004       1.25094299E-16
 -0.156000003       1.51698214E-16
 -0.154200003       1.80144466E-16
 -0.152400002       2.09526715E-16
 -0.150600001       2.38553383E-16
 -0.148800001       2.65480269E-16
 -0.147000000       2.88042977E-16
 -0.145199999       3.03392140E-16
 -0.143399999       3.08035416E-16
 -0.141599998       2.97790262E-16
 -0.139799997       2.67753044E-16
 -0.137999997       2.12290174E-16
 -0.136199996       1.25058353E-16
 -0.134399995      -9.39801150E-19
 -0.132599995      -1.73256301E-16
 -0.130799994      -3.99847885E-16
 -0.128999993      -6.88868550E-16
 -0.127200007      -1.04839745E-15
 -0.125400007      -1.48609877E-15
 -0.123599999      -2.00880809E-15
 -0.121799998      -2.62204639E-15
 -0.119999997      -3.32946332E-15
 -0.118199997      -4.13221212E-15
 -0.116400003      -5.02826794E-15
 -0.114600003      -6.01170199E-15
 -0.112800002      -7.07192636E-15
 -0.111000001      -8.19293211E-15
 -0.109200001      -9.35254563E-15
 -0.107400000      -1.05217298E-14
 -0.105599999      -1.16639681E-14
 -0.103799999      -1.27347702E-14
 -0.101999998      -1.36813312E-14
 -0.100199997      -1.44423878E-14
  -9.83999968E-02  -1.49483138E-14
  -9.66000035E-02  -1.51215202E-14
  -9.48000029E-02  -1.48771495E-14
  -9.30000022E-02  -1.41241516E-14
  -9.12000015E-02  -1.27667432E-14
  -8.94000009E-02  -1.07062754E-14
  -8.76000002E-02  -7.84351916E-15
  -8.57999995E-02  -4.08135922E-15
  -8.39999989E-02   6.72123820E-16
  -8.21999982E-02   6.50025705E-15
  -8.03999975E-02   1.34740834E-14
  -7.85999969E-02   2.16485358E-14
  -7.68000036E-02   3.10585501E-14
  -7.50000030E-02   4.17152851E-14
  -7.32000023E-02   5.36026403E-14
  -7.14000016E-02   6.66742255E-14
  -6.96000010E-02   8.08510024E-14
  -6.78000003E-02   9.60199056E-14
  -6.59999996E-02   1.12033490E-13
  -6.41999990E-02   1.28711102E-13
  -6.23999983E-02   1.45841442E-13
  -6.06000014E-02   1.63187186E-13
  -5.88000007E-02   1.80491323E-13
  -5.70000000E-02   1.97485759E-13
  -5.51999994E-02   2.13902043E-13
  -5.33999987E-02   2.29484346E-13
  -5.16000018E-02   2.44004659E-13
  -4.98000011E-02   2.57280064E-13
  -4.80000004E-02   2.69191814E-13
  -4.61999997E-02   2.79706027E-13
  -4.43999991E-02   2.88895725E-13
  -4.25999984E-02   2.96963056E-13
  -4.08000015E-02   3.04262095E-13
  -3.90000008E-02   3.11320577E-13
  -3.72000001E-02   3.18859983E-13
  -3.53999995E-02   3.27813541E-13
  -3.35999988E-02   3.39340074E-13
  -3.18000019E-02   3.54833703E-13
  -2.99999993E-02   3.75927506E-13
  -2.82000005E-02   4.04490216E-13
  -2.63999999E-02   4.42614885E-13
  -2.45999992E-02   4.92598421E-13
  -2.28000004E-02   5.56910637E-13
  -2.09999997E-02   6.38152834E-13
  -1.92000009E-02   7.39003802E-13
  -1.74000002E-02   8.62153935E-13
  -1.55999996E-02   1.01022706E-12
  -1.37999998E-02   1.18568837E-12
  -1.20000001E-02   1.39074147E-12
  -1.02000004E-02   1.62721258E-12
  -8.39999970E-03   1.89642377E-12
  -6.59999996E-03   2.19905604E-12
  -4.80000023E-03   2.53500563E-12
  -3.00000003E-03   2.90323234E-12
  -1.20000006E-03   3.30160443E-12
   6.00000028E-04   3.72674244E-12
   2.40000011E-03   4.17386351E-12
   4.19999985E-03   4.63663266E-12
   6.00000005E-03   5.10702028E-12
   7.79999979E-03   5.57517053E-12
   9.60000046E-03   6.02928688E-12
   1.14000002E-02   6.45553749E-12
   1.31999999E-02   6.83798070E-12
   1.49999997E-02   7.15851683E-12
   1.67999994E-02   7.39687044E-12
   1.86000001E-02   7.53060201E-12
   2.04000007E-02   7.53516000E-12
   2.21999995E-02   7.38394762E-12
   2.40000002E-02   7.04846251E-12
   2.58000009E-02   6.49843287E-12
   2.75999997E-02   5.70202306E-12
   2.94000003E-02   4.62605518E-12
   3.11999992E-02   3.23626802E-12
   3.29999998E-02   1.49762050E-12
   3.48000005E-02  -6.25389877E-13
   3.66000012E-02  -3.16836986E-12
   3.84000018E-02  -6.16666700E-12
   4.01999988E-02  -9.65496346E-12
   4.19999994E-02  -1.36668758E-11
   4.38000001E-02  -1.82345077E-11
   4.56000008E-02  -2.33880606E-11
   4.74000014E-02  -2.91553517E-11
   4.91999984E-02  -3.55613906E-11
   5.09999990E-02  -4.26279498E-11
   5.27999997E-02  -5.03731189E-11
   5.46000004E-02  -5.88108659E-11
   5.64000010E-02  -6.79506104E-11
   5.82000017E-02  -7.77967968E-11
   5.99999987E-02  -8.83485368E-11
   6.17999993E-02  -9.95990720E-11
   6.36000037E-02  -1.11535496E-10
   6.53999969E-02  -1.24138269E-10
   6.71999976E-02  -1.37380815E-10
   6.89999983E-02  -1.51229154E-10
   7.07999989E-02  -1.65641473E-10
   7.25999996E-02  -1.80567630E-10
   7.44000003E-02  -1.95948799E-10
   7.62000009E-02  -2.11717074E-10
   7.80000016E-02  -2.27794936E-10
   7.98000023E-02  -2.44094911E-10
   8.16000029E-02  -2.60519051E-10
   8.34000036E-02  -2.76958650E-10
   8.51999968E-02  -2.93293917E-10
   8.69999975E-02  -3.09393455E-10
   8.87999982E-02  -3.25114324E-10
   9.05999988E-02  -3.40301703E-10
   9.23999995E-02  -3.54789115E-10
   9.42000002E-02  -3.68398284E-10
   9.60000008E-02  -3.80939530E-10
   9.78000015E-02  -3.92212485E-10
   9.96000022E-02  -4.02006650E-10
  0.101400003      -4.10102813E-10
  0.103200004      -4.16274099E-10
  0.104999997      -4.20287916E-10
  0.106799997      -4.21908092E-10
  0.108599998      -4.20897400E-10
  0.110399999      -4.17020696E-10
  0.112199999      -4.10048273E-10
  0.114000000      -3.99759836E-10
  0.115800001      -3.85948967E-10
  0.117600001      -3.68427927E-10
  0.119400002      -3.47032736E-10
  0.121200003      -3.21629251E-10
  0.123000003      -2.92118607E-10
  0.124799997      -2.58443683E-10
  0.126599997      -2.20595264E-10
  0.128399998      -1.78618384E-10
  0.130199999      -1.32618624E-10
  0.131999999      -8.27679245E-11
  0.133800000      -2.93103493E-11
  0.135600001       2.74332883E-11
  0.137400001       8.70611708E-11
  0.139200002       1.49087243E-10
  0.141000003       2.12939555E-10
  0.142800003       2.77959711E-10
  0.144600004       3.43404555E-10
  0.146400005       4.08448497E-10
  0.148200005       4.72189732E-10
  0.150000006       5.33657174E-10
  0.151800007       5.91820926E-10
  0.153600007       6.45604792E-10
  0.155399993       6.93902158E-10
  0.157199994       7.35594141E-10
  0.158999994       7.69571074E-10
  0.160799995       7.94756261E-10
  0.162599996       8.10134237E-10
  0.164399996       8.14779189E-10
  0.166199997       8.07887923E-10
  0.167999998       7.88814958E-10
  0.169799998       7.57108320E-10
  0.171599999       7.12547854E-10
  0.173400000       6.55184740E-10
  0.175200000       5.85380300E-10
  0.177000001       5.03845465E-10
  0.178800002       4.11679274E-10
  0.180600002       3.10404952E-10
  0.182400003       2.02003872E-10
  0.184200004       8.89458576E-11
  0.186000004      -2.57859949E-11
  0.187800005      -1.38674613E-10
  0.189600006      -2.45656551E-10
  0.191400006      -3.42116085E-10
  0.193200007      -4.22889501E-10
  0.194999993      -4.82277274E-10
  0.196799994      -5.14069398E-10
  0.198599994      -5.11581721E-10
  0.200399995      -4.67703098E-10
  0.202199996      -3.74958259E-10
  0.203999996      -2.25584218E-10
  0.205799997      -1.16196107E-11
  0.207599998       2.74990780E-10
  0.209399998       6.42276565E-10
  0.211199999       1.09810838E-09
  0.213000000       1.65005076E-09
  0.214800000       2.30520247E-09
  0.216600001       3.07002401E-09
  0.218400002       3.95015665E-09
  0.220200002       4.95023000E-09
  0.222000003       6.07366601E-09
  0.223800004       7.32247463E-09
  0.225600004       8.69705019E-09
  0.227400005       1.01959721E-08
  0.229200006       1.18158008E-08
  0.231000006       1.35508937E-08
  0.232800007       1.53932280E-08
  0.234599993       1.73322352E-08
  0.236399993       1.93546619E-08
  0.238199994       2.14444515E-08
  0.239999995       2.35826612E-08
  0.241799995       2.57473971E-08
  0.243599996       2.79138082E-08
  0.245399997       3.00541032E-08
  0.247199997       3.21376170E-08
  0.248999998       3.41309381E-08
  0.250800014       3.59980774E-08
  0.252600014       3.77006764E-08
  0.254400015       3.91983086E-08
  0.256199986       4.04488070E-08
  0.257999986       4.14086649E-08
  0.259799987       4.20334914E-08
  0.261599988       4.22785185E-08
  0.263399988       4.20991704E-08
  0.265199989       4.14516848E-08
  0.266999990       4.02937737E-08
  0.268799990       3.85853198E-08
  0.270599991       3.62891335E-08
  0.272399992       3.33717161E-08
  0.274199992       2.98040490E-08
  0.275999993       2.55623736E-08
  0.277799994       2.06289990E-08
  0.279599994       1.49930734E-08
  0.281399995       8.65133831E-09
  0.283199996       1.60882696E-09
  0.284999996      -6.12046769E-09
  0.286799997      -1.45130175E-08
  0.288599998      -2.35352449E-08
  0.290399998      -3.31431416E-08
  0.292199999      -4.32819505E-08
  0.294000000      -5.38860085E-08
  0.295800000      -6.48787264E-08
  0.297600001      -7.61727108E-08
  0.299400002      -8.76700454E-08
  0.301200002      -9.92627704E-08
  0.303000003      -1.10833483E-07
  0.304800004      -1.22256182E-07
  0.306600004      -1.33397279E-07
  0.308400005      -1.44116783E-07
  0.310200006      -1.54269642E-07
  0.312000006      -1.63707426E-07
  0.313800007      -1.72279897E-07
  0.315600008      -1.79837002E-07
  0.317400008      -1.86230864E-07
  0.319200009      -1.91317966E-07
  0.321000010      -1.94961416E-07
  0.322800010      -1.97033273E-07
  0.324600011      -1.97416952E-07
  0.326400012      -1.96009665E-07
  0.328200012      -1.92724826E-07
  0.330000013      -1.87494351E-07
  0.331800014      -1.80271059E-07
  0.333600014      -1.71030777E-07
  0.335399985      -1.59774260E-07
  0.337199986      -1.46529075E-07
  0.338999987      -1.31351143E-07
  0.340799987      -1.14325957E-07
  0.342599988      -9.55695896E-08
  0.344399989      -7.52292237E-08
  0.346199989      -5.34834044E-08
  0.347999990      -3.05418126E-08
  0.349799991      -6.64460575E-09
  0.351599991       1.79387261E-08
  0.353399992       4.29109157E-08
  0.355199993       6.79490526E-08
  0.356999993       9.27071540E-08
  0.358799994       1.16819237E-07
  0.360599995       1.39902880E-07
  0.362399995       1.61563165E-07
  0.364199996       1.81397226E-07
  0.365999997       1.98998990E-07
  0.367799997       2.13964341E-07
  0.369599998       2.25896628E-07
  0.371399999       2.34412354E-07
  0.373199999       2.39147056E-07
  0.375000000       2.39761277E-07
  0.376800001       2.35946487E-07
  0.378600001       2.27431073E-07
  0.380400002       2.13986098E-07
  0.382200003       1.95430772E-07
  0.384000003       1.71637581E-07
  0.385800004       1.42537075E-07
  0.387600005       1.08121995E-07
  0.389400005       6.84509160E-08
  0.391200006       2.36509923E-08
  0.393000007      -2.60799276E-08
  0.394800007      -8.04722404E-08
  0.396600008      -1.39184323E-07
  0.398400009      -2.01803303E-07
  0.400200009      -2.67846900E-07
  0.402000010      -3.36766504E-07
  0.403800011      -4.07950949E-07
  0.405600011      -4.80731842E-07
  0.407400012      -5.54389771E-07
  0.409200013      -6.28161501E-07
  0.411000013      -7.01248609E-07
  0.412800014      -7.72826354E-07
  0.414600015      -8.42054078E-07
  0.416399986      -9.08085894E-07
  0.418199986      -9.70082510E-07
  0.419999987      -1.02722311E-06
  0.421799988      -1.07871767E-06
  0.423599988      -1.12381963E-06
  0.425399989      -1.16183799E-06
  0.427199990      -1.19215031E-06
  0.428999990      -1.21421397E-06
  0.430799991      -1.22757717E-06
  0.432599992      -1.23188977E-06
  0.434399992      -1.22691188E-06
  0.436199993      -1.21252185E-06
  0.437999994      -1.18872254E-06
  0.439799994      -1.15564558E-06
  0.441599995      -1.11355303E-06
  0.443399996      -1.06283858E-06
  0.445199996      -1.00402417E-06
  0.446999997      -9.37755374E-07
  0.448799998      -8.64793662E-07
  0.450599998      -7.86005558E-07
  0.452399999      -7.02349439E-07
  0.454200000      -6.14858209E-07
  0.456000000      -5.24620418E-07
  0.457800001      -4.32757162E-07
  0.459600002      -3.40396241E-07
  0.461400002      -2.48643858E-07
  0.463200003      -1.58553178E-07
  0.465000004      -7.10901773E-08
  0.466800004       1.29024871E-08
  0.468600005       9.27438748E-08
  0.470400006       1.67954980E-07
  0.472200006       2.38300217E-07
  0.474000007       3.03830291E-07
  0.475800008       3.64924915E-07
  0.477600008       4.22336967E-07
  0.479400009       4.77234380E-07
  0.481200010       5.31242790E-07
  0.483000010       5.86486181E-07
  0.484800011       6.45624937E-07
  0.486600012       7.11892937E-07
  0.488400012       7.89127625E-07
  0.490200013       8.81800247E-07
  0.492000014       9.95039045E-07
  0.493800014       1.13464887E-06
  0.495599985       1.30712306E-06
  0.497399986       1.51965162E-06
  0.499199986       1.78012112E-06
  0.500999987       2.09710493E-06
  0.502799988       2.47984872E-06
  0.504599988       2.93824655E-06
  0.506399989       3.48281083E-06
  0.508199990       4.12462623E-06
  0.509999990       4.87530042E-06
  0.511799991       5.74690421E-06
  0.513599992       6.75190086E-06
  0.515399992       7.90306422E-06
  0.517199993       9.21339506E-06
  0.518999994       1.06960160E-05
  0.520799994       1.23640630E-05
  0.522599995       1.42305744E-05
  0.524399996       1.63083605E-05
  0.526199996       1.86098696E-05
  0.527999997       2.11470560E-05
  0.529799998       2.39312249E-05
  0.531599998       2.69728789E-05
  0.533399999       3.02815661E-05
  0.535200000       3.38657155E-05
  0.537000000       3.77324832E-05
  0.538800001       4.18875716E-05
  0.540600002       4.63350771E-05
  0.542400002       5.10773243E-05
  0.544200003       5.61147099E-05
  0.546000004       6.14455348E-05
  0.547800004       6.70658774E-05
  0.549600005       7.29694220E-05
  0.551400006       7.91473503E-05
  0.553200006       8.55882172E-05
  0.555000007       9.22778272E-05
  0.556800008       9.91991474E-05
  0.558600008       1.06332220E-04
  0.560400009       1.13654125E-04
  0.562200010       1.21138903E-04
  0.564000010       1.28757543E-04
  0.565800011       1.36478018E-04
  0.567600012       1.44265185E-04
  0.569400012       1.52081004E-04
  0.571200013       1.59884483E-04
  0.573000014       1.67631806E-04
  0.574800014       1.75276436E-04
  0.576600015       1.82769290E-04
  0.578400016       1.90058912E-04
  0.580200016       1.97091664E-04
  0.582000017       2.03811898E-04
  0.583800018       2.10162325E-04
  0.585600019       2.16084169E-04
  0.587400019       2.21517548E-04
  0.589200020       2.26401840E-04
  0.591000021       2.30675898E-04
  0.592800021       2.34278545E-04
  0.594600022       2.37148939E-04
  0.596400023       2.39226880E-04
  0.598200023       2.40453388E-04
  0.600000024       2.40771085E-04
  0.601800025       2.40124558E-04
  0.603600025       2.38460882E-04
  0.605400026       2.35730113E-04
  0.607200027       2.31885613E-04
  0.609000027       2.26884644E-04
  0.610800028       2.20688744E-04
  0.612600029       2.13264138E-04
  0.614400029       2.04582218E-04
  0.616199970       1.94619963E-04
  0.617999971       1.83360215E-04
  0.619799972       1.70792177E-04
  0.621599972       1.56911614E-04
  0.623399973       1.41721248E-04
  0.625199974       1.25230988E-04
  0.626999974       1.07458116E-04
  0.628799975       8.84275505E-05
  0.630599976       6.81719321E-05
  0.632399976       4.67317332E-05
  0.634199977       2.41552953E-05
  0.635999978       4.98845395E-07
  0.637799978      -2.41736016E-05
  0.639599979      -4.97903457E-05
  0.641399980      -7.62721465E-05
  0.643199980      -1.03532468E-04
  0.644999981      -1.31477762E-04
  0.646799982      -1.60007767E-04
  0.648599982      -1.89015933E-04
  0.650399983      -2.18389818E-04
  0.652199984      -2.48011609E-04
  0.653999984      -2.77758721E-04
  0.655799985      -3.07504204E-04
  0.657599986      -3.37117584E-04
  0.659399986      -3.66465421E-04
  0.661199987      -3.95411917E-04
  0.662999988      -4.23819962E-04
  0.664799988      -4.51551547E-04
  0.666599989      -4.78468806E-04
  0.668399990      -5.04434633E-04
  0.670199990      -5.29313751E-04
  0.671999991      -5.52973128E-04
  0.673799992      -5.75283251E-04
  0.675599992      -5.96118625E-04
  0.677399993      -6.15358818E-04
  0.679199994      -6.32888987E-04
  0.680999994      -6.48601039E-04
  0.682799995      -6.62393868E-04
  0.684599996      -6.74174516E-04
  0.686399996      -6.83858641E-04
  0.688199997      -6.91371330E-04
  0.689999998      -6.96647330E-04
  0.691799998      -6.99631928E-04
  0.693599999      -7.00281409E-04
  0.695400000      -6.98563177E-04
  0.697200000      -6.94456452E-04
  0.699000001      -6.87952212E-04
  0.700800002      -6.79053657E-04
  0.702600002      -6.67776505E-04
  0.704400003      -6.54148404E-04
  0.706200004      -6.38209691E-04
  0.708000004      -6.20012812E-04
  0.709800005      -5.99622261E-04
  0.711600006      -5.77114464E-04
  0.713400006      -5.52577432E-04
  0.715200007      -5.26110292E-04
  0.717000008      -4.97822766E-04
  0.718800008      -4.67835023E-04
  0.720600009      -4.36276547E-04
  0.722400010      -4.03285812E-04
  0.724200010      -3.69009475E-04
  0.726000011      -3.33601638E-04
  0.727800012      -2.97222985E-04
  0.729600012      -2.60039844E-04
  0.731400013      -2.22223389E-04
  0.733200014      -1.83948636E-04
  0.735000014      -1.45393453E-04
  0.736800015      -1.06737585E-04
  0.738600016      -6.81616730E-05
  0.740400016      -2.98461528E-05
  0.742200017       8.02971408E-06
  0.744000018       4.52888780E-05
  0.745800018       8.17575055E-05
  0.747600019       1.17266012E-04
  0.749400020       1.51650034E-04
  0.751200020       1.84751319E-04
  0.753000021       2.16418732E-04
  0.754800022       2.46509037E-04
  0.756600022       2.74887745E-04
  0.758400023       3.01429944E-04
  0.760200024       3.26020876E-04
  0.762000024       3.48556729E-04
  0.763800025       3.68945068E-04
  0.765600026       3.87105392E-04
  0.767400026       4.02969599E-04
  0.769200027       4.16482246E-04
  0.771000028       4.27600724E-04
  0.772800028       4.36295697E-04
  0.774600029       4.42551129E-04
  0.776400030       4.46364022E-04
  0.778199971       4.47744620E-04
  0.779999971       4.46716120E-04
  0.781799972       4.43314610E-04
  0.783599973       4.37588489E-04
  0.785399973       4.29598294E-04
  0.787199974       4.19415912E-04
  0.788999975       4.07124375E-04
  0.790799975       3.92816990E-04
  0.792599976       3.76596639E-04
  0.794399977       3.58575344E-04
  0.796199977       3.38873011E-04
  0.797999978       3.17616999E-04
  0.799799979       2.94940954E-04
  0.801599979       2.70984136E-04
  0.803399980       2.45890260E-04
  0.805199981       2.19806781E-04
  0.806999981       1.92883745E-04
  0.808799982       1.65272941E-04
  0.810599983       1.37126990E-04
  0.812399983       1.08598273E-04
  0.814199984       7.98381370E-05
  0.815999985       5.09959536E-05
  0.817799985       2.22182953E-05
  0.819599986      -6.35186234E-06
  0.821399987      -3.45759581E-05
  0.823199987      -6.23204687E-05
  0.824999988      -8.94575787E-05
  0.826799989      -1.15865761E-04
  0.828599989      -1.41430311E-04
  0.830399990      -1.66043756E-04
  0.832199991      -1.89606188E-04
  0.833999991      -2.12025669E-04
  0.835799992      -2.33218350E-04
  0.837599993      -2.53108650E-04
  0.839399993      -2.71629397E-04
  0.841199994      -2.88721698E-04
  0.842999995      -3.04335001E-04
  0.844799995      -3.18426959E-04
  0.846599996      -3.30963172E-04
  0.848399997      -3.41916981E-04
  0.850199997      -3.51269206E-04
  0.851999998      -3.59007827E-04
  0.853799999      -3.65127402E-04
  0.855599999      -3.69628950E-04
  0.857400000      -3.72519164E-04
  0.859200001      -3.73810268E-04
  0.861000001      -3.73519346E-04
  0.862800002      -3.71667877E-04
  0.864600003      -3.68281209E-04
  0.866400003      -3.63388157E-04
  0.868200004      -3.57020501E-04
  0.870000005      -3.49212409E-04
  0.871800005      -3.40000232E-04
  0.873600006      -3.29421920E-04
  0.875400007      -3.17516737E-04
  0.877200007      -3.04324814E-04
  0.879000008      -2.89887044E-04
  0.880800009      -2.74244550E-04
  0.882600009      -2.57438718E-04
  0.884400010      -2.39510904E-04
  0.886200011      -2.20502348E-04
  0.888000011      -2.00454015E-04
  0.889800012      -1.79406750E-04
  0.891600013      -1.57401038E-04
  0.893400013      -1.34477217E-04
  0.895200014      -1.10675566E-04
  0.897000015      -8.60363580E-05
  0.898800015      -6.06000904E-05
  0.900600016      -3.44075779E-05
  0.902400017      -7.50022946E-06
  0.904200017       2.00797604E-05
  0.906000018       4.82891810E-05
  0.907800019       7.70835613E-05
  0.909600019       1.06416985E-04
  0.911400020       1.36241797E-04
  0.913200021       1.66508427E-04
  0.915000021       1.97165165E-04
  0.916800022       2.28158038E-04
  0.918600023       2.59430555E-04
  0.920400023       2.90923723E-04
  0.922200024       3.22575768E-04
  0.924000025       3.54322285E-04
  0.925800025       3.86096071E-04
  0.927600026       4.17827134E-04
  0.929400027       4.49442887E-04
  0.931200027       4.80868155E-04
  0.933000028       5.12025319E-04
  0.934800029       5.42834576E-04
  0.936600029       5.73214318E-04
  0.938399971       6.03080902E-04
  0.940199971       6.32349635E-04
  0.941999972       6.60934777E-04
  0.943799973       6.88749773E-04
  0.945599973       7.15708127E-04
  0.947399974       7.41723459E-04
  0.949199975       7.66710029E-04
  0.950999975       7.90583377E-04
  0.952799976       8.13260791E-04
  0.954599977       8.34661536E-04
  0.956399977       8.54707789E-04
  0.958199978       8.73324403E-04
  0.959999979       8.90440191E-04
  0.961799979       9.05988039E-04
  0.963599980       9.19905200E-04
  0.965399981       9.32133757E-04
  0.967199981       9.42621031E-04
  0.968999982       9.51320224E-04
  0.970799983       9.58190183E-04
  0.972599983       9.63196100E-04
  0.974399984       9.66309628E-04
  0.976199985       9.67508706E-04
  0.977999985       9.66778432E-04
  0.979799986       9.64110484E-04
  0.981599987       9.59503057E-04
  0.983399987       9.52961447E-04
  0.985199988       9.44497588E-04
  0.986999989       9.34130279E-04
  0.988799989       9.21884319E-04
  0.990599990       9.07791138E-04
  0.992399991       8.91887699E-04
  0.994199991       8.74217134E-04
  0.995999992       8.54827755E-04
  0.997799993       8.33772821E-04
  0.999599993       8.11110600E-04
   1.00139999       7.86903431E-04
   1.00320005       7.61217438E-04
   1.00500000       7.34122412E-04
   1.00680006       7.05691113E-04
   1.00860000       6.75998686E-04
   1.01040006       6.45122607E-04
   1.01220000       6.13142096E-04
   1.01400006       5.80137479E-04
   1.01580000       5.46190015E-04
   1.01760006       5.11381368E-04
   1.01940000       4.75793146E-04
   1.02119994       4.39506897E-04
   1.02300000       4.02603269E-04
   1.02479994       3.65162006E-04
   1.02660000       3.27261543E-04
   1.02839994       2.88978801E-04
   1.03020000       2.50388868E-04
   1.03199995       2.11564911E-04
   1.03380001       1.72577813E-04
   1.03559995       1.33496229E-04
   1.03740001       9.43863124E-05
   1.03919995       5.53116879E-05
   1.04100001       1.63333716E-05
   1.04279995      -2.24903069E-05
   1.04460001      -6.11037030E-05
   1.04639995      -9.94538495E-05
   1.04820001      -1.37490439E-04
   1.04999995      -1.75165798E-04
   1.05180001      -2.12434810E-04
   1.05359995      -2.49254837E-04
   1.05540001      -2.85585673E-04
   1.05719995      -3.21389321E-04
   1.05900002      -3.56630131E-04
   1.06079996      -3.91274400E-04
   1.06260002      -4.25290549E-04
   1.06439996      -4.58648632E-04
   1.06620002      -4.91320679E-04
   1.06799996      -5.23280061E-04
   1.06980002      -5.54501836E-04
   1.07159996      -5.84962429E-04
   1.07340002      -6.14639430E-04
   1.07519996      -6.43511710E-04
   1.07700002      -6.71558897E-04
   1.07879996      -6.98761723E-04
   1.08060002      -7.25101796E-04
   1.08239996      -7.50561128E-04
   1.08420002      -7.75122549E-04
   1.08599997      -7.98769237E-04
   1.08780003      -8.21484951E-04
   1.08959997      -8.43253627E-04
   1.09140003      -8.64059373E-04
   1.09319997      -8.83886707E-04
   1.09500003      -9.02720029E-04
   1.09679997      -9.20543505E-04
   1.09860003      -9.37341712E-04
   1.10039997      -9.53098817E-04
   1.10220003      -9.67798696E-04
   1.10399997      -9.81425168E-04
   1.10580003      -9.93961585E-04
   1.10759997      -1.00539112E-03
   1.10940003      -1.01569633E-03
   1.11119998      -1.02485938E-03
   1.11300004      -1.03286223E-03
   1.11479998      -1.03968626E-03
   1.11660004      -1.04531227E-03
   1.11839998      -1.04972045E-03
   1.12020004      -1.05289102E-03
   1.12199998      -1.05480326E-03
   1.12380004      -1.05543667E-03
   1.12559998      -1.05477008E-03
   1.12740004      -1.05278217E-03
   1.12919998      -1.04945188E-03
   1.13100004      -1.04475790E-03
   1.13279998      -1.03867881E-03
   1.13460004      -1.03119400E-03
   1.13639998      -1.02228310E-03
   1.13820004      -1.01192656E-03
   1.13999999      -1.00010552E-03
   1.14180005      -9.86802625E-04
   1.14359999      -9.72001464E-04
   1.14540005      -9.55687370E-04
   1.14719999      -9.37847595E-04
   1.14900005      -9.18471371E-04
   1.15079999      -8.97550664E-04
   1.15260005      -8.75079772E-04
   1.15439999      -8.51056364E-04
   1.15620005      -8.25481082E-04
   1.15799999      -7.98358291E-04
   1.15980005      -7.69696140E-04
   1.16159999      -7.39506853E-04
   1.16340005      -7.07807019E-04
   1.16520000      -6.74617593E-04
   1.16700006      -6.39964652E-04
   1.16880000      -6.03878754E-04
   1.17060006      -5.66395873E-04
   1.17240000      -5.27556986E-04
   1.17420006      -4.87408484E-04
   1.17600000      -4.46002115E-04
   1.17780006      -4.03394952E-04
   1.17960000      -3.59649450E-04
   1.18139994      -3.14833393E-04
   1.18320000      -2.69019743E-04
   1.18499994      -2.22286588E-04
   1.18680000      -1.74716915E-04
   1.18859994      -1.26398372E-04
   1.19040000      -7.74230866E-05
   1.19219995      -2.78873158E-05
   1.19400001       2.21088430E-05
   1.19579995       7.24617930E-05
   1.19760001       1.23064834E-04
   1.19939995       1.73808512E-04
   1.20120001       2.24581134E-04
   1.20299995       2.75269093E-04
   1.20480001       3.25757399E-04
   1.20659995       3.75930103E-04
   1.20840001       4.25670791E-04
   1.21019995       4.74862900E-04
   1.21200001       5.23390539E-04
   1.21379995       5.71138517E-04
   1.21560001       6.17993122E-04
   1.21739995       6.63842307E-04
   1.21920002       7.08576175E-04
   1.22099996       7.52087624E-04
   1.22280002       7.94272288E-04
   1.22459996       8.35029059E-04
   1.22640002       8.74260499E-04
   1.22819996       9.11872834E-04
   1.23000002       9.47776600E-04
   1.23179996       9.81886522E-04
   1.23360002       1.01412169E-03
   1.23539996       1.04440574E-03
   1.23720002       1.07266742E-03
   1.23899996       1.09883992E-03
   1.24080002       1.12286140E-03