 -0.300000012       0.00000000    
 -0.298200011       0.00000000    
 -0.296400011       0.00000000    
 -0.294600010       0.00000000    
 -0.292800009       0.00000000    
 -0.291000009       0.00000000    
 -0.289200008       0.00000000    
 -0.287400007       0.00000000    
 -0.285600007       0.00000000    
 -0.283800006       0.00000000    
 -0.282000005       0.00000000    
 -0.280200005       0.00000000    
 -0.278400004       0.00000000    
 -0.276600003       0.00000000    
 -0.274800003       0.00000000    
 -0.273000002       0.00000000    
 -0.271200001       0.00000000    
 -0.269400001       0.00000000    
 -0.267600000       0.00000000    
 -0.265799999       0.00000000    
 -0.263999999      -3.79943918E-38
 -0.262199998      -1.87691329E-37
 -0.260399997      -7.07162916E-37
 -0.258599997      -2.37764073E-36
 -0.256799996      -7.36496142E-36
 -0.254999995      -2.13493034E-35
 -0.253199995      -5.83090599E-35
 -0.251399994      -1.50731138E-34
 -0.249599993      -3.70207160E-34
 -0.247799993      -8.66663608E-34
 -0.246000007      -1.93894487E-33
 -0.244200006      -4.15434507E-33
 -0.242400005      -8.53778592E-33
 -0.240600005      -1.68475656E-32
 -0.238800004      -3.19341114E-32
 -0.237000003      -5.81235407E-32
 -0.235200003      -1.01451087E-31
 -0.233400002      -1.69348769E-31
 -0.231600001      -2.69008779E-31
 -0.229800001      -4.03025103E-31
 -0.228000000      -5.59976733E-31
 -0.226199999      -6.96273375E-31
 -0.224399999      -7.03787511E-31
 -0.222599998      -3.55560287E-31
 -0.220799997       7.80663243E-31
 -0.218999997       3.47379232E-30
 -0.217199996       9.02014104E-30
 -0.215399995       1.95081161E-29
 -0.213599995       3.81681940E-29
 -0.211799994       6.98111267E-29
 -0.209999993       1.21341122E-28
 -0.208199993       2.02304159E-28
 -0.206400007       3.25391353E-28
 -0.204600006       5.06761520E-28
 -0.202800006       7.65973732E-28
 -0.201000005       1.12522967E-27
 -0.199200004       1.60752076E-27
 -0.197400004       2.23315968E-27
 -0.195600003       3.01406149E-27
 -0.193800002       3.94503599E-27
 -0.192000002       4.99127933E-27
 -0.190200001       6.07122645E-27
 -0.188400000       7.03395992E-27
 -0.186600000       7.63050825E-27
 -0.184799999       7.47859089E-27
 -0.182999998       6.02074243E-27
 -0.181199998       2.47628446E-27
 -0.179399997      -4.21169486E-27
 -0.177599996      -1.54322101E-26
 -0.175799996      -3.29616994E-26
 -0.173999995      -5.90136921E-26
 -0.172199994      -9.62755369E-26
 -0.170399994      -1.47921823E-25
 -0.168599993      -2.17590296E-25
 -0.166800007      -3.09300725E-25
 -0.165000007      -4.27290700E-25
 -0.163200006      -5.75734108E-25
 -0.161400005      -7.58297722E-25
 -0.159600005      -9.77479717E-25
 -0.157800004      -1.23366170E-24
 -0.156000003      -1.52379084E-24
 -0.154200003      -1.83959799E-24
 -0.152400002      -2.16524372E-24
 -0.150600001      -2.47428156E-24
 -0.148800001      -2.72582622E-24
 -0.147000000      -2.85982510E-24
 -0.145199999      -2.79136163E-24
 -0.143399999      -2.40395973E-24
 -0.141599998      -1.54193454E-24
 -0.139799997      -1.93465672E-27
 -0.137999997       2.47603164E-24
 -0.136199996       6.21760089E-24
 -0.134399995       1.16223508E-23
 -0.132599995       1.91703266E-23
 -0.130799994       2.94253069E-23
 -0.128999993       4.30328452E-23
 -0.127200007       6.07104702E-23
 -0.125400007       8.32267566E-23
 -0.123599999       1.11365021E-22
 -0.121799998       1.45866730E-22
 -0.119999997       1.87348331E-22
 -0.118199997       2.36184627E-22
 -0.116400003       2.92350488E-22
 -0.114600003       3.55212302E-22
 -0.112800002       4.23259671E-22
 -0.111000001       4.93768261E-22
 -0.109200001       5.62385074E-22
 -0.107400000       6.22629409E-22
 -0.105599999       6.65305143E-22
 -0.103799999       6.77824580E-22
 -0.101999998       6.43449783E-22
 -0.100199997       5.40466251E-22
  -9.83999968E-02   3.41313078E-22
  -9.66000035E-02   1.17081600E-23
  -9.48000029E-02  -4.90177618E-22
  -9.30000022E-02  -1.21442433E-21
  -9.12000015E-02  -2.21984863E-21
  -8.94000009E-02  -3.57414968E-21
  -8.76000002E-02  -5.35356583E-21
  -8.57999995E-02  -7.64185962E-21
  -8.39999989E-02  -1.05284170E-20
  -8.21999982E-02  -1.41052082E-20
  -8.03999975E-02  -1.84623255E-20
  -7.85999969E-02  -2.36817867E-20
  -7.68000036E-02  -2.98292444E-20
  -7.50000030E-02  -3.69432497E-20
  -7.32000023E-02  -4.50217056E-20
  -7.14000016E-02  -5.40050874E-20
  -6.96000010E-02  -6.37561994E-20
  -6.78000003E-02  -7.40360769E-20
  -6.59999996E-02  -8.44759170E-20
  -6.41999990E-02  -9.45449604E-20
  -6.23999983E-02  -1.03514442E-19
  -6.06000014E-02  -1.10418014E-19
  -5.88000007E-02  -1.14009192E-19
  -5.70000000E-02  -1.12716955E-19
  -5.51999994E-02  -1.04600853E-19
  -5.33999987E-02  -8.73074532E-20
  -5.16000018E-02  -5.80307783E-20
  -4.98000011E-02  -1.34796036E-20
  -4.80000004E-02   5.01445224E-20
  -4.61999997E-02   1.37154210E-19
  -4.43999991E-02   2.52362853E-19
  -4.25999984E-02   4.01045337E-19
  -4.08000015E-02   5.88865897E-19
  -3.90000008E-02   8.21766560E-19
  -3.72000001E-02   1.10580782E-18
  -3.53999995E-02   1.44695406E-18
  -3.35999988E-02   1.85079532E-18
  -3.18000019E-02   2.32219769E-18
  -2.99999993E-02   2.86487346E-18
  -2.82000005E-02   3.48086659E-18
  -2.63999999E-02   4.16994609E-18
  -2.45999992E-02   4.92890250E-18
  -2.28000004E-02   5.75075111E-18
  -2.09999997E-02   6.62383942E-18
  -1.92000009E-02   7.53086323E-18
  -1.74000002E-02   8.44780865E-18
  -1.55999996E-02   9.34282800E-18
  -1.37999998E-02   1.01750685E-17
  -1.20000001E-02   1.08934980E-17
  -1.02000004E-02   1.14357372E-17
  -8.39999970E-03   1.17269602E-17
  -6.59999996E-03   1.16789052E-17
  -4.80000023E-03   1.11890472E-17
  -3.00000003E-03   1.01400101E-17
  -1.20000006E-03   8.39927300E-18
   6.00000028E-04   5.81926028E-18
   2.40000011E-03   2.23788793E-18
   4.19999985E-03  -2.52034550E-18
   6.00000005E-03  -8.64263781E-18
   7.79999979E-03  -1.63254549E-17
   9.60000046E-03  -2.57713166E-17
   1.14000002E-02  -3.71847166E-17
   1.31999999E-02  -5.07671447E-17
   1.49999997E-02  -6.67111569E-17
   1.67999994E-02  -8.51934687E-17
   1.86000001E-02  -1.06367122E-16
   2.04000007E-02  -1.30352719E-16
   2.21999995E-02  -1.57228876E-16
   2.40000002E-02  -1.87021870E-16
   2.58000009E-02  -2.19694936E-16
   2.75999997E-02  -2.55137044E-16
   2.94000003E-02  -2.93151803E-16
   3.11999992E-02  -3.33446510E-16
   3.29999998E-02  -3.75621949E-16
   3.48000005E-02  -4.19163068E-16
   3.66000012E-02  -4.63431260E-16
   3.84000018E-02  -5.07658450E-16
   4.01999988E-02  -5.50943898E-16
   4.19999994E-02  -5.92253325E-16
   4.38000001E-02  -6.30421847E-16
   4.56000008E-02  -6.64160493E-16
   4.74000014E-02  -6.92066893E-16
   4.91999984E-02  -7.12640000E-16
   5.09999990E-02  -7.24299567E-16
   5.27999997E-02  -7.25410133E-16
   5.46000004E-02  -7.14308814E-16
   5.64000010E-02  -6.89337594E-16
   5.82000017E-02  -6.48878377E-16
   5.99999987E-02  -5.91390410E-16
   6.17999993E-02  -5.15449195E-16
   6.36000037E-02  -4.19784658E-16
   6.53999969E-02  -3.03317257E-16
   6.71999976E-02  -1.65189927E-16
   6.89999983E-02  -4.79297564E-18
   7.07999989E-02   1.78220391E-16
   7.25999996E-02   3.83931501E-16
   7.44000003E-02   6.12169452E-16
   7.62000009E-02   8.62543868E-16
   7.80000016E-02   1.13450111E-15
   7.98000023E-02   1.42740753E-15
   8.16000029E-02   1.74066224E-15
   8.34000036E-02   2.07384519E-15
   8.51999968E-02   2.42690144E-15
   8.69999975E-02   2.80036504E-15
   8.87999982E-02   3.19562534E-15
   9.05999988E-02   3.61523445E-15
   9.23999995E-02   4.06326025E-15
   9.42000002E-02   4.54567812E-15
   9.60000008E-02   5.07080340E-15
   9.78000015E-02   5.64975931E-15
   9.96000022E-02   6.29697676E-15
  0.101400003       7.03071185E-15
  0.103200004       7.87358036E-15
  0.104999997       8.85309434E-15
  0.106799997       1.00021792E-14
  0.108599998       1.13596732E-14
  0.110399999       1.29707748E-14
  0.112199999       1.48874274E-14
  0.114000000       1.71686158E-14
  0.115800001       1.98805528E-14
  0.117600001       2.30967369E-14
  0.119400002       2.68978480E-14
  0.121200003       3.13714610E-14
  0.123000003       3.66115456E-14
  0.124799997       4.27177282E-14
  0.126599997       4.97943192E-14
  0.128399998       5.79490272E-14
  0.130199999       6.72914212E-14
  0.131999999       7.79310088E-14
  0.133800000       8.99750584E-14
  0.135600001       1.03526074E-13
  0.137400001       1.18678898E-13
  0.139200002       1.35517533E-13
  0.141000003       1.54111627E-13
  0.142800003       1.74512667E-13
  0.144600004       1.96749911E-13
  0.146400005       2.20826043E-13
  0.148200005       2.46712725E-13
  0.150000006       2.74345867E-13
  0.151800007       3.03620979E-13
  0.153600007       3.34388387E-13
  0.155399993       3.66448625E-13
  0.157199994       3.99547826E-13
  0.158999994       4.33373443E-13
  0.160799995       4.67550315E-13
  0.162599996       5.01637089E-13
  0.164399996       5.35123378E-13
  0.166199997       5.67427236E-13
  0.167999998       5.97893588E-13
  0.169799998       6.25793471E-13
  0.171599999       6.50324358E-13
  0.173400000       6.70611299E-13
  0.175200000       6.85709356E-13
  0.177000001       6.94607186E-13
  0.178800002       6.96232243E-13
  0.180600002       6.89456792E-13
  0.182400003       6.73106048E-13
  0.184200004       6.45967329E-13
  0.186000004       6.06800851E-13
  0.187800005       5.54352408E-13
  0.189600006       4.87367200E-13
  0.191400006       4.04605602E-13
  0.193200007       3.04860385E-13
  0.194999993       1.86975340E-13
  0.196799994       4.98657173E-14
  0.198599994      -1.07459980E-13
  0.200399995      -2.85877008E-13
  0.202199996      -4.86119771E-13
  0.203999996      -7.08756296E-13
  0.205799997      -9.54161338E-13
  0.207599998      -1.22248902E-12
  0.209399998      -1.51364381E-12
  0.211199999      -1.82725211E-12
  0.213000000      -2.16263249E-12
  0.214800000      -2.51876558E-12
  0.216600001      -2.89426556E-12
  0.218400002      -3.28735043E-12
  0.220200002      -3.69581449E-12
  0.222000003      -4.11699971E-12
  0.223800004      -4.54777188E-12
  0.225600004      -4.98449546E-12
  0.227400005      -5.42301534E-12
  0.229200006      -5.85863606E-12
  0.231000006      -6.28611052E-12
  0.232800007      -6.69963000E-12
  0.234599993      -7.09281982E-12
  0.236399993      -7.45874282E-12
  0.238199994      -7.78990674E-12
  0.239999995      -8.07828630E-12
  0.241799995      -8.31534581E-12
  0.243599996      -8.49207683E-12
  0.245399997      -8.59904769E-12
  0.247199997      -8.62646239E-12
  0.248999998      -8.56423526E-12
  0.250800014      -8.40207764E-12
  0.252600014      -8.12960203E-12
  0.254400015      -7.73643996E-12
  0.256199986      -7.21238087E-12
  0.257999986      -6.54752207E-12
  0.259799987      -5.73244143E-12
  0.261599988      -4.75838726E-12
  0.263399988      -3.61748218E-12
  0.265199989      -2.30294820E-12
  0.266999990      -8.09345212E-13
  0.268799990       8.67176014E-13
  0.270599991       2.72860662E-12
  0.272399992       4.77480165E-12
  0.274199992       7.00319793E-12
  0.275999993       9.40852431E-12
  0.277799994       1.19825139E-11
  0.279599994       1.47136209E-11
  0.281399995       1.75867498E-11
  0.283199996       2.05829919E-11
  0.284999996       2.36793970E-11
  0.286799997       2.68487628E-11
  0.288599998       3.00594688E-11
  0.290399998       3.32753512E-11
  0.292199999       3.64556232E-11
  0.294000000       3.95548767E-11
  0.295800000       4.25231274E-11
  0.297600001       4.53059500E-11
  0.299400002       4.78446970E-11
  0.301200002       5.00768073E-11
  0.303000003       5.19362157E-11
  0.304800004       5.33538734E-11
  0.306600004       5.42583582E-11
  0.308400005       5.45766245E-11
  0.310200006       5.42348527E-11
  0.312000006       5.31594317E-11
  0.313800007       5.12780270E-11
  0.315600008       4.85208020E-11
  0.317400008       4.48217262E-11
  0.319200009       4.01199837E-11
  0.321000010       3.43614651E-11
  0.322800010       2.75003562E-11
  0.324600011       1.95007760E-11
  0.326400012       1.03384593E-11
  0.328200012       2.45750685E-15
  0.330000013      -1.15031491E-11
  0.331800014      -2.41575909E-11
  0.333600014      -3.79217803E-11
  0.335399985      -5.27367872E-11
  0.337199986      -6.85224377E-11
  0.338999987      -8.51760745E-11
  0.340799987      -1.02571479E-10
  0.342599988      -1.20558077E-10
  0.344399989      -1.38960385E-10
  0.346199989      -1.57577743E-10
  0.347999990      -1.76184442E-10
  0.349799991      -1.94530156E-10
  0.351599991      -2.12340881E-10
  0.353399992      -2.29320188E-10
  0.355199993      -2.45151094E-10
  0.356999993      -2.59498312E-10
  0.358799994      -2.72010942E-10
  0.360599995      -2.82325885E-10
  0.362399995      -2.90071633E-10
  0.364199996      -2.94872460E-10
  0.365999997      -2.96353386E-10
  0.367799997      -2.94145319E-10
  0.369599998      -2.87890933E-10
  0.371399999      -2.77250611E-10
  0.373199999      -2.61909078E-10
  0.375000000      -2.41582088E-10
  0.376800001      -2.16023435E-10
  0.378600001      -1.85032017E-10
  0.380400002      -1.48459037E-10
  0.382200003      -1.06215099E-10
  0.384000003      -5.82770915E-11
  0.385800004      -4.69485908E-12
  0.387600005       5.44025658E-11
  0.389400005       1.18801260E-10
  0.391200006       1.88197430E-10
  0.393000007       2.62193184E-10
  0.394800007       3.40293266E-10
  0.396600008       4.21902874E-10
  0.398400009       5.06326647E-10
  0.400200009       5.92769112E-10
  0.402000010       6.80336343E-10
  0.403800011       7.68039465E-10
  0.405600011       8.54799453E-10
  0.407400012       9.39454070E-10
  0.409200013       1.02076603E-09
  0.411000013       1.09743348E-09
  0.412800014       1.16810228E-09
  0.414600015       1.23137933E-09
  0.416399986       1.28584854E-09
  0.418199986       1.33008815E-09
  0.419999987       1.36268918E-09
  0.421799988       1.38227640E-09
  0.423599988       1.38752931E-09
  0.425399989       1.37720491E-09
  0.427199990       1.35016109E-09
  0.428999990       1.30538069E-09
  0.430799991       1.24199562E-09
  0.432599992       1.15931087E-09
  0.434399992       1.05682840E-09
  0.436199993       9.34270106E-10
  0.437999994       7.91599175E-10
  0.439799994       6.29040486E-10
  0.441599995       4.47098331E-10
  0.443399996       2.46572290E-10
  0.445199996       2.85698028E-11
  0.446999997      -2.05484407E-10
  0.448799998      -4.53842491E-10
  0.450599998      -7.14431958E-10
  0.452399999      -9.84858195E-10
  0.454200000      -1.26241229E-09
  0.456000000      -1.54408308E-09
  0.457800001      -1.82657478E-09
  0.459600002      -2.10633022E-09
  0.461400002      -2.37955899E-09
  0.463200003      -2.64227085E-09
  0.465000004      -2.89031532E-09
  0.466800004      -3.11942649E-09
  0.468600005      -3.32527117E-09
  0.470400006      -3.50350349E-09
  0.472200006      -3.64982311E-09
  0.474000007      -3.76003761E-09
  0.475800008      -3.83012599E-09
  0.477600008      -3.85630727E-09
  0.479400009      -3.83511001E-09
  0.481200010      -3.76344023E-09
  0.483000010      -3.63865316E-09
  0.484800011      -3.45862006E-09
  0.486600012      -3.22179572E-09
  0.488400012      -2.92728064E-09
  0.490200013      -2.57487986E-09
  0.492000014      -2.16515672E-09
  0.493800014      -1.69947811E-09
  0.495599985      -1.18005339E-09
  0.497399986      -6.09964301E-10
  0.499199986       6.81569558E-12
  0.500999987       6.65412891E-10
  0.502799988       1.36005551E-09
  0.504599988       2.08408979E-09
  0.506399989       2.83000867E-09
  0.508199990       3.58949404E-09
  0.509999990       4.35347269E-09
  0.511799991       5.11218667E-09
  0.513599992       5.85527848E-09
  0.515399992       6.57188926E-09
  0.517199993       7.25076932E-09
  0.518999994       7.88040566E-09
  0.520799994       8.44915338E-09
  0.522599995       8.94538843E-09
  0.524399996       9.35766131E-09
  0.526199996       9.67486180E-09
  0.527999997       9.88638948E-09
  0.529799998       9.98233052E-09
  0.531599998       9.95363347E-09
  0.533399999       9.79228965E-09
  0.535200000       9.49150269E-09
  0.537000000       9.04586273E-09
  0.538800001       8.45150794E-09
  0.540600002       7.70627828E-09
  0.542400002       6.80985179E-09
  0.544200003       5.76387249E-09
  0.546000004       4.57205696E-09
  0.547800004       3.24027960E-09
  0.549600005       1.77663795E-09
  0.551400006       1.91492447E-10
  0.553200006      -1.50252133E-09
  0.555000007      -3.29050676E-09
  0.556800008      -5.15535126E-09
  0.558600008      -7.07780101E-09
  0.560400009      -9.03656794E-09
  0.562200010      -1.10084653E-08
  0.564000010      -1.29685809E-08
  0.565800011      -1.48904729E-08
  0.567600012      -1.67464034E-08
  0.569400012      -1.85075937E-08
  0.571200013      -2.01445118E-08
  0.573000014      -2.16271818E-08
  0.574800014      -2.29255210E-08
  0.576600015      -2.40096849E-08
  0.578400016      -2.48504328E-08
  0.580200016      -2.54195118E-08
  0.582000017      -2.56900421E-08
  0.583800018      -2.56368988E-08
  0.585600019      -2.52371102E-08
  0.587400019      -2.44702338E-08
  0.589200020      -2.33187230E-08
  0.591000021      -2.17682903E-08
  0.592800021      -1.98082333E-08
  0.594600022      -1.74317449E-08
  0.596400023      -1.46361909E-08
  0.598200023      -1.14233494E-08
  0.600000024      -7.79961429E-09
  0.601800025      -3.77615139E-09
  0.603600025       6.30989816E-10
  0.605400026       5.40081757E-09
  0.607200027       1.05073878E-08
  0.609000027       1.59198557E-08
  0.610800028       2.16025775E-08
  0.612600029       2.75152736E-08
  0.614400029       3.36132508E-08
  0.616199970       3.98476701E-08
  0.617999971       4.61658942E-08
  0.619799972       5.25118580E-08
  0.621599972       5.88265188E-08
  0.623399973       6.50483329E-08
  0.625199974       7.11137815E-08
  0.626999974       7.69579529E-08
  0.628799975       8.25151218E-08
  0.630599976       8.77193713E-08
  0.632399976       9.25052674E-08
  0.634199977       9.68084848E-08
  0.635999978       1.00566503E-07
  0.637799978       1.03719231E-07
  0.639599979       1.06209690E-07
  0.641399980       1.07984619E-07
  0.643199980       1.08995103E-07
  0.644999981       1.09197131E-07
  0.646799982       1.08552122E-07
  0.648599982       1.07027375E-07
  0.650399983       1.04596531E-07
  0.652199984       1.01239870E-07
  0.653999984       9.69446248E-08
  0.655799985       9.17051679E-08
  0.657599986       8.55231050E-08
  0.659399986       7.84073251E-08
  0.661199987       7.03739218E-08
  0.662999988       6.14460305E-08
  0.664799988       5.16535756E-08
  0.666599989       4.10329051E-08
  0.668399990       2.96263600E-08
  0.670199990       1.74817298E-08
  0.671999991       4.65160799E-09
  0.673799992      -8.80730333E-09
  0.675599992      -2.28349997E-08
  0.677399993      -3.73690412E-08
  0.679199994      -5.23454879E-08
  0.680999994      -6.76998866E-08
  0.682799995      -8.33682989E-08
  0.684599996      -9.92883855E-08
  0.686399996      -1.15400475E-07
  0.688199997      -1.31648676E-07
  0.689999998      -1.47982007E-07
  0.691799998      -1.64355413E-07
  0.693599999      -1.80730851E-07
  0.695400000      -1.97078265E-07
  0.697200000      -2.13376509E-07
  0.699000001      -2.29614216E-07
  0.700800002      -2.45790545E-07
  0.702600002      -2.61915829E-07
  0.704400003      -2.78012067E-07
  0.706200004      -2.94113363E-07
  0.708000004      -3.10266074E-07
  0.709800005      -3.26528919E-07
  0.711600006      -3.42972925E-07
  0.713400006      -3.59680939E-07
  0.715200007      -3.76747437E-07
  0.717000008      -3.94277521E-07
  0.718800008      -4.12386242E-07
  0.720600009      -4.31197378E-07
  0.722400010      -4.50842094E-07
  0.724200010      -4.71457611E-07
  0.726000011      -4.93185325E-07
  0.727800012      -5.16168882E-07
  0.729600012      -5.40552151E-07
  0.731400013      -5.66477013E-07
  0.733200014      -5.94080802E-07
  0.735000014      -6.23493861E-07
  0.736800015      -6.54836754E-07
  0.738600016      -6.88217597E-07
  0.740400016      -7.23729045E-07
  0.742200017      -7.61445733E-07
  0.744000018      -8.01420924E-07
  0.745800018      -8.43683949E-07
  0.747600019      -8.88237366E-07
  0.749400020      -9.35054175E-07
  0.751200020      -9.84075427E-07
  0.753000021      -1.03520733E-06
  0.754800022      -1.08831989E-06
  0.756600022      -1.14324416E-06
  0.758400023      -1.19977096E-06
  0.760200024      -1.25764996E-06
  0.762000024      -1.31658794E-06
  0.763800025      -1.37624920E-06
  0.765600026      -1.43625505E-06
  0.767400026      -1.49618427E-06
  0.769200027      -1.55557439E-06
  0.771000028      -1.61392290E-06
  0.772800028      -1.67068981E-06
  0.774600029      -1.72529974E-06
  0.776400030      -1.77714594E-06
  0.778199971      -1.82559393E-06
  0.779999971      -1.86998579E-06
  0.781799972      -1.90964602E-06
  0.783599973      -1.94388599E-06
  0.785399973      -1.97201189E-06
  0.787199974      -1.99333090E-06
  0.788999975      -2.00715772E-06
  0.790799975      -2.01282364E-06
  0.792599976      -2.00968384E-06
  0.794399977      -1.99712622E-06
  0.796199977      -1.97458007E-06
  0.797999978      -1.94152449E-06
  0.799799979      -1.89749767E-06
  0.801599979      -1.84210569E-06
  0.803399980      -1.77503080E-06
  0.805199981      -1.69603970E-06
  0.806999981      -1.60499144E-06
  0.808799982      -1.50184405E-06
  0.810599983      -1.38666144E-06
  0.812399983      -1.25961856E-06
  0.814199984      -1.12100531E-06
  0.815999985      -9.71230065E-07
  0.817799985      -8.10820382E-07
  0.819599986      -6.40423707E-07
  0.821399987      -4.60804671E-07
  0.823199987      -2.72841589E-07
  0.824999988      -7.75198856E-08
  0.826799989       1.24076223E-07
  0.828599989       3.30774895E-07
  0.830399990       5.41330508E-07
  0.832199991       7.54439839E-07
  0.833999991       9.68761697E-07
  0.835799992       1.18293963E-06
  0.837599993       1.39562724E-06
  0.839399993       1.60551735E-06
  0.841199994       1.81137455E-06
  0.842999995       2.01206990E-06
  0.844799995       2.20662014E-06
  0.846599996       2.39422934E-06
  0.848399997       2.57433476E-06
  0.850199997       2.74665467E-06
  0.851999998       2.91124115E-06
  0.853799999       3.06853258E-06
  0.855599999       3.21941093E-06
  0.857400000       3.36526114E-06
  0.859200001       3.50803180E-06
  0.861000001       3.65029859E-06
  0.862800002       3.79532776E-06
  0.864600003       3.94714198E-06
  0.866400003       4.11058409E-06
  0.868200004       4.29138345E-06
  0.870000005       4.49621803E-06
  0.871800005       4.73278124E-06
  0.873600006       5.00983697E-06
  0.875400007       5.33728144E-06
  0.877200007       5.72619410E-06
  0.879000008       6.18888771E-06
  0.880800009       6.73895283E-06
  0.882600009       7.39129155E-06
  0.884400010       8.16215015E-06
  0.886200011       9.06913920E-06
  0.888000011       1.01312444E-05
  0.889800012       1.13688275E-05
  0.891600013       1.28036172E-05
  0.893400013       1.44586829E-05
  0.895200014       1.63583973E-05
  0.897000015       1.85283861E-05
  0.898800015       2.09954542E-05
  0.900600016       2.37875065E-05
  0.902400017       2.69334432E-05
  0.904200017       3.04630321E-05
  0.906000018       3.44067776E-05
  0.907800019       3.87957371E-05
  0.909600019       4.36613591E-05
  0.911400020       4.90352722E-05
  0.913200021       5.49490469E-05
  0.915000021       6.14339515E-05
  0.916800022       6.85206978E-05
  0.918600023       7.62391137E-05
  0.920400023       8.46178518E-05
  0.922200024       9.36840443E-05
  0.924000025       1.03462946E-04
  0.925800025       1.13977563E-04
  0.927600026       1.25248247E-04
  0.929400027       1.37292314E-04
  0.931200027       1.50123582E-04
  0.933000028       1.63751945E-04
  0.934800029       1.78182934E-04
  0.936600029       1.93417305E-04
  0.938399971       2.09450518E-04
  0.940199971       2.26272285E-04
  0.941999972       2.43866205E-04
  0.943799973       2.62209243E-04
  0.945599973       2.81271321E-04
  0.947399974       3.01014952E-04
  0.949199975       3.21394793E-04
  0.950999975       3.42357263E-04
  0.952799976       3.63840314E-04
  0.954599977       3.85773077E-04
  0.956399977       4.08075692E-04
  0.958199978       4.30659013E-04
  0.959999979       4.53424582E-04
  0.961799979       4.76264482E-04
  0.963599980       4.99061367E-04
  0.965399981       5.21688547E-04
  0.967199981       5.44010021E-04
  0.968999982       5.65880910E-04
  0.970799983       5.87147602E-04
  0.972599983       6.07648166E-04
  0.974399984       6.27212925E-04
  0.976199985       6.45664986E-04
  0.977999985       6.62821054E-04
  0.979799986       6.78492012E-04
  0.981599987       6.92484085E-04
  0.983399987       7.04599544E-04
  0.985199988       7.14637921E-04
  0.986999989       7.22397410E-04
  0.988799989       7.27675681E-04
  0.990599990       7.30271626E-04
  0.992399991       7.29986641E-04
  0.994199991       7.26626196E-04
  0.995999992       7.20001291E-04
  0.997799993       7.09930260E-04
  0.999599993       6.96240342E-04
   1.00139999       6.78769371E-04
   1.00320005       6.57367636E-04
   1.00500000       6.31899573E-04
   1.00680006       6.02245331E-04
   1.00860000       5.68302814E-04
   1.01040006       5.29989018E-04
   1.01220000       4.87242069E-04
   1.01400006       4.40022239E-04
   1.01580000       3.88313958E-04
   1.01760006       3.32126830E-04
   1.01940000       2.71497061E-04
   1.02119994       2.06488490E-04
   1.02300000       1.37193521E-04
   1.02479994       6.37340199E-05
   1.02660000      -1.37381530E-05
   1.02839994      -9.50407048E-05
   1.03020000      -1.79960771E-04
   1.03199995      -2.68254778E-04
   1.03380001      -3.59648839E-04
   1.03559995      -4.53839079E-04
   1.03740001      -5.50492434E-04
   1.03919995      -6.49247668E-04
   1.04100001      -7.49716535E-04
   1.04279995      -8.51485180E-04
   1.04460001      -9.54115996E-04
   1.04639995      -1.05714938E-03
   1.04820001      -1.16010627E-03
   1.04999995      -1.26249017E-03
   1.05180001      -1.36379001E-03
   1.05359995      -1.46348274E-03
   1.05540001      -1.56103668E-03
   1.05719995      -1.65591447E-03
   1.05900002      -1.74757629E-03
   1.06079996      -1.83548348E-03
   1.06260002      -1.91910181E-03
   1.06439996      -1.99790532E-03
   1.06620002      -2.07137968E-03
   1.06799996      -2.13902630E-03
   1.06980002      -2.20036507E-03
   1.07159996      -2.25493871E-03
   1.07340002      -2.30231672E-03
   1.07519996      -2.34209676E-03
   1.07700002      -2.37391051E-03
   1.07879996      -2.39742431E-03
   1.08060002      -2.41234410E-03
   1.08239996      -2.41841632E-03
   1.08420002      -2.41543190E-03
   1.08599997      -2.40322691E-03
   1.08780003      -2.38168566E-03
   1.08959997      -2.35074130E-03
   1.09140003      -2.31037731E-03
   1.09319997      -2.26062885E-03
   1.09500003      -2.20158254E-03
   1.09679997      -2.13337713E-03
   1.09860003      -2.05620262E-03
   1.10039997      -1.97030068E-03
   1.10220003      -1.87596271E-03
   1.10399997      -1.77352887E-03
   1.10580003      -1.66338647E-03
   1.10759997      -1.54596788E-03
   1.10940003      -1.42174796E-03
   1.11119998      -1.29124173E-03
   1.11300004      -1.15500111E-03
   1.11479998      -1.01361203E-03
   1.11660004      -8.67690600E-04
   1.11839998      -7.17879622E-04
   1.12020004      -5.64844755E-04
   1.12199998      -4.09270404E-04
   1.12380004      -2.51855556E-04
   1.12559998      -9.33097617E-05
   1.12740004       6.56514239E-05
   1.12919998       2.24310599E-04
   1.13100004       3.81952821E-04
   1.13279998       5.37869870E-04
   1.13460004       6.91364403E-04
   1.13639998       8.41753965E-04
   1.13820004       9.88374930E-04
   1.13999999       1.13058637E-03
   1.14180005       1.26777310E-03
   1.14359999       1.39934965E-03
   1.14540005       1.52476272E-03
   1.14719999       1.64349412E-03
   1.14900005       1.75506342E-03
   1.15079999       1.85903022E-03
   1.15260005       1.95499579E-03
   1.15439999       2.04260461E-03
   1.15620005       2.12154607E-03
   1.15799999       2.19155475E-03
   1.15980005       2.25241180E-03
   1.16159999       2.30394420E-03
   1.16340005       2.34602555E-03
   1.16520000       2.37857574E-03
   1.16700006       2.40155985E-03
   1.16880000       2.41498742E-03
   1.17060006       2.41891132E-03
   1.17240000       2.41342676E-03
   1.17420006       2.39866879E-03
   1.17600000       2.37481087E-03
   1.17780006       2.34206300E-03
   1.17960000       2.30066897E-03
   1.18139994       2.25090515E-03
   1.18320000       2.19307723E-03
   1.18499994       2.12751771E-03
   1.18680000       2.05458398E-03
   1.18859994       1.97465485E-03
   1.19040000       1.88812846E-03
   1.19219995       1.79542019E-03
   1.19400001       1.69695937E-03
   1.19579995       1.59318687E-03
   1.19760001       1.48455286E-03
   1.19939995       1.37151440E-03
   1.20120001       1.25453330E-03
   1.20299995       1.13407383E-03
   1.20480001       1.01060059E-03
   1.20659995       8.84577224E-04
   1.20840001       7.56463909E-04
   1.21019995       6.26716297E-04
   1.21200001       4.95784101E-04
   1.21379995       3.64109583E-04
   1.21560001       2.32126593E-04
   1.21739995       1.00259502E-04
   1.21920002      -3.10776268E-05
   1.22099996      -1.61481759E-04
   1.22280002      -2.90561497E-04
   1.22459996      -4.17937466E-04
   1.22640002      -5.43242902E-04
   1.22819996      -6.66123640E-04
   1.23000002      -7.86238583E-04
   1.23179996      -9.03259555E-04
   1.23360002      -1.01687142E-03
   1.23539996      -1.12677214E-03
   1.23720002      -1.23267283E-03
   1.23899996      -1.33429724E-03
   1.24080002      -1.43138214E-03