 -0.300000012       0.00000000    
 -0.298200011       0.00000000    
 -0.296400011       0.00000000    
 -0.294600010       0.00000000    
 -0.292800009       0.00000000    
 -0.291000009       0.00000000    
 -0.289200008       0.00000000    
 -0.287400007       0.00000000    
 -0.285600007       0.00000000    
 -0.283800006       0.00000000    
 -0.282000005       0.00000000    
 -0.280200005       0.00000000    
 -0.278400004       0.00000000    
 -0.276600003       0.00000000    
 -0.274800003       0.00000000    
 -0.273000002       0.00000000    
 -0.271200001       0.00000000    
 -0.269400001       0.00000000    
 -0.267600000       0.00000000    
 -0.265799999       0.00000000    
 -0.263999999       0.00000000    
 -0.262199998       0.00000000    
 -0.260399997       0.00000000    
 -0.258599997       0.00000000    
 -0.256799996       0.00000000    
 -0.254999995       0.00000000    
 -0.253199995       0.00000000    
 -0.251399994       0.00000000    
 -0.249599993       0.00000000    
 -0.247799993       0.00000000    
 -0.246000007       0.00000000    
 -0.244200006       0.00000000    
 -0.242400005       0.00000000    
 -0.240600005       0.00000000    
 -0.238800004       0.00000000    
 -0.237000003       0.00000000    
 -0.235200003       0.00000000    
 -0.233400002       0.00000000    
 -0.231600001       0.00000000    
 -0.229800001       0.00000000    
 -0.228000000       0.00000000    
 -0.226199999       0.00000000    
 -0.224399999       0.00000000    
 -0.222599998       0.00000000    
 -0.220799997       0.00000000    
 -0.218999997       0.00000000    
 -0.217199996       0.00000000    
 -0.215399995       0.00000000    
 -0.213599995       0.00000000    
 -0.211799994       0.00000000    
 -0.209999993       0.00000000    
 -0.208199993       0.00000000    
 -0.206400007       0.00000000    
 -0.204600006       0.00000000    
 -0.202800006       0.00000000    
 -0.201000005       0.00000000    
 -0.199200004       0.00000000    
 -0.197400004       0.00000000    
 -0.195600003       0.00000000    
 -0.193800002       0.00000000    
 -0.192000002       0.00000000    
 -0.190200001       0.00000000    
 -0.188400000       0.00000000    
 -0.186600000       0.00000000    
 -0.184799999       0.00000000    
 -0.182999998       0.00000000    
 -0.181199998       0.00000000    
 -0.179399997       0.00000000    
 -0.177599996       0.00000000    
 -0.175799996       0.00000000    
 -0.173999995       0.00000000    
 -0.172199994       0.00000000    
 -0.170399994       0.00000000    
 -0.168599993       0.00000000    
 -0.166800007       0.00000000    
 -0.165000007       0.00000000    
 -0.163200006       0.00000000    
 -0.161400005       0.00000000    
 -0.159600005       0.00000000    
 -0.157800004       0.00000000    
 -0.156000003       0.00000000    
 -0.154200003       0.00000000    
 -0.152400002       0.00000000    
 -0.150600001       0.00000000    
 -0.148800001       0.00000000    
 -0.147000000       0.00000000    
 -0.145199999       0.00000000    
 -0.143399999       0.00000000    
 -0.141599998       0.00000000    
 -0.139799997       0.00000000    
 -0.137999997       0.00000000    
 -0.136199996       0.00000000    
 -0.134399995       0.00000000    
 -0.132599995       0.00000000    
 -0.130799994       0.00000000    
 -0.128999993       0.00000000    
 -0.127200007       0.00000000    
 -0.125400007       0.00000000    
 -0.123599999       0.00000000    
 -0.121799998       0.00000000    
 -0.119999997       0.00000000    
 -0.118199997       0.00000000    
 -0.116400003       0.00000000    
 -0.114600003       0.00000000    
 -0.112800002       0.00000000    
 -0.111000001       0.00000000    
 -0.109200001       0.00000000    
 -0.107400000       0.00000000    
 -0.105599999       0.00000000    
 -0.103799999       0.00000000    
 -0.101999998       0.00000000    
 -0.100199997       0.00000000    
  -9.83999968E-02   0.00000000    
  -9.66000035E-02   0.00000000    
  -9.48000029E-02   0.00000000    
  -9.30000022E-02   0.00000000    
  -9.12000015E-02   0.00000000    
  -8.94000009E-02   0.00000000    
  -8.76000002E-02   0.00000000    
  -8.57999995E-02   0.00000000    
  -8.39999989E-02   0.00000000    
  -8.21999982E-02   0.00000000    
  -8.03999975E-02   0.00000000    
  -7.85999969E-02   0.00000000    
  -7.68000036E-02   0.00000000    
  -7.50000030E-02   0.00000000    
  -7.32000023E-02   0.00000000    
  -7.14000016E-02   0.00000000    
  -6.96000010E-02   0.00000000    
  -6.78000003E-02   0.00000000    
  -6.59999996E-02   0.00000000    
  -6.41999990E-02   0.00000000    
  -6.23999983E-02   0.00000000    
  -6.06000014E-02   0.00000000    
  -5.88000007E-02   0.00000000    
  -5.70000000E-02   0.00000000    
  -5.51999994E-02   0.00000000    
  -5.33999987E-02   0.00000000    
  -5.16000018E-02   0.00000000    
  -4.98000011E-02   0.00000000    
  -4.80000004E-02   0.00000000    
  -4.61999997E-02   0.00000000    
  -4.43999991E-02   0.00000000    
  -4.25999984E-02   0.00000000    
  -4.08000015E-02   0.00000000    
  -3.90000008E-02   0.00000000    
  -3.72000001E-02   0.00000000    
  -3.53999995E-02   0.00000000    
  -3.35999988E-02   0.00000000    
  -3.18000019E-02   0.00000000    
  -2.99999993E-02   0.00000000    
  -2.82000005E-02   0.00000000    
  -2.63999999E-02   0.00000000    
  -2.45999992E-02   0.00000000    
  -2.28000004E-02   0.00000000    
  -2.09999997E-02   0.00000000    
  -1.92000009E-02   0.00000000    
  -1.74000002E-02   0.00000000    
  -1.55999996E-02   0.00000000    
  -1.37999998E-02   0.00000000    
  -1.20000001E-02   0.00000000    
  -1.02000004E-02   0.00000000    
  -8.39999970E-03   0.00000000    
  -6.59999996E-03   0.00000000    
  -4.80000023E-03   0.00000000    
  -3.00000003E-03   0.00000000    
  -1.20000006E-03   0.00000000    
   6.00000028E-04   0.00000000    
   2.40000011E-03   0.00000000    
   4.19999985E-03   0.00000000    
   6.00000005E-03   0.00000000    
   7.79999979E-03   0.00000000    
   9.60000046E-03   0.00000000    
   1.14000002E-02   0.00000000    
   1.31999999E-02   0.00000000    
   1.49999997E-02   0.00000000    
   1.67999994E-02   0.00000000    
   1.86000001E-02   0.00000000    
   2.04000007E-02   0.00000000    
   2.21999995E-02   0.00000000    
   2.40000002E-02   0.00000000    
   2.58000009E-02   0.00000000    
   2.75999997E-02   0.00000000    
   2.94000003E-02   0.00000000    
   3.11999992E-02   0.00000000    
   3.29999998E-02   0.00000000    
   3.48000005E-02   0.00000000    
   3.66000012E-02   0.00000000    
   3.84000018E-02   0.00000000    
   4.01999988E-02   0.00000000    
   4.19999994E-02   0.00000000    
   4.38000001E-02   0.00000000    
   4.56000008E-02   0.00000000    
   4.74000014E-02   0.00000000    
   4.91999984E-02   0.00000000    
   5.09999990E-02   0.00000000    
   5.27999997E-02   0.00000000    
   5.46000004E-02   0.00000000    
   5.64000010E-02   0.00000000    
   5.82000017E-02   0.00000000    
   5.99999987E-02   0.00000000    
   6.17999993E-02   0.00000000    
   6.36000037E-02   0.00000000    
   6.53999969E-02   0.00000000    
   6.71999976E-02   0.00000000    
   6.89999983E-02   0.00000000    
   7.07999989E-02   0.00000000    
   7.25999996E-02   0.00000000    
   7.44000003E-02   0.00000000    
   7.62000009E-02   0.00000000    
   7.80000016E-02   0.00000000    
   7.98000023E-02   0.00000000    
   8.16000029E-02   0.00000000    
   8.34000036E-02   0.00000000    
   8.51999968E-02   0.00000000    
   8.69999975E-02   0.00000000    
   8.87999982E-02   0.00000000    
   9.05999988E-02   0.00000000    
   9.23999995E-02   1.65744629E-38
   9.42000002E-02   2.41032612E-38
   9.60000008E-02   3.50454516E-38
   9.78000015E-02   4.87330015E-38
   9.96000022E-02   6.48446773E-38
  0.101400003       8.37650708E-38
  0.103200004       1.05352858E-37
  0.104999997       1.29242834E-37
  0.106799997       1.55059774E-37
  0.108599998       1.81376383E-37
  0.110399999       2.07773999E-37
  0.112199999       2.24876342E-37
  0.114000000       2.33070014E-37
  0.115800001       2.29600399E-37
  0.117600001       2.24091301E-37
  0.119400002       1.95181863E-37
  0.121200003       1.38646690E-37
  0.123000003       4.27893829E-38
  0.124799997      -1.02865105E-37
  0.126599997      -3.15816464E-37
  0.128399998      -6.18477225E-37
  0.130199999      -1.03246460E-36
  0.131999999      -1.58020136E-36
  0.133800000      -2.28676699E-36
  0.135600001      -3.17628058E-36
  0.137400001      -4.27059200E-36
  0.139200002      -5.59373630E-36
  0.141000003      -7.19344356E-36
  0.142800003      -9.07844604E-36
  0.144600004      -1.12526026E-35
  0.146400005      -1.37259198E-35
  0.148200005      -1.64758491E-35
  0.150000006      -1.94606448E-35
  0.151800007      -2.25939226E-35
  0.153600007      -2.57534885E-35
  0.155399993      -2.87610349E-35
  0.157199994      -3.13721907E-35
  0.158999994      -3.32633419E-35
  0.160799995      -3.40167230E-35
  0.162599996      -3.31084556E-35
  0.164399996      -2.98877331E-35
  0.166199997      -2.35646855E-35
  0.167999998      -1.31961983E-35
  0.169799998       2.32658844E-36
  0.171599999       2.42855296E-35
  0.173400000       5.41384657E-35
  0.175200000       9.35113562E-35
  0.177000001       1.44180696E-34
  0.178800002       2.08040988E-34
  0.180600002       2.87055169E-34
  0.182400003       3.83181817E-34
  0.184200004       4.98275709E-34
  0.186000004       6.33957144E-34
  0.187800005       7.91443724E-34
  0.189600006       9.71340461E-34
  0.191400006       1.17338158E-33
  0.193200007       1.39612022E-33
  0.194999993       1.63656217E-33
  0.196799994       1.88973831E-33
  0.198599994       2.14821831E-33
  0.200399995       2.40156177E-33
  0.202199996       2.63571400E-33
  0.203999996       2.83235254E-33
  0.205799997       2.96819377E-33
  0.207599998       3.01428067E-33
  0.209399998       2.93527239E-33
  0.211199999       2.68876535E-33
  0.213000000       2.22468606E-33
  0.214800000       1.48480319E-33
  0.216600001       4.02419012E-34
  0.218400002      -1.09769297E-33
  0.220200002      -3.09901894E-33
  0.222000003      -5.69261131E-33
  0.223800004      -8.97586989E-33
  0.225600004      -1.30506748E-32
  0.227400005      -1.80207339E-32
  0.229200006      -2.39880238E-32
  0.231000006      -3.10481677E-32
  0.232800007      -3.92846186E-32
  0.234599993      -4.87614423E-32
  0.236399993      -5.95146501E-32
  0.238199994      -7.15418792E-32
  0.239999995      -8.47902942E-32
  0.241799995      -9.91427452E-32
  0.243599996      -1.14402025E-31
  0.245399997      -1.30273186E-31
  0.247199997      -1.46344227E-31
  0.248999998      -1.62065053E-31
  0.250800014      -1.76725078E-31
  0.252600014      -1.89429763E-31
  0.254400015      -1.99076786E-31
  0.256199986      -2.04332069E-31
  0.257999986      -2.03606883E-31
  0.259799987      -1.95036824E-31
  0.261599988      -1.76463696E-31
  0.263399988      -1.45421946E-31
  0.265199989      -9.91310490E-32
  0.266999990      -3.44958427E-32
  0.268799990       5.18835700E-32
  0.270599991       1.63689481E-31
  0.272399992       3.04849578E-31
  0.274199992       4.79483111E-31
  0.275999993       6.91826433E-31
  0.277799994       9.46135843E-31
  0.279599994       1.24656399E-30
  0.281399995       1.59700706E-30
  0.283199996       2.00091971E-30
  0.284999996       2.46109585E-30
  0.286799997       2.97940855E-30
  0.288599998       3.55651289E-30
  0.290399998       4.19150441E-30
  0.292199999       4.88153614E-30
  0.294000000       5.62138815E-30
  0.295800000       6.40299334E-30
  0.297600001       7.21492478E-30
  0.299400002       8.04183634E-30
  0.301200002       8.86386687E-30
  0.303000003       9.65602217E-30
  0.304800004       1.03875190E-29
  0.306600004       1.10211228E-29
  0.308400005       1.15124832E-29
  0.310200006       1.18094782E-29
  0.312000006       1.18515763E-29
  0.313800007       1.15692620E-29
  0.315600008       1.08835099E-29
  0.317400008       9.70537262E-30
  0.319200009       7.93568074E-30
  0.321000010       5.46489806E-30
  0.322800010       2.17318192E-30
  0.324600011      -2.06933518E-30
  0.326400012      -7.40197546E-30
  0.328200012      -1.39726233E-29
  0.330000013      -2.19364670E-29
  0.331800014      -3.14542367E-29
  0.333600014      -4.26900187E-29
  0.335399985      -5.58084484E-29
  0.337199986      -7.09713129E-29
  0.338999987      -8.83333968E-29
  0.340799987      -1.08037484E-28
  0.342599988      -1.30208681E-28
  0.344399989      -1.54947576E-28
  0.346199989      -1.82322540E-28
  0.347999990      -2.12360715E-28
  0.349799991      -2.45038209E-28
  0.351599991      -2.80268548E-28
  0.353399992      -3.17890386E-28
  0.355199993      -3.57653280E-28
  0.356999993      -3.99202811E-28
  0.358799994      -4.42063659E-28
  0.360599995      -4.85621935E-28
  0.362399995      -5.29105967E-28
  0.364199996      -5.71565981E-28
  0.365999997      -6.11852921E-28
  0.367799997      -6.48596438E-28
  0.369599998      -6.80182364E-28
  0.371399999      -7.04730026E-28
  0.373199999      -7.20070106E-28
  0.375000000      -7.23722969E-28
  0.376800001      -7.12879117E-28
  0.378600001      -6.84380265E-28
  0.380400002      -6.34705428E-28
  0.382200003      -5.59958594E-28
  0.384000003      -4.55863333E-28
  0.385800004      -3.17761830E-28
  0.387600005      -1.40621438E-28
  0.389400005       8.09505490E-29
  0.391200006       3.52682791E-28
  0.393000007       6.80605346E-28
  0.394800007       1.07100155E-27
  0.396600008       1.53034788E-27
  0.398400009       2.06524151E-27
  0.400200009       2.68230754E-27
  0.402000010       3.38809711E-27
  0.403800011       4.18896273E-27
  0.405600011       5.09092271E-27
  0.407400012       6.09950410E-27
  0.409200013       7.21957412E-27
  0.411000013       8.45515986E-27
  0.412800014       9.80924654E-27
  0.414600015       1.12835783E-26
  0.416399986       1.28784370E-26
  0.418199986       1.45924368E-26
  0.419999987       1.64223091E-26
  0.421799988       1.83626912E-26
  0.423599988       2.04059319E-26
  0.425399989       2.25419207E-26
  0.427199990       2.47579311E-26
  0.428999990       2.70384972E-26
  0.430799991       2.93653225E-26
  0.432599992       3.17172435E-26
  0.434399992       3.40702338E-26
  0.436199993       3.63974290E-26
  0.437999994       3.86692405E-26
  0.439799994       4.08534947E-26
  0.441599995       4.29155986E-26
  0.443399996       4.48187780E-26
  0.445199996       4.65242829E-26
  0.446999997       4.79916536E-26
  0.448799998       4.91788769E-26
  0.450599998       5.00425656E-26
  0.452399999       5.05379795E-26
  0.454200000       5.06189394E-26
  0.456000000       5.02375282E-26
  0.457800001       4.93435824E-26
  0.459600002       4.78837768E-26
  0.461400002       4.58003551E-26
  0.463200003       4.30293364E-26
  0.465000004       3.94981977E-26
  0.466800004       3.51228608E-26
  0.468600005       2.98039200E-26
  0.470400006       2.34219998E-26
  0.472200006       1.58322334E-26
  0.474000007       6.85762948E-27
  0.475800008      -3.71848423E-27
  0.477600008      -1.61613641E-26
  0.479400009      -3.07946830E-26
  0.481200010      -4.80116894E-26
  0.483000010      -6.82872820E-26
  0.484800011      -9.21913082E-26
  0.486600012      -1.20402496E-25
  0.488400012      -1.53723242E-25
  0.490200013      -1.93094846E-25
  0.492000014      -2.39612679E-25
  0.493800014      -2.94541064E-25
  0.495599985      -3.59327375E-25
  0.497399986      -4.35614662E-25
  0.499199986      -5.25252088E-25
  0.500999987      -6.30302526E-25
  0.502799988      -7.53046571E-25
  0.504599988      -8.95981412E-25
  0.506399989      -1.06181388E-24
  0.508199990      -1.25344742E-24
  0.509999990      -1.47395958E-24
  0.511799991      -1.72657079E-24
  0.513599992      -2.01460264E-24
  0.515399992      -2.34142377E-24
  0.517199993      -2.71038092E-24
  0.518999994      -3.12471986E-24
  0.520799994      -3.58748459E-24
  0.522599995      -4.10140381E-24
  0.524399996      -4.66875928E-24
  0.526199996      -5.29123403E-24
  0.527999997      -5.96974237E-24
  0.529799998      -6.70424405E-24
  0.531599998      -7.49353489E-24
  0.533399999      -8.33501992E-24
  0.535200000      -9.22447794E-24
  0.537000000      -1.01558008E-23
  0.538800001      -1.11207252E-23
  0.540600002      -1.21085542E-23
  0.542400002      -1.31058716E-23
  0.544200003      -1.40962596E-23
  0.546000004      -1.50600094E-23
  0.547800004      -1.59738527E-23
  0.549600005      -1.68107048E-23
  0.551400006      -1.75394261E-23
  0.553200006      -1.81246220E-23
  0.555000007      -1.85264757E-23
  0.556800008      -1.87006483E-23
  0.558600008      -1.85982036E-23
  0.560400009      -1.81656523E-23
  0.562200010      -1.73450224E-23
  0.564000010      -1.60740696E-23
  0.565800011      -1.42865676E-23
  0.567600012      -1.19127092E-23
  0.569400012      -8.87965501E-24
  0.571200013      -5.11219022E-24
  0.573000014      -5.33547059E-25
  0.574800014       4.93360237E-24
  0.576600015       1.13660247E-23
  0.578400016       1.88386216E-23
  0.580200016       2.74229381E-23
  0.582000017       3.71854831E-23
  0.583800018       4.81859086E-23
  0.585600019       6.04749731E-23
  0.587400019       7.40923090E-23
  0.589200020       8.90641064E-23
  0.591000021       1.05400564E-22
  0.592800021       1.23093161E-22
  0.594600022       1.42111878E-22
  0.596400023       1.62402264E-22
  0.598200023       1.83882354E-22
  0.600000024       2.06439686E-22
  0.601800025       2.29928114E-22
  0.603600025       2.54164723E-22
  0.605400026       2.78926802E-22
  0.607200027       3.03948788E-22
  0.609000027       3.28919455E-22
  0.610800028       3.53479433E-22
  0.612600029       3.77218568E-22
  0.614400029       3.99674068E-22
  0.616199970       4.20328794E-22
  0.617999971       4.38609945E-22
  0.619799972       4.53888603E-22
  0.621599972       4.65479582E-22
  0.623399973       4.72642288E-22
  0.625199974       4.74581952E-22
  0.626999974       4.70452410E-22
  0.628799975       4.59359435E-22
  0.630599976       4.40365179E-22
  0.632399976       4.12494307E-22
  0.634199977       3.74740914E-22
  0.635999978       3.26077132E-22
  0.637799978       2.65463458E-22
  0.639599979       1.91860577E-22
  0.641399980       1.04242743E-22
  0.643199980       1.61357889E-24
  0.644999981      -1.16977053E-22
  0.646799982      -2.52413099E-22
  0.648599982      -4.05491368E-22
  0.650399983      -5.76897287E-22
  0.652199984      -7.67180281E-22
  0.653999984      -9.76724204E-22
  0.655799985      -1.20571904E-21
  0.657599986      -1.45412889E-21
  0.659399986      -1.72165831E-21
  0.661199987      -2.00771638E-21
  0.662999988      -2.31138053E-21
  0.664799988      -2.63135826E-21
  0.666599989      -2.96594979E-21
  0.668399990      -3.31300719E-21
  0.670199990      -3.66989544E-21
  0.671999991      -4.03345747E-21
  0.673799992      -4.39997482E-21
  0.675599992      -4.76513346E-21
  0.677399993      -5.12399252E-21
  0.679199994      -5.47095682E-21
  0.680999994      -5.79975344E-21
  0.682799995      -6.10341637E-21
  0.684599996      -6.37427844E-21
  0.686399996      -6.60396767E-21
  0.688199997      -6.78341821E-21
  0.689999998      -6.90288845E-21
  0.691799998      -6.95199907E-21
  0.693599999      -6.91977295E-21
  0.695400000      -6.79470147E-21
  0.697200000      -6.56482442E-21
  0.699000001      -6.21782336E-21
  0.700800002      -5.74114438E-21
  0.702600002      -5.12212854E-21
  0.704400003      -4.34817425E-21
  0.706200004      -3.40691864E-21
  0.708000004      -2.28644010E-21
  0.709800005      -9.75486665E-22
  0.711600006       5.36273803E-22
  0.713400006       2.25798396E-21
  0.715200007       4.19729295E-21
  0.717000008       6.36004512E-21
  0.718800008       8.74994722E-21
  0.720600009       1.13682089E-20
  0.722400010       1.42131763E-20
  0.724200010       1.72799597E-20
  0.726000011       2.05600313E-20
  0.727800012       2.40408477E-20
  0.729600012       2.77054647E-20
  0.731400013       3.15321314E-20
  0.733200014       3.54939582E-20
  0.735000014       3.95585622E-20
  0.736800015       4.36877347E-20
  0.738600016       4.78371634E-20
  0.740400016       5.19562062E-20
  0.742200017       5.59877133E-20
  0.744000018       5.98678818E-20
  0.745800018       6.35262626E-20
  0.747600019       6.68857339E-20
  0.749400020       6.98627116E-20
  0.751200020       7.23673176E-20
  0.753000021       7.43037603E-20
  0.754800022       7.55708266E-20
  0.756600022       7.60624497E-20
  0.758400023       7.56685243E-20
  0.760200024       7.42757461E-20
  0.762000024       7.17686973E-20
  0.763800025       6.80310624E-20
  0.765600026       6.29470294E-20
  0.767400026       5.64028481E-20
  0.769200027       4.82885359E-20
  0.771000028       3.84998033E-20
  0.772800028       2.69401271E-20
  0.774600029       1.35229692E-20
  0.776400030      -1.82583500E-21
  0.778199971      -1.91655825E-20
  0.779999971      -3.85379893E-20
  0.781799972      -5.99643712E-20
  0.783599973      -8.34429558E-20
  0.785399973      -1.08945761E-19
  0.787199974      -1.36415822E-19
  0.788999975      -1.65764190E-19
  0.790799975      -1.96866957E-19
  0.792599976      -2.29562524E-19
  0.794399977      -2.63648595E-19
  0.796199977      -2.98879923E-19
  0.797999978      -3.34965936E-19
  0.799799979      -3.71568601E-19
  0.801599979      -4.08300719E-19
  0.803399980      -4.44724764E-19
  0.805199981      -4.80351692E-19
  0.806999981      -5.14641120E-19
  0.808799982      -5.47001408E-19
  0.810599983      -5.76790818E-19
  0.812399983      -6.03318862E-19
  0.814199984      -6.25849401E-19
  0.815999985      -6.43604057E-19
  0.817799985      -6.55766611E-19
  0.819599986      -6.61488529E-19
  0.821399987      -6.59895431E-19
  0.823199987      -6.50095461E-19
  0.824999988      -6.31187042E-19
  0.826799989      -6.02270411E-19
  0.828599989      -5.62458570E-19
  0.830399990      -5.10889442E-19
  0.832199991      -4.46740086E-19
  0.833999991      -3.69242336E-19
  0.835799992      -2.77698206E-19
  0.837599993      -1.71498400E-19
  0.839399993      -5.01398792E-20
  0.841199994       8.67540629E-20
  0.842999995       2.39413987E-19
  0.844799995       4.07903388E-19
  0.846599996       5.92097640E-19
  0.848399997       7.91662614E-19
  0.850199997       1.00603278E-18
  0.851999998       1.23439098E-18
  0.853799999       1.47564741E-18
  0.855599999       1.72842108E-18
  0.857400000       1.99102043E-18
  0.859200001       2.26142804E-18
  0.861000001       2.53728719E-18
  0.862800002       2.81588783E-18
  0.864600003       3.09416276E-18
  0.866400003       3.36867816E-18
  0.868200004       3.63563581E-18
  0.870000005       3.89087686E-18
  0.871800005       4.12988987E-18
  0.873600006       4.34782508E-18
  0.875400007       4.53951592E-18
  0.877200007       4.69950754E-18
  0.879000008       4.82208784E-18
  0.880800009       4.90133009E-18
  0.882600009       4.93113961E-18
  0.884400010       4.90531421E-18
  0.886200011       4.81760701E-18
  0.888000011       4.66179803E-18
  0.889800012       4.43177440E-18
  0.891600013       4.12162675E-18
  0.893400013       3.72573315E-18
  0.895200014       3.23887511E-18
  0.897000015       2.65634330E-18
  0.898800015       1.97405702E-18
  0.900600016       1.18868677E-18
  0.902400017       2.97781996E-19
  0.904200017      -7.00094444E-19
  0.906000018      -1.80523132E-18
  0.907800019      -3.01663278E-18
  0.909600019      -4.33188407E-18
  0.911400020      -5.74701846E-18
  0.913200021      -7.25639229E-18
  0.915000021      -8.85255474E-18
  0.916800022      -1.05261405E-17
  0.918600023      -1.22657609E-17
  0.920400023      -1.40579279E-17
  0.922200024      -1.58869648E-17
  0.924000025      -1.77349674E-17
  0.925800025      -1.95817557E-17
  0.927600026      -2.14048849E-17
  0.929400027      -2.31796456E-17
  0.931200027      -2.48791378E-17
  0.933000028      -2.64743423E-17
  0.934800029      -2.79342433E-17
  0.936600029      -2.92259917E-17
  0.938399971      -3.03150974E-17
  0.940199971      -3.11656872E-17
  0.941999972      -3.17407895E-17
  0.943799973      -3.20026683E-17
  0.945599973      -3.19131872E-17
  0.947399974      -3.14342893E-17
  0.949199975      -3.05284339E-17
  0.950999975      -2.91591522E-17
  0.952799976      -2.72916001E-17
  0.954599977      -2.48931750E-17
  0.956399977      -2.19341994E-17
  0.958199978      -1.83885873E-17
  0.959999979      -1.42346021E-17
  0.961799979      -9.45559174E-18
  0.963599980      -4.04072932E-18
  0.965399981       2.01415749E-18
  0.967199981       8.70577154E-18
  0.968999982       1.60226506E-17
  0.970799983       2.39443740E-17
  0.972599983       3.24407961E-17
  0.974399984       4.14713783E-17
  0.976199985       5.09846105E-17
  0.977999985       6.09173456E-17
  0.979799986       7.11944493E-17
  0.981599987       8.17283231E-17
  0.983399987       9.24187259E-17
  0.985199988       1.03152652E-16
  0.986999989       1.13804342E-16
  0.988799989       1.24235593E-16
  0.990599990       1.34296041E-16
  0.992399991       1.43823839E-16
  0.994199991       1.52646468E-16
  0.995999992       1.60581724E-16
  0.997799993       1.67439117E-16
  0.999599993       1.73021223E-16
   1.00139999       1.77125693E-16
   1.00320005       1.79547096E-16
   1.00500000       1.80079297E-16
   1.00680006       1.78518004E-16
   1.00860000       1.74663620E-16
   1.01040006       1.68324280E-16
   1.01220000       1.59318956E-16
   1.01400006       1.47481089E-16
   1.01580000       1.32662155E-16
   1.01760006       1.14735576E-16
   1.01940000       9.36002773E-17
   1.02119994       6.91850688E-17
   1.02300000       4.14522638E-17
   1.02479994       1.04018938E-17
   1.02660000      -2.39246143E-17
   1.02839994      -6.14407127E-17
   1.03020000      -1.02011228E-16
   1.03199995      -1.45449335E-16
   1.03380001      -1.91513223E-16
   1.03559995      -2.39904003E-16
   1.03740001      -2.90263606E-16
   1.03919995      -3.42173359E-16
   1.04100001      -3.95153628E-16
   1.04279995      -4.48663664E-16
   1.04460001      -5.02102179E-16
   1.04639995      -5.54809439E-16
   1.04820001      -6.06069650E-16
   1.04999995      -6.55114816E-16
   1.05180001      -7.01128981E-16
   1.05359995      -7.43254312E-16
   1.05540001      -7.80597877E-16
   1.05719995      -8.12239587E-16
   1.05900002      -8.37241511E-16
   1.06079996      -8.54657461E-16
   1.06260002      -8.63544478E-16
   1.06439996      -8.62975484E-16
   1.06620002      -8.52052412E-16
   1.06799996      -8.29920499E-16
   1.06980002      -7.95782319E-16
   1.07159996      -7.48914345E-16
   1.07340002      -6.88682044E-16
   1.07519996      -6.14557767E-16
   1.07700002      -5.26135574E-16
   1.07879996      -4.23149205E-16
   1.08060002      -3.05487859E-16
   1.08239996      -1.73211686E-16
   1.08420002      -2.65670428E-17
   1.08599997       1.33998362E-16
   1.08780003       3.07825008E-16
   1.08959997       4.94027837E-16
   1.09140003       6.91489005E-16
   1.09319997       8.98849341E-16
   1.09500003       1.11450478E-15
   1.09679997       1.33660243E-15
   1.09860003       1.56304324E-15
   1.10039997       1.79148591E-15
   1.10220003       2.01935450E-15
   1.10399997       2.24384766E-15
   1.10580003       2.46195632E-15
   1.10759997       2.67048249E-15
   1.10940003       2.86605964E-15
   1.11119998       3.04518445E-15
   1.11300004       3.20424454E-15
   1.11479998       3.33955530E-15
   1.11660004       3.44739763E-15
   1.11839998       3.52406533E-15
   1.12020004       3.56590918E-15
   1.12199998       3.56938625E-15
   1.12380004       3.53111688E-15
   1.12559998       3.44793380E-15
   1.12740004       3.31694820E-15
   1.12919998       3.13560268E-15
   1.13100004       2.90173201E-15
   1.13279998       2.61362731E-15
   1.13460004       2.27009171E-15
   1.13639998       1.87050286E-15
   1.13820004       1.41486139E-15
   1.13999999       9.03847576E-16
   1.14180005       3.38873768E-16
   1.14359999      -2.77876702E-16
   1.14540005      -9.43415662E-16
   1.14719999      -1.65391071E-15
   1.14900005      -2.40467021E-15
   1.15079999      -3.19012873E-15
   1.15260005      -4.00384216E-15
   1.15439999      -4.83849572E-15
   1.15620005      -5.68592296E-15
   1.15799999      -6.53713601E-15
   1.15980005      -7.38236732E-15
   1.16159999      -8.21113061E-15
   1.16340005      -9.01228572E-15
   1.16520000      -9.77412578E-15
   1.16700006      -1.04844781E-14
   1.16880000      -1.11308091E-14
   1.17060006      -1.17003549E-14
   1.17240000      -1.21802533E-14
   1.17420006      -1.25577014E-14
   1.17600000      -1.28201122E-14
   1.17780006      -1.29552817E-14
   1.17960000      -1.29515700E-14
   1.18139994      -1.27980910E-14
   1.18320000      -1.24848997E-14
   1.18499994      -1.20031938E-14
   1.18680000      -1.13454956E-14
   1.18859994      -1.05058640E-14
   1.19040000      -9.48006220E-15
   1.19219995      -8.26577610E-15
   1.19400001      -6.86272277E-15
   1.19579995      -5.27289783E-15
   1.19760001      -3.50066012E-15
   1.19939995      -1.55288223E-15
   1.20120001       5.60949158E-16
   1.20299995       2.82865594E-15
   1.20480001       5.23531075E-15
   1.20659995       7.76319587E-15
   1.20840001       1.03918415E-14
   1.21019995       1.30980355E-14
   1.21200001       1.58559147E-14
   1.21379995       1.86370830E-14
   1.21560001       2.14107788E-14
   1.21739995       2.41440507E-14
   1.21920002       2.68019927E-14
   1.22099996       2.93480382E-14
   1.22280002       3.17442910E-14
   1.22459996       3.39518317E-14
   1.22640002       3.59311817E-14
   1.22819996       3.76426897E-14
   1.23000002       3.90470195E-14
   1.23179996       4.01056040E-14
   1.23360002       4.07812347E-14
   1.23539996       4.10385328E-14
   1.23720002       4.08445792E-14
   1.23899996       4.01693720E-14
   1.24080002       3.89865278E-14