 -0.300000012       0.00000000    
 -0.298200011       0.00000000    
 -0.296400011       0.00000000    
 -0.294600010       0.00000000    
 -0.292800009       0.00000000    
 -0.291000009       0.00000000    
 -0.289200008       0.00000000    
 -0.287400007       0.00000000    
 -0.285600007       0.00000000    
 -0.283800006       0.00000000    
 -0.282000005       0.00000000    
 -0.280200005       0.00000000    
 -0.278400004       0.00000000    
 -0.276600003       0.00000000    
 -0.274800003       0.00000000    
 -0.273000002       0.00000000    
 -0.271200001       0.00000000    
 -0.269400001       0.00000000    
 -0.267600000       0.00000000    
 -0.265799999       0.00000000    
 -0.263999999       0.00000000    
 -0.262199998       0.00000000    
 -0.260399997       0.00000000    
 -0.258599997       0.00000000    
 -0.256799996       0.00000000    
 -0.254999995       0.00000000    
 -0.253199995       0.00000000    
 -0.251399994       0.00000000    
 -0.249599993       0.00000000    
 -0.247799993       0.00000000    
 -0.246000007       0.00000000    
 -0.244200006       0.00000000    
 -0.242400005       0.00000000    
 -0.240600005       0.00000000    
 -0.238800004       0.00000000    
 -0.237000003       0.00000000    
 -0.235200003       0.00000000    
 -0.233400002       0.00000000    
 -0.231600001       0.00000000    
 -0.229800001       0.00000000    
 -0.228000000       0.00000000    
 -0.226199999       0.00000000    
 -0.224399999       0.00000000    
 -0.222599998       0.00000000    
 -0.220799997       0.00000000    
 -0.218999997       0.00000000    
 -0.217199996       0.00000000    
 -0.215399995       0.00000000    
 -0.213599995       0.00000000    
 -0.211799994       0.00000000    
 -0.209999993       0.00000000    
 -0.208199993       0.00000000    
 -0.206400007       0.00000000    
 -0.204600006       0.00000000    
 -0.202800006       0.00000000    
 -0.201000005       1.57526939E-38
 -0.199200004       2.76402226E-38
 -0.197400004       4.64559868E-38
 -0.195600003       7.54146996E-38
 -0.193800002       1.18759518E-37
 -0.192000002       1.81809485E-37
 -0.190200001       2.67564086E-37
 -0.188400000       3.91034018E-37
 -0.186600000       5.77869972E-37
 -0.184799999       8.35701042E-37
 -0.182999998       1.16745955E-36
 -0.181199998       1.58155414E-36
 -0.179399997       2.05272620E-36
 -0.177599996       2.51372479E-36
 -0.175799996       2.84690953E-36
 -0.173999995       2.84315521E-36
 -0.172199994       2.17744598E-36
 -0.170399994       3.52778122E-37
 -0.168599993      -3.35817083E-36
 -0.166800007      -9.98460267E-36
 -0.165000007      -2.09394359E-35
 -0.163200006      -3.81087979E-35
 -0.161400005      -6.39402404E-35
 -0.159600005      -1.01529376E-34
 -0.157800004      -1.54685437E-34
 -0.156000003      -2.27960428E-34
 -0.154200003      -3.26621047E-34
 -0.152400002      -4.56532343E-34
 -0.150600001      -6.23914152E-34
 -0.148800001      -8.34920301E-34
 -0.147000000      -1.09497234E-33
 -0.145199999      -1.40775734E-33
 -0.143399999      -1.77377138E-33
 -0.141599998      -2.18824996E-33
 -0.139799997      -2.63827603E-33
 -0.137999997      -3.09878751E-33
 -0.136199996      -3.52713141E-33
 -0.134399995      -3.85570633E-33
 -0.132599995      -3.98212413E-33
 -0.130799994      -3.75619302E-33
 -0.128999993      -2.96288108E-33
 -0.127200007      -1.30029089E-33
 -0.125400007       1.64847122E-33
 -0.123599999       6.45069496E-33
 -0.121799998       1.38679710E-32
 -0.119999997       2.49096657E-32
 -0.118199997       4.08968062E-32
 -0.116400003       6.35365335E-32
 -0.114600003       9.50063451E-32
 -0.112800002       1.38045625E-31
 -0.111000001       1.96049583E-31
 -0.109200001       2.73156699E-31
 -0.107400000       3.74315981E-31
 -0.105599999       5.05312484E-31
 -0.103799999       6.72720277E-31
 -0.101999998       8.83738252E-31
 -0.100199997       1.14584744E-30
  -9.83999968E-02   1.46620877E-30
  -9.66000035E-02   1.85068965E-30
  -9.48000029E-02   2.30238380E-30
  -9.30000022E-02   2.81944370E-30
  -9.12000015E-02   3.39201139E-30
  -8.94000009E-02   3.99798418E-30
  -8.76000002E-02   4.59731101E-30
  -8.57999995E-02   5.12446474E-30
  -8.39999989E-02   5.47871323E-30
  -8.21999982E-02   5.51177302E-30
  -8.03999975E-02   5.01245236E-30
  -7.85999969E-02   3.68790344E-30
  -7.68000036E-02   1.14122596E-30
  -7.50000030E-02  -3.15473042E-30
  -7.32000023E-02  -9.88717213E-30
  -7.14000016E-02  -1.99363360E-29
  -6.96000010E-02  -3.44105662E-29
  -6.78000003E-02  -5.46817192E-29
  -6.59999996E-02  -8.24181377E-29
  -6.41999990E-02  -1.19611360E-28
  -6.23999983E-02  -1.68590804E-28
  -6.06000014E-02  -2.32019067E-28
  -5.88000007E-02  -3.12857642E-28
  -5.70000000E-02  -4.14290353E-28
  -5.51999994E-02  -5.39587985E-28
  -5.33999987E-02  -6.91894088E-28
  -5.16000018E-02  -8.73906697E-28
  -4.98000011E-02  -1.08742646E-27
  -4.80000004E-02  -1.33273659E-27
  -4.61999997E-02  -1.60777383E-27
  -4.43999991E-02  -1.90704601E-27
  -4.25999984E-02  -2.22024497E-27
  -4.08000015E-02  -2.53050555E-27
  -3.90000008E-02  -2.81225311E-27
  -3.72000001E-02  -3.02858897E-27
  -3.53999995E-02  -3.12817515E-27
  -3.35999988E-02  -3.04157494E-27
  -3.18000019E-02  -2.67704513E-27
  -2.99999993E-02  -1.91579339E-27
  -2.82000005E-02  -6.06758451E-28
  -2.63999999E-02   1.43896568E-27
  -2.45999992E-02   4.45387940E-27
  -2.28000004E-02   8.71972563E-27
  -2.09999997E-02   1.45726075E-26
  -1.92000009E-02   2.24070640E-26
  -1.74000002E-02   3.26783381E-26
  -1.55999996E-02   4.59019425E-26
  -1.37999998E-02   6.26493548E-26
  -1.20000001E-02   8.35383299E-26
  -1.02000004E-02   1.09216116E-25
  -8.39999970E-03   1.40333462E-25
  -6.59999996E-03   1.77506966E-25
  -4.80000023E-03   2.21266806E-25
  -3.00000003E-03   2.71986692E-25
  -1.20000006E-03   3.29792571E-25
   6.00000028E-04   3.94445860E-25
   2.40000011E-03   4.65197389E-25
   4.19999985E-03   5.40607414E-25
   6.00000005E-03   6.18328159E-25
   7.79999979E-03   6.94843575E-25
   9.60000046E-03   7.65165348E-25
   1.14000002E-02   8.22480283E-25
   1.31999999E-02   8.57749761E-25
   1.49999997E-02   8.59261909E-25
   1.67999994E-02   8.12141029E-25
   1.86000001E-02   6.97821032E-25
   2.04000007E-02   4.93495408E-25
   2.21999995E-02   1.71561026E-25
   2.40000002E-02  -3.00917993E-25
   2.58000009E-02  -9.62696464E-25
   2.75999997E-02  -1.85873970E-24
   2.94000003E-02  -3.04046833E-24
   3.11999992E-02  -4.56578926E-24
   3.29999998E-02  -6.49883454E-24
   3.48000005E-02  -8.90931066E-24
   3.66000012E-02  -1.18713524E-23
   3.84000018E-02  -1.54617400E-23
   4.01999988E-02  -1.97573480E-23
   4.19999994E-02  -2.48316484E-23
   4.38000001E-02  -3.07501042E-23
   4.56000008E-02  -3.75642436E-23
   4.74000014E-02  -4.53042029E-23
   4.91999984E-02  -5.39695780E-23
   5.09999990E-02  -6.35182912E-23
   5.27999997E-02  -7.38533851E-23
   5.46000004E-02  -8.48074319E-23
   5.64000010E-02  -9.61245630E-23
   5.82000017E-02  -1.07439851E-22
   5.99999987E-02  -1.18256245E-22
   6.17999993E-02  -1.27918908E-22
   6.36000037E-02  -1.35587191E-22
   6.53999969E-02  -1.40204703E-22
   6.71999976E-02  -1.40467918E-22
   6.89999983E-02  -1.34793710E-22
   7.07999989E-02  -1.21287377E-22
   7.25999996E-02  -9.77117448E-23
   7.44000003E-02  -6.14593958E-23
   7.62000009E-02  -9.52953124E-24
   7.80000016E-02   6.14884638E-23
   7.98000023E-02   1.55421047E-22
   8.16000029E-02   2.76504482E-22
   8.34000036E-02   4.29362223E-22
   8.51999968E-02   6.18962178E-22
   8.69999975E-02   8.50549071E-22
   8.87999982E-02   1.12954774E-21
   9.05999988E-02   1.46143195E-21
   9.23999995E-02   1.85155232E-21
   9.42000002E-02   2.30492040E-21
   9.60000008E-02   2.82593937E-21
   9.78000015E-02   3.41807952E-21
   9.96000022E-02   4.08349220E-21
  0.101400003       4.82255587E-21
  0.103200004       5.63335281E-21
  0.104999997       6.51107303E-21
  0.106799997       7.44734616E-21
  0.108599998       8.42949389E-21
  0.110399999       9.43972295E-21
  0.112199999       1.04542446E-20
  0.114000000       1.14423490E-20
  0.115800001       1.23654244E-20
  0.117600001       1.31759710E-20
  0.119400002       1.38165933E-20
  0.121200003       1.42190231E-20
  0.123000003       1.43032033E-20
  0.124799997       1.39764556E-20
  0.126599997       1.31327831E-20
  0.128399998       1.16523584E-20
  0.130199999       9.40124290E-21
  0.131999999       6.23140924E-21
  0.133800000       1.98109272E-21
  0.135600001      -3.52440697E-21
  0.137400001      -1.04714724E-20
  0.139200002      -1.90563382E-20
  0.141000003      -2.94826557E-20
  0.142800003      -4.19584038E-20
  0.144600004      -5.66920317E-20
  0.146400005      -7.38878501E-20
  0.148200005      -9.37406113E-20
  0.150000006      -1.16429303E-19
  0.151800007      -1.42110017E-19
  0.153600007      -1.70908129E-19
  0.155399993      -2.02909705E-19
  0.157199994      -2.38152148E-19
  0.158999994      -2.76614367E-19
  0.160799995      -3.18206507E-19
  0.162599996      -3.62759334E-19
  0.164399996      -4.10013784E-19
  0.166199997      -4.59610500E-19
  0.167999998      -5.11079952E-19
  0.169799998      -5.63833499E-19
  0.171599999      -6.17155112E-19
  0.173400000      -6.70195381E-19
  0.175200000      -7.21966444E-19
  0.177000001      -7.71340183E-19
  0.178800002      -8.17047805E-19
  0.180600002      -8.57683415E-19
  0.182400003      -8.91710316E-19
  0.184200004      -9.17470375E-19
  0.186000004      -9.33197146E-19
  0.187800005      -9.37032886E-19
  0.189600006      -9.27048299E-19
  0.191400006      -9.01265080E-19
  0.193200007      -8.57682174E-19
  0.194999993      -7.94302458E-19
  0.196799994      -7.09161171E-19
  0.198599994      -6.00353265E-19
  0.200399995      -4.66059407E-19
  0.202199996      -3.04568057E-19
  0.203999996      -1.14290938E-19
  0.205799997       1.06228395E-19
  0.207599998       3.58318124E-19
  0.209399998       6.43194810E-19
  0.211199999       9.61997714E-19
  0.213000000       1.31584294E-18
  0.214800000       1.70590223E-18
  0.216600001       2.13350787E-18
  0.218400002       2.60028940E-18
  0.220200002       3.10834270E-18
  0.222000003       3.66043841E-18
  0.223800004       4.26026677E-18
  0.225600004       4.91272368E-18
  0.227400005       5.62423963E-18
  0.229200006       6.40314970E-18
  0.231000006       7.26010220E-18
  0.232800007       8.20850613E-18
  0.234599993       9.26500933E-18
  0.236399993       1.04500035E-17
  0.238199994       1.17881476E-17
  0.239999995       1.33088960E-17
  0.241799995       1.50470159E-17
  0.243599996       1.70430920E-17
  0.245399997       1.93439727E-17
  0.247199997       2.20031714E-17
  0.248999998       2.50811601E-17
  0.250800014       2.86455690E-17
  0.252600014       3.27712183E-17
  0.254400015       3.75399940E-17
  0.256199986       4.30404903E-17
  0.257999986       4.93674360E-17
  0.259799987       5.66208041E-17
  0.261599988       6.49046341E-17
  0.263399988       7.43254603E-17
  0.265199989       8.49903860E-17
  0.266999990       9.70046880E-17
  0.268799990       1.10469038E-16
  0.270599991       1.25476126E-16
  0.272399992       1.42106929E-16
  0.274199992       1.60426333E-16
  0.275999993       1.80478263E-16
  0.277799994       2.02280428E-16
  0.279599994       2.25818296E-16
  0.281399995       2.51038913E-16
  0.283199996       2.77843959E-16
  0.284999996       3.06082793E-16
  0.286799997       3.35544849E-16
  0.288599998       3.65952035E-16
  0.290399998       3.96950900E-16
  0.292199999       4.28104904E-16
  0.294000000       4.58886875E-16
  0.295800000       4.88671730E-16
  0.297600001       5.16729432E-16
  0.299400002       5.42219406E-16
  0.301200002       5.64185141E-16
  0.303000003       5.81550163E-16
  0.304800004       5.93115657E-16
  0.306600004       5.97559245E-16
  0.308400005       5.93436365E-16
  0.310200006       5.79183236E-16
  0.312000006       5.53122944E-16
  0.313800007       5.13473331E-16
  0.315600008       4.58359015E-16
  0.317400008       3.85825863E-16
  0.319200009       2.93859367E-16
  0.321000010       1.80406795E-16
  0.322800010       4.34028880E-17
  0.324600011      -1.19199850E-16
  0.326400012      -3.09396995E-16
  0.328200012      -5.29093678E-16
  0.330000013      -7.80061864E-16
  0.331800014      -1.06389286E-15
  0.333600014      -1.38194675E-15
  0.335399985      -1.73529628E-15
  0.337199986      -2.12466886E-15
  0.338999987      -2.55038359E-15
  0.340799987      -3.01228654E-15
  0.342599988      -3.50968186E-15
  0.344399989      -4.04126322E-15
  0.346199989      -4.60504370E-15
  0.347999990      -5.19828143E-15
  0.349799991      -5.81741423E-15
  0.351599991      -6.45798587E-15
  0.353399992      -7.11458209E-15
  0.355199993      -7.78076927E-15
  0.356999993      -8.44903591E-15
  0.358799994      -9.11074059E-15
  0.360599995      -9.75607721E-15
  0.362399995      -1.03740352E-14
  0.364199996      -1.09523816E-14
  0.365999997      -1.14776590E-14
  0.367799997      -1.19351847E-14
  0.369599998      -1.23090879E-14
  0.371399999      -1.25823390E-14
  0.373199999      -1.27368353E-14
  0.375000000      -1.27534761E-14
  0.376800001      -1.26122791E-14
  0.378600001      -1.22925233E-14
  0.380400002      -1.17729245E-14
  0.382200003      -1.10318232E-14
  0.384000003      -1.00474328E-14
  0.385800004      -8.79809395E-15
  0.387600005      -7.26257992E-15
  0.389400005      -5.42043234E-15
  0.391200006      -3.25233060E-15
  0.393000007      -7.40502725E-16
  0.394800007       2.13083526E-15
  0.396600008       5.37499876E-15
  0.398400009       9.00232969E-15
  0.400200009       1.30196545E-14
  0.402000010       1.74297137E-14
  0.403800011       2.22305796E-14
  0.405600011       2.74150379E-14
  0.407400012       3.29699714E-14
  0.409200013       3.88757359E-14
  0.411000013       4.51055243E-14
  0.412800014       5.16247506E-14
  0.414600015       5.83904805E-14
  0.416399986       6.53508145E-14
  0.418199986       7.24444444E-14
  0.419999987       7.96001177E-14
  0.421799988       8.67363161E-14
  0.423599988       9.37609162E-14
  0.425399989       1.00571000E-13
  0.427199990       1.07052788E-13
  0.428999990       1.13081717E-13
  0.430799991       1.18522650E-13
  0.432599992       1.23230297E-13
  0.434399992       1.27049792E-13
  0.436199993       1.29817530E-13
  0.437999994       1.31362220E-13
  0.439799994       1.31506161E-13
  0.441599995       1.30066815E-13
  0.443399996       1.26858580E-13
  0.445199996       1.21695012E-13
  0.446999997       1.14391163E-13
  0.448799998       1.04766259E-13
  0.450599998       9.26467833E-14
  0.452399999       7.78696769E-14
  0.454200000       6.02860250E-14
  0.456000000       3.97647918E-14
  0.457800001       1.61969403E-14
  0.459600002      -1.05002516E-14
  0.461400002      -4.03787518E-14
  0.463200003      -7.34551444E-14
  0.465000004      -1.09705918E-13
  0.466800004      -1.49062810E-13
  0.468600005      -1.91408020E-13
  0.470400006      -2.36569770E-13
  0.472200006      -2.84317817E-13
  0.474000007      -3.34359358E-13
  0.475800008      -3.86335441E-13
  0.477600008      -4.39817670E-13
  0.479400009      -4.94305443E-13
  0.481200010      -5.49224132E-13
  0.483000010      -6.03923975E-13
  0.484800011      -6.57679748E-13
  0.486600012      -7.09691474E-13
  0.488400012      -7.59086750E-13
  0.490200013      -8.04923673E-13
  0.492000014      -8.46195401E-13
  0.493800014      -8.81836379E-13
  0.495599985      -9.10730042E-13
  0.497399986      -9.31717160E-13
  0.499199986      -9.43607931E-13
  0.500999987      -9.45193251E-13
  0.502799988      -9.35260116E-13
  0.504599988      -9.12606362E-13
  0.506399989      -8.76059154E-13
  0.508199990      -8.24493631E-13
  0.509999990      -7.56853564E-13
  0.511799991      -6.72173417E-13
  0.513599992      -5.69601929E-13
  0.515399992      -4.48425856E-13
  0.517199993      -3.08095102E-13
  0.518999994      -1.48248276E-13
  0.520799994       3.12616957E-14
  0.522599995       2.30341869E-13
  0.524399996       4.48634484E-13
  0.526199996       6.85492516E-13
  0.527999997       9.39957313E-13
  0.529799998       1.21073713E-12
  0.531599998       1.49618881E-12
  0.533399999       1.79430201E-12
  0.535200000       2.10268651E-12
  0.537000000       2.41856361E-12
  0.538800001       2.73876126E-12
  0.540600002       3.05971502E-12
  0.542400002       3.37747386E-12
  0.544200003       3.68771159E-12
  0.546000004       3.98574533E-12
  0.547800004       4.26655889E-12
  0.549600005       4.52483493E-12
  0.551400006       4.75499414E-12
  0.553200006       4.95123994E-12
  0.555000007       5.10761355E-12
  0.556800008       5.21805342E-12
  0.558600008       5.27646590E-12
  0.560400009       5.27679983E-12
  0.562200010       5.21313027E-12
  0.564000010       5.07974695E-12
  0.565800011       4.87124967E-12
  0.567600012       4.58265067E-12
  0.569400012       4.20947825E-12
  0.571200013       3.74788525E-12
  0.573000014       3.19476108E-12
  0.574800014       2.54784236E-12
  0.576600015       1.80582621E-12
  0.578400016       9.68478661E-13
  0.580200016       3.67431203E-14
  0.582000017      -9.87159681E-13
  0.583800018      -2.09963600E-12
  0.585600019      -3.29563460E-12
  0.587400019      -4.56857035E-12
  0.589200020      -5.91026273E-12
  0.591000021      -7.31088801E-12
  0.592800021      -8.75894843E-12
  0.594600022      -1.02412610E-11
  0.596400023      -1.17429642E-11
  0.598200023      -1.32475498E-11
  0.600000024      -1.47369148E-11
  0.601800025      -1.61914475E-11
  0.603600025      -1.75901238E-11
  0.605400026      -1.89106543E-11
  0.607200027      -2.01296393E-11
  0.609000027      -2.12227614E-11
  0.610800028      -2.21650094E-11
  0.612600029      -2.29309228E-11
  0.614400029      -2.34948744E-11
  0.616199970      -2.38313726E-11
  0.617999971      -2.39153974E-11
  0.619799972      -2.37227477E-11
  0.621599972      -2.32304332E-11
  0.623399973      -2.24170491E-11
  0.625199974      -2.12631978E-11
  0.626999974      -1.97519136E-11
  0.628799975      -1.78690777E-11
  0.630599976      -1.56038654E-11
  0.632399976      -1.29491591E-11
  0.634199977      -9.90197421E-12
  0.635999978      -6.46386287E-12
  0.637799978      -2.64129343E-12
  0.639599979       1.55399803E-12
  0.641399980       6.10468317E-12
  0.643199980       1.09875694E-11
  0.644999981       1.61733665E-11
  0.646799982       2.16265270E-11
  0.648599982       2.73051182E-11
  0.650399983       3.31608109E-11
  0.652199984       3.91388900E-11
  0.653999984       4.51784062E-11
  0.655799985       5.12123677E-11
  0.657599986       5.71680411E-11
  0.659399986       6.29673674E-11
  0.661199987       6.85274476E-11
  0.662999988       7.37611847E-11
  0.664799988       7.85779566E-11
  0.666599989       8.28844285E-11
  0.668399990       8.65855235E-11
  0.670199990       8.95853877E-11
  0.671999991       9.17885143E-11
  0.673799992       9.31009853E-11
  0.675599992       9.34317276E-11
  0.677399993       9.26938942E-11
  0.679199994       9.08062722E-11
  0.680999994       8.76947751E-11
  0.682799995       8.32939759E-11
  0.684599996       7.75485856E-11
  0.686399996       7.04150557E-11
  0.688199997       6.18630494E-11
  0.689999998       5.18769507E-11
  0.691799998       4.04572729E-11
  0.693599999       2.76220262E-11
  0.695400000       1.34079397E-11
  0.697200000      -2.12842569E-12
  0.699000001      -1.89097280E-11
  0.700800002      -3.68370681E-11
  0.702600002      -5.57894113E-11
  0.704400003      -7.56232577E-11
  0.706200004      -9.61725491E-11
  0.708000004      -1.17248863E-10
  0.709800005      -1.38641876E-10
  0.711600006      -1.60120181E-10
  0.713400006      -1.81432397E-10
  0.715200007      -2.02308698E-10
  0.717000008      -2.22462507E-10
  0.718800008      -2.41592829E-10
  0.720600009      -2.59386707E-10
  0.722400010      -2.75522216E-10
  0.724200010      -2.89671565E-10
  0.726000011      -3.01504877E-10
  0.727800012      -3.10694026E-10
  0.729600012      -3.16916826E-10
  0.731400013      -3.19861609E-10
  0.733200014      -3.19231974E-10
  0.735000014      -3.14751586E-10
  0.736800015      -3.06169395E-10
  0.738600016      -2.93264774E-10
  0.740400016      -2.75852674E-10
  0.742200017      -2.53788796E-10
  0.744000018      -2.26974842E-10
  0.745800018      -1.95363198E-10
  0.747600019      -1.58961844E-10
  0.749400020      -1.17838503E-10
  0.751200020      -7.21246743E-11
  0.753000021      -2.20191001E-11
  0.754800022       3.22094365E-11
  0.756600022       9.02198663E-11
  0.758400023       1.51597360E-10
  0.760200024       2.15852725E-10
  0.762000024       2.82422696E-10
  0.763800025       3.50670992E-10
  0.765600026       4.19890872E-10
  0.767400026       4.89308261E-10
  0.769200027       5.58086244E-10
  0.771000028       6.25330843E-10
  0.772800028       6.90097701E-10
  0.774600029       7.51400109E-10
  0.776400030       8.08218326E-10
  0.778199971       8.59509408E-10
  0.779999971       9.04219311E-10
  0.781799972       9.41295042E-10
  0.783599973       9.69698322E-10
  0.785399973       9.88419346E-10
  0.787199974       9.96492444E-10
  0.788999975       9.93011451E-10
  0.790799975       9.77145587E-10
  0.792599976       9.48156109E-10
  0.794399977       9.05413078E-10
  0.796199977       8.48410897E-10
  0.797999978       7.76784581E-10
  0.799799979       6.90325463E-10
  0.801599979       5.88994853E-10
  0.803399980       4.72937911E-10
  0.805199981       3.42495726E-10
  0.806999981       1.98215194E-10
  0.808799982       4.08576992E-11
  0.810599983      -1.28594607E-10
  0.812399983      -3.08935072E-10
  0.814199984      -4.98731223E-10
  0.815999985      -6.96326774E-10
  0.817799985      -8.99845920E-10
  0.819599986      -1.10720155E-09
  0.821399987      -1.31610678E-09
  0.823199987      -1.52408941E-09
  0.824999988      -1.72851078E-09
  0.826799989      -1.92658689E-09
  0.828599989      -2.11541451E-09
  0.830399990      -2.29199970E-09
  0.832199991      -2.45329068E-09
  0.833999991      -2.59621213E-09
  0.835799992      -2.71770340E-09
  0.837599993      -2.81476087E-09
  0.839399993      -2.88447843E-09
  0.841199994      -2.92409497E-09
  0.842999995      -2.93103830E-09
  0.844799995      -2.90297275E-09
  0.846599996      -2.83784773E-09
  0.848399997      -2.73394218E-09
  0.850199997      -2.58991162E-09
  0.851999998      -2.40483211E-09
  0.853799999      -2.17824137E-09
  0.855599999      -1.91017802E-09
  0.857400000      -1.60121394E-09
  0.859200001      -1.25248645E-09
  0.861000001      -8.65720662E-10
  0.862800002      -4.43248688E-10
  0.864600003       1.19798425E-11
  0.866400003       4.96393260E-10
  0.868200004       1.00580266E-09
  0.870000005       1.53541346E-09
  0.871800005       2.07984896E-09
  0.873600006       2.63317923E-09
  0.875400007       3.18896287E-09
  0.877200007       3.74029696E-09
  0.879000008       4.27987512E-09
  0.880800009       4.80005946E-09
  0.882600009       5.29295585E-09
  0.884400010       5.75050274E-09
  0.886200011       6.16456486E-09
  0.888000011       6.52703891E-09
  0.889800012       6.82995660E-09
  0.891600013       7.06560499E-09
  0.893400013       7.22664240E-09
  0.895200014       7.30622052E-09
  0.897000015       7.29810790E-09
  0.898800015       7.19681559E-09
  0.900600016       6.99771308E-09
  0.902400017       6.69715483E-09
  0.904200017       6.29258423E-09
  0.906000018       5.78264769E-09
  0.907800019       5.16728837E-09
  0.909600019       4.44783232E-09
  0.911400020       3.62706531E-09
  0.913200021       2.70928791E-09
  0.915000021       1.70036363E-09
  0.916800022       6.07742467E-10
  0.918600023      -5.59531199E-10
  0.920400023      -1.79083226E-09
  0.922200024      -3.07398884E-09
  0.924000025      -4.39533920E-09
  0.925800025      -5.73981129E-09
  0.927600026      -7.09102466E-09
  0.929400027      -8.43141557E-09
  0.931200027      -9.74238734E-09
  0.933000028      -1.10044756E-08
  0.934800029      -1.21975434E-08
  0.936600029      -1.33009932E-08
  0.938399971      -1.42939847E-08
  0.940199971      -1.51556954E-08
  0.941999972      -1.58655684E-08
  0.943799973      -1.64035789E-08
  0.945599973      -1.67505227E-08
  0.947399974      -1.68882881E-08
  0.949199975      -1.68001435E-08
  0.950999975      -1.64710166E-08
  0.952799976      -1.58877675E-08
  0.954599977      -1.50394595E-08
  0.956399977      -1.39175986E-08
  0.958199978      -1.25163693E-08
  0.959999979      -1.08328484E-08
  0.961799979      -8.86717544E-09
  0.963599980      -6.62271793E-09
  0.965399981      -4.10617940E-09
  0.967199981      -1.32768752E-09
  0.968999982       1.69917047E-09
  0.970799983       4.95734387E-09
  0.972599983       8.42636894E-09
  0.974399984       1.20824577E-08
  0.976199985       1.58986388E-08
  0.977999985       1.98449470E-08
  0.979799986       2.38886528E-08
  0.981599987       2.79945436E-08
  0.983399987       3.21252536E-08
  0.985199988       3.62416372E-08
  0.986999989       4.03031528E-08
  0.988799989       4.42683437E-08
  0.990599990       4.80952735E-08
  0.992399991       5.17420595E-08
  0.994199991       5.51673693E-08
  0.995999992       5.83309827E-08
  0.997799993       6.11943136E-08
  0.999599993       6.37209538E-08
   1.00139999       6.58772308E-08
   1.00320005       6.76327048E-08
   1.00500000       6.89606949E-08
   1.00680006       6.98387126E-08
   1.00860000       7.02489160E-08
   1.01040006       7.01784941E-08
   1.01220000       6.96199649E-08
   1.01400006       6.85714738E-08
   1.01580000       6.70369786E-08
   1.01760006       6.50263630E-08
   1.01940000       6.25555003E-08
   1.02119994       5.96461902E-08
   1.02300000       5.63260656E-08
   1.02479994       5.26283443E-08
   1.02660000       4.85915379E-08
   1.02839994       4.42590533E-08
   1.03020000       3.96787279E-08
   1.03199995       3.49022287E-08
   1.03380001       2.99844203E-08
   1.03559995       2.49826222E-08
   1.03740001       1.99558379E-08
   1.03919995       1.49638701E-08
   1.04100001       1.00664241E-08
   1.04279995       5.32215250E-09
   1.04460001       7.87678478E-10
   1.04639995      -3.48340223E-09
   1.04820001      -7.44152162E-09
   1.04999995      -1.10421299E-08
   1.05180001      -1.42466581E-08
   1.05359995      -1.70234440E-08
   1.05540001      -1.93485921E-08
   1.05719995      -2.12067750E-08
   1.05900002      -2.25919425E-08
   1.06079996      -2.35079298E-08
   1.06260002      -2.39689602E-08
   1.06439996      -2.40000002E-08
   1.06620002      -2.36370017E-08
   1.06799996      -2.29269776E-08
   1.06980002      -2.19279261E-08
   1.07159996      -2.07085957E-08
   1.07340002      -1.93480787E-08
   1.07519996      -1.79352266E-08
   1.07700002      -1.65679008E-08
   1.07879996      -1.53520521E-08
   1.08060002      -1.44006291E-08
   1.08239996      -1.38323220E-08
   1.08420002      -1.37701788E-08
   1.08599997      -1.43400616E-08
   1.08780003      -1.56689666E-08
   1.08959997      -1.78832575E-08
   1.09140003      -2.11068034E-08
   1.09319997      -2.54590269E-08
   1.09500003      -3.10529238E-08
   1.09679997      -3.79930363E-08
   1.09860003      -4.63734580E-08
   1.10039997      -5.62758089E-08
   1.10220003      -6.77673242E-08
   1.10399997      -8.08989640E-08
   1.10580003      -9.57036832E-08
   1.10759997      -1.12194776E-07
   1.10940003      -1.30364413E-07
   1.11119998      -1.50182345E-07
   1.11300004      -1.71594849E-07
   1.11479998      -1.94523864E-07
   1.11660004      -2.18866347E-07
   1.11839998      -2.44494004E-07
   1.12020004      -2.71253157E-07
   1.12199998      -2.98965006E-07
   1.12380004      -3.27426164E-07
   1.12559998      -3.56409487E-07
   1.12740004      -3.85665203E-07
   1.12919998      -4.14922368E-07
   1.13100004      -4.43890571E-07
   1.13279998      -4.72261974E-07
   1.13460004      -4.99713735E-07
   1.13639998      -5.25910252E-07
   1.13820004      -5.50506343E-07
   1.13999999      -5.73149919E-07
   1.14180005      -5.93485254E-07
   1.14359999      -6.11156338E-07
   1.14540005      -6.25810458E-07
   1.14719999      -6.37101436E-07
   1.14900005      -6.44693273E-07
   1.15079999      -6.48264063E-07
   1.15260005      -6.47509012E-07
   1.15439999      -6.42144300E-07
   1.15620005      -6.31910211E-07
   1.15799999      -6.16574653E-07
   1.15980005      -5.95935603E-07
   1.16159999      -5.69824465E-07
   1.16340005      -5.38108566E-07
   1.16520000      -5.00693091E-07
   1.16700006      -4.57523242E-07
   1.16880000      -4.08585692E-07
   1.17060006      -3.53910167E-07
   1.17240000      -2.93569855E-07
   1.17420006      -2.27682264E-07
   1.17600000      -1.56409044E-07
   1.17780006      -7.99558890E-08
   1.17960000       1.42830148E-09
   1.18139994       8.74524488E-08
   1.18320000       1.77784770E-07
   1.18499994       2.72054649E-07
   1.18680000       3.69854746E-07
   1.18859994       4.70743686E-07
   1.19040000       5.74248475E-07
   1.19219995       6.79867924E-07
   1.19400001       7.87075464E-07
   1.19579995       8.95323183E-07
   1.19760001       1.00404509E-06
   1.19939995       1.11266070E-06
   1.20120001       1.22057907E-06
   1.20299995       1.32720254E-06
   1.20480001       1.43193085E-06
   1.20659995       1.53416443E-06
   1.20840001       1.63330856E-06
   1.21019995       1.72877640E-06
   1.21200001       1.81999383E-06
   1.21379995       1.90640048E-06
   1.21560001       1.98745533E-06
   1.21739995       2.06263803E-06
   1.21920002       2.13145154E-06
   1.22099996       2.19342610E-06
   1.22280002       2.24811924E-06
   1.22459996       2.29511920E-06
   1.22640002       2.33404694E-06
   1.22819996       2.36455594E-06
   1.23000002       2.38633402E-06
   1.23179996       2.39910537E-06
   1.23360002       2.40262966E-06
   1.23539996       2.39670339E-06
   1.23720002       2.38115990E-06
   1.23899996       2.35586890E-06
   1.24080002       2.32073785E-06