  -3.99999991E-02   0.00000000    
  -3.99499983E-02   0.00000000    
  -3.99000011E-02   0.00000000    
  -3.98500003E-02  -1.43290361E-15
  -3.97999994E-02  -7.00382660E-15
  -3.97499986E-02  -1.81643166E-14
  -3.97000015E-02  -3.38775909E-14
  -3.96500006E-02  -5.34959989E-14
  -3.95999998E-02  -8.03584833E-14
  -3.95499989E-02  -1.19980686E-13
  -3.95000018E-02  -1.73079311E-13
  -3.94500010E-02  -2.31961721E-13
  -3.94000001E-02  -2.87007370E-13
  -3.93499993E-02  -3.37958855E-13
  -3.92999984E-02  -3.96986426E-13
  -3.92500013E-02  -4.78452835E-13
  -3.92000005E-02  -5.86086464E-13
  -3.91499996E-02  -7.12361214E-13
  -3.90999988E-02  -8.50627023E-13
  -3.90500017E-02  -1.00455072E-12
  -3.90000008E-02  -1.18231325E-12
  -3.89500000E-02  -1.38261646E-12
  -3.88999991E-02  -1.59164695E-12
  -3.88499983E-02  -1.79788855E-12
  -3.88000011E-02  -2.00852095E-12
  -3.87500003E-02  -2.24614121E-12
  -3.86999995E-02  -2.52636323E-12
  -3.86499986E-02  -2.84053467E-12
  -3.86000015E-02  -3.16378586E-12
  -3.85500006E-02  -3.47987784E-12
  -3.84999998E-02  -3.79460222E-12
  -3.84499989E-02  -4.12340257E-12
  -3.84000018E-02  -4.47018984E-12
  -3.83500010E-02  -4.82478944E-12
  -3.83000001E-02  -5.18231118E-12
  -3.82499993E-02  -5.55844346E-12
  -3.81999984E-02  -5.97733798E-12
  -3.81500013E-02  -6.44227553E-12
  -3.81000005E-02  -6.92315476E-12
  -3.80499996E-02  -7.37839217E-12
  -3.79999988E-02  -7.78953291E-12
  -3.79500017E-02  -8.17131432E-12
  -3.79000008E-02  -8.54778227E-12
  -3.78500000E-02  -8.92372027E-12
  -3.77999991E-02  -9.28402494E-12
  -3.77499983E-02  -9.61801559E-12
  -3.77000012E-02  -9.93468502E-12
  -3.76500003E-02  -1.02468953E-11
  -3.75999995E-02  -1.05431063E-11
  -3.75499986E-02  -1.07839657E-11
  -3.75000015E-02  -1.09333783E-11
  -3.74500006E-02  -1.09914300E-11
  -3.73999998E-02  -1.09911767E-11
  -3.73499990E-02  -1.09611920E-11
  -3.73000018E-02  -1.08943375E-11
  -3.72500010E-02  -1.07552248E-11
  -3.72000001E-02  -1.05138936E-11
  -3.71499993E-02  -1.01647432E-11
  -3.70999984E-02  -9.71099243E-12
  -3.70500013E-02  -9.13885547E-12
  -3.70000005E-02  -8.41803970E-12
  -3.69499996E-02  -7.53109120E-12
  -3.68999988E-02  -6.49524184E-12
  -3.68500017E-02  -5.34559289E-12
  -3.68000008E-02  -4.09312471E-12
  -3.67500000E-02  -2.70247800E-12
  -3.66999991E-02  -1.11457892E-12
  -3.66499983E-02   7.09695107E-13
  -3.66000012E-02   2.77011140E-12
  -3.65500003E-02   5.04737701E-12
  -3.64999995E-02   7.53387543E-12
  -3.64499986E-02   1.02382929E-11
  -3.64000015E-02   1.31641547E-11
  -3.63500006E-02   1.62964399E-11
  -3.62999998E-02   1.96201857E-11
  -3.62499990E-02   2.31529795E-11
  -3.62000018E-02   2.69510681E-11
  -3.61500010E-02   3.10749516E-11
  -3.61000001E-02   3.55457053E-11
  -3.60499993E-02   4.03353184E-11
  -3.59999985E-02   4.53986466E-11
  -3.59500013E-02   5.07120596E-11
  -3.59000005E-02   5.62817778E-11
  -3.58499996E-02   6.21223975E-11
  -3.57999988E-02   6.82384774E-11
  -3.57500017E-02   7.46323350E-11
  -3.57000008E-02   8.13238643E-11
  -3.56500000E-02   8.83499246E-11
  -3.55999991E-02   9.57350449E-11
  -3.55499983E-02   1.03461968E-10
  -3.55000012E-02   1.11476849E-10
  -3.54500003E-02   1.19729088E-10
  -3.53999995E-02   1.28208416E-10
  -3.53499986E-02   1.36944386E-10
  -3.53000015E-02   1.45972248E-10
  -3.52500007E-02   1.55301758E-10
  -3.51999998E-02   1.64916400E-10
  -3.51499990E-02   1.74794401E-10
  -3.51000018E-02   1.84920815E-10
  -3.50500010E-02   1.95276614E-10
  -3.50000001E-02   2.05824538E-10
  -3.49499993E-02   2.16517762E-10
  -3.48999985E-02   2.27331945E-10
  -3.48500013E-02   2.38287640E-10
  -3.48000005E-02   2.49434279E-10
  -3.47499996E-02   2.60804267E-10
  -3.46999988E-02   2.72377593E-10
  -3.46500017E-02   2.84088308E-10
  -3.46000008E-02   2.95862557E-10
  -3.45500000E-02   3.07650821E-10
  -3.44999991E-02   3.19428123E-10
  -3.44499983E-02   3.31175726E-10
  -3.44000012E-02   3.42874923E-10
  -3.43500003E-02   3.54521246E-10
  -3.42999995E-02   3.66135899E-10
  -3.42499986E-02   3.77746751E-10
  -3.42000015E-02   3.89347110E-10
  -3.41500007E-02   4.00872002E-10
  -3.40999998E-02   4.12221562E-10
  -3.40499990E-02   4.23315161E-10
  -3.40000018E-02   4.34128455E-10
  -3.39500010E-02   4.44681986E-10
  -3.39000002E-02   4.54998955E-10
  -3.38499993E-02   4.65077643E-10
  -3.37999985E-02   4.74899731E-10
  -3.37500013E-02   4.84451368E-10
  -3.37000005E-02   4.93720398E-10
  -3.36499996E-02   5.02669073E-10
  -3.35999988E-02   5.11221787E-10
  -3.35500017E-02   5.19295551E-10
  -3.35000008E-02   5.26853061E-10
  -3.34500000E-02   5.33924738E-10
  -3.33999991E-02   5.40571421E-10
  -3.33499983E-02   5.46820922E-10
  -3.33000012E-02   5.52639212E-10
  -3.32500003E-02   5.57959345E-10
  -3.31999995E-02   5.62730473E-10
  -3.31499986E-02   5.66932945E-10
  -3.31000015E-02   5.70555825E-10
  -3.30500007E-02   5.73577796E-10
  -3.29999998E-02   5.75988424E-10
  -3.29499990E-02   5.77826953E-10
  -3.29000019E-02   5.79185311E-10
  -3.28500010E-02   5.80153536E-10
  -3.28000002E-02   5.80755499E-10
  -3.27499993E-02   5.80940906E-10
  -3.26999985E-02   5.80644199E-10
  -3.26500013E-02   5.79850112E-10
  -3.26000005E-02   5.78603110E-10
  -3.25499997E-02   5.76961368E-10
  -3.24999988E-02   5.74955084E-10
  -3.24500017E-02   5.72594361E-10
  -3.24000008E-02   5.69902237E-10
  -3.23500000E-02   5.66915737E-10
  -3.22999991E-02   5.63638747E-10
  -3.22499983E-02   5.60001157E-10
  -3.22000012E-02   5.55884061E-10
  -3.21500003E-02   5.51201584E-10
  -3.20999995E-02   5.45964884E-10
  -3.20499986E-02   5.40266387E-10
  -3.20000015E-02   5.34205125E-10
  -3.19500007E-02   5.27831723E-10
  -3.18999998E-02   5.21160060E-10
  -3.18499990E-02   5.14210563E-10
  -3.18000019E-02   5.07019371E-10
  -3.17500010E-02   4.99601083E-10
  -3.17000002E-02   4.91920615E-10
  -3.16499993E-02   4.83927343E-10
  -3.15999985E-02   4.75630091E-10
  -3.15500014E-02   4.67134831E-10
  -3.15000005E-02   4.58599908E-10
  -3.14499997E-02   4.50151277E-10
  -3.13999988E-02   4.41845005E-10
  -3.13500017E-02   4.33709402E-10
  -3.13000008E-02   4.25814661E-10
  -3.12500000E-02   4.18292595E-10
  -3.11999992E-02   4.11299272E-10
  -3.11500002E-02   4.04978440E-10
  -3.10999993E-02   3.99478617E-10
  -3.10500003E-02   3.94997812E-10
  -3.09999995E-02   3.91788491E-10
  -3.09500005E-02   3.90093735E-10
  -3.08999997E-02   3.90071725E-10
  -3.08500007E-02   3.91789323E-10
  -3.07999998E-02   3.95296296E-10
  -3.07500008E-02   4.00706385E-10
  -3.07000000E-02   4.08209744E-10
  -3.06499992E-02   4.18016649E-10
  -3.06000002E-02   4.30303265E-10
  -3.05499993E-02   4.45212422E-10
  -3.05000003E-02   4.62884869E-10
  -3.04499995E-02   4.83459162E-10
  -3.04000005E-02   5.07023201E-10
  -3.03499997E-02   5.33572353E-10
  -3.03000007E-02   5.63036617E-10
  -3.02499998E-02   5.95368810E-10
  -3.02000009E-02   6.30612673E-10
  -3.01500000E-02   6.68887390E-10
  -3.00999992E-02   7.10308146E-10
  -3.00500002E-02   7.54921459E-10
  -2.99999993E-02   8.02707345E-10
  -2.99500003E-02   8.53623061E-10
  -2.98999995E-02   9.07623310E-10
  -2.98500005E-02   9.64636926E-10
  -2.97999997E-02   1.02454578E-09
  -2.97500007E-02   1.08721332E-09
  -2.96999998E-02   1.15255083E-09
  -2.96500009E-02   1.22054955E-09
  -2.96000000E-02   1.29123801E-09
  -2.95499992E-02   1.36459710E-09
  -2.95000002E-02   1.44051571E-09
  -2.94499993E-02   1.51882595E-09
  -2.94000003E-02   1.59937674E-09
  -2.93499995E-02   1.68207692E-09
  -2.93000005E-02   1.76687964E-09
  -2.92499997E-02   1.85374838E-09
  -2.92000007E-02   1.94265226E-09
  -2.91499998E-02   2.03358863E-09
  -2.91000009E-02   2.12658757E-09
  -2.90500000E-02   2.22166996E-09
  -2.89999992E-02   2.31878428E-09
  -2.89500002E-02   2.41780240E-09
  -2.88999993E-02   2.51858245E-09
  -2.88500004E-02   2.62105626E-09
  -2.87999995E-02   2.72526846E-09
  -2.87500005E-02   2.83132984E-09
  -2.86999997E-02   2.93934743E-09
  -2.86500007E-02   3.04938474E-09
  -2.85999998E-02   3.16147797E-09
  -2.85500009E-02   3.27565597E-09
  -2.85000000E-02   3.39193740E-09
  -2.84499992E-02   3.51030693E-09
  -2.84000002E-02   3.63072772E-09
  -2.83499993E-02   3.75320175E-09
  -2.83000004E-02   3.87783539E-09
  -2.82499995E-02   4.00483646E-09
  -2.82000005E-02   4.13443191E-09
  -2.81499997E-02   4.26677227E-09
  -2.81000007E-02   4.40190107E-09
  -2.80499998E-02   4.53980098E-09
  -2.80000009E-02   4.68046402E-09
  -2.79500000E-02   4.82391105E-09
  -2.78999992E-02   4.97016917E-09
  -2.78500002E-02   5.11925746E-09
  -2.77999993E-02   5.27120880E-09
  -2.77500004E-02   5.42610223E-09
  -2.76999995E-02   5.58404345E-09
  -2.76500005E-02   5.74508086E-09
  -2.75999997E-02   5.90914428E-09
  -2.75500007E-02   6.07605966E-09
  -2.74999999E-02   6.24564755E-09
  -2.74500009E-02   6.41781117E-09
  -2.74000000E-02   6.59253185E-09
  -2.73499992E-02   6.76979894E-09
  -2.73000002E-02   6.94954094E-09
  -2.72499993E-02   7.13163173E-09
  -2.72000004E-02   7.31593097E-09
  -2.71499995E-02   7.50229301E-09
  -2.71000005E-02   7.69053177E-09
  -2.70499997E-02   7.88040033E-09
  -2.70000007E-02   8.07163580E-09
  -2.69499999E-02   8.26406055E-09
  -2.69000009E-02   8.45763992E-09
  -2.68500000E-02   8.65241212E-09
  -2.67999992E-02   8.84835938E-09
  -2.67500002E-02   9.04533248E-09
  -2.66999993E-02   9.24308363E-09
  -2.66500004E-02   9.44136413E-09
  -2.65999995E-02   9.63997770E-09
  -2.65500005E-02   9.83875648E-09
  -2.64999997E-02   1.00375264E-08
  -2.64500007E-02   1.02361390E-08
  -2.63999999E-02   1.04345448E-08
  -2.63500009E-02   1.06327933E-08
  -2.63000000E-02   1.08309379E-08
  -2.62499992E-02   1.10289218E-08
  -2.62000002E-02   1.12265539E-08
  -2.61499994E-02   1.14236149E-08
  -2.61000004E-02   1.16199788E-08
  -2.60499995E-02   1.18156622E-08
  -2.60000005E-02   1.20107391E-08
  -2.59499997E-02   1.22052697E-08
  -2.59000007E-02   1.23992940E-08
  -2.58499999E-02   1.25928787E-08
  -2.58000009E-02   1.27861313E-08
  -2.57500000E-02   1.29791369E-08
  -2.56999992E-02   1.31718751E-08
  -2.56500002E-02   1.33642803E-08
  -2.55999994E-02   1.35563383E-08
  -2.55500004E-02   1.37481990E-08
  -2.54999995E-02   1.39401237E-08
  -2.54500005E-02   1.41323575E-08
  -2.53999997E-02   1.43250363E-08
  -2.53500007E-02   1.45181884E-08
  -2.52999999E-02   1.47118397E-08
  -2.52500009E-02   1.49060657E-08
  -2.52000000E-02   1.51009711E-08
  -2.51499992E-02   1.52966617E-08
  -2.51000002E-02   1.54932600E-08
  -2.50499994E-02   1.56909667E-08
  -2.50000004E-02   1.58900981E-08
  -2.49499995E-02   1.60910076E-08
  -2.49000005E-02   1.62939369E-08
  -2.48499997E-02   1.64989480E-08
  -2.48000007E-02   1.67060215E-08
  -2.47499999E-02   1.69151875E-08
  -2.47000009E-02   1.71266006E-08
  -2.46500000E-02   1.73404970E-08
  -2.45999992E-02   1.75571113E-08
  -2.45500002E-02   1.77766601E-08
  -2.44999994E-02   1.79993673E-08
  -2.44500004E-02   1.82254905E-08
  -2.43999995E-02   1.84552373E-08
  -2.43500005E-02   1.86887004E-08
  -2.42999997E-02   1.89258529E-08
  -2.42500007E-02   1.91666789E-08
  -2.41999999E-02   1.94113028E-08
  -2.41500009E-02   1.96599856E-08
  -2.41000000E-02   1.99130223E-08
  -2.40499992E-02   2.01706492E-08
  -2.40000002E-02   2.04329851E-08
  -2.39499994E-02   2.07001243E-08
  -2.39000004E-02   2.09721538E-08
  -2.38499995E-02   2.12491749E-08
  -2.38000005E-02   2.15312213E-08
  -2.37499997E-02   2.18183267E-08
  -2.37000007E-02   2.21105694E-08
  -2.36499999E-02   2.24081358E-08
  -2.36000009E-02   2.27112604E-08
  -2.35500000E-02   2.30200961E-08
  -2.34999992E-02   2.33346551E-08
  -2.34500002E-02   2.36548132E-08
  -2.33999994E-02   2.39804567E-08
  -2.33500004E-02   2.43115288E-08
  -2.32999995E-02   2.46480916E-08
  -2.32500006E-02   2.49902197E-08
  -2.31999997E-02   2.53380072E-08
  -2.31500007E-02   2.56915591E-08
  -2.30999999E-02   2.60510120E-08
  -2.30500009E-02   2.64164512E-08
  -2.30000000E-02   2.67878733E-08
  -2.29499992E-02   2.71651412E-08
  -2.29000002E-02   2.75480705E-08
  -2.28499994E-02   2.79365899E-08
  -2.28000004E-02   2.83307902E-08
  -2.27499995E-02   2.87308684E-08
  -2.27000006E-02   2.91370217E-08
  -2.26499997E-02   2.95494047E-08
  -2.26000007E-02   2.99680885E-08
  -2.25499999E-02   3.03931316E-08
  -2.25000009E-02   3.08245482E-08
  -2.24500000E-02   3.12622852E-08
  -2.23999992E-02   3.17062785E-08
  -2.23500002E-02   3.21564997E-08
  -2.22999994E-02   3.26130589E-08
  -2.22500004E-02   3.30761694E-08
  -2.21999995E-02   3.35461152E-08
  -2.21500006E-02   3.40231026E-08
  -2.20999997E-02   3.45072131E-08
  -2.20500007E-02   3.49984575E-08
  -2.19999999E-02   3.54968535E-08
  -2.19500009E-02   3.60024437E-08
  -2.19000001E-02   3.65153383E-08
  -2.18499992E-02   3.70356688E-08
  -2.18000002E-02   3.75635771E-08
  -2.17499994E-02   3.80992020E-08
  -2.17000004E-02   3.86426962E-08
  -2.16499995E-02   3.91941803E-08
  -2.16000006E-02   3.97536297E-08
  -2.15499997E-02   4.03209199E-08
  -2.15000007E-02   4.08958840E-08
  -2.14499999E-02   4.14784580E-08
  -2.14000009E-02   4.20687485E-08
  -2.13500001E-02   4.26669615E-08
  -2.12999992E-02   4.32733103E-08
  -2.12500002E-02   4.38878871E-08
  -2.11999994E-02   4.45106956E-08
  -2.11500004E-02   4.51416931E-08
  -2.10999995E-02   4.57807978E-08
  -2.10500006E-02   4.64278500E-08
  -2.09999997E-02   4.70825938E-08
  -2.09500007E-02   4.77448339E-08
  -2.08999999E-02   4.84145701E-08
  -2.08500009E-02   4.90919732E-08
  -2.08000001E-02   4.97772596E-08
  -2.07499992E-02   5.04704900E-08
  -2.07000002E-02   5.11715292E-08
  -2.06499994E-02   5.18801464E-08
  -2.06000004E-02   5.25961354E-08
  -2.05499995E-02   5.33193223E-08
  -2.05000006E-02   5.40495719E-08
  -2.04499997E-02   5.47867423E-08
  -2.04000007E-02   5.55307906E-08
  -2.03499999E-02   5.62817881E-08
  -2.03000009E-02   5.70399052E-08
  -2.02500001E-02   5.78052521E-08
  -2.01999992E-02   5.85776547E-08
  -2.01500002E-02   5.93567755E-08
  -2.00999994E-02   6.01422698E-08
  -2.00500004E-02   6.09339565E-08
  -1.99999996E-02   6.17318463E-08
  -1.99500006E-02   6.25359746E-08
  -1.98999997E-02   6.33463415E-08
  -1.98500007E-02   6.41629043E-08
  -1.97999999E-02   6.49857128E-08
  -1.97500009E-02   6.58147670E-08
  -1.97000001E-02   6.66498963E-08
  -1.96499992E-02   6.74906957E-08
  -1.96000002E-02   6.83367745E-08
  -1.95499994E-02   6.91879123E-08
  -1.95000004E-02   7.00442087E-08
  -1.94499996E-02   7.09058341E-08
  -1.94000006E-02   7.17729094E-08
  -1.93499997E-02   7.26452711E-08
  -1.93000007E-02   7.35226138E-08
  -1.92499999E-02   7.44045678E-08
  -1.92000009E-02   7.52907567E-08
  -1.91500001E-02   7.61807470E-08
  -1.90999992E-02   7.70740769E-08
  -1.90500002E-02   7.79703910E-08
  -1.89999994E-02   7.88696468E-08
  -1.89500004E-02   7.97720148E-08
  -1.88999996E-02   8.06776441E-08
  -1.88500006E-02   8.15863572E-08
  -1.87999997E-02   8.24975857E-08
  -1.87500007E-02   8.34106686E-08
  -1.86999999E-02   8.43250092E-08
  -1.86500009E-02   8.52401314E-08
  -1.86000001E-02   8.61556373E-08
  -1.85499992E-02   8.70711787E-08
  -1.85000002E-02   8.79865212E-08
  -1.84499994E-02   8.89015510E-08
  -1.84000004E-02   8.98161119E-08
  -1.83499996E-02   9.07298769E-08
  -1.83000006E-02   9.16421286E-08
  -1.82499997E-02   9.25519643E-08
  -1.82000007E-02   9.34586737E-08
  -1.81499999E-02   9.43617948E-08
  -1.81000009E-02   9.52611714E-08
  -1.80500001E-02   9.61566613E-08
  -1.79999992E-02   9.70480514E-08
  -1.79500002E-02   9.79350574E-08
  -1.78999994E-02   9.88172957E-08
  -1.78500004E-02   9.96941267E-08
  -1.77999996E-02   1.00564776E-07
  -1.77500006E-02   1.01428434E-07
  -1.76999997E-02   1.02284432E-07
  -1.76500008E-02   1.03132443E-07
  -1.75999999E-02   1.03972361E-07
  -1.75500009E-02   1.04804300E-07
  -1.75000001E-02   1.05628068E-07
  -1.74499992E-02   1.06443174E-07
  -1.74000002E-02   1.07248923E-07
  -1.73499994E-02   1.08044446E-07
  -1.73000004E-02   1.08828942E-07
  -1.72499996E-02   1.09601864E-07
  -1.72000006E-02   1.10362798E-07
  -1.71499997E-02   1.11111618E-07
  -1.71000008E-02   1.11848408E-07
  -1.70499999E-02   1.12573304E-07
  -1.70000009E-02   1.13286205E-07
  -1.69500001E-02   1.13986580E-07
  -1.68999992E-02   1.14673512E-07
  -1.68500002E-02   1.15346026E-07
  -1.67999994E-02   1.16003449E-07
  -1.67500004E-02   1.16645495E-07
  -1.66999996E-02   1.17272187E-07
  -1.66500006E-02   1.17883580E-07
  -1.65999997E-02   1.18479711E-07
  -1.65500008E-02   1.19060587E-07
  -1.64999999E-02   1.19626023E-07
  -1.64500009E-02   1.20175500E-07
  -1.64000001E-02   1.20708137E-07
  -1.63499992E-02   1.21223167E-07
  -1.63000003E-02   1.21720120E-07
  -1.62499994E-02   1.22199154E-07
  -1.62000004E-02   1.22660694E-07
  -1.61499996E-02   1.23105011E-07
  -1.61000006E-02   1.23531976E-07
  -1.60499997E-02   1.23941234E-07
  -1.60000008E-02   1.24332345E-07
  -1.59499999E-02   1.24704783E-07
  -1.59000009E-02   1.25057980E-07
  -1.58500001E-02   1.25391580E-07
  -1.57999992E-02   1.25705483E-07
  -1.57500003E-02   1.26000273E-07
  -1.56999994E-02   1.26276674E-07
  -1.56500004E-02   1.26535184E-07
  -1.55999996E-02   1.26775703E-07
  -1.55499997E-02   1.26997719E-07
  -1.54999997E-02   1.27200479E-07
  -1.54499998E-02   1.27383501E-07
  -1.53999999E-02   1.27546642E-07
  -1.53500000E-02   1.27690129E-07
  -1.53000001E-02   1.27814388E-07
  -1.52500002E-02   1.27920075E-07
  -1.52000003E-02   1.28007883E-07
  -1.51500003E-02   1.28078156E-07
  -1.51000004E-02   1.28130807E-07
  -1.50499996E-02   1.28165226E-07
  -1.49999997E-02   1.28180659E-07
  -1.49499997E-02   1.28176779E-07
  -1.48999998E-02   1.28153857E-07
  -1.48499999E-02   1.28112688E-07
  -1.48000000E-02   1.28054111E-07
  -1.47500001E-02   1.27978893E-07
  -1.47000002E-02   1.27887361E-07
  -1.46500003E-02   1.27779387E-07
  -1.46000003E-02   1.27654616E-07
  -1.45500004E-02   1.27512578E-07
  -1.44999996E-02   1.27352891E-07
  -1.44499997E-02   1.27175468E-07
  -1.43999998E-02   1.26980765E-07
  -1.43499998E-02   1.26769692E-07
  -1.42999999E-02   1.26543227E-07
  -1.42500000E-02   1.26301927E-07
  -1.42000001E-02   1.26045663E-07
  -1.41500002E-02   1.25773823E-07
  -1.41000003E-02   1.25485798E-07
  -1.40500003E-02   1.25181387E-07
  -1.40000004E-02   1.24860748E-07
  -1.39499996E-02   1.24524448E-07
  -1.38999997E-02   1.24173241E-07
  -1.38499998E-02   1.23807865E-07
  -1.37999998E-02   1.23428933E-07
  -1.37499999E-02   1.23036557E-07
  -1.37000000E-02   1.22630112E-07
  -1.36500001E-02   1.22208590E-07
  -1.36000002E-02   1.21771009E-07
  -1.35500003E-02   1.21317143E-07
  -1.35000004E-02   1.20847645E-07
  -1.34500004E-02   1.20363651E-07
  -1.33999996E-02   1.19866044E-07
  -1.33499997E-02   1.19355192E-07
  -1.32999998E-02   1.18830862E-07
  -1.32499998E-02   1.18292526E-07
  -1.31999999E-02   1.17739432E-07
  -1.31500000E-02   1.17170565E-07
  -1.31000001E-02   1.16584971E-07
  -1.30500002E-02   1.15982246E-07
  -1.30000003E-02   1.15362965E-07
  -1.29500004E-02   1.14728266E-07
  -1.29000004E-02   1.14078901E-07
  -1.28499996E-02   1.13414700E-07
  -1.27999997E-02   1.12734604E-07
  -1.27499998E-02   1.12037426E-07
  -1.26999998E-02   1.11322294E-07
  -1.26499999E-02   1.10588836E-07
  -1.26000000E-02   1.09836677E-07
  -1.25500001E-02   1.09065610E-07
  -1.25000002E-02   1.08275550E-07
  -1.24500003E-02   1.07466590E-07
  -1.24000004E-02   1.06638460E-07
  -1.23500004E-02   1.05789852E-07
  -1.22999996E-02   1.04918655E-07
  -1.22499997E-02   1.04022753E-07
  -1.21999998E-02   1.03101073E-07
  -1.21499998E-02   1.02153834E-07
  -1.20999999E-02   1.01182003E-07
  -1.20500000E-02   1.00186554E-07
  -1.20000001E-02   9.91679272E-08
  -1.19500002E-02   9.81260797E-08
  -1.19000003E-02   9.70604717E-08
  -1.18500004E-02   9.59696465E-08
  -1.18000004E-02   9.48511172E-08
  -1.17499996E-02   9.37019848E-08
  -1.16999997E-02   9.25199330E-08
  -1.16499998E-02   9.13038605E-08
  -1.15999999E-02   9.00534118E-08
  -1.15499999E-02   8.87681963E-08
  -1.15000000E-02   8.74470771E-08
  -1.14500001E-02   8.60884626E-08
  -1.14000002E-02   8.46909245E-08
  -1.13500003E-02   8.32536742E-08
  -1.13000004E-02   8.17764061E-08
  -1.12500004E-02   8.02590492E-08
  -1.11999996E-02   7.87020511E-08
  -1.11499997E-02   7.71064279E-08
  -1.10999998E-02   7.54734444E-08
  -1.10499999E-02   7.38033279E-08
  -1.09999999E-02   7.20944513E-08
  -1.09500000E-02   7.03434893E-08
  -1.09000001E-02   6.85464485E-08
  -1.08500002E-02   6.66997906E-08
  -1.08000003E-02   6.48010996E-08
  -1.07500004E-02   6.28487200E-08
  -1.07000005E-02   6.08416144E-08
  -1.06499996E-02   5.87793245E-08
  -1.05999997E-02   5.66618681E-08
  -1.05499998E-02   5.44892380E-08
  -1.04999999E-02   5.22606385E-08
  -1.04499999E-02   4.99743216E-08
  -1.04000000E-02   4.76282231E-08
  -1.03500001E-02   4.52210074E-08
  -1.03000002E-02   4.27524292E-08
  -1.02500003E-02   4.02228579E-08
  -1.02000004E-02   3.76324145E-08
  -1.01500005E-02   3.49804026E-08
  -1.00999996E-02   3.22653690E-08
  -1.00499997E-02   2.94854470E-08
  -9.99999978E-03   2.66384390E-08
  -9.94999986E-03   2.37219293E-08
  -9.89999995E-03   2.07336743E-08
  -9.85000003E-03   1.76723045E-08
  -9.80000012E-03   1.45375880E-08
  -9.75000020E-03   1.13299272E-08
  -9.70000029E-03   8.04925726E-09
  -9.65000037E-03   4.69417438E-09
  -9.60000046E-03   1.26191890E-09
  -9.54999961E-03  -2.25087726E-09
  -9.49999969E-03  -5.84738791E-09
  -9.44999978E-03  -9.53015977E-09
  -9.39999986E-03  -1.33009692E-08
  -9.34999995E-03  -1.71606427E-08
  -9.30000003E-03  -2.11090612E-08
  -9.25000012E-03  -2.51455781E-08
  -9.20000020E-03  -2.92699305E-08
  -9.15000029E-03  -3.34830474E-08
  -9.10000037E-03  -3.77870961E-08
  -9.05000046E-03  -4.21847197E-08
  -8.99999961E-03  -4.66781103E-08
  -8.94999970E-03  -5.12685716E-08
  -8.89999978E-03  -5.59566296E-08
  -8.84999987E-03  -6.07424866E-08
  -8.79999995E-03  -6.56264021E-08
  -8.75000004E-03  -7.06089978E-08
  -8.70000012E-03  -7.56916450E-08
  -8.65000021E-03  -8.08767453E-08
  -8.60000029E-03  -8.61675034E-08
  -8.55000038E-03  -9.15671379E-08
  -8.50000046E-03  -9.70779652E-08
  -8.44999962E-03  -1.02701151E-07
  -8.39999970E-03  -1.08437106E-07
  -8.34999979E-03  -1.14286323E-07
  -8.29999987E-03  -1.20249965E-07
  -8.24999996E-03  -1.26329937E-07
  -8.20000004E-03  -1.32528925E-07
  -8.15000013E-03  -1.38849998E-07
  -8.10000021E-03  -1.45296156E-07
  -8.05000030E-03  -1.51869514E-07
  -8.00000038E-03  -1.58570785E-07
  -7.95000046E-03  -1.65399342E-07
  -7.89999962E-03  -1.72354120E-07
  -7.84999970E-03  -1.79434650E-07
  -7.79999979E-03  -1.86641799E-07
  -7.74999987E-03  -1.93977783E-07
  -7.69999996E-03  -2.01445843E-07
  -7.65000004E-03  -2.09049446E-07
  -7.60000013E-03  -2.16791918E-07
  -7.55000021E-03  -2.24675745E-07
  -7.49999983E-03  -2.32702206E-07
  -7.44999992E-03  -2.40871572E-07
  -7.40000000E-03  -2.49184012E-07
  -7.35000009E-03  -2.57640778E-07
  -7.30000017E-03  -2.66244456E-07
  -7.24999979E-03  -2.74998513E-07
  -7.19999988E-03  -2.83906758E-07
  -7.14999996E-03  -2.92972430E-07
  -7.10000005E-03  -3.02197861E-07
  -7.05000013E-03  -3.11584671E-07
  -7.00000022E-03  -3.21133399E-07
  -6.94999984E-03  -3.30844244E-07
  -6.89999992E-03  -3.40717577E-07
  -6.85000001E-03  -3.50754846E-07
  -6.80000009E-03  -3.60958893E-07
  -6.75000018E-03  -3.71333243E-07
  -6.69999979E-03  -3.81880938E-07
  -6.64999988E-03  -3.92603880E-07
  -6.59999996E-03  -4.03502810E-07
  -6.55000005E-03  -4.14577954E-07
  -6.50000013E-03  -4.25829768E-07
  -6.45000022E-03  -4.37259388E-07
  -6.39999984E-03  -4.48868747E-07
  -6.34999992E-03  -4.60660942E-07
  -6.30000001E-03  -4.72639982E-07
  -6.25000009E-03  -4.84810244E-07
  -6.20000018E-03  -4.97175279E-07
  -6.14999980E-03  -5.09737049E-07
  -6.09999988E-03  -5.22495782E-07
  -6.04999997E-03  -5.35451306E-07
  -6.00000005E-03  -5.48604305E-07
  -5.95000014E-03  -5.61956938E-07
  -5.90000022E-03  -5.75512615E-07
  -5.84999984E-03  -5.89275373E-07
  -5.79999993E-03  -6.03249191E-07
  -5.75000001E-03  -6.17438218E-07
  -5.70000010E-03  -6.31845410E-07
  -5.65000018E-03  -6.46472017E-07
  -5.59999980E-03  -6.61317529E-07
  -5.54999989E-03  -6.76380978E-07
  -5.49999997E-03  -6.91662308E-07
  -5.45000006E-03  -7.07163565E-07
  -5.40000014E-03  -7.22888046E-07
  -5.35000023E-03  -7.38839503E-07
  -5.29999984E-03  -7.55020892E-07
  -5.24999993E-03  -7.71434202E-07
  -5.20000001E-03  -7.88080740E-07
  -5.15000010E-03  -8.04961815E-07
  -5.10000018E-03  -8.22078334E-07
  -5.04999980E-03  -8.39431152E-07
  -4.99999989E-03  -8.57022314E-07
  -4.94999997E-03  -8.74855346E-07
  -4.90000006E-03  -8.92935304E-07
  -4.85000014E-03  -9.11267307E-07
  -4.80000023E-03  -9.29854991E-07
  -4.74999985E-03  -9.48699778E-07
  -4.69999993E-03  -9.67802180E-07
  -4.65000002E-03  -9.87162252E-07
  -4.60000010E-03  -1.00678119E-06
  -4.55000019E-03  -1.02666104E-06
  -4.49999981E-03  -1.04680419E-06
  -4.44999989E-03  -1.06721336E-06
  -4.39999998E-03  -1.08789129E-06
  -4.35000006E-03  -1.10884139E-06
  -4.30000015E-03  -1.13006467E-06
  -4.25000023E-03  -1.15156013E-06
  -4.19999985E-03  -1.17332536E-06
  -4.14999994E-03  -1.19535878E-06
  -4.10000002E-03  -1.21766129E-06
  -4.05000011E-03  -1.24023597E-06
  -4.00000019E-03  -1.26308748E-06
  -3.94999981E-03  -1.28622025E-06
  -3.89999989E-03  -1.30963906E-06
  -3.84999998E-03  -1.33334856E-06
  -3.80000006E-03  -1.35735218E-06
  -3.74999992E-03  -1.38165115E-06
  -3.70000000E-03  -1.40624581E-06
  -3.65000009E-03  -1.43113630E-06
  -3.59999994E-03  -1.45632464E-06
  -3.55000002E-03  -1.48181402E-06
  -3.50000011E-03  -1.50760764E-06
  -3.44999996E-03  -1.53370786E-06
  -3.40000005E-03  -1.56011549E-06
  -3.34999990E-03  -1.58683076E-06
  -3.29999998E-03  -1.61385310E-06
  -3.25000007E-03  -1.64118205E-06
  -3.19999992E-03  -1.66881841E-06
  -3.15000000E-03  -1.69676389E-06
  -3.10000009E-03  -1.72502155E-06
  -3.04999994E-03  -1.75359639E-06
  -3.00000003E-03  -1.78249468E-06
  -2.95000011E-03  -1.81172106E-06
  -2.89999996E-03  -1.84127771E-06
  -2.85000005E-03  -1.87116507E-06
  -2.79999990E-03  -1.90138292E-06
  -2.74999999E-03  -1.93193296E-06
  -2.70000007E-03  -1.96281690E-06
  -2.64999992E-03  -1.99403758E-06
  -2.60000001E-03  -2.02559886E-06
  -2.55000009E-03  -2.05750598E-06
  -2.49999994E-03  -2.08976348E-06
  -2.45000003E-03  -2.12237546E-06
  -2.40000011E-03  -2.15534328E-06
  -2.34999997E-03  -2.18866739E-06
  -2.30000005E-03  -2.22234826E-06
  -2.24999990E-03  -2.25638814E-06
  -2.19999999E-03  -2.29079183E-06
  -2.15000007E-03  -2.32556431E-06
  -2.09999993E-03  -2.36071241E-06
  -2.05000001E-03  -2.39624251E-06
  -2.00000009E-03  -2.43215800E-06
  -1.94999995E-03  -2.46845980E-06
  -1.90000003E-03  -2.50514927E-06
  -1.85000000E-03  -2.54222709E-06
  -1.79999997E-03  -2.57969532E-06
  -1.75000005E-03  -2.61755645E-06
  -1.70000002E-03  -2.65581548E-06
  -1.64999999E-03  -2.69448014E-06
  -1.59999996E-03  -2.73355863E-06
  -1.55000004E-03  -2.77305958E-06
  -1.50000001E-03  -2.81298821E-06
  -1.44999998E-03  -2.85334795E-06
  -1.39999995E-03  -2.89414174E-06
  -1.35000004E-03  -2.93537437E-06
  -1.30000000E-03  -2.97705105E-06
  -1.24999997E-03  -3.01917999E-06
  -1.20000006E-03  -3.06177026E-06
  -1.15000003E-03  -3.10482983E-06
  -1.09999999E-03  -3.14836757E-06
  -1.04999996E-03  -3.19239098E-06
  -1.00000005E-03  -3.23690483E-06
  -9.50000016E-04  -3.28191231E-06
  -8.99999985E-04  -3.32741638E-06
  -8.50000011E-04  -3.37342158E-06
  -7.99999980E-04  -3.41993700E-06
  -7.50000007E-04  -3.46697334E-06
  -6.99999975E-04  -3.51454287E-06
  -6.50000002E-04  -3.56265605E-06
  -6.00000028E-04  -3.61132129E-06
  -5.49999997E-04  -3.66054633E-06
  -5.00000024E-04  -3.71033866E-06
  -4.49999992E-04  -3.76070648E-06
  -3.99999990E-04  -3.81165546E-06
  -3.49999988E-04  -3.86319607E-06
  -3.00000014E-04  -3.91534240E-06
  -2.50000012E-04  -3.96811129E-06
  -1.99999995E-04  -4.02151863E-06
  -1.50000007E-04  -4.07558036E-06
  -9.99999975E-05  -4.13030511E-06
  -4.99999987E-05  -4.18570107E-06
   0.00000000      -4.24177551E-06
   4.99999987E-05  -4.29853890E-06
   9.99999975E-05  -4.35600396E-06
   1.50000007E-04  -4.41418251E-06
   1.99999995E-04  -4.47309003E-06
   2.50000012E-04  -4.53274424E-06
   3.00000014E-04  -4.59316334E-06
   3.49999988E-04  -4.65436369E-06
   3.99999990E-04  -4.71635803E-06
   4.49999992E-04  -4.77915410E-06
   5.00000024E-04  -4.84276279E-06
   5.49999997E-04  -4.90719913E-06
   6.00000028E-04  -4.97248084E-06
   6.50000002E-04  -5.03863157E-06
   6.99999975E-04  -5.10566952E-06
   7.50000007E-04  -5.17361605E-06
   7.99999980E-04  -5.24248935E-06
   8.50000011E-04  -5.31230762E-06
   8.99999985E-04  -5.38308632E-06
   9.50000016E-04  -5.45484045E-06
   1.00000005E-03  -5.52758183E-06
   1.04999996E-03  -5.60132958E-06
   1.09999999E-03  -5.67610959E-06
   1.15000003E-03  -5.75195054E-06
   1.20000006E-03  -5.82887924E-06
   1.24999997E-03  -5.90691570E-06
   1.30000000E-03  -5.98607630E-06
   1.35000004E-03  -6.06638014E-06
   1.39999995E-03  -6.14784449E-06
   1.44999998E-03  -6.23049027E-06
   1.50000001E-03  -6.31433613E-06
   1.55000004E-03  -6.39940663E-06
   1.59999996E-03  -6.48572995E-06
   1.64999999E-03  -6.57333794E-06
   1.70000002E-03  -6.66225833E-06
   1.75000005E-03  -6.75251613E-06
   1.79999997E-03  -6.84412953E-06
   1.85000000E-03  -6.93711672E-06
   1.90000003E-03  -7.03149726E-06
   1.94999995E-03  -7.12729616E-06
   2.00000009E-03  -7.22454115E-06
   2.05000001E-03  -7.32326362E-06
   2.09999993E-03  -7.42349857E-06
   2.15000007E-03  -7.52527922E-06
   2.19999999E-03  -7.62863556E-06
   2.24999990E-03  -7.73359079E-06
   2.30000005E-03  -7.84017266E-06
   2.34999997E-03  -7.94840253E-06
   2.40000011E-03  -8.05830496E-06
   2.45000003E-03  -8.16990723E-06
   2.49999994E-03  -8.28324482E-06
   2.55000009E-03  -8.39835502E-06
   2.60000001E-03  -8.51527238E-06
   2.64999992E-03  -8.63402965E-06
   2.70000007E-03  -8.75465321E-06
   2.74999999E-03  -8.87716851E-06
   2.79999990E-03  -9.00159557E-06