  -3.99999991E-02   1.00000002E-24
  -3.99499983E-02   1.00000002E-24
  -3.99000011E-02   9.99999625E-25
  -3.98500003E-02   3.47602800E-17
  -3.97999994E-02   1.96135376E-16
  -3.97499986E-02   5.69929242E-16
  -3.97000015E-02   1.05207464E-15
  -3.96500006E-02   1.12290247E-15
  -3.95999998E-02  -2.26720809E-16
  -3.95499989E-02  -4.23562256E-15
  -3.95000018E-02  -1.17886564E-14
  -3.94500010E-02  -2.27806496E-14
  -3.94000001E-02  -3.58320415E-14
  -3.93499993E-02  -4.86434284E-14
  -3.92999984E-02  -5.89647011E-14
  -3.92500013E-02  -6.58173738E-14
  -3.92000005E-02  -7.04069371E-14
  -3.91499996E-02  -7.61867376E-14
  -3.90999988E-02  -8.78213653E-14
  -3.90500017E-02  -1.09298258E-13
  -3.90000008E-02  -1.41965080E-13
  -3.89500000E-02  -1.83509674E-13
  -3.88999991E-02  -2.28602104E-13
  -3.88499983E-02  -2.71135463E-13
  -3.88000011E-02  -3.07134336E-13
  -3.87500003E-02  -3.36946183E-13
  -3.86999995E-02  -3.65553020E-13
  -3.86499986E-02  -4.00638886E-13
  -3.86000015E-02  -4.49054043E-13
  -3.85500006E-02  -5.13139553E-13
  -3.84999998E-02  -5.88665455E-13
  -3.84499989E-02  -6.65661103E-13
  -3.84000018E-02  -7.32205529E-13
  -3.83500010E-02  -7.79734350E-13
  -3.83000001E-02  -8.07394950E-13
  -3.82499993E-02  -8.23135288E-13
  -3.81999984E-02  -8.40614525E-13
  -3.81500013E-02  -8.73020406E-13
  -3.81000005E-02  -9.26442516E-13
  -3.80499996E-02  -9.95835575E-13
  -3.79999988E-02  -1.06566221E-12
  -3.79500017E-02  -1.11540649E-12
  -3.79000008E-02  -1.12799407E-12
  -3.78500000E-02  -1.09755705E-12
  -3.77999991E-02  -1.03279657E-12
  -3.77499983E-02  -9.53789348E-13
  -3.77000012E-02  -8.83042771E-13
  -3.76500003E-02  -8.34539631E-13
  -3.75999995E-02  -8.05836084E-13
  -3.75499986E-02  -7.77150208E-13
  -3.75000015E-02  -7.18311912E-13
  -3.74500006E-02  -6.00900840E-13
  -3.73999998E-02  -4.10484255E-13
  -3.73499990E-02  -1.53518826E-13
  -3.73000018E-02   1.44584323E-13
  -3.72500010E-02   4.50135345E-13
  -3.72000001E-02   7.36485254E-13
  -3.71499993E-02   9.97266180E-13
  -3.70999984E-02   1.25111672E-12
  -3.70500013E-02   1.53500249E-12
  -3.70000005E-02   1.88853946E-12
  -3.69499996E-02   2.33617466E-12
  -3.68999988E-02   2.87537355E-12
  -3.68500017E-02   3.47647605E-12
  -3.68000008E-02   4.09483688E-12
  -3.67500000E-02   4.69048324E-12
  -3.66999991E-02   5.24693873E-12
  -3.66499983E-02   5.78065026E-12
  -3.66000012E-02   6.33590879E-12
  -3.65500003E-02   6.96637453E-12
  -3.64999995E-02   7.71074177E-12
  -3.64499986E-02   8.57352991E-12
  -3.64000015E-02   9.52039749E-12
  -3.63500006E-02   1.04909952E-11
  -3.62999998E-02   1.14243103E-11
  -3.62499990E-02   1.22855398E-11
  -3.62000018E-02   1.30824596E-11
  -3.61500010E-02   1.38635431E-11
  -3.61000001E-02   1.46976684E-11
  -3.60499993E-02   1.56433547E-11
  -3.59999985E-02   1.67206058E-11
  -3.59500013E-02   1.78983738E-11
  -3.59000005E-02   1.91044507E-11
  -3.58499996E-02   2.02548117E-11
  -3.57999988E-02   2.12899646E-11
  -3.57500017E-02   2.22019486E-11
  -3.57000008E-02   2.30391817E-11
  -3.56500000E-02   2.38860910E-11
  -3.55999991E-02   2.48257526E-11
  -3.55499983E-02   2.59014997E-11
  -3.55000012E-02   2.70944083E-11
  -3.54500003E-02   2.83273942E-11
  -3.53999995E-02   2.94954720E-11
  -3.53499986E-02   3.05101534E-11
  -3.53000015E-02   3.13387476E-11
  -3.52500007E-02   3.20203725E-11
  -3.51999998E-02   3.26501534E-11
  -3.51499990E-02   3.33374335E-11
  -3.51000018E-02   3.41559489E-11
  -3.50500010E-02   3.51083537E-11
  -3.50000001E-02   3.61215328E-11
  -3.49499993E-02   3.70756308E-11
  -3.48999985E-02   3.78551739E-11
  -3.48500013E-02   3.84003315E-11
  -3.48000005E-02   3.87355877E-11
  -3.47499996E-02   3.89619621E-11
  -3.46999988E-02   3.92144268E-11
  -3.46500017E-02   3.96020959E-11
  -3.46000008E-02   4.01576029E-11
  -3.45500000E-02   4.08191848E-11
  -3.44999991E-02   4.14550547E-11
  -3.44499983E-02   4.19204671E-11
  -3.44000012E-02   4.21229197E-11
  -3.43500003E-02   4.20664198E-11
  -3.42999995E-02   4.18544331E-11
  -3.42499986E-02   4.16487435E-11
  -3.42000015E-02   4.16007333E-11
  -3.41500007E-02   4.17844093E-11
  -3.40999998E-02   4.21612537E-11
  -3.40499990E-02   4.25940012E-11
  -3.40000018E-02   4.29054015E-11
  -3.39500010E-02   4.29574015E-11
  -3.39000002E-02   4.27158656E-11
  -3.38499993E-02   4.22711657E-11
  -3.37999985E-02   4.18040845E-11
  -3.37500013E-02   4.15106109E-11
  -3.37000005E-02   4.15178551E-11
  -3.36499996E-02   4.18280272E-11
  -3.35999988E-02   4.23161228E-11
  -3.35500017E-02   4.27840402E-11
  -3.35000008E-02   4.30491337E-11
  -3.34500000E-02   4.30288756E-11
  -3.33999991E-02   4.27837696E-11
  -3.33499983E-02   4.24976200E-11
  -3.33000012E-02   4.24019674E-11
  -3.32500003E-02   4.26766227E-11
  -3.31999995E-02   4.33702380E-11
  -3.31499986E-02   4.43769639E-11
  -3.31000015E-02   4.54811501E-11
  -3.30500007E-02   4.64522205E-11
  -3.29999998E-02   4.71490520E-11
  -3.29499990E-02   4.75880724E-11
  -3.29000019E-02   4.79437393E-11
  -3.28500010E-02   4.84790159E-11
  -3.28000002E-02   4.94346161E-11
  -3.27499993E-02   5.09247922E-11
  -3.26999985E-02   5.28863030E-11
  -3.26500013E-02   5.51047784E-11
  -3.26000005E-02   5.73087619E-11
  -3.25499997E-02   5.92912455E-11
  -3.24999988E-02   6.10051940E-11
  -3.24500017E-02   6.25899610E-11
  -3.24000008E-02   6.43147202E-11
  -3.23500000E-02   6.64621413E-11
  -3.22999991E-02   6.92020885E-11
  -3.22499983E-02   7.25112331E-11
  -3.22000012E-02   7.61757463E-11
  -3.21500003E-02   7.98782984E-11
  -3.20999995E-02   8.33334166E-11
  -3.20499986E-02   8.64125507E-11
  -3.20000015E-02   8.92031032E-11
  -3.19500007E-02   9.19735885E-11
  -3.18999998E-02   9.50576839E-11
  -3.18499990E-02   9.87065985E-11
  -3.18000019E-02   1.02974226E-10
  -3.17500010E-02   1.07686741E-10
  -3.17000002E-02   1.12512215E-10
  -3.16499993E-02   1.17101856E-10
  -3.15999985E-02   1.21242349E-10
  -3.15500014E-02   1.24952479E-10
  -3.15000005E-02   1.28480018E-10
  -3.14499997E-02   1.32198197E-10
  -3.13999988E-02   1.36445008E-10
  -3.13500017E-02   1.41375134E-10
  -3.13000008E-02   1.46890000E-10
  -3.12500000E-02   1.52678883E-10
  -3.11999992E-02   1.58355162E-10
  -3.11500002E-02   1.63629471E-10
  -3.10999993E-02   1.68443745E-10
  -3.10500003E-02   1.73005721E-10
  -3.09999995E-02   1.77707002E-10
  -3.09500005E-02   1.82958190E-10
  -3.08999997E-02   1.89012070E-10
  -3.08500007E-02   1.95852848E-10
  -3.07999998E-02   2.03201359E-10
  -3.07500008E-02   2.10636231E-10
  -3.07000000E-02   2.17780183E-10
  -3.06499992E-02   2.24469998E-10
  -3.06000002E-02   2.30834671E-10
  -3.05499993E-02   2.37244391E-10
  -3.05000003E-02   2.44150561E-10
  -3.04499995E-02   2.51885124E-10
  -3.04000005E-02   2.60507893E-10
  -3.03499997E-02   2.69769707E-10
  -3.03000007E-02   2.79210738E-10
  -3.02499998E-02   2.88352703E-10
  -3.02000009E-02   2.96902947E-10
  -3.01500000E-02   3.04880760E-10
  -3.00999992E-02   3.12608939E-10
  -3.00500002E-02   3.20571902E-10
  -2.99999993E-02   3.29199945E-10
  -2.99500003E-02   3.38674533E-10
  -2.98999995E-02   3.48840512E-10
  -2.98500005E-02   3.59267227E-10
  -2.97999997E-02   3.69433956E-10
  -2.97500007E-02   3.78959281E-10
  -2.96999998E-02   3.87774812E-10
  -2.96500009E-02   3.96164629E-10
  -2.96000000E-02   4.04651618E-10
  -2.95499992E-02   4.13777623E-10
  -2.95000002E-02   4.23871993E-10
  -2.94499993E-02   4.34909858E-10
  -2.94000003E-02   4.46524401E-10
  -2.93499995E-02   4.58170196E-10
  -2.93000005E-02   4.69368044E-10
  -2.92499997E-02   4.79923823E-10
  -2.92000007E-02   4.90024132E-10
  -2.91499998E-02   5.00164021E-10
  -2.91000009E-02   5.10937515E-10
  -2.90500000E-02   5.22781152E-10
  -2.89999992E-02   5.35783140E-10
  -2.89500002E-02   5.49644052E-10
  -2.88999993E-02   5.63808000E-10
  -2.88500004E-02   5.77710269E-10
  -2.87999995E-02   5.91033167E-10
  -2.87500005E-02   6.03857353E-10
  -2.86999997E-02   6.16638518E-10
  -2.86500007E-02   6.30017261E-10
  -2.85999998E-02   6.44543086E-10
  -2.85500009E-02   6.60433319E-10
  -2.85000000E-02   6.77475021E-10
  -2.84499992E-02   6.95114244E-10
  -2.84000002E-02   7.12695958E-10
  -2.83499993E-02   7.29750704E-10
  -2.83000004E-02   7.46202711E-10
  -2.82499995E-02   7.62405250E-10
  -2.82000005E-02   7.78986708E-10
  -2.81499997E-02   7.96570809E-10
  -2.81000007E-02   8.15493784E-10
  -2.80499998E-02   8.35644220E-10
  -2.80000009E-02   8.56498927E-10
  -2.79500000E-02   8.77341089E-10
  -2.78999992E-02   8.97569075E-10
  -2.78500002E-02   9.16957288E-10
  -2.77999993E-02   9.35756361E-10
  -2.77500004E-02   9.54583967E-10
  -2.76999995E-02   9.74154868E-10
  -2.76500005E-02   9.94964333E-10
  -2.75999997E-02   1.01706754E-09
  -2.75500007E-02   1.04005105E-09
  -2.74999999E-02   1.06321374E-09
  -2.74500009E-02   1.08587828E-09
  -2.74000000E-02   1.10769904E-09
  -2.73499992E-02   1.12882625E-09
  -2.73000002E-02   1.14985377E-09
  -2.72499993E-02   1.17157128E-09
  -2.72000004E-02   1.19462673E-09
  -2.71499995E-02   1.21924937E-09
  -2.71000005E-02   1.24515576E-09
  -2.70499997E-02   1.27168354E-09
  -2.70000007E-02   1.29809496E-09
  -2.69499999E-02   1.32391809E-09
  -2.69000009E-02   1.34917522E-09
  -2.68500000E-02   1.37439460E-09
  -2.67999992E-02   1.40039724E-09
  -2.67500002E-02   1.42795042E-09
  -2.66999993E-02   1.45744083E-09
  -2.66500004E-02   1.48871304E-09
  -2.65999995E-02   1.52114488E-09
  -2.65500005E-02   1.55393409E-09
  -2.64999997E-02   1.58646440E-09
  -2.64500007E-02   1.61859581E-09
  -2.63999999E-02   1.65074365E-09
  -2.63500009E-02   1.68371339E-09
  -2.63000000E-02   1.71835712E-09
  -2.62499992E-02   1.75520443E-09
  -2.62000002E-02   1.79423154E-09
  -2.61499994E-02   1.83486937E-09
  -2.61000004E-02   1.87625671E-09
  -2.60499995E-02   1.91761917E-09
  -2.60000005E-02   1.95861971E-09
  -2.59499997E-02   1.99951167E-09
  -2.59000007E-02   2.04103490E-09
  -2.58499999E-02   2.08409134E-09
  -2.58000009E-02   2.12934603E-09
  -2.57500000E-02   2.17692908E-09
  -2.56999992E-02   2.22637087E-09
  -2.56500002E-02   2.27680097E-09
  -2.55999994E-02   2.32732900E-09
  -2.55500004E-02   2.37743558E-09
  -2.54999995E-02   2.42720266E-09
  -2.54500005E-02   2.47727683E-09
  -2.53999997E-02   2.52858356E-09
  -2.53500007E-02   2.58190935E-09
  -2.52999999E-02   2.63754552E-09
  -2.52500009E-02   2.69514366E-09
  -2.52000000E-02   2.75386003E-09
  -2.51499992E-02   2.81271606E-09
  -2.51000002E-02   2.87102875E-09
  -2.50499994E-02   2.92870950E-09
  -2.50000004E-02   2.98630387E-09
  -2.49499995E-02   3.04475134E-09
  -2.49000005E-02   3.10496762E-09
  -2.48499997E-02   3.16743387E-09
  -2.48000007E-02   3.23197802E-09
  -2.47499999E-02   3.29784466E-09
  -2.47000009E-02   3.36402572E-09
  -2.46500000E-02   3.42971274E-09
  -2.45999992E-02   3.49466034E-09
  -2.45500002E-02   3.55930796E-09
  -2.44999994E-02   3.62459729E-09
  -2.44500004E-02   3.69156483E-09
  -2.43999995E-02   3.76089160E-09
  -2.43500005E-02   3.83260224E-09
  -2.42999997E-02   3.90605726E-09
  -2.42500007E-02   3.98023969E-09
  -2.41999999E-02   4.05421341E-09
  -2.41500009E-02   4.12754897E-09
  -2.41000000E-02   4.20052837E-09
  -2.40499992E-02   4.27403801E-09
  -2.40000002E-02   4.34918945E-09
  -2.39499994E-02   4.42683668E-09
  -2.39000004E-02   4.50720261E-09
  -2.38499995E-02   4.58978455E-09
  -2.38000005E-02   4.67357975E-09
  -2.37499997E-02   4.75753437E-09
  -2.37000007E-02   4.84101914E-09
  -2.36499999E-02   4.92411623E-09
  -2.36000009E-02   5.00759523E-09
  -2.35500000E-02   5.09258102E-09
  -2.34999992E-02   5.18005994E-09
  -2.34500002E-02   5.27044497E-09
  -2.33999994E-02   5.36338662E-09
  -2.33500004E-02   5.45792789E-09
  -2.32999995E-02   5.55292567E-09
  -2.32500006E-02   5.64755842E-09
  -2.31999997E-02   5.74169512E-09
  -2.31500007E-02   5.83596194E-09
  -2.30999999E-02   5.93146066E-09
  -2.30500009E-02   6.02928640E-09
  -2.30000000E-02   6.13003248E-09
  -2.29499992E-02   6.23352436E-09
  -2.29000002E-02   6.33888186E-09
  -2.28499994E-02   6.44490727E-09
  -2.28000004E-02   6.55060717E-09
  -2.27499995E-02   6.65564004E-09
  -2.27000006E-02   6.76047041E-09
  -2.26499997E-02   6.86616897E-09
  -2.26000007E-02   6.97394009E-09
  -2.25499999E-02   7.08459069E-09
  -2.25000009E-02   7.19816207E-09
  -2.24500000E-02   7.31391570E-09
  -2.23999992E-02   7.43065520E-09
  -2.23500002E-02   7.54725438E-09
  -2.22999994E-02   7.66316788E-09
  -2.22500004E-02   7.77868081E-09
  -2.21999995E-02   7.89479593E-09
  -2.21500006E-02   8.01280198E-09
  -2.20999997E-02   8.13370793E-09
  -2.20500007E-02   8.25779889E-09
  -2.19999999E-02   8.38451797E-09
  -2.19500009E-02   8.51271320E-09
  -2.19000001E-02   8.64115979E-09
  -2.18499992E-02   8.76911788E-09
  -2.18000002E-02   8.89667895E-09
  -2.17499994E-02   9.02474362E-09
  -2.17000004E-02   9.15464859E-09
  -2.16499995E-02   9.28759469E-09
  -2.16000006E-02   9.42412814E-09
  -2.15499997E-02   9.56392299E-09
  -2.15000007E-02   9.70594360E-09
  -2.14499999E-02   9.84892612E-09
  -2.14000009E-02   9.99196992E-09
  -2.13500001E-02   1.01349720E-08
  -2.12999992E-02   1.02787032E-08
  -2.12500002E-02   1.04245066E-08
  -2.11999994E-02   1.05737339E-08
  -2.11500004E-02   1.07271658E-08
  -2.10999995E-02   1.08847020E-08
  -2.10500006E-02   1.10454295E-08
  -2.09999997E-02   1.12080505E-08
  -2.09500007E-02   1.13714993E-08
  -2.08999999E-02   1.15354455E-08
  -2.08500009E-02   1.17004895E-08
  -2.08000001E-02   1.18679298E-08
  -2.07499992E-02   1.20392212E-08
  -2.07000002E-02   1.22153629E-08
  -2.06499994E-02   1.23964776E-08
  -2.06000004E-02   1.25817810E-08
  -2.05499995E-02   1.27699487E-08
  -2.05000006E-02   1.29597257E-08
  -2.04499997E-02   1.31505216E-08
  -2.04000007E-02   1.33426825E-08
  -2.03499999E-02   1.35373703E-08
  -2.03000009E-02   1.37360638E-08
  -2.02500001E-02   1.39399212E-08
  -2.01999992E-02   1.41492587E-08
  -2.01500002E-02   1.43634233E-08
  -2.00999994E-02   1.45810644E-08
  -2.00500004E-02   1.48007411E-08
  -1.99999996E-02   1.50215591E-08
  -1.99500006E-02   1.52435593E-08
  -1.98999997E-02   1.54677000E-08
  -1.98500007E-02   1.56954147E-08
  -1.97999999E-02   1.59279541E-08
  -1.97500009E-02   1.61658225E-08
  -1.97000001E-02   1.64085012E-08
  -1.96499992E-02   1.66546545E-08
  -1.96000002E-02   1.69026837E-08
  -1.95499994E-02   1.71514127E-08
  -1.95000004E-02   1.74005663E-08
  -1.94499996E-02   1.76508639E-08
  -1.94000006E-02   1.79036554E-08
  -1.93499997E-02   1.81602786E-08
  -1.93000007E-02   1.84213942E-08
  -1.92499999E-02   1.86866469E-08
  -1.92000009E-02   1.89547382E-08
  -1.91500001E-02   1.92239629E-08
  -1.90999992E-02   1.94928891E-08
  -1.90500002E-02   1.97609360E-08
  -1.89999994E-02   2.00285850E-08
  -1.89500004E-02   2.02970867E-08
  -1.88999996E-02   2.05678461E-08
  -1.88500006E-02   2.08417195E-08
  -1.87999997E-02   2.11185487E-08
  -1.87500007E-02   2.13971472E-08
  -1.86999999E-02   2.16757474E-08
  -1.86500009E-02   2.19527170E-08
  -1.86000001E-02   2.22271996E-08
  -1.85499992E-02   2.24994494E-08
  -1.85000002E-02   2.27706405E-08
  -1.84499994E-02   2.30422899E-08
  -1.84000004E-02   2.33154989E-08
  -1.83499996E-02   2.35904025E-08
  -1.83000006E-02   2.38660220E-08
  -1.82499997E-02   2.41406539E-08
  -1.82000007E-02   2.44125467E-08
  -1.81499999E-02   2.46806309E-08
  -1.81000009E-02   2.49449563E-08
  -1.80500001E-02   2.52066155E-08
  -1.79999992E-02   2.54672194E-08
  -1.79500002E-02   2.57281272E-08
  -1.78999994E-02   2.59897952E-08
  -1.78500004E-02   2.62515201E-08
  -1.77999996E-02   2.65117066E-08
  -1.77500006E-02   2.67685483E-08
  -1.76999997E-02   2.70208016E-08
  -1.76500008E-02   2.72683351E-08
  -1.75999999E-02   2.75121561E-08
  -1.75500009E-02   2.77539698E-08
  -1.75000001E-02   2.79953873E-08
  -1.74499992E-02   2.82372046E-08
  -1.74000002E-02   2.84790218E-08
  -1.73499994E-02   2.87194002E-08
  -1.73000004E-02   2.89565172E-08
  -1.72499996E-02   2.91889766E-08
  -1.72000006E-02   2.94164479E-08
  -1.71499997E-02   2.96398426E-08
  -1.71000008E-02   2.98609208E-08
  -1.70499999E-02   3.00815302E-08
  -1.70000009E-02   3.03028038E-08
  -1.69500001E-02   3.05246566E-08
  -1.68999992E-02   3.07458592E-08
  -1.68500002E-02   3.09645785E-08
  -1.67999994E-02   3.11792618E-08
  -1.67500004E-02   3.13893622E-08
  -1.66999996E-02   3.15956505E-08
  -1.66500006E-02   3.17999174E-08
  -1.65999997E-02   3.20042268E-08
  -1.65500008E-02   3.22100675E-08
  -1.64999999E-02   3.24176881E-08
  -1.64500009E-02   3.26260583E-08
  -1.64000001E-02   3.28333662E-08
  -1.63499992E-02   3.30378640E-08
  -1.63000003E-02   3.32387202E-08
  -1.62499994E-02   3.34364465E-08
  -1.62000004E-02   3.36327375E-08
  -1.61499996E-02   3.38297603E-08
  -1.61000006E-02   3.40292381E-08
  -1.60499997E-02   3.42317250E-08
  -1.60000008E-02   3.44363684E-08
  -1.59499999E-02   3.46413209E-08
  -1.59000009E-02   3.48446036E-08
  -1.58500001E-02   3.50450406E-08
  -1.57999992E-02   3.52428025E-08
  -1.57500003E-02   3.54394096E-08
  -1.56999994E-02   3.56370329E-08
  -1.56500004E-02   3.58376013E-08
  -1.55999996E-02   3.60419001E-08
  -1.55499997E-02   3.62492258E-08
  -1.54999997E-02   3.64577026E-08
  -1.54499998E-02   3.66651065E-08
  -1.53999999E-02   3.68698672E-08
  -1.53500000E-02   3.70717537E-08
  -1.53000001E-02   3.72720130E-08
  -1.52500002E-02   3.74727627E-08
  -1.52000003E-02   3.76760809E-08
  -1.51500003E-02   3.78829768E-08
  -1.51000004E-02   3.80929386E-08
  -1.50499996E-02   3.83040906E-08
  -1.49999997E-02   3.85139600E-08
  -1.49499997E-02   3.87205432E-08
  -1.48999998E-02   3.89231438E-08
  -1.48499999E-02   3.91226607E-08
  -1.48000000E-02   3.93211259E-08
  -1.47500001E-02   3.95207316E-08
  -1.47000002E-02   3.97227815E-08
  -1.46500003E-02   3.99269986E-08
  -1.46000003E-02   4.01315425E-08
  -1.45500004E-02   4.03337523E-08
  -1.44999996E-02   4.05312370E-08
  -1.44499997E-02   4.07228491E-08
  -1.43999998E-02   4.09091250E-08
  -1.43499998E-02   4.10919938E-08
  -1.42999999E-02   4.12737791E-08
  -1.42500000E-02   4.14560972E-08
  -1.42000001E-02   4.16390016E-08
  -1.41500002E-02   4.18208401E-08
  -1.41000003E-02   4.19988417E-08
  -1.40500003E-02   4.21702850E-08
  -1.40000004E-02   4.23335678E-08
  -1.39499996E-02   4.24888604E-08
  -1.38999997E-02   4.26379074E-08
  -1.38499998E-02   4.27831637E-08
  -1.37999998E-02   4.29265832E-08
  -1.37499999E-02   4.30685994E-08
  -1.37000000E-02   4.32078124E-08
  -1.36500001E-02   4.33414939E-08
  -1.36000002E-02   4.34666489E-08
  -1.35500003E-02   4.35812950E-08
  -1.35000004E-02   4.36852368E-08
  -1.34500004E-02   4.37800693E-08
  -1.33999996E-02   4.38683934E-08
  -1.33499997E-02   4.39525394E-08
  -1.32999998E-02   4.40334311E-08
  -1.32499998E-02   4.41100454E-08
  -1.31999999E-02   4.41797603E-08
  -1.31500000E-02   4.42393819E-08
  -1.31000001E-02   4.42865371E-08
  -1.30500002E-02   4.43206076E-08
  -1.30000003E-02   4.43429897E-08
  -1.29500004E-02   4.43563728E-08
  -1.29000004E-02   4.43635102E-08
  -1.28499996E-02   4.43659047E-08
  -1.27999997E-02   4.43630306E-08
  -1.27499998E-02   4.43525074E-08
  -1.26999998E-02   4.43310739E-08
  -1.26499999E-02   4.42959767E-08
  -1.26000000E-02   4.42461641E-08
  -1.25500001E-02   4.41827268E-08
  -1.25000002E-02   4.41083863E-08
  -1.24500003E-02   4.40262298E-08
  -1.24000004E-02   4.39383072E-08
  -1.23500004E-02   4.38446612E-08
  -1.22999996E-02   4.37432526E-08
  -1.22499997E-02   4.36308163E-08
  -1.21999998E-02   4.35043148E-08
  -1.21499998E-02   4.33622631E-08
  -1.20999999E-02   4.32054286E-08
  -1.20500000E-02   4.30364970E-08
  -1.20000001E-02   4.28588685E-08
  -1.19500002E-02   4.26751399E-08
  -1.19000003E-02   4.24859223E-08
  -1.18500004E-02   4.22895106E-08
  -1.18000004E-02   4.20826289E-08
  -1.17499996E-02   4.18618527E-08
  -1.16999997E-02   4.16251247E-08
  -1.16499998E-02   4.13727150E-08
  -1.15999999E-02   4.11070999E-08
  -1.15499999E-02   4.08319210E-08
  -1.15000000E-02   4.05503435E-08
  -1.14500001E-02   4.02636751E-08
  -1.14000002E-02   3.99707538E-08
  -1.13500003E-02   3.96684854E-08
  -1.13000004E-02   3.93532282E-08
  -1.12500004E-02   3.90224351E-08
  -1.11999996E-02   3.86758217E-08
  -1.11499997E-02   3.83155552E-08
  -1.10999998E-02   3.79452736E-08
  -1.10499999E-02   3.75685296E-08
  -1.09999999E-02   3.71871529E-08
  -1.09500000E-02   3.68004294E-08
  -1.09000001E-02   3.64053463E-08
  -1.08500002E-02   3.59979211E-08
  -1.08000003E-02   3.55749954E-08
  -1.07500004E-02   3.51355922E-08
  -1.07000005E-02   3.46814311E-08
  -1.06499996E-02   3.42161641E-08
  -1.05999997E-02   3.37437740E-08
  -1.05499998E-02   3.32667724E-08
  -1.04999999E-02   3.27850813E-08
  -1.04499999E-02   3.22960005E-08
  -1.04000000E-02   3.17954019E-08
  -1.03500001E-02   3.12795265E-08
  -1.03000002E-02   3.07466763E-08
  -1.02500003E-02   3.01979455E-08
  -1.02000004E-02   2.96367944E-08
  -1.01500005E-02   2.90674933E-08
  -1.00999996E-02   2.84931918E-08
  -1.00499997E-02   2.79144619E-08
  -9.99999978E-03   2.73289835E-08
  -9.94999986E-03   2.67325007E-08
  -9.89999995E-03   2.61206310E-08
  -9.85000003E-03   2.54907757E-08
  -9.80000012E-03   2.48432350E-08
  -9.75000020E-03   2.41810323E-08
  -9.70000029E-03   2.35085302E-08
  -9.65000037E-03   2.28294255E-08
  -9.60000046E-03   2.21450112E-08
  -9.54999961E-03   2.14534985E-08
  -9.49999969E-03   2.07507167E-08
  -9.44999978E-03   2.00318819E-08
  -9.39999986E-03   1.92936778E-08
  -9.34999995E-03   1.85356885E-08
  -9.30000003E-03   1.77605788E-08
  -9.25000012E-03   1.69728764E-08
  -9.20000020E-03   1.61769051E-08
  -9.15000029E-03   1.53748054E-08
  -9.10000037E-03   1.45654546E-08
  -9.05000046E-03   1.37448595E-08
  -8.99999961E-03   1.29078277E-08
  -8.94999970E-03   1.20501769E-08
  -8.89999978E-03   1.11705463E-08
  -8.84999987E-03   1.02709672E-08
  -8.79999995E-03   9.35591071E-09
  -8.75000004E-03   8.43025827E-09
  -8.70000012E-03   7.49704654E-09
  -8.65000021E-03   6.55600152E-09
  -8.60000029E-03   5.60353364E-09
  -8.55000038E-03   4.63421168E-09
  -8.50000046E-03   3.64308450E-09
  -8.44999962E-03   2.62782263E-09
  -8.39999970E-03   1.58972358E-09
  -8.34999979E-03   5.33140476E-10
  -8.29999987E-03  -5.36467482E-10
  -8.24999996E-03  -1.61498781E-09
  -8.20000004E-03  -2.70152101E-09
  -8.15000013E-03  -3.79885234E-09
  -8.10000021E-03  -4.91226881E-09
  -8.05000030E-03  -6.04723160E-09
  -8.00000038E-03  -7.20694437E-09
  -7.95000046E-03  -8.39088710E-09
  -7.89999962E-03  -9.59498792E-09
  -7.84999970E-03  -1.08133840E-08
  -7.79999979E-03  -1.20409922E-08
  -7.74999987E-03  -1.32758089E-08
  -7.69999996E-03  -1.45198173E-08
  -7.65000004E-03  -1.57781912E-08
  -7.60000013E-03  -1.70570100E-08
  -7.55000021E-03  -1.83605540E-08
  -7.49999983E-03  -1.96893364E-08
  -7.44999992E-03  -2.10397744E-08
  -7.40000000E-03  -2.24056631E-08
  -7.35000009E-03  -2.37808617E-08
  -7.30000017E-03  -2.51619401E-08
  -7.24999979E-03  -2.65496922E-08
  -7.19999988E-03  -2.79487917E-08
  -7.14999996E-03  -2.93656655E-08
  -7.10000005E-03  -3.08056123E-08
  -7.05000013E-03  -3.22703109E-08
  -7.00000022E-03  -3.37569190E-08
  -6.94999984E-03  -3.52591591E-08
  -6.89999992E-03  -3.67699151E-08
  -6.85000001E-03  -3.82842948E-08
  -6.80000009E-03  -3.98017086E-08
  -6.75000018E-03  -4.13260963E-08
  -6.69999979E-03  -4.28641656E-08
  -6.64999988E-03  -4.44223254E-08
  -6.59999996E-03  -4.60037697E-08
  -6.55000005E-03  -4.76068962E-08
  -6.50000013E-03  -4.92258714E-08
  -6.45000022E-03  -5.08530142E-08
  -6.39999984E-03  -5.24821324E-08
  -6.34999992E-03  -5.41111831E-08
  -6.30000001E-03  -5.57431505E-08
  -6.25000009E-03  -5.73847068E-08
  -6.20000018E-03  -5.90432201E-08
  -6.14999980E-03  -6.07233801E-08
  -6.09999988E-03  -6.24250092E-08
  -6.04999997E-03  -6.41429025E-08
  -6.00000005E-03  -6.58689885E-08
  -5.95000014E-03  -6.75957637E-08
  -5.90000022E-03  -6.93195119E-08
  -5.84999984E-03  -7.10419528E-08
  -5.79999993E-03  -7.27694740E-08
  -5.75000001E-03  -7.45103179E-08
  -5.70000010E-03  -7.62708225E-08
  -5.65000018E-03  -7.80525866E-08
  -5.59999980E-03  -7.98515742E-08
  -5.54999989E-03  -8.16597492E-08
  -5.49999997E-03  -8.34685068E-08
  -5.45000006E-03  -8.52724824E-08
  -5.40000014E-03  -8.70719461E-08
  -5.35000023E-03  -8.88727598E-08
  -5.29999984E-03  -9.06838480E-08
  -5.24999993E-03  -9.25133392E-08
  -5.20000001E-03  -9.43648928E-08
  -5.15000010E-03  -9.62360431E-08
  -5.10000018E-03  -9.81191732E-08
  -5.04999980E-03  -1.00004804E-07
  -4.99999989E-03  -1.01885725E-07
  -4.94999997E-03  -1.03760314E-07
  -4.90000006E-03  -1.05633355E-07
  -4.85000014E-03  -1.07513998E-07
  -4.80000023E-03  -1.09411886E-07
  -4.74999985E-03  -1.11332888E-07
  -4.69999993E-03  -1.13276535E-07
  -4.65000002E-03  -1.15236119E-07
  -4.60000010E-03  -1.17201616E-07
  -4.55000019E-03  -1.19164184E-07
  -4.49999981E-03  -1.21120109E-07
  -4.44999989E-03  -1.23072581E-07
  -4.39999998E-03  -1.25030411E-07
  -4.35000006E-03  -1.27004427E-07
  -4.30000015E-03  -1.29002700E-07
  -4.25000023E-03  -1.31026951E-07
  -4.19999985E-03  -1.33071936E-07
  -4.14999994E-03  -1.35127635E-07
  -4.10000002E-03  -1.37183733E-07
  -4.05000011E-03  -1.39234459E-07
  -4.00000019E-03  -1.41281106E-07
  -3.94999981E-03  -1.43331917E-07
  -3.89999989E-03  -1.45398616E-07
  -3.84999998E-03  -1.47491335E-07
  -3.80000006E-03  -1.49614380E-07
  -3.74999992E-03  -1.51764226E-07
  -3.70000000E-03  -1.53931055E-07
  -3.65000009E-03  -1.56103198E-07
  -3.59999994E-03  -1.58272258E-07
  -3.55000002E-03  -1.60437025E-07
  -3.50000011E-03  -1.62604252E-07
  -3.44999996E-03  -1.64785760E-07
  -3.40000005E-03  -1.66993544E-07
  -3.34999990E-03  -1.69234553E-07
  -3.29999998E-03  -1.71507551E-07
  -3.25000007E-03  -1.73803798E-07
  -3.19999992E-03  -1.76110888E-07
  -3.15000000E-03  -1.78418219E-07
  -3.10000009E-03  -1.80721969E-07
  -3.04999994E-03  -1.83026927E-07
  -3.00000003E-03  -1.85344604E-07
  -2.95000011E-03  -1.87688585E-07
  -2.89999996E-03  -1.90068491E-07
  -2.85000005E-03  -1.92485786E-07
  -2.79999990E-03  -1.94933378E-07
  -2.74999999E-03  -1.97398549E-07
  -2.70000007E-03  -1.99868708E-07
  -2.64999992E-03  -2.02337162E-07
  -2.60000001E-03  -2.04806099E-07
  -2.55000009E-03  -2.07286163E-07
  -2.49999994E-03  -2.09791736E-07
  -2.45000003E-03  -2.12334825E-07
  -2.40000011E-03  -2.14919879E-07
  -2.34999997E-03  -2.17541981E-07
  -2.30000005E-03  -2.20188625E-07
  -2.24999990E-03  -2.22845557E-07
  -2.19999999E-03  -2.25503243E-07
  -2.15000007E-03  -2.28161085E-07
  -2.09999993E-03  -2.30828007E-07
  -2.05000001E-03  -2.33518819E-07
  -2.00000009E-03  -2.36247928E-07
  -1.94999995E-03  -2.39023080E-07
  -1.90000003E-03  -2.41842031E-07
  -1.85000000E-03  -2.44693524E-07
  -1.79999997E-03  -2.47562326E-07
  -1.75000005E-03  -2.50436329E-07
  -1.70000002E-03  -2.53311839E-07
  -1.64999999E-03  -2.56195648E-07
  -1.59999996E-03  -2.59102563E-07
  -1.55000004E-03  -2.62048928E-07
  -1.50000001E-03  -2.65045713E-07
  -1.44999998E-03  -2.68093800E-07
  -1.39999995E-03  -2.71183666E-07
  -1.35000004E-03  -2.74299708E-07
  -1.30000000E-03  -2.77427091E-07
  -1.24999997E-03  -2.80558595E-07
  -1.20000006E-03  -2.83698057E-07
  -1.15000003E-03  -2.86859091E-07
  -1.09999999E-03  -2.90059319E-07
  -1.04999996E-03  -2.93313008E-07
  -1.00000005E-03  -2.96624734E-07
  -9.50000016E-04  -2.99987761E-07
  -8.99999985E-04  -3.03386855E-07
  -8.50000011E-04  -3.06805532E-07
  -7.99999980E-04  -3.10233219E-07
  -7.50000007E-04  -3.13670569E-07
  -6.99999975E-04  -3.17129746E-07
  -6.50000002E-04  -3.20629255E-07
  -6.00000028E-04  -3.24186573E-07
  -5.49999997E-04  -3.27810426E-07
  -5.00000024E-04  -3.31497290E-07
  -4.49999992E-04  -3.35233182E-07
  -3.99999990E-04  -3.38999996E-07
  -3.49999988E-04  -3.42783807E-07
  -3.00000014E-04  -3.46581402E-07
  -2.50000012E-04  -3.50402331E-07
  -1.99999995E-04  -3.54264984E-07
  -1.50000007E-04  -3.58189112E-07
  -9.99999975E-05  -3.62187507E-07
  -4.99999987E-05  -3.66260650E-07
   0.00000000      -3.70396577E-07
   4.99999987E-05  -3.74576672E-07
   9.99999975E-05  -3.78783994E-07
   1.50000007E-04  -3.83011297E-07
   1.99999995E-04  -3.87264890E-07
   2.50000012E-04  -3.91562253E-07
   3.00000014E-04  -3.95925326E-07
   3.49999988E-04  -4.00370936E-07
   3.99999990E-04  -4.04904029E-07
   4.49999992E-04  -4.09515678E-07
   5.00000024E-04  -4.14187554E-07
   5.49999997E-04  -4.18899873E-07
   6.00000028E-04  -4.23641154E-07
   6.50000002E-04  -4.28413472E-07
   6.99999975E-04  -4.33232486E-07
   7.50000007E-04  -4.38120992E-07
   7.99999980E-04  -4.43099822E-07
   8.50000011E-04  -4.48178810E-07
   8.99999985E-04  -4.53352726E-07
   9.50000016E-04  -4.58604291E-07
   1.00000005E-03  -4.63912045E-07
   1.04999996E-03  -4.69259987E-07
   1.09999999E-03  -4.74645532E-07
   1.15000003E-03  -4.80081269E-07
   1.20000006E-03  -4.85589908E-07
   1.24999997E-03  -4.91195294E-07
   1.30000000E-03  -4.96912207E-07
   1.35000004E-03  -5.02740079E-07
   1.39999995E-03  -5.08663845E-07
   1.44999998E-03  -5.14660826E-07
   1.50000001E-03  -5.20711126E-07
   1.55000004E-03  -5.26806957E-07
   1.59999996E-03  -5.32956903E-07
   1.64999999E-03  -5.39182736E-07
   1.70000002E-03  -5.45510886E-07
   1.75000005E-03  -5.51960909E-07
   1.79999997E-03  -5.58537636E-07
   1.85000000E-03  -5.65229243E-07
   1.90000003E-03  -5.72013221E-07
   1.94999995E-03  -5.78866093E-07
   2.00000009E-03  -5.85774615E-07
   2.05000001E-03  -5.92742595E-07
   2.09999993E-03  -5.99789303E-07
   2.15000007E-03  -6.06942137E-07
   2.19999999E-03  -6.14225542E-07
   2.24999990E-03  -6.21649974E-07
   2.30000005E-03  -6.29207989E-07
   2.34999997E-03  -6.36877928E-07
   2.40000011E-03  -6.44634042E-07
   2.45000003E-03  -6.52457516E-07
   2.49999994E-03  -6.60345790E-07
   2.55000009E-03  -6.68314783E-07
   2.60000001E-03  -6.76391778E-07
   2.64999992E-03  -6.84605027E-07
   2.70000007E-03  -6.92970730E-07
   2.74999999E-03  -7.01487863E-07
   2.79999990E-03  -7.10137272E-07