  -3.99999991E-02   0.00000000    
  -3.99499983E-02   0.00000000    
  -3.99000011E-02  -2.60058495E-13
  -3.98500003E-02  -1.34003063E-12
  -3.97999994E-02  -3.89960243E-12
  -3.97499986E-02  -8.18085443E-12
  -3.97000015E-02  -1.35727644E-11
  -3.96500006E-02  -1.87788153E-11
  -3.95999998E-02  -2.26083093E-11
  -3.95499989E-02  -2.47904180E-11
  -3.95000018E-02  -2.61644959E-11
  -3.94500010E-02  -2.81817989E-11
  -3.94000001E-02  -3.22082847E-11
  -3.93499993E-02  -3.90839063E-11
  -3.92999984E-02  -4.89534246E-11
  -3.92500013E-02  -6.11660930E-11
  -3.92000005E-02  -7.42824205E-11
  -3.91499996E-02  -8.64796290E-11
  -3.90999988E-02  -9.64132663E-11
  -3.90500017E-02  -1.04038611E-10
  -3.90000008E-02  -1.10707422E-10
  -3.89500000E-02  -1.18376808E-10
  -3.88999991E-02  -1.28512034E-10
  -3.88499983E-02  -1.41456499E-10
  -3.88000011E-02  -1.56523919E-10
  -3.87500003E-02  -1.72466499E-10
  -3.86999995E-02  -1.87915988E-10
  -3.86499986E-02  -2.01767991E-10
  -3.86000015E-02  -2.13653331E-10
  -3.85500006E-02  -2.24341712E-10
  -3.84999998E-02  -2.35609837E-10
  -3.84499989E-02  -2.49359422E-10
  -3.84000018E-02  -2.66466793E-10
  -3.83500010E-02  -2.86221991E-10
  -3.83000001E-02  -3.06780740E-10
  -3.82499993E-02  -3.26213806E-10
  -3.81999984E-02  -3.43361867E-10
  -3.81500013E-02  -3.58093943E-10
  -3.81000005E-02  -3.71166958E-10
  -3.80499996E-02  -3.83992976E-10
  -3.79999988E-02  -3.98277078E-10
  -3.79500017E-02  -4.15328827E-10
  -3.79000008E-02  -4.35231268E-10
  -3.78500000E-02  -4.56511440E-10
  -3.77999991E-02  -4.76792050E-10
  -3.77499983E-02  -4.94111418E-10
  -3.77000012E-02  -5.07975773E-10
  -3.76500003E-02  -5.19442267E-10
  -3.75999995E-02  -5.30375410E-10
  -3.75499986E-02  -5.42569711E-10
  -3.75000015E-02  -5.57214608E-10
  -3.74500006E-02  -5.74626957E-10
  -3.73999998E-02  -5.94048366E-10
  -3.73499990E-02  -6.13666173E-10
  -3.73000018E-02  -6.31219743E-10
  -3.72500010E-02  -6.45132558E-10
  -3.72000001E-02  -6.55448862E-10
  -3.71499993E-02  -6.63795574E-10
  -3.70999984E-02  -6.72345013E-10
  -3.70500013E-02  -6.82583712E-10
  -3.70000005E-02  -6.94744928E-10
  -3.69499996E-02  -7.08042680E-10
  -3.68999988E-02  -7.21208093E-10
  -3.68500017E-02  -7.32897465E-10
  -3.68000008E-02  -7.42034323E-10
  -3.67500000E-02  -7.48291207E-10
  -3.66999991E-02  -7.52513996E-10
  -3.66499983E-02  -7.56549434E-10
  -3.66000012E-02  -7.62281405E-10
  -3.65500003E-02  -7.70463249E-10
  -3.64999995E-02  -7.80265685E-10
  -3.64499986E-02  -7.89891375E-10
  -3.64000015E-02  -7.97694633E-10
  -3.63500006E-02  -8.02943045E-10
  -3.62999998E-02  -8.05886469E-10
  -3.62499990E-02  -8.07463374E-10
  -3.62000018E-02  -8.09031286E-10
  -3.61500010E-02  -8.12072798E-10
  -3.61000001E-02  -8.17630019E-10
  -3.60499993E-02  -8.25614466E-10
  -3.59999985E-02  -8.34602332E-10
  -3.59500013E-02  -8.42543590E-10
  -3.59000005E-02  -8.48017545E-10
  -3.58499996E-02  -8.51101245E-10
  -3.57999988E-02  -8.53231430E-10
  -3.57500017E-02  -8.56317128E-10
  -3.57000008E-02  -8.61871019E-10
  -3.56500000E-02  -8.70630346E-10
  -3.55999991E-02  -8.82533158E-10
  -3.55499983E-02  -8.96751506E-10
  -3.55000012E-02  -9.11839826E-10
  -3.54500003E-02  -9.26287602E-10
  -3.53999995E-02  -9.39420319E-10
  -3.53499986E-02  -9.52032453E-10
  -3.53000015E-02  -9.66126068E-10
  -3.52500007E-02  -9.83828463E-10
  -3.51999998E-02  -1.00628472E-09
  -3.51499990E-02  -1.03329667E-09
  -3.51000018E-02  -1.06376863E-09
  -3.50500010E-02  -1.09641118E-09
  -3.50000001E-02  -1.13022414E-09
  -3.49499993E-02  -1.16475651E-09
  -3.48999985E-02  -1.20034072E-09
  -3.48500013E-02  -1.23821764E-09
  -3.48000005E-02  -1.28020883E-09
  -3.47499996E-02  -1.32786215E-09
  -3.46999988E-02  -1.38158041E-09
  -3.46500017E-02  -1.44044865E-09
  -3.46000008E-02  -1.50294521E-09
  -3.45500000E-02  -1.56798541E-09
  -3.44999991E-02  -1.63553660E-09
  -3.44499983E-02  -1.70652681E-09
  -3.44000012E-02  -1.78235959E-09
  -3.43500003E-02  -1.86444282E-09
  -3.42999995E-02  -1.95381578E-09
  -3.42499986E-02  -2.05077066E-09
  -3.42000015E-02  -2.15457496E-09
  -3.41500007E-02  -2.26364838E-09
  -3.40999998E-02  -2.37635112E-09
  -3.40499990E-02  -2.49198617E-09
  -3.40000018E-02  -2.61130273E-09
  -3.39500010E-02  -2.73612466E-09
  -3.39000002E-02  -2.86840707E-09
  -3.38499993E-02  -3.00939296E-09
  -3.37999985E-02  -3.15927995E-09
  -3.37500013E-02  -3.31734684E-09
  -3.37000005E-02  -3.48229801E-09
  -3.36499996E-02  -3.65273767E-09
  -3.35999988E-02  -3.82778298E-09
  -3.35500017E-02  -4.00763289E-09
  -3.35000008E-02  -4.19367874E-09
  -3.34500000E-02  -4.38791359E-09
  -3.33999991E-02  -4.59189797E-09
  -3.33499983E-02  -4.80595919E-09
  -3.33000012E-02  -5.02911268E-09
  -3.32500003E-02  -5.25965849E-09
  -3.31999995E-02  -5.49600010E-09
  -3.31499986E-02  -5.73726178E-09
  -3.31000015E-02  -5.98357719E-09
  -3.30500007E-02  -6.23606056E-09
  -3.29999998E-02  -6.49643983E-09
  -3.29499990E-02  -6.76633727E-09
  -3.29000019E-02  -7.04645764E-09
  -3.28500010E-02  -7.33615080E-09
  -3.28000002E-02  -7.63371499E-09
  -3.27499993E-02  -7.93729438E-09
  -3.26999985E-02  -8.24581825E-09
  -3.26500013E-02  -8.55945093E-09
  -3.26000005E-02  -8.87941010E-09
  -3.25499997E-02  -9.20737797E-09
  -3.24999988E-02  -9.54479429E-09
  -3.24500017E-02  -9.89223370E-09
  -3.24000008E-02  -1.02490514E-08
  -3.23500000E-02  -1.06135172E-08
  -3.22999991E-02  -1.09835252E-08
  -3.22499983E-02  -1.13575993E-08
  -3.22000012E-02  -1.17356596E-08
  -3.21500003E-02  -1.21190498E-08
  -3.20999995E-02  -1.25098429E-08
  -3.20499986E-02  -1.29098474E-08
  -3.20000015E-02  -1.33198315E-08
  -3.19500007E-02  -1.37392355E-08
  -3.18999998E-02  -1.41663650E-08
  -3.18499990E-02  -1.45990162E-08
  -3.18000019E-02  -1.50353721E-08
  -3.17500010E-02  -1.54748552E-08
  -3.17000002E-02  -1.59184879E-08
  -3.16499993E-02  -1.63684604E-08
  -3.15999985E-02  -1.68270375E-08
  -3.15500014E-02  -1.72954735E-08
  -3.15000005E-02  -1.77734876E-08
  -3.14499997E-02  -1.82595095E-08
  -3.13999988E-02  -1.87514377E-08
  -3.13500017E-02  -1.92475262E-08
  -3.13000008E-02  -1.97470911E-08
  -3.12500000E-02  -2.02508641E-08
  -3.11999992E-02  -2.07608188E-08
  -3.11500002E-02  -2.12793587E-08
  -3.10999993E-02  -2.18081730E-08
  -3.10500003E-02  -2.23473453E-08
  -3.09999995E-02  -2.28953176E-08
  -3.09500005E-02  -2.34497293E-08
  -3.08999997E-02  -2.40086475E-08
  -3.08500007E-02  -2.45714453E-08
  -3.07999998E-02  -2.51390606E-08
  -3.07500008E-02  -2.57136090E-08
  -3.07000000E-02  -2.62976485E-08
  -3.06499992E-02  -2.68932592E-08
  -3.06000002E-02  -2.75011889E-08
  -3.05499993E-02  -2.81204606E-08
  -3.05000003E-02  -2.87488202E-08
  -3.04499995E-02  -2.93839406E-08
  -3.04000005E-02  -3.00247720E-08
  -3.03499997E-02  -3.06721937E-08
  -3.03000007E-02  -3.13286392E-08
  -3.02499998E-02  -3.19970219E-08
  -3.02000009E-02  -3.26795870E-08
  -3.01500000E-02  -3.33771766E-08
  -3.00999992E-02  -3.40890729E-08
  -3.00500002E-02  -3.48133220E-08
  -2.99999993E-02  -3.55475933E-08
  -2.99500003E-02  -3.62903947E-08
  -2.98999995E-02  -3.70420672E-08
  -2.98500005E-02  -3.78050125E-08
  -2.97999997E-02  -3.85827903E-08
  -2.97500007E-02  -3.93785839E-08
  -2.96999998E-02  -4.01939317E-08
  -2.96500009E-02  -4.10283825E-08
  -2.96000000E-02  -4.18801029E-08
  -2.95499992E-02  -4.27469296E-08
  -2.95000002E-02  -4.36274092E-08
  -2.94499993E-02  -4.45215669E-08
  -2.94000003E-02  -4.54311895E-08
  -2.93499995E-02  -4.63594461E-08
  -2.93000005E-02  -4.73097579E-08
  -2.92499997E-02  -4.82843561E-08
  -2.92000007E-02  -4.92833365E-08
  -2.91499998E-02  -5.03048838E-08
  -2.91000009E-02  -5.13465395E-08
  -2.90500000E-02  -5.24067190E-08
  -2.89999992E-02  -5.34856461E-08
  -2.89500002E-02  -5.45854064E-08
  -2.88999993E-02  -5.57092719E-08
  -2.88500004E-02  -5.68606850E-08
  -2.87999995E-02  -5.80421684E-08
  -2.87500005E-02  -5.92544325E-08
  -2.86999997E-02  -6.04961770E-08
  -2.86500007E-02  -6.17648510E-08
  -2.85999998E-02  -6.30582093E-08
  -2.85500009E-02  -6.43758256E-08
  -2.85000000E-02  -6.57196466E-08
  -2.84499992E-02  -6.70933602E-08
  -2.84000002E-02  -6.85008672E-08
  -2.83499993E-02  -6.99449600E-08
  -2.83000004E-02  -7.14265482E-08
  -2.82499995E-02  -7.29446441E-08
  -2.82000005E-02  -7.44970237E-08
  -2.81499997E-02  -7.60814416E-08
  -2.81000007E-02  -7.76969458E-08
  -2.80499998E-02  -7.93448365E-08
  -2.80000009E-02  -8.10285812E-08
  -2.79500000E-02  -8.27526279E-08
  -2.78999992E-02  -8.45205719E-08
  -2.78500002E-02  -8.63338627E-08
  -2.77999993E-02  -8.81916407E-08
  -2.77500004E-02  -9.00916248E-08
  -2.76999995E-02  -9.20315273E-08
  -2.76500005E-02  -9.40103533E-08
  -2.75999997E-02  -9.60291402E-08
  -2.75500007E-02  -9.80910002E-08
  -2.74999999E-02  -1.00200253E-07
  -2.74500009E-02  -1.02361021E-07
  -2.74000000E-02  -1.04575648E-07
  -2.73499992E-02  -1.06844006E-07
  -2.73000002E-02  -1.09163992E-07
  -2.72499993E-02  -1.11533076E-07
  -2.72000004E-02  -1.13950030E-07
  -2.71499995E-02  -1.16415833E-07
  -2.71000005E-02  -1.18933656E-07
  -2.70499997E-02  -1.21507810E-07
  -2.70000007E-02  -1.24142460E-07
  -2.69499999E-02  -1.26840206E-07
  -2.69000009E-02  -1.29601403E-07
  -2.68500000E-02  -1.32424390E-07
  -2.67999992E-02  -1.35306593E-07
  -2.67500002E-02  -1.38246477E-07
  -2.66999993E-02  -1.41244783E-07
  -2.66500004E-02  -1.44304863E-07
  -2.65999995E-02  -1.47431706E-07
  -2.65500005E-02  -1.50630171E-07
  -2.64999997E-02  -1.53903500E-07
  -2.64500007E-02  -1.57252487E-07
  -2.63999999E-02  -1.60675754E-07
  -2.63500009E-02  -1.64170814E-07
  -2.63000000E-02  -1.67735791E-07
  -2.62499992E-02  -1.71370857E-07
  -2.62000002E-02  -1.75078853E-07
  -2.61499994E-02  -1.78864752E-07
  -2.61000004E-02  -1.82733956E-07
  -2.60499995E-02  -1.86690457E-07
  -2.60000005E-02  -1.90735676E-07
  -2.59499997E-02  -1.94868605E-07
  -2.59000007E-02  -1.99086927E-07
  -2.58499999E-02  -2.03388751E-07
  -2.58000009E-02  -2.07774164E-07
  -2.57500000E-02  -2.12245823E-07
  -2.56999992E-02  -2.16808658E-07
  -2.56500002E-02  -2.21468426E-07
  -2.55999994E-02  -2.26229858E-07
  -2.55500004E-02  -2.31095100E-07
  -2.54999995E-02  -2.36063542E-07
  -2.54500005E-02  -2.41132881E-07
  -2.53999997E-02  -2.46300942E-07
  -2.53500007E-02  -2.51567457E-07
  -2.52999999E-02  -2.56934783E-07
  -2.52500009E-02  -2.62407752E-07
  -2.52000000E-02  -2.67992220E-07
  -2.51499992E-02  -2.73693274E-07
  -2.51000002E-02  -2.79513699E-07
  -2.50499994E-02  -2.85453439E-07
  -2.50000004E-02  -2.91510304E-07
  -2.49499995E-02  -2.97681851E-07
  -2.49000005E-02  -3.03967454E-07
  -2.48499997E-02  -3.10369359E-07
  -2.48000007E-02  -3.16892567E-07
  -2.47499999E-02  -3.23543247E-07
  -2.47000009E-02  -3.30326912E-07
  -2.46500000E-02  -3.37246775E-07
  -2.45999992E-02  -3.44303118E-07
  -2.45500002E-02  -3.51493838E-07
  -2.44999994E-02  -3.58816095E-07
  -2.44500004E-02  -3.66268381E-07
  -2.43999995E-02  -3.73852203E-07
  -2.43500005E-02  -3.81572306E-07
  -2.42999997E-02  -3.89435286E-07
  -2.42500007E-02  -3.97447451E-07
  -2.41999999E-02  -4.05612724E-07
  -2.41500009E-02  -4.13931758E-07
  -2.41000000E-02  -4.22402593E-07
  -2.40499992E-02  -4.31022301E-07
  -2.40000002E-02  -4.39788892E-07
  -2.39499994E-02  -4.48703048E-07
  -2.39000004E-02  -4.57768721E-07
  -2.38499995E-02  -4.66992191E-07
  -2.38000005E-02  -4.76380166E-07
  -2.37499997E-02  -4.85937278E-07
  -2.37000007E-02  -4.95664665E-07
  -2.36499999E-02  -5.05560536E-07
  -2.36000009E-02  -5.15621366E-07
  -2.35500000E-02  -5.25844882E-07
  -2.34999992E-02  -5.36231369E-07
  -2.34500002E-02  -5.46784463E-07
  -2.33999994E-02  -5.57510305E-07
  -2.33500004E-02  -5.68415601E-07
  -2.32999995E-02  -5.79505695E-07
  -2.32500006E-02  -5.90782577E-07
  -2.31999997E-02  -6.02244540E-07
  -2.31500007E-02  -6.13887778E-07
  -2.30999999E-02  -6.25708992E-07
  -2.30500009E-02  -6.37707501E-07
  -2.30000000E-02  -6.49886317E-07
  -2.29499992E-02  -6.62251693E-07
  -2.29000002E-02  -6.74810622E-07
  -2.28499994E-02  -6.87568786E-07
  -2.28000004E-02  -7.00528688E-07
  -2.27499995E-02  -7.13689246E-07
  -2.27000006E-02  -7.27046825E-07
  -2.26499997E-02  -7.40597557E-07
  -2.26000007E-02  -7.54339510E-07
  -2.25499999E-02  -7.68274958E-07
  -2.25000009E-02  -7.82410098E-07
  -2.24500000E-02  -7.96752659E-07
  -2.23999992E-02  -8.11309349E-07
  -2.23500002E-02  -8.26083351E-07
  -2.22999994E-02  -8.41073927E-07
  -2.22500004E-02  -8.56277211E-07
  -2.21999995E-02  -8.71688826E-07
  -2.21500006E-02  -8.87305987E-07
  -2.20999997E-02  -9.03129774E-07
  -2.20500007E-02  -9.19165473E-07
  -2.19999999E-02  -9.35420758E-07
  -2.19500009E-02  -9.51903360E-07
  -2.19000001E-02  -9.68618110E-07
  -2.18499992E-02  -9.85564952E-07
  -2.18000002E-02  -1.00274065E-06
  -2.17499994E-02  -1.02014008E-06
  -2.17000004E-02  -1.03775994E-06
  -2.16499995E-02  -1.05560071E-06
  -2.16000006E-02  -1.07366736E-06
  -2.15499997E-02  -1.09196753E-06
  -2.15000007E-02  -1.11050917E-06
  -2.14499999E-02  -1.12929808E-06
  -2.14000009E-02  -1.14833551E-06
  -2.13500001E-02  -1.16761828E-06
  -2.12999992E-02  -1.18714104E-06
  -2.12500002E-02  -1.20689936E-06
  -2.11999994E-02  -1.22689266E-06
  -2.11500004E-02  -1.24712517E-06
  -2.10999995E-02  -1.26760494E-06
  -2.10500006E-02  -1.28834097E-06
  -2.09999997E-02  -1.30933995E-06
  -2.09500007E-02  -1.33060416E-06
  -2.08999999E-02  -1.35213179E-06
  -2.08500009E-02  -1.37391748E-06
  -2.08000001E-02  -1.39595591E-06
  -2.07499992E-02  -1.41824512E-06
  -2.07000002E-02  -1.44078774E-06
  -2.06499994E-02  -1.46359184E-06
  -2.06000004E-02  -1.48666697E-06
  -2.05499995E-02  -1.51002121E-06
  -2.05000006E-02  -1.53365863E-06
  -2.04499997E-02  -1.55757755E-06
  -2.04000007E-02  -1.58177295E-06
  -2.03499999E-02  -1.60623892E-06
  -2.03000009E-02  -1.63097241E-06
  -2.02500001E-02  -1.65597521E-06
  -2.01999992E-02  -1.68125405E-06
  -2.01500002E-02  -1.70681881E-06
  -2.00999994E-02  -1.73267904E-06
  -2.00500004E-02  -1.75884009E-06
  -1.99999996E-02  -1.78530206E-06
  -1.99500006E-02  -1.81206008E-06
  -1.98999997E-02  -1.83910754E-06
  -1.98500007E-02  -1.86644002E-06
  -1.97999999E-02  -1.89405773E-06
  -1.97500009E-02  -1.92196649E-06
  -1.97000001E-02  -1.95017606E-06
  -1.96499992E-02  -1.97869690E-06
  -1.96000002E-02  -2.00753561E-06
  -1.95499994E-02  -2.03669379E-06
  -1.95000004E-02  -2.06616710E-06
  -1.94499996E-02  -2.09594918E-06
  -1.94000006E-02  -2.12603368E-06
  -1.93499997E-02  -2.15641990E-06
  -1.93000007E-02  -2.18711261E-06
  -1.92499999E-02  -2.21812161E-06
  -1.92000009E-02  -2.24945779E-06
  -1.91500001E-02  -2.28112890E-06
  -1.90999992E-02  -2.31313766E-06
  -1.90500002E-02  -2.34548042E-06
  -1.89999994E-02  -2.37814993E-06
  -1.89500004E-02  -2.41113912E-06
  -1.88999996E-02  -2.44444550E-06
  -1.88500006E-02  -2.47807202E-06
  -1.87999997E-02  -2.51202778E-06
  -1.87500007E-02  -2.54632414E-06
  -1.86999999E-02  -2.58097066E-06
  -1.86500009E-02  -2.61597143E-06
  -1.86000001E-02  -2.65132417E-06
  -1.85499992E-02  -2.68702274E-06
  -1.85000002E-02  -2.72305851E-06
  -1.84499994E-02  -2.75942693E-06
  -1.84000004E-02  -2.79612959E-06
  -1.83499996E-02  -2.83317354E-06
  -1.83000006E-02  -2.87057128E-06
  -1.82499997E-02  -2.90833259E-06
  -1.82000007E-02  -2.94646384E-06
  -1.81499999E-02  -2.98496434E-06
  -1.81000009E-02  -3.02382750E-06
  -1.80500001E-02  -3.06304446E-06
  -1.79999992E-02  -3.10260907E-06
  -1.79500002E-02  -3.14252088E-06
  -1.78999994E-02  -3.18278603E-06
  -1.78500004E-02  -3.22341521E-06
  -1.77999996E-02  -3.26442023E-06
  -1.77500006E-02  -3.30580906E-06
  -1.76999997E-02  -3.34758261E-06
  -1.76500008E-02  -3.38973609E-06
  -1.75999999E-02  -3.43226088E-06
  -1.75500009E-02  -3.47514879E-06
  -1.75000001E-02  -3.51839731E-06
  -1.74499992E-02  -3.56201167E-06
  -1.74000002E-02  -3.60600143E-06
  -1.73499994E-02  -3.65037909E-06
  -1.73000004E-02  -3.69515442E-06
  -1.72499996E-02  -3.74033084E-06
  -1.72000006E-02  -3.78590448E-06
  -1.71499997E-02  -3.83186625E-06
  -1.71000008E-02  -3.87820819E-06
  -1.70499999E-02  -3.92492575E-06
  -1.70000009E-02  -3.97202166E-06
  -1.69500001E-02  -4.01950683E-06
  -1.68999992E-02  -4.06739309E-06
  -1.68500002E-02  -4.11569363E-06
  -1.67999994E-02  -4.16441344E-06
  -1.67500004E-02  -4.21355071E-06
  -1.66999996E-02  -4.26309771E-06
  -1.66500006E-02  -4.31304579E-06
  -1.65999997E-02  -4.36338860E-06
  -1.65500008E-02  -4.41412703E-06
  -1.64999999E-02  -4.46527065E-06
  -1.64500009E-02  -4.51683354E-06
  -1.64000001E-02  -4.56882890E-06
  -1.63499992E-02  -4.62126627E-06
  -1.63000003E-02  -4.67414611E-06
  -1.62499994E-02  -4.72746342E-06
  -1.62000004E-02  -4.78120910E-06
  -1.61499996E-02  -4.83537724E-06
  -1.61000006E-02  -4.88996784E-06
  -1.60499997E-02  -4.94498818E-06
  -1.60000008E-02  -5.00045417E-06
  -1.59499999E-02  -5.05637990E-06
  -1.59000009E-02  -5.11277767E-06
  -1.58500001E-02  -5.16965156E-06
  -1.57999992E-02  -5.22699929E-06
  -1.57500003E-02  -5.28481269E-06
  -1.56999994E-02  -5.34308674E-06
  -1.56500004E-02  -5.40182054E-06
  -1.55999996E-02  -5.46102228E-06
  -1.55499997E-02  -5.52070605E-06
  -1.54999997E-02  -5.58089005E-06
  -1.54499998E-02  -5.64158927E-06
  -1.53999999E-02  -5.70281190E-06
  -1.53500000E-02  -5.76455841E-06
  -1.53000001E-02  -5.82682378E-06
  -1.52500002E-02  -5.88960302E-06
  -1.52000003E-02  -5.95289657E-06
  -1.51500003E-02  -6.01671354E-06
  -1.51000004E-02  -6.08106848E-06
  -1.50499996E-02  -6.14598184E-06
  -1.49999997E-02  -6.21147137E-06
  -1.49499997E-02  -6.27754889E-06
  -1.48999998E-02  -6.34421940E-06
  -1.48499999E-02  -6.41148108E-06
  -1.48000000E-02  -6.47933166E-06
  -1.47500001E-02  -6.54777250E-06
  -1.47000002E-02  -6.61681315E-06
  -1.46500003E-02  -6.68647044E-06
  -1.46000003E-02  -6.75676620E-06
  -1.45500004E-02  -6.82772361E-06
  -1.44999996E-02  -6.89935996E-06
  -1.44499997E-02  -6.97168525E-06
  -1.43999998E-02  -7.04470176E-06
  -1.43499998E-02  -7.11841085E-06
  -1.42999999E-02  -7.19281570E-06
  -1.42500000E-02  -7.26792541E-06
  -1.42000001E-02  -7.34376044E-06
  -1.41500002E-02  -7.42034536E-06
  -1.41000003E-02  -7.49770697E-06
  -1.40500003E-02  -7.57586804E-06
  -1.40000004E-02  -7.65484310E-06
  -1.39499996E-02  -7.73464217E-06
  -1.38999997E-02  -7.81526887E-06
  -1.38499998E-02  -7.89673049E-06
  -1.37999998E-02  -7.97903886E-06
  -1.37499999E-02  -8.06221942E-06
  -1.37000000E-02  -8.14629766E-06
  -1.36500001E-02  -8.23130631E-06
  -1.36000002E-02  -8.31727266E-06
  -1.35500003E-02  -8.40421762E-06
  -1.35000004E-02  -8.49215667E-06
  -1.34500004E-02  -8.58110070E-06
  -1.33999996E-02  -8.67106155E-06
  -1.33499997E-02  -8.76205468E-06
  -1.32999998E-02  -8.85410645E-06
  -1.32499998E-02  -8.94724781E-06
  -1.31999999E-02  -9.04151602E-06
  -1.31500000E-02  -9.13694385E-06
  -1.31000001E-02  -9.23356220E-06
  -1.30500002E-02  -9.33139290E-06
  -1.30000003E-02  -9.43045325E-06
  -1.29500004E-02  -9.53076051E-06
  -1.29000004E-02  -9.63233470E-06
  -1.28499996E-02  -9.73520491E-06
  -1.27999997E-02  -9.83940845E-06
  -1.27499998E-02  -9.94498532E-06
  -1.26999998E-02  -1.00519783E-05
  -1.26499999E-02  -1.01604228E-05
  -1.26000000E-02  -1.02703516E-05
  -1.25500001E-02  -1.03817893E-05
  -1.25000002E-02  -1.04947576E-05
  -1.24500003E-02  -1.06092848E-05
  -1.24000004E-02  -1.07254036E-05
  -1.23500004E-02  -1.08431550E-05
  -1.22999996E-02  -1.09625862E-05
  -1.22499997E-02  -1.10837436E-05
  -1.21999998E-02  -1.12066746E-05
  -1.21499998E-02  -1.13314172E-05
  -1.20999999E-02  -1.14580052E-05
  -1.20500000E-02  -1.15864696E-05
  -1.20000001E-02  -1.17168420E-05
  -1.19500002E-02  -1.18491607E-05
  -1.19000003E-02  -1.19834749E-05
  -1.18500004E-02  -1.21198382E-05
  -1.18000004E-02  -1.22583078E-05
  -1.17499996E-02  -1.23989375E-05
  -1.16999997E-02  -1.25417782E-05
  -1.16499998E-02  -1.26868699E-05
  -1.15999999E-02  -1.28342481E-05
  -1.15499999E-02  -1.29839536E-05
  -1.15000000E-02  -1.31360266E-05
  -1.14500001E-02  -1.32905179E-05
  -1.14000002E-02  -1.34474885E-05
  -1.13500003E-02  -1.36070021E-05
  -1.13000004E-02  -1.37691231E-05
  -1.12500004E-02  -1.39339099E-05
  -1.11999996E-02  -1.41014152E-05
  -1.11499997E-02  -1.42716854E-05
  -1.10999998E-02  -1.44447667E-05
  -1.10499999E-02  -1.46207085E-05
  -1.09999999E-02  -1.47995670E-05
  -1.09500000E-02  -1.49814077E-05
  -1.09000001E-02  -1.51663025E-05
  -1.08500002E-02  -1.53543260E-05
  -1.08000003E-02  -1.55455455E-05
  -1.07500004E-02  -1.57400173E-05
  -1.07000005E-02  -1.59378014E-05
  -1.06499996E-02  -1.61389453E-05
  -1.05999997E-02  -1.63435052E-05
  -1.05499998E-02  -1.65515394E-05
  -1.04999999E-02  -1.67631188E-05
  -1.04499999E-02  -1.69783198E-05
  -1.04000000E-02  -1.71972242E-05
  -1.03500001E-02  -1.74199104E-05
  -1.03000002E-02  -1.76464455E-05
  -1.02500003E-02  -1.78768933E-05
  -1.02000004E-02  -1.81113119E-05
  -1.01500005E-02  -1.83497559E-05
  -1.00999996E-02  -1.85922927E-05
  -1.00499997E-02  -1.88389913E-05
  -9.99999978E-03  -1.90899336E-05
  -9.94999986E-03  -1.93452070E-05
  -9.89999995E-03  -1.96048950E-05
  -9.85000003E-03  -1.98690814E-05
  -9.80000012E-03  -2.01378352E-05
  -9.75000020E-03  -2.04112239E-05
  -9.70000029E-03  -2.06893073E-05
  -9.65000037E-03  -2.09721529E-05
  -9.60000046E-03  -2.12598297E-05
  -9.54999961E-03  -2.15524196E-05
  -9.49999969E-03  -2.18500118E-05
  -9.44999978E-03  -2.21526952E-05
  -9.39999986E-03  -2.24605501E-05
  -9.34999995E-03  -2.27736564E-05
  -9.30000003E-03  -2.30920778E-05
  -9.25000012E-03  -2.34158797E-05
  -9.20000020E-03  -2.37451277E-05
  -9.15000029E-03  -2.40798945E-05
  -9.10000037E-03  -2.44202620E-05
  -9.05000046E-03  -2.47663138E-05
  -8.99999961E-03  -2.51181373E-05
  -8.94999970E-03  -2.54758233E-05
  -8.89999978E-03  -2.58394466E-05
  -8.84999987E-03  -2.62090762E-05
  -8.79999995E-03  -2.65847793E-05
  -8.75000004E-03  -2.69666180E-05
  -8.70000012E-03  -2.73546575E-05
  -8.65000021E-03  -2.77489744E-05
  -8.60000029E-03  -2.81496486E-05
  -8.55000038E-03  -2.85567658E-05
  -8.50000046E-03  -2.89704094E-05
  -8.44999962E-03  -2.93906578E-05
  -8.39999970E-03  -2.98175764E-05
  -8.34999979E-03  -3.02512326E-05
  -8.29999987E-03  -3.06916772E-05
  -8.24999996E-03  -3.11389667E-05
  -8.20000004E-03  -3.15931611E-05
  -8.15000013E-03  -3.20543295E-05
  -8.10000021E-03  -3.25225446E-05
  -8.05000030E-03  -3.29978757E-05
  -8.00000038E-03  -3.34803990E-05
  -7.95000046E-03  -3.39701655E-05
  -7.89999962E-03  -3.44672335E-05
  -7.84999970E-03  -3.49716538E-05
  -7.79999979E-03  -3.54834629E-05
  -7.74999987E-03  -3.60027116E-05
  -7.69999996E-03  -3.65294472E-05
  -7.65000004E-03  -3.70637172E-05
  -7.60000013E-03  -3.76055832E-05
  -7.55000021E-03  -3.81550999E-05
  -7.49999983E-03  -3.87123218E-05
  -7.44999992E-03  -3.92772781E-05
  -7.40000000E-03  -3.98500051E-05
  -7.35000009E-03  -4.04305283E-05
  -7.30000017E-03  -4.10188550E-05
  -7.24999979E-03  -4.16150142E-05
  -7.19999988E-03  -4.22190387E-05
  -7.14999996E-03  -4.28309504E-05
  -7.10000005E-03  -4.34507856E-05
  -7.05000013E-03  -4.40785661E-05
  -7.00000022E-03  -4.47143102E-05
  -6.94999984E-03  -4.53580215E-05
  -6.89999992E-03  -4.60096853E-05
  -6.85000001E-03  -4.66692909E-05
  -6.80000009E-03  -4.73368236E-05
  -6.75000018E-03  -4.80122762E-05
  -6.69999979E-03  -4.86956451E-05
  -6.64999988E-03  -4.93869338E-05
  -6.59999996E-03  -5.00861315E-05
  -6.55000005E-03  -5.07932200E-05
  -6.50000013E-03  -5.15081701E-05
  -6.45000022E-03  -5.22309347E-05
  -6.39999984E-03  -5.29614554E-05
  -6.34999992E-03  -5.36996668E-05
  -6.30000001E-03  -5.44455324E-05
  -6.25000009E-03  -5.51989906E-05
  -6.20000018E-03  -5.59599976E-05
  -6.14999980E-03  -5.67285060E-05
  -6.09999988E-03  -5.75044469E-05
  -6.04999997E-03  -5.82877401E-05
  -6.00000005E-03  -5.90782874E-05
  -5.95000014E-03  -5.98759871E-05
  -5.90000022E-03  -6.06807262E-05
  -5.84999984E-03  -6.14923920E-05
  -5.79999993E-03  -6.23108645E-05
  -5.75000001E-03  -6.31360526E-05
  -5.70000010E-03  -6.39678328E-05
  -5.65000018E-03  -6.48060814E-05
  -5.59999980E-03  -6.56506745E-05
  -5.54999989E-03  -6.65014450E-05
  -5.49999997E-03  -6.73582181E-05
  -5.45000006E-03  -6.82208192E-05
  -5.40000014E-03  -6.90890593E-05
  -5.35000023E-03  -6.99627562E-05
  -5.29999984E-03  -7.08417210E-05
  -5.24999993E-03  -7.17257790E-05
  -5.20000001E-03  -7.26147482E-05
  -5.15000010E-03  -7.35084323E-05
  -5.10000018E-03  -7.44065765E-05
  -5.04999980E-03  -7.53089407E-05
  -4.99999989E-03  -7.62152558E-05
  -4.94999997E-03  -7.71252526E-05
  -4.90000006E-03  -7.80386472E-05
  -4.85000014E-03  -7.89551705E-05
  -4.80000023E-03  -7.98745677E-05
  -4.74999985E-03  -8.07965625E-05
  -4.69999993E-03  -8.17208638E-05
  -4.65000002E-03  -8.26471442E-05
  -4.60000010E-03  -8.35750834E-05
  -4.55000019E-03  -8.45043032E-05
  -4.49999981E-03  -8.54344253E-05
  -4.44999989E-03  -8.63650566E-05
  -4.39999998E-03  -8.72958335E-05
  -4.35000006E-03  -8.82263848E-05
  -4.30000015E-03  -8.91563468E-05
  -4.25000023E-03  -9.00853338E-05
  -4.19999985E-03  -9.10129311E-05
  -4.14999994E-03  -9.19386948E-05
  -4.10000002E-03  -9.28621303E-05
  -4.05000011E-03  -9.37827645E-05
  -4.00000019E-03  -9.47000881E-05
  -3.94999981E-03  -9.56136064E-05
  -3.89999989E-03  -9.65228319E-05
  -3.84999998E-03  -9.74272916E-05
  -3.80000006E-03  -9.83264763E-05
  -3.74999992E-03  -9.92198620E-05
  -3.70000000E-03  -1.00106874E-04
  -3.65000009E-03  -1.00986916E-04
  -3.59999994E-03  -1.01859361E-04
  -3.55000002E-03  -1.02723578E-04
  -3.50000011E-03  -1.03578932E-04
  -3.44999996E-03  -1.04424813E-04
  -3.40000005E-03  -1.05260602E-04
  -3.34999990E-03  -1.06085659E-04
  -3.29999998E-03  -1.06899344E-04
  -3.25000007E-03  -1.07700944E-04
  -3.19999992E-03  -1.08489745E-04
  -3.15000000E-03  -1.09264976E-04
  -3.10000009E-03  -1.10025852E-04
  -3.04999994E-03  -1.10771609E-04
  -3.00000003E-03  -1.11501482E-04
  -2.95000011E-03  -1.12214700E-04
  -2.89999996E-03  -1.12910500E-04
  -2.85000005E-03  -1.13588088E-04
  -2.79999990E-03  -1.14246614E-04
  -2.74999999E-03  -1.14885210E-04
  -2.70000007E-03  -1.15502953E-04
  -2.64999992E-03  -1.16098905E-04
  -2.60000001E-03  -1.16672149E-04
  -2.55000009E-03  -1.17221745E-04
  -2.49999994E-03  -1.17746786E-04
  -2.45000003E-03  -1.18246353E-04
  -2.40000011E-03  -1.18719472E-04
  -2.34999997E-03  -1.19165183E-04
  -2.30000005E-03  -1.19582444E-04
  -2.24999990E-03  -1.19970180E-04
  -2.19999999E-03  -1.20327284E-04
  -2.15000007E-03  -1.20652694E-04
  -2.09999993E-03  -1.20945275E-04
  -2.05000001E-03  -1.21203986E-04
  -2.00000009E-03  -1.21427744E-04
  -1.94999995E-03  -1.21615427E-04
  -1.90000003E-03  -1.21765894E-04
  -1.85000000E-03  -1.21877943E-04
  -1.79999997E-03  -1.21950354E-04
  -1.75000005E-03  -1.21981873E-04
  -1.70000002E-03  -1.21971229E-04
  -1.64999999E-03  -1.21917161E-04
  -1.59999996E-03  -1.21818404E-04
  -1.55000004E-03  -1.21673729E-04
  -1.50000001E-03  -1.21481913E-04
  -1.44999998E-03  -1.21241625E-04
  -1.39999995E-03  -1.20951532E-04
  -1.35000004E-03  -1.20610195E-04
  -1.30000000E-03  -1.20216187E-04
  -1.24999997E-03  -1.19768069E-04
  -1.20000006E-03  -1.19264405E-04
  -1.15000003E-03  -1.18703800E-04
  -1.09999999E-03  -1.18084849E-04
  -1.04999996E-03  -1.17406154E-04
  -1.00000005E-03  -1.16666284E-04
  -9.50000016E-04  -1.15863746E-04
  -8.99999985E-04  -1.14996976E-04
  -8.50000011E-04  -1.14064336E-04
  -7.99999980E-04  -1.13064256E-04
  -7.50000007E-04  -1.11995119E-04
  -6.99999975E-04  -1.10855348E-04
  -6.50000002E-04  -1.09643392E-04
  -6.00000028E-04  -1.08357708E-04
  -5.49999997E-04  -1.06996726E-04
  -5.00000024E-04  -1.05558822E-04
  -4.49999992E-04  -1.04042294E-04
  -3.99999990E-04  -1.02445403E-04
  -3.49999988E-04  -1.00766374E-04
  -3.00000014E-04  -9.90034459E-05
  -2.50000012E-04  -9.71548798E-05
  -1.99999995E-04  -9.52190021E-05
  -1.50000007E-04  -9.31941322E-05
  -9.99999975E-05  -9.10785820E-05
  -4.99999987E-05  -8.88706127E-05
   0.00000000      -8.65684124E-05
   4.99999987E-05  -8.41701185E-05
   9.99999975E-05  -8.16738248E-05
   1.50000007E-04  -7.90776467E-05
   1.99999995E-04  -7.63797070E-05
   2.50000012E-04  -7.35782014E-05
   3.00000014E-04  -7.06713399E-05
   3.49999988E-04  -6.76573400E-05
   3.99999990E-04  -6.45343825E-05
   4.49999992E-04  -6.13005614E-05
   5.00000024E-04  -5.79539337E-05
   5.49999997E-04  -5.44925024E-05
   6.00000028E-04  -5.09142701E-05
   6.50000002E-04  -4.72172651E-05
   6.99999975E-04  -4.33995774E-05
   7.50000007E-04  -3.94593371E-05
   7.99999980E-04  -3.53946998E-05
   8.50000011E-04  -3.12037882E-05
   8.99999985E-04  -2.68846779E-05
   9.50000016E-04  -2.24353644E-05
   1.00000005E-03  -1.78538012E-05
   1.04999996E-03  -1.31379302E-05
   1.09999999E-03  -8.28570410E-06
   1.15000003E-03  -3.29515751E-06
   1.20000006E-03   1.83562315E-06
   1.24999997E-03   7.10851282E-06
   1.30000000E-03   1.25254046E-05
   1.35000004E-03   1.80882253E-05
   1.39999995E-03   2.37989771E-05
   1.44999998E-03   2.96596900E-05
   1.50000001E-03   3.56724449E-05
   1.55000004E-03   4.18392738E-05
   1.59999996E-03   4.81621573E-05
   1.64999999E-03   5.46430310E-05
   1.70000002E-03   6.12837612E-05
   1.75000005E-03   6.80862067E-05
   1.79999997E-03   7.50522522E-05
   1.85000000E-03   8.21838184E-05
   1.90000003E-03   8.94828772E-05
   1.94999995E-03   9.69514076E-05
   2.00000009E-03   1.04591418E-04
   2.05000001E-03   1.12404865E-04
   2.09999993E-03   1.20393590E-04
   2.15000007E-03   1.28559419E-04
   2.19999999E-03   1.36904157E-04
   2.24999990E-03   1.45429556E-04
   2.30000005E-03   1.54137422E-04
   2.34999997E-03   1.63029588E-04
   2.40000011E-03   1.72107902E-04
   2.45000003E-03   1.81374242E-04
   2.49999994E-03   1.90830397E-04
   2.55000009E-03   2.00478142E-04
   2.60000001E-03   2.10319136E-04
   2.64999992E-03   2.20355025E-04
   2.70000007E-03   2.30587437E-04
   2.74999999E-03   2.41018002E-04
   2.79999990E-03   2.51648336E-04