  -3.99999991E-02   1.00000002E-24
  -3.99499983E-02   1.00000002E-24
  -3.99000011E-02  -3.01198224E-15
  -3.98500003E-02  -1.56678666E-14
  -3.97999994E-02  -4.58982251E-14
  -3.97499986E-02  -9.64434763E-14
  -3.97000015E-02  -1.58818054E-13
  -3.96500006E-02  -2.14290120E-13
  -3.95999998E-02  -2.42998520E-13
  -3.95499989E-02  -2.34929182E-13
  -3.95000018E-02  -1.95095337E-13
  -3.94500010E-02  -1.40863395E-13
  -3.94000001E-02  -9.51050829E-14
  -3.93499993E-02  -7.89039989E-14
  -3.92999984E-02  -1.04090503E-13
  -3.92500013E-02  -1.65422472E-13
  -3.92000005E-02  -2.36277848E-13
  -3.91499996E-02  -2.74154316E-13
  -3.90999988E-02  -2.37338469E-13
  -3.90500017E-02  -1.04741560E-13
  -3.90000008E-02   1.13524885E-13
  -3.89500000E-02   3.81526299E-13
  -3.88999991E-02   6.54912322E-13
  -3.88499983E-02   9.00474357E-13
  -3.88000011E-02   1.10999382E-12
  -3.87500003E-02   1.30527750E-12
  -3.86999995E-02   1.53305786E-12
  -3.86499986E-02   1.84853630E-12
  -3.86000015E-02   2.29033958E-12
  -3.85500006E-02   2.85757312E-12
  -3.84999998E-02   3.50364095E-12
  -3.84499989E-02   4.15430017E-12
  -3.84000018E-02   4.74230941E-12
  -3.83500010E-02   5.23985673E-12
  -3.83000001E-02   5.67191866E-12
  -3.82499993E-02   6.10556050E-12
  -3.81999984E-02   6.62167543E-12
  -3.81500013E-02   7.28028401E-12
  -3.81000005E-02   8.09099749E-12
  -3.80499996E-02   9.00000300E-12
  -3.79999988E-02   9.90318504E-12
  -3.79500017E-02   1.06856598E-11
  -3.79000008E-02   1.12724404E-11
  -3.78500000E-02   1.16642382E-11
  -3.77999991E-02   1.19370477E-11
  -3.77499983E-02   1.22039618E-11
  -3.77000012E-02   1.25581698E-11
  -3.76500003E-02   1.30245398E-11
  -3.75999995E-02   1.35398854E-11
  -3.75499986E-02   1.39687498E-11
  -3.75000015E-02   1.41490760E-11
  -3.74500006E-02   1.39526958E-11
  -3.73999998E-02   1.33374214E-11
  -3.73499990E-02   1.23652937E-11
  -3.73000018E-02   1.11724883E-11
  -3.72500010E-02   9.89993938E-12
  -3.72000001E-02   8.61711397E-12
  -3.71499993E-02   7.27738963E-12
  -3.70999984E-02   5.72698529E-12
  -3.70500013E-02   3.76198074E-12
  -3.70000005E-02   1.20600199E-12
  -3.69499996E-02  -2.02395479E-12
  -3.68999988E-02  -5.88992050E-12
  -3.68500017E-02  -1.02562923E-11
  -3.68000008E-02  -1.49580452E-11
  -3.67500000E-02  -1.98887278E-11
  -3.66999991E-02  -2.50683588E-11
  -3.66499983E-02  -3.06552110E-11
  -3.66000012E-02  -3.68907647E-11
  -3.65500003E-02  -4.40024718E-11
  -3.64999995E-02  -5.21110308E-11
  -3.64499986E-02  -6.11865766E-11
  -3.64000015E-02  -7.10719400E-11
  -3.63500006E-02  -8.15619239E-11
  -3.62999998E-02  -9.25046290E-11
  -3.62499990E-02  -1.03883235E-10
  -3.62000018E-02  -1.15842599E-10
  -3.61500010E-02  -1.28644415E-10
  -3.61000001E-02  -1.42564183E-10
  -3.60499993E-02  -1.57774946E-10
  -3.59999985E-02  -1.74272374E-10
  -3.59500013E-02  -1.91880581E-10
  -3.59000005E-02  -2.10338219E-10
  -3.58499996E-02  -2.29424382E-10
  -3.57999988E-02  -2.49066628E-10
  -3.57500017E-02  -2.69383155E-10
  -3.57000008E-02  -2.90642177E-10
  -3.56500000E-02  -3.13154364E-10
  -3.55999991E-02  -3.37141454E-10
  -3.55499983E-02  -3.62637864E-10
  -3.55000012E-02  -3.89471344E-10
  -3.54500003E-02  -4.17337165E-10
  -3.53999995E-02  -4.45935122E-10
  -3.53499986E-02  -4.75109618E-10
  -3.53000015E-02  -5.04923159E-10
  -3.52500007E-02  -5.35630651E-10
  -3.51999998E-02  -5.67565883E-10
  -3.51499990E-02  -6.00991146E-10
  -3.51000018E-02  -6.35977659E-10
  -3.50500010E-02  -6.72366940E-10
  -3.50000001E-02  -7.09832249E-10
  -3.49499993E-02  -7.48016704E-10
  -3.48999985E-02  -7.86688936E-10
  -3.48500013E-02  -8.25845503E-10
  -3.48000005E-02  -8.65711003E-10
  -3.47499996E-02  -9.06631270E-10
  -3.46999988E-02  -9.48907397E-10
  -3.46500017E-02  -9.92648852E-10
  -3.46000008E-02  -1.03771136E-09
  -3.45500000E-02  -1.08374998E-09
  -3.44999991E-02  -1.13036280E-09
  -3.44499983E-02  -1.17726284E-09
  -3.44000012E-02  -1.22440247E-09
  -3.43500003E-02  -1.27199307E-09
  -3.42999995E-02  -1.32040667E-09
  -3.42499986E-02  -1.37000133E-09
  -3.42000015E-02  -1.42094581E-09
  -3.41500007E-02  -1.47312840E-09
  -3.40999998E-02  -1.52619040E-09
  -3.40499990E-02  -1.57967450E-09
  -3.40000018E-02  -1.63322200E-09
  -3.39500010E-02  -1.68672798E-09
  -3.39000002E-02  -1.74038650E-09
  -3.38499993E-02  -1.79460458E-09
  -3.37999985E-02  -1.84981863E-09
  -3.37500013E-02  -1.90629512E-09
  -3.37000005E-02  -1.96400407E-09
  -3.36499996E-02  -2.02262496E-09
  -3.35999988E-02  -2.08168749E-09
  -3.35500017E-02  -2.14078399E-09
  -3.35000008E-02  -2.19975993E-09
  -3.34500000E-02  -2.25879071E-09
  -3.33999991E-02  -2.31831510E-09
  -3.33499983E-02  -2.37884867E-09
  -3.33000012E-02  -2.44076159E-09
  -3.32500003E-02  -2.50412047E-09
  -3.31999995E-02  -2.56866439E-09
  -3.31499986E-02  -2.63393152E-09
  -3.31000015E-02  -2.69948353E-09
  -3.30500007E-02  -2.76512324E-09
  -3.29999998E-02  -2.83101254E-09
  -3.29499990E-02  -2.89762414E-09
  -3.29000019E-02  -2.96556091E-09
  -3.28500010E-02  -3.03530712E-09
  -3.28000002E-02  -3.10703951E-09
  -3.27499993E-02  -3.18057292E-09
  -3.26999985E-02  -3.25547411E-09
  -3.26500013E-02  -3.33128836E-09
  -3.26000005E-02  -3.40778938E-09
  -3.25499997E-02  -3.48512752E-09
  -3.24999988E-02  -3.56381724E-09
  -3.24500017E-02  -3.64455266E-09
  -3.24000008E-02  -3.72794240E-09
  -3.23500000E-02  -3.81427645E-09
  -3.22999991E-02  -3.90343535E-09
  -3.22499983E-02  -3.99499189E-09
  -3.22000012E-02  -4.08845313E-09
  -3.21500003E-02  -4.18353396E-09
  -3.20999995E-02  -4.28035518E-09
  -3.20499986E-02  -4.37945724E-09
  -3.20000015E-02  -4.48163195E-09
  -3.19500007E-02  -4.58763250E-09
  -3.18999998E-02  -4.69789319E-09
  -3.18499990E-02  -4.81239315E-09
  -3.18000019E-02  -4.93071939E-09
  -3.17500010E-02  -5.05231590E-09
  -3.17000002E-02  -5.17680165E-09
  -3.16499993E-02  -5.30421573E-09
  -3.15999985E-02  -5.43507239E-09
  -3.15500014E-02  -5.57021451E-09
  -3.15000005E-02  -5.71050673E-09
  -3.14499997E-02  -5.85652060E-09
  -3.13999988E-02  -6.00834804E-09
  -3.13500017E-02  -6.16561335E-09
  -3.13000008E-02  -6.32771746E-09
  -3.12500000E-02  -6.49417675E-09
  -3.11999992E-02  -6.66493261E-09
  -3.11500002E-02  -6.84045620E-09
  -3.10999993E-02  -7.02162106E-09
  -3.10500003E-02  -7.20939264E-09
  -3.09999995E-02  -7.40445971E-09
  -3.09500005E-02  -7.60699415E-09
  -3.08999997E-02  -7.81663623E-09
  -3.08500007E-02  -8.03271671E-09
  -3.07999998E-02  -8.25462543E-09
  -3.07500008E-02  -8.48216608E-09
  -3.07000000E-02  -8.71573569E-09
  -3.06499992E-02  -8.95622776E-09
  -3.06000002E-02  -9.20471876E-09
  -3.05499993E-02  -9.46204981E-09
  -3.05000003E-02  -9.72851399E-09
  -3.04499995E-02  -1.00037827E-08
  -3.04000005E-02  -1.02871196E-08
  -3.03499997E-02  -1.05777751E-08
  -3.03000007E-02  -1.08754046E-08
  -3.02499998E-02  -1.11803029E-08
  -3.02000009E-02  -1.14933627E-08
  -3.01500000E-02  -1.18157661E-08
  -3.00999992E-02  -1.21485284E-08
  -3.00500002E-02  -1.24921078E-08
  -2.99999993E-02  -1.28462485E-08
  -2.99500003E-02  -1.32101601E-08
  -2.98999995E-02  -1.35829321E-08
  -2.98500005E-02  -1.39640228E-08
  -2.97999997E-02  -1.43535859E-08
  -2.97500007E-02  -1.47524926E-08
  -2.96999998E-02  -1.51620316E-08
  -2.96500009E-02  -1.55834226E-08
  -2.96000000E-02  -1.60173492E-08
  -2.95499992E-02  -1.64637211E-08
  -2.95000002E-02  -1.69217866E-08
  -2.94499993E-02  -1.73905423E-08
  -2.94000003E-02  -1.78692776E-08
  -2.93499995E-02  -1.83579996E-08
  -2.93000005E-02  -1.88575218E-08
  -2.92499997E-02  -1.93692262E-08
  -2.92000007E-02  -1.98945322E-08
  -2.91499998E-02  -2.04343635E-08
  -2.91000009E-02  -2.09888125E-08
  -2.90500000E-02  -2.15571898E-08
  -2.89999992E-02  -2.21384351E-08
  -2.89500002E-02  -2.27316868E-08
  -2.88999993E-02  -2.33368027E-08
  -2.88500004E-02  -2.39545646E-08
  -2.87999995E-02  -2.45864626E-08
  -2.87500005E-02  -2.52341685E-08
  -2.86999997E-02  -2.58989079E-08
  -2.86500007E-02  -2.65810414E-08
  -2.85999998E-02  -2.72799898E-08
  -2.85500009E-02  -2.79946430E-08
  -2.85000000E-02  -2.87239796E-08
  -2.84499992E-02  -2.94676763E-08
  -2.84000002E-02  -3.02264134E-08
  -2.83499993E-02  -3.10017789E-08
  -2.83000004E-02  -3.17956967E-08
  -2.82499995E-02  -3.26097584E-08
  -2.82000005E-02  -3.34446462E-08
  -2.81499997E-02  -3.42999940E-08
  -2.81000007E-02  -3.51746934E-08
  -2.80499998E-02  -3.60675578E-08
  -2.80000009E-02  -3.69780579E-08
  -2.79500000E-02  -3.79067195E-08
  -2.78999992E-02  -3.88551413E-08
  -2.78500002E-02  -3.98254549E-08
  -2.77999993E-02  -4.08196072E-08
  -2.77500004E-02  -4.18386641E-08
  -2.76999995E-02  -4.28825082E-08
  -2.76500005E-02  -4.39500987E-08
  -2.75999997E-02  -4.50401210E-08
  -2.75500007E-02  -4.61517935E-08
  -2.74999999E-02  -4.72854431E-08
  -2.74500009E-02  -4.84426081E-08
  -2.74000000E-02  -4.96255765E-08
  -2.73499992E-02  -5.08366078E-08
  -2.73000002E-02  -5.20771621E-08
  -2.72499993E-02  -5.33474491E-08
  -2.72000004E-02  -5.46465415E-08
  -2.71499995E-02  -5.59730324E-08
  -2.71000005E-02  -5.73259094E-08
  -2.70499997E-02  -5.87052646E-08
  -2.70000007E-02  -6.01124981E-08
  -2.69499999E-02  -6.15499971E-08
  -2.69000009E-02  -6.30203090E-08
  -2.68500000E-02  -6.45252314E-08
  -2.67999992E-02  -6.60652759E-08
  -2.67500002E-02  -6.76396397E-08
  -2.66999993E-02  -6.92468163E-08
  -2.66500004E-02  -7.08854913E-08
  -2.65999995E-02  -7.25554514E-08
  -2.65500005E-02  -7.42578976E-08
  -2.64999997E-02  -7.59952883E-08
  -2.64500007E-02  -7.77704443E-08
  -2.63999999E-02  -7.95856181E-08
  -2.63500009E-02  -8.14417263E-08
  -2.63000000E-02  -8.33381719E-08
  -2.62499992E-02  -8.52734274E-08
  -2.62000002E-02  -8.72459083E-08
  -2.61499994E-02  -8.92550034E-08
  -2.61000004E-02  -9.13016294E-08
  -2.60499995E-02  -9.33881310E-08
  -2.60000005E-02  -9.55175139E-08
  -2.59499997E-02  -9.76924213E-08
  -2.59000007E-02  -9.99141889E-08
  -2.58499999E-02  -1.02182540E-07
  -2.58000009E-02  -1.04495975E-07
  -2.57500000E-02  -1.06852703E-07
  -2.56999992E-02  -1.09251715E-07
  -2.56500002E-02  -1.11693602E-07
  -2.55999994E-02  -1.14180551E-07
  -2.55500004E-02  -1.16715732E-07
  -2.54999995E-02  -1.19302115E-07
  -2.54500005E-02  -1.21941525E-07
  -2.53999997E-02  -1.24634070E-07
  -2.53500007E-02  -1.27378414E-07
  -2.52999999E-02  -1.30172594E-07
  -2.52500009E-02  -1.33015291E-07
  -2.52000000E-02  -1.35906689E-07
  -2.51499992E-02  -1.38848790E-07
  -2.51000002E-02  -1.41844794E-07
  -2.50499994E-02  -1.44898053E-07
  -2.50000004E-02  -1.48010841E-07
  -2.49499995E-02  -1.51183713E-07
  -2.49000005E-02  -1.54415488E-07
  -2.48499997E-02  -1.57704164E-07
  -2.48000007E-02  -1.61048078E-07
  -2.47499999E-02  -1.64447030E-07
  -2.47000009E-02  -1.67902755E-07
  -2.46500000E-02  -1.71418492E-07
  -2.45999992E-02  -1.74997936E-07
  -2.45500002E-02  -1.78643944E-07
  -2.44999994E-02  -1.82357553E-07
  -2.44500004E-02  -1.86137896E-07
  -2.43999995E-02  -1.89982927E-07
  -2.43500005E-02  -1.93890671E-07
  -2.42999997E-02  -1.97860530E-07
  -2.42500007E-02  -2.01893840E-07
  -2.41999999E-02  -2.05993800E-07
  -2.41500009E-02  -2.10164401E-07
  -2.41000000E-02  -2.14409013E-07
  -2.40499992E-02  -2.18729298E-07
  -2.40000002E-02  -2.23124871E-07
  -2.39499994E-02  -2.27593787E-07
  -2.39000004E-02  -2.32133914E-07
  -2.38499995E-02  -2.36744214E-07
  -2.38000005E-02  -2.41425596E-07
  -2.37499997E-02  -2.46181088E-07
  -2.37000007E-02  -2.51014768E-07
  -2.36499999E-02  -2.55930445E-07
  -2.36000009E-02  -2.60930335E-07
  -2.35500000E-02  -2.66014553E-07
  -2.34999992E-02  -2.71181420E-07
  -2.34500002E-02  -2.76428636E-07
  -2.33999994E-02  -2.81754836E-07
  -2.33500004E-02  -2.87160475E-07
  -2.32999995E-02  -2.92648281E-07
  -2.32500006E-02  -2.98222432E-07
  -2.31999997E-02  -3.03887219E-07
  -2.31500007E-02  -3.09645458E-07
  -2.30999999E-02  -3.15497800E-07
  -2.30500009E-02  -3.21442826E-07
  -2.30000000E-02  -3.27478062E-07
  -2.29499992E-02  -3.33601719E-07
  -2.29000002E-02  -3.39813795E-07
  -2.28499994E-02  -3.46116650E-07
  -2.28000004E-02  -3.52514434E-07
  -2.27499995E-02  -3.59011779E-07
  -2.27000006E-02  -3.65611953E-07
  -2.26499997E-02  -3.72316237E-07
  -2.26000007E-02  -3.79123435E-07
  -2.25499999E-02  -3.86030962E-07
  -2.25000009E-02  -3.93036601E-07
  -2.24500000E-02  -4.00139726E-07
  -2.23999992E-02  -4.07342355E-07
  -2.23500002E-02  -4.14648497E-07
  -2.22999994E-02  -4.22062953E-07
  -2.22500004E-02  -4.29589676E-07
  -2.21999995E-02  -4.37230398E-07
  -2.21500006E-02  -4.44984238E-07
  -2.20999997E-02  -4.52848695E-07
  -2.20500007E-02  -4.60820957E-07
  -2.19999999E-02  -4.68899799E-07
  -2.19500009E-02  -4.77086644E-07
  -2.19000001E-02  -4.85385044E-07
  -2.18499992E-02  -4.93799803E-07
  -2.18000002E-02  -5.02335297E-07
  -2.17499994E-02  -5.10993743E-07
  -2.17000004E-02  -5.19774574E-07
  -2.16499995E-02  -5.28675287E-07
  -2.16000006E-02  -5.37692756E-07
  -2.15499997E-02  -5.46825049E-07
  -2.15000007E-02  -5.56072905E-07
  -2.14499999E-02  -5.65439450E-07
  -2.14000009E-02  -5.74929459E-07
  -2.13500001E-02  -5.84547422E-07
  -2.12999992E-02  -5.94295955E-07
  -2.12500002E-02  -6.04174943E-07
  -2.11999994E-02  -6.14181772E-07
  -2.11500004E-02  -6.24312804E-07
  -2.10999995E-02  -6.34565424E-07
  -2.10500006E-02  -6.44939462E-07
  -2.09999997E-02  -6.55437248E-07
  -2.09500007E-02  -6.66063613E-07
  -2.08999999E-02  -6.76823049E-07
  -2.08500009E-02  -6.87718625E-07
  -2.08000001E-02  -6.98750682E-07
  -2.07499992E-02  -7.09916264E-07
  -2.07000002E-02  -7.21211507E-07
  -2.06499994E-02  -7.32632941E-07
  -2.06000004E-02  -7.44179147E-07
  -2.05499995E-02  -7.55852000E-07
  -2.05000006E-02  -7.67655649E-07
  -2.04499997E-02  -7.79594870E-07
  -2.04000007E-02  -7.91672960E-07
  -2.03499999E-02  -8.03890373E-07
  -2.03000009E-02  -8.16244381E-07
  -2.02500001E-02  -8.28730492E-07
  -2.01999992E-02  -8.41344161E-07
  -2.01500002E-02  -8.54083282E-07
  -2.00999994E-02  -8.66948653E-07
  -2.00500004E-02  -8.79943798E-07
  -1.99999996E-02  -8.93073320E-07
  -1.99500006E-02  -9.06340802E-07
  -1.98999997E-02  -9.19746867E-07
  -1.98500007E-02  -9.33289016E-07
  -1.97999999E-02  -9.46962018E-07
  -1.97500009E-02  -9.60760758E-07
  -1.97000001E-02  -9.74681825E-07
  -1.96499992E-02  -9.88724764E-07
  -1.96000002E-02  -1.00289242E-06
  -1.95499994E-02  -1.01718911E-06
  -1.95000004E-02  -1.03161824E-06
  -1.94499996E-02  -1.04618084E-06
  -1.94000006E-02  -1.06087407E-06
  -1.93499997E-02  -1.07569269E-06
  -1.93000007E-02  -1.09063058E-06
  -1.92499999E-02  -1.10568294E-06
  -1.92000009E-02  -1.12084808E-06
  -1.91500001E-02  -1.13612793E-06
  -1.90999992E-02  -1.15152659E-06
  -1.90500002E-02  -1.16704734E-06
  -1.89999994E-02  -1.18269156E-06
  -1.89500004E-02  -1.19845663E-06
  -1.88999996E-02  -1.21433652E-06
  -1.88500006E-02  -1.23032407E-06
  -1.87999997E-02  -1.24641304E-06
  -1.87500007E-02  -1.26260022E-06
  -1.86999999E-02  -1.27888643E-06
  -1.86500009E-02  -1.29527484E-06
  -1.86000001E-02  -1.31176898E-06
  -1.85499992E-02  -1.32837010E-06
  -1.85000002E-02  -1.34507570E-06
  -1.84499994E-02  -1.36187930E-06
  -1.84000004E-02  -1.37877271E-06
  -1.83499996E-02  -1.39574831E-06
  -1.83000006E-02  -1.41280145E-06
  -1.82499997E-02  -1.42993133E-06
  -1.82000007E-02  -1.44714033E-06
  -1.81499999E-02  -1.46443176E-06
  -1.81000009E-02  -1.48180709E-06
  -1.80500001E-02  -1.49926370E-06
  -1.79999992E-02  -1.51679478E-06
  -1.79500002E-02  -1.53439100E-06
  -1.78999994E-02  -1.55204282E-06
  -1.78500004E-02  -1.56974374E-06
  -1.77999996E-02  -1.58749140E-06
  -1.77500006E-02  -1.60528725E-06
  -1.76999997E-02  -1.62313393E-06
  -1.76500008E-02  -1.64103301E-06
  -1.75999999E-02  -1.65898155E-06
  -1.75500009E-02  -1.67697249E-06
  -1.75000001E-02  -1.69499492E-06
  -1.74499992E-02  -1.71303793E-06
  -1.74000002E-02  -1.73109299E-06
  -1.73499994E-02  -1.74915601E-06
  -1.73000004E-02  -1.76722676E-06
  -1.72499996E-02  -1.78530740E-06
  -1.72000006E-02  -1.80339896E-06
  -1.71499997E-02  -1.82149881E-06
  -1.71000008E-02  -1.83959924E-06
  -1.70499999E-02  -1.85768840E-06
  -1.70000009E-02  -1.87575347E-06
  -1.69500001E-02  -1.89378295E-06
  -1.68999992E-02  -1.91177082E-06
  -1.68500002E-02  -1.92971493E-06
  -1.67999994E-02  -1.94761651E-06
  -1.67500004E-02  -1.96547580E-06
  -1.66999996E-02  -1.98329053E-06
  -1.66500006E-02  -2.00105274E-06
  -1.65999997E-02  -2.01874946E-06
  -1.65500008E-02  -2.03636569E-06
  -1.64999999E-02  -2.05388778E-06
  -1.64500009E-02  -2.07130620E-06
  -1.64000001E-02  -2.08861684E-06
  -1.63499992E-02  -2.10581925E-06
  -1.63000003E-02  -2.12291343E-06
  -1.62499994E-02  -2.13989688E-06
  -1.62000004E-02  -2.15676118E-06
  -1.61499996E-02  -2.17349248E-06
  -1.61000006E-02  -2.19007325E-06
  -1.60499997E-02  -2.20648735E-06
  -1.60000008E-02  -2.22272206E-06
  -1.59499999E-02  -2.23877100E-06
  -1.59000009E-02  -2.25463214E-06
  -1.58500001E-02  -2.27030455E-06
  -1.57999992E-02  -2.28578460E-06
  -1.57500003E-02  -2.30106389E-06
  -1.56999994E-02  -2.31612739E-06
  -1.56500004E-02  -2.33095648E-06
  -1.55999996E-02  -2.34553113E-06
  -1.55499997E-02  -2.35983589E-06
  -1.54999997E-02  -2.37386121E-06
  -1.54499998E-02  -2.38760254E-06
  -1.53999999E-02  -2.40105805E-06
  -1.53500000E-02  -2.41422367E-06
  -1.53000001E-02  -2.42709029E-06
  -1.52500002E-02  -2.43964178E-06
  -1.52000003E-02  -2.45185765E-06
  -1.51500003E-02  -2.46371565E-06
  -1.51000004E-02  -2.47519688E-06
  -1.50499996E-02  -2.48628817E-06
  -1.49999997E-02  -2.49698269E-06
  -1.49499997E-02  -2.50727635E-06
  -1.48999998E-02  -2.51716551E-06
  -1.48499999E-02  -2.52663995E-06
  -1.48000000E-02  -2.53568373E-06
  -1.47500001E-02  -2.54427414E-06
  -1.47000002E-02  -2.55238615E-06
  -1.46500003E-02  -2.55999771E-06
  -1.46000003E-02  -2.56709131E-06
  -1.45500004E-02  -2.57365696E-06
  -1.44999996E-02  -2.57968895E-06
  -1.44499997E-02  -2.58518253E-06
  -1.43999998E-02  -2.59012836E-06
  -1.43499998E-02  -2.59450917E-06
  -1.42999999E-02  -2.59830153E-06
  -1.42500000E-02  -2.60147795E-06
  -1.42000001E-02  -2.60401180E-06
  -1.41500002E-02  -2.60588331E-06
  -1.41000003E-02  -2.60707930E-06
  -1.40500003E-02  -2.60759180E-06
  -1.40000004E-02  -2.60741444E-06
  -1.39499996E-02  -2.60653746E-06
  -1.38999997E-02  -2.60494380E-06
  -1.38499998E-02  -2.60260867E-06
  -1.37999998E-02  -2.59950252E-06
  -1.37499999E-02  -2.59559670E-06
  -1.37000000E-02  -2.59086619E-06
  -1.36500001E-02  -2.58529417E-06
  -1.36000002E-02  -2.57887086E-06
  -1.35500003E-02  -2.57158854E-06
  -1.35000004E-02  -2.56343719E-06
  -1.34500004E-02  -2.55440023E-06
  -1.33999996E-02  -2.54445263E-06
  -1.33499997E-02  -2.53356279E-06
  -1.32999998E-02  -2.52169934E-06
  -1.32499998E-02  -2.50883295E-06
  -1.31999999E-02  -2.49494360E-06
  -1.31500000E-02  -2.48001788E-06
  -1.31000001E-02  -2.46404716E-06
  -1.30500002E-02  -2.44702142E-06
  -1.30000003E-02  -2.42892543E-06
  -1.29500004E-02  -2.40973372E-06
  -1.29000004E-02  -2.38941379E-06
  -1.28499996E-02  -2.36793085E-06
  -1.27999997E-02  -2.34525282E-06
  -1.27499998E-02  -2.32135471E-06
  -1.26999998E-02  -2.29622015E-06
  -1.26499999E-02  -2.26983957E-06
  -1.26000000E-02  -2.24220298E-06
  -1.25500001E-02  -2.21329469E-06
  -1.25000002E-02  -2.18309060E-06
  -1.24500003E-02  -2.15155774E-06
  -1.24000004E-02  -2.11865881E-06
  -1.23500004E-02  -2.08435881E-06
  -1.22999996E-02  -2.04862954E-06
  -1.22499997E-02  -2.01145190E-06
  -1.21999998E-02  -1.97281429E-06
  -1.21499998E-02  -1.93270648E-06
  -1.20999999E-02  -1.89111427E-06
  -1.20500000E-02  -1.84801479E-06
  -1.20000001E-02  -1.80337429E-06
  -1.19500002E-02  -1.75715388E-06
  -1.19000003E-02  -1.70931446E-06
  -1.18500004E-02  -1.65982499E-06
  -1.18000004E-02  -1.60866261E-06
  -1.17499996E-02  -1.55581392E-06
  -1.16999997E-02  -1.50126971E-06
  -1.16499998E-02  -1.44501678E-06
  -1.15999999E-02  -1.38703410E-06
  -1.15499999E-02  -1.32729019E-06
  -1.15000000E-02  -1.26574582E-06
  -1.14500001E-02  -1.20236007E-06
  -1.14000002E-02  -1.13709825E-06
  -1.13500003E-02  -1.06993446E-06
  -1.13000004E-02  -1.00085379E-06
  -1.12500004E-02  -9.29846294E-07
  -1.11999996E-02  -8.56900613E-07
  -1.11499997E-02  -7.81997301E-07
  -1.10999998E-02  -7.05107027E-07
  -1.10499999E-02  -6.26190172E-07
  -1.09999999E-02  -5.45204387E-07
  -1.09500000E-02  -4.62111984E-07
  -1.09000001E-02  -3.76884259E-07
  -1.08500002E-02  -2.89504356E-07
  -1.08000003E-02  -1.99963068E-07
  -1.07500004E-02  -1.08251861E-07
  -1.07000005E-02  -1.43552512E-08
  -1.06499996E-02   8.17534627E-08
  -1.05999997E-02   1.80111016E-07
  -1.05499998E-02   2.80759821E-07
  -1.04999999E-02   3.83740229E-07
  -1.04499999E-02   4.89082879E-07
  -1.04000000E-02   5.96805876E-07
  -1.03500001E-02   7.06917945E-07
  -1.03000002E-02   8.19425338E-07
  -1.02500003E-02   9.34339255E-07
  -1.02000004E-02   1.05168158E-06
  -1.01500005E-02   1.17148636E-06
  -1.00999996E-02   1.29379475E-06
  -1.00499997E-02   1.41864746E-06
  -9.99999978E-03   1.54607665E-06
  -9.94999986E-03   1.67610165E-06
  -9.89999995E-03   1.80873110E-06
  -9.85000003E-03   1.94396762E-06
  -9.80000012E-03   2.08181882E-06
  -9.75000020E-03   2.22230074E-06
  -9.70000029E-03   2.36544361E-06
  -9.65000037E-03   2.51128563E-06
  -9.60000046E-03   2.65986591E-06
  -9.54999961E-03   2.81121629E-06
  -9.49999969E-03   2.96535632E-06
  -9.44999978E-03   3.12229167E-06
  -9.39999986E-03   3.28202123E-06
  -9.34999995E-03   3.44454475E-06
  -9.30000003E-03   3.60987087E-06
  -9.25000012E-03   3.77802417E-06
  -9.20000020E-03   3.94903782E-06
  -9.15000029E-03   4.12294867E-06
  -9.10000037E-03   4.29978854E-06
  -9.05000046E-03   4.47957609E-06
  -8.99999961E-03   4.66231495E-06
  -8.94999970E-03   4.84799875E-06
  -8.89999978E-03   5.03662068E-06
  -8.84999987E-03   5.22818118E-06
  -8.79999995E-03   5.42269481E-06
  -8.75000004E-03   5.62018977E-06
  -8.70000012E-03   5.82069970E-06
  -8.65000021E-03   6.02425325E-06
  -8.60000029E-03   6.23086635E-06
  -8.55000038E-03   6.44053944E-06
  -8.50000046E-03   6.65326115E-06
  -8.44999962E-03   6.86901512E-06
  -8.39999970E-03   7.08779226E-06
  -8.34999979E-03   7.30959437E-06
  -8.29999987E-03   7.53444010E-06
  -8.24999996E-03   7.76235538E-06
  -8.20000004E-03   7.99336613E-06
  -8.15000013E-03   8.22748552E-06
  -8.10000021E-03   8.46470721E-06
  -8.05000030E-03   8.70501117E-06
  -8.00000038E-03   8.94837194E-06
  -7.95000046E-03   9.19476770E-06
  -7.89999962E-03   9.44419025E-06
  -7.84999970E-03   9.69664507E-06
  -7.79999979E-03   9.95215396E-06
  -7.74999987E-03   1.02107306E-05
  -7.69999996E-03   1.04723867E-05
  -7.65000004E-03   1.07371116E-05
  -7.60000013E-03   1.10048777E-05
  -7.55000021E-03   1.12756443E-05
  -7.49999983E-03   1.15493767E-05
  -7.44999992E-03   1.18260477E-05
  -7.40000000E-03   1.21056537E-05
  -7.35000009E-03   1.23881973E-05
  -7.30000017E-03   1.26736923E-05
  -7.24999979E-03   1.29621385E-05
  -7.19999988E-03   1.32535188E-05
  -7.14999996E-03   1.35477931E-05
  -7.10000005E-03   1.38449104E-05
  -7.05000013E-03   1.41448209E-05
  -7.00000022E-03   1.44474807E-05
  -6.94999984E-03   1.47528617E-05
  -6.89999992E-03   1.50609558E-05
  -6.85000001E-03   1.53717610E-05
  -6.80000009E-03   1.56852711E-05
  -6.75000018E-03   1.60014570E-05
  -6.69999979E-03   1.63202749E-05
  -6.64999988E-03   1.66416539E-05
  -6.59999996E-03   1.69655250E-05
  -6.55000005E-03   1.72918226E-05
  -6.50000013E-03   1.76205031E-05
  -6.45000022E-03   1.79515391E-05
  -6.39999984E-03   1.82849108E-05
  -6.34999992E-03   1.86206016E-05
  -6.30000001E-03   1.89585735E-05
  -6.25000009E-03   1.92987627E-05
  -6.20000018E-03   1.96410874E-05
  -6.14999980E-03   1.99854567E-05
  -6.09999988E-03   2.03317832E-05
  -6.04999997E-03   2.06799996E-05
  -6.00000005E-03   2.10300550E-05
  -5.95000014E-03   2.13819130E-05
  -5.90000022E-03   2.17355373E-05
  -5.84999984E-03   2.20908769E-05
  -5.79999993E-03   2.24478554E-05
  -5.75000001E-03   2.28063709E-05
  -5.70000010E-03   2.31663125E-05
  -5.65000018E-03   2.35275620E-05
  -5.59999980E-03   2.38900284E-05
  -5.54999989E-03   2.42536335E-05
  -5.49999997E-03   2.46183172E-05
  -5.45000006E-03   2.49840268E-05
  -5.40000014E-03   2.53506951E-05
  -5.35000023E-03   2.57182273E-05
  -5.29999984E-03   2.60865054E-05
  -5.24999993E-03   2.64553892E-05
  -5.20000001E-03   2.68247386E-05
  -5.15000010E-03   2.71944264E-05
  -5.10000018E-03   2.75643470E-05
  -5.04999980E-03   2.79344149E-05
  -4.99999989E-03   2.83045501E-05
  -4.94999997E-03   2.86746708E-05
  -4.90000006E-03   2.90446606E-05
  -4.85000014E-03   2.94143829E-05
  -4.80000023E-03   2.97836741E-05
  -4.74999985E-03   3.01523596E-05
  -4.69999993E-03   3.05202775E-05
  -4.65000002E-03   3.08872950E-05
  -4.60000010E-03   3.12532866E-05
  -4.55000019E-03   3.16181504E-05
  -4.49999981E-03   3.19817846E-05
  -4.44999989E-03   3.23440509E-05
  -4.39999998E-03   3.27047819E-05
  -4.35000006E-03   3.30637922E-05
  -4.30000015E-03   3.34208707E-05
  -4.25000023E-03   3.37758247E-05
  -4.19999985E-03   3.41284831E-05
  -4.14999994E-03   3.44786895E-05
  -4.10000002E-03   3.48263129E-05
  -4.05000011E-03   3.51712079E-05
  -4.00000019E-03   3.55132361E-05
  -3.94999981E-03   3.58522047E-05
  -3.89999989E-03   3.61878920E-05
  -3.84999998E-03   3.65200540E-05
  -3.80000006E-03   3.68484616E-05
  -3.74999992E-03   3.71729002E-05
  -3.70000000E-03   3.74931697E-05
  -3.65000009E-03   3.78091099E-05
  -3.59999994E-03   3.81205573E-05
  -3.55000002E-03   3.84273262E-05
  -3.50000011E-03   3.87292057E-05
  -3.44999996E-03   3.90259556E-05
  -3.40000005E-03   3.93172959E-05
  -3.34999990E-03   3.96029573E-05
  -3.29999998E-03   3.98826742E-05
  -3.25000007E-03   4.01562174E-05
  -3.19999992E-03   4.04233724E-05
  -3.15000000E-03   4.06839499E-05
  -3.10000009E-03   4.09377462E-05
  -3.04999994E-03   4.11845213E-05
  -3.00000003E-03   4.14239985E-05
  -2.95000011E-03   4.16558651E-05
  -2.89999996E-03   4.18798154E-05
  -2.85000005E-03   4.20955330E-05
  -2.79999990E-03   4.23027523E-05
  -2.74999999E-03   4.25012222E-05
  -2.70000007E-03   4.26907172E-05
  -2.64999992E-03   4.28710046E-05
  -2.60000001E-03   4.30418113E-05
  -2.55000009E-03   4.32028282E-05
  -2.49999994E-03   4.33537316E-05
  -2.45000003E-03   4.34941539E-05
  -2.40000011E-03   4.36237424E-05
  -2.34999997E-03   4.37421768E-05
  -2.30000005E-03   4.38491625E-05
  -2.24999990E-03   4.39444339E-05
  -2.19999999E-03   4.40277327E-05
  -2.15000007E-03   4.40987715E-05
  -2.09999993E-03   4.41572156E-05
  -2.05000001E-03   4.42026831E-05
  -2.00000009E-03   4.42347846E-05
  -1.94999995E-03   4.42531164E-05
  -1.90000003E-03   4.42573182E-05
  -1.85000000E-03   4.42470518E-05
  -1.79999997E-03   4.42220116E-05
  -1.75000005E-03   4.41819029E-05
  -1.70000002E-03   4.41264165E-05
  -1.64999999E-03   4.40551921E-05
  -1.59999996E-03   4.39678261E-05
  -1.55000004E-03   4.38638854E-05
  -1.50000001E-03   4.37429408E-05
  -1.44999998E-03   4.36045630E-05
  -1.39999995E-03   4.34483773E-05
  -1.35000004E-03   4.32740344E-05
  -1.30000000E-03   4.30812070E-05
  -1.24999997E-03   4.28695530E-05
  -1.20000006E-03   4.26386941E-05
  -1.15000003E-03   4.23882047E-05
  -1.09999999E-03   4.21176264E-05
  -1.04999996E-03   4.18264790E-05
  -1.00000005E-03   4.15143004E-05
  -9.50000016E-04   4.11806577E-05
  -8.99999985E-04   4.08251763E-05
  -8.50000011E-04   4.04474922E-05
  -7.99999980E-04   4.00472454E-05
  -7.50000007E-04   3.96240357E-05
  -6.99999975E-04   3.91774265E-05
  -6.50000002E-04   3.87069267E-05
  -6.00000028E-04   3.82120161E-05
  -5.49999997E-04   3.76922071E-05
  -5.00000024E-04   3.71470269E-05
  -4.49999992E-04   3.65760461E-05
  -3.99999990E-04   3.59788792E-05
  -3.49999988E-04   3.53551368E-05
  -3.00000014E-04   3.47044152E-05
  -2.50000012E-04   3.40262559E-05
  -1.99999995E-04   3.33201460E-05
  -1.50000007E-04   3.25855544E-05
  -9.99999975E-05   3.18219463E-05
  -4.99999987E-05   3.10288087E-05
   0.00000000       3.02056869E-05
   4.99999987E-05   2.93521680E-05
   9.99999975E-05   2.84678517E-05
   1.50000007E-04   2.75523125E-05
   1.99999995E-04   2.66050938E-05
   2.50000012E-04   2.56256772E-05
   3.00000014E-04   2.46135132E-05
   3.49999988E-04   2.35680400E-05
   3.99999990E-04   2.24887190E-05
   4.49999992E-04   2.13750627E-05
   5.00000024E-04   2.02266328E-05
   5.49999997E-04   1.90430128E-05
   6.00000028E-04   1.78237879E-05
   6.50000002E-04   1.65684996E-05
   6.99999975E-04   1.52766370E-05
   7.50000007E-04   1.39476460E-05
   7.99999980E-04   1.25809502E-05
   8.50000011E-04   1.11759873E-05
   8.99999985E-04   9.73224724E-06
   9.50000016E-04   8.24927156E-06
   1.00000005E-03   6.72664100E-06
   1.04999996E-03   5.16394539E-06
   1.09999999E-03   3.56074520E-06
   1.15000003E-03   1.91654658E-06
   1.20000006E-03   2.30803522E-07
   1.24999997E-03  -1.49705886E-06
   1.30000000E-03  -3.26760846E-06
   1.35000004E-03  -5.08137009E-06
   1.39999995E-03  -6.93881566E-06
   1.44999998E-03  -8.84036035E-06
   1.50000001E-03  -1.07864034E-05
   1.55000004E-03  -1.27773565E-05
   1.59999996E-03  -1.48136778E-05
   1.64999999E-03  -1.68958868E-05
   1.70000002E-03  -1.90245391E-05
   1.75000005E-03  -2.12001978E-05
   1.79999997E-03  -2.34233867E-05
   1.85000000E-03  -2.56945750E-05
   1.90000003E-03  -2.80141685E-05
   1.94999995E-03  -3.03825436E-05
   2.00000009E-03  -3.28000751E-05
   2.05000001E-03  -3.52671777E-05
   2.09999993E-03  -3.77843207E-05
   2.15000007E-03  -4.03520316E-05
   2.19999999E-03  -4.29708380E-05
   2.24999990E-03  -4.56412454E-05
   2.30000005E-03  -4.83637123E-05
   2.34999997E-03  -5.11386133E-05
   2.40000011E-03  -5.39662906E-05
   2.45000003E-03  -5.68470714E-05
   2.49999994E-03  -5.97813196E-05
   2.55000009E-03  -6.27694462E-05
   2.60000001E-03  -6.58119097E-05
   2.64999992E-03  -6.89091758E-05
   2.70000007E-03  -7.20617172E-05
   2.74999999E-03  -7.52699634E-05
   2.79999990E-03  -7.85342563E-05