  -3.99999991E-02   0.00000000    
  -3.99499983E-02   0.00000000    
  -3.99000011E-02   3.31548045E-16
  -3.98500003E-02  -6.08027693E-15
  -3.97999994E-02  -3.29375063E-14
  -3.97499986E-02  -8.70967185E-14
  -3.97000015E-02  -1.61949311E-13
  -3.96500006E-02  -2.52716603E-13
  -3.95999998E-02  -3.75581050E-13
  -3.95499989E-02  -5.58205500E-13
  -3.95000018E-02  -8.03198599E-13
  -3.94500010E-02  -1.06967668E-12
  -3.94000001E-02  -1.30764301E-12
  -3.93499993E-02  -1.51625544E-12
  -3.92999984E-02  -1.75759515E-12
  -3.92500013E-02  -2.10142494E-12
  -3.92000005E-02  -2.55927874E-12
  -3.91499996E-02  -3.08468398E-12
  -3.90999988E-02  -3.63883012E-12
  -3.90500017E-02  -4.23860166E-12
  -3.90000008E-02  -4.92339806E-12
  -3.89500000E-02  -5.68185863E-12
  -3.88999991E-02  -6.43911096E-12
  -3.88499983E-02  -7.13585571E-12
  -3.88000011E-02  -7.81009198E-12
  -3.87500003E-02  -8.57339373E-12
  -3.86999995E-02  -9.49279544E-12
  -3.86499986E-02  -1.05083858E-11
  -3.86000015E-02  -1.14854012E-11
  -3.85500006E-02  -1.23454085E-11
  -3.84999998E-02  -1.31272727E-11
  -3.84499989E-02  -1.39129316E-11
  -3.84000018E-02  -1.47169586E-11
  -3.83500010E-02  -1.54809481E-11
  -3.83000001E-02  -1.61781682E-11
  -3.82499993E-02  -1.68865911E-11
  -3.81999984E-02  -1.77177561E-11
  -3.81500013E-02  -1.86684765E-11
  -3.81000005E-02  -1.95729839E-11
  -3.80499996E-02  -2.02298109E-11
  -3.79999988E-02  -2.05744744E-11
  -3.79500017E-02  -2.07095539E-11
  -3.79000008E-02  -2.07655768E-11
  -3.78500000E-02  -2.07592693E-11
  -3.77999991E-02  -2.06086884E-11
  -3.77499983E-02  -2.02673746E-11
  -3.77000012E-02  -1.97939668E-11
  -3.76500003E-02  -1.92598004E-11
  -3.75999995E-02  -1.86092045E-11
  -3.75499986E-02  -1.76610167E-11
  -3.75000015E-02  -1.62756596E-11
  -3.74500006E-02  -1.45046137E-11
  -3.73999998E-02  -1.25436250E-11
  -3.73499990E-02  -1.05315565E-11
  -3.73000018E-02  -8.41438984E-12
  -3.72500010E-02  -6.01691570E-12
  -3.72000001E-02  -3.22459507E-12
  -3.71499993E-02  -6.09023059E-14
  -3.70999984E-02   3.41369316E-12
  -3.70500013E-02   7.23259083E-12
  -3.70000005E-02   1.15041978E-11
  -3.69499996E-02   1.62599743E-11
  -3.68999988E-02   2.13657824E-11
  -3.68500017E-02   2.66305901E-11
  -3.68000008E-02   3.20106719E-11
  -3.67500000E-02   3.76812748E-11
  -3.66999991E-02   4.38872272E-11
  -3.66499983E-02   5.07293305E-11
  -3.66000012E-02   5.81087817E-11
  -3.65500003E-02   6.58655422E-11
  -3.64999995E-02   7.39323602E-11
  -3.64499986E-02   8.23331334E-11
  -3.64000015E-02   9.10612349E-11
  -3.63500006E-02   1.00022463E-10
  -3.62999998E-02   1.09138108E-10
  -3.62499990E-02   1.18489774E-10
  -3.62000018E-02   1.28312888E-10
  -3.61500010E-02   1.38809977E-10
  -3.61000001E-02   1.49965693E-10
  -3.60499993E-02   1.61556199E-10
  -3.59999985E-02   1.73339537E-10
  -3.59500013E-02   1.85227458E-10
  -3.59000005E-02   1.97278915E-10
  -3.58499996E-02   2.09564893E-10
  -3.57999988E-02   2.22084337E-10
  -3.57500017E-02   2.34820607E-10
  -3.57000008E-02   2.47838611E-10
  -3.56500000E-02   2.61267979E-10
  -3.55999991E-02   2.75161227E-10
  -3.55499983E-02   2.89384322E-10
  -3.55000012E-02   3.03682551E-10
  -3.54500003E-02   3.17876975E-10
  -3.53999995E-02   3.31998928E-10
  -3.53499986E-02   3.46230211E-10
  -3.53000015E-02   3.60718122E-10
  -3.52500007E-02   3.75455472E-10
  -3.51999998E-02   3.90326105E-10
  -3.51499990E-02   4.05231043E-10
  -3.51000018E-02   4.20139257E-10
  -3.50500010E-02   4.35021325E-10
  -3.50000001E-02   4.49778992E-10
  -3.49499993E-02   4.64291633E-10
  -3.48999985E-02   4.78551088E-10
  -3.48500013E-02   4.92727525E-10
  -3.48000005E-02   5.07060061E-10
  -3.47499996E-02   5.21651278E-10
  -3.46999988E-02   5.36361233E-10
  -3.46500017E-02   5.50903489E-10
  -3.46000008E-02   5.65047731E-10
  -3.45500000E-02   5.78733950E-10
  -3.44999991E-02   5.92017324E-10
  -3.44499983E-02   6.04946704E-10
  -3.44000012E-02   6.17533247E-10
  -3.43500003E-02   6.29828634E-10
  -3.42999995E-02   6.41977804E-10
  -3.42499986E-02   6.54129417E-10
  -3.42000015E-02   6.66267097E-10
  -3.41500007E-02   6.78150591E-10
  -3.40999998E-02   6.89467539E-10
  -3.40499990E-02   7.00071889E-10
  -3.40000018E-02   7.10081605E-10
  -3.39500010E-02   7.19744153E-10
  -3.39000002E-02   7.29219130E-10
  -3.38499993E-02   7.38499095E-10
  -3.37999985E-02   7.47516604E-10
  -3.37500013E-02   7.56270324E-10
  -3.37000005E-02   7.64798669E-10
  -3.36499996E-02   7.73042241E-10
  -3.35999988E-02   7.80796705E-10
  -3.35500017E-02   7.87867049E-10
  -3.35000008E-02   7.94281974E-10
  -3.34500000E-02   8.00319644E-10
  -3.33999991E-02   8.06282818E-10
  -3.33499983E-02   8.12239886E-10
  -3.33000012E-02   8.17998003E-10
  -3.32500003E-02   8.23323076E-10
  -3.31999995E-02   8.28157598E-10
  -3.31499986E-02   8.32611091E-10
  -3.31000015E-02   8.36780867E-10
  -3.30500007E-02   8.40657433E-10
  -3.29999998E-02   8.44248227E-10
  -3.29499990E-02   8.47754755E-10
  -3.29000019E-02   8.51543003E-10
  -3.28500010E-02   8.55879423E-10
  -3.28000002E-02   8.60705229E-10
  -3.27499993E-02   8.65711947E-10
  -3.26999985E-02   8.70658434E-10
  -3.26500013E-02   8.75595429E-10
  -3.26000005E-02   8.80771955E-10
  -3.25499997E-02   8.86354323E-10
  -3.24999988E-02   8.92289742E-10
  -3.24500017E-02   8.98445485E-10
  -3.24000008E-02   9.04811392E-10
  -3.23500000E-02   9.11481945E-10
  -3.22999991E-02   9.18425946E-10
  -3.22499983E-02   9.25347132E-10
  -3.22000012E-02   9.31863364E-10
  -3.21500003E-02   9.37856348E-10
  -3.20999995E-02   9.43620071E-10
  -3.20499986E-02   9.49636481E-10
  -3.20000015E-02   9.56214552E-10
  -3.19500007E-02   9.63364721E-10
  -3.18999998E-02   9.70996505E-10
  -3.18499990E-02   9.79149761E-10
  -3.18000019E-02   9.87969706E-10
  -3.17500010E-02   9.97476435E-10
  -3.17000002E-02   1.00746278E-09
  -3.16499993E-02   1.01770170E-09
  -3.15999985E-02   1.02826114E-09
  -3.15500014E-02   1.03955788E-09
  -3.15000005E-02   1.05206688E-09
  -3.14499997E-02   1.06599485E-09
  -3.13999988E-02   1.08127263E-09
  -3.13500017E-02   1.09785436E-09
  -3.13000008E-02   1.11596754E-09
  -3.12500000E-02   1.13603826E-09
  -3.11999992E-02   1.15841114E-09
  -3.11500002E-02   1.18321775E-09
  -3.10999993E-02   1.21054389E-09
  -3.10500003E-02   1.24066202E-09
  -3.09999995E-02   1.27400390E-09
  -3.09500005E-02   1.31086675E-09
  -3.08999997E-02   1.35118627E-09
  -3.08500007E-02   1.39466261E-09
  -3.07999998E-02   1.44112555E-09
  -3.07500008E-02   1.49075419E-09
  -3.07000000E-02   1.54393109E-09
  -3.06499992E-02   1.60091918E-09
  -3.06000002E-02   1.66172576E-09
  -3.05499993E-02   1.72626402E-09
  -3.05000003E-02   1.79456061E-09
  -3.04499995E-02   1.86672500E-09
  -3.04000005E-02   1.94271532E-09
  -3.03499997E-02   2.02221551E-09
  -3.03000007E-02   2.10482454E-09
  -3.02499998E-02   2.19039320E-09
  -3.02000009E-02   2.27914732E-09
  -3.01500000E-02   2.37145792E-09
  -3.00999992E-02   2.46750376E-09
  -3.00500002E-02   2.56717003E-09
  -2.99999993E-02   2.67023914E-09
  -2.99500003E-02   2.77661427E-09
  -2.98999995E-02   2.88631163E-09
  -2.98500005E-02   2.99926750E-09
  -2.97999997E-02   3.11524095E-09
  -2.97500007E-02   3.23397065E-09
  -2.96999998E-02   3.35542216E-09
  -2.96500009E-02   3.47982954E-09
  -2.96000000E-02   3.60745833E-09
  -2.95499992E-02   3.73833409E-09
  -2.95000002E-02   3.87223320E-09
  -2.94499993E-02   4.00893274E-09
  -2.94000003E-02   4.14845402E-09
  -2.93499995E-02   4.29104308E-09
  -2.93000005E-02   4.43694415E-09
  -2.92499997E-02   4.58624339E-09
  -2.92000007E-02   4.73893680E-09
  -2.91499998E-02   4.89510699E-09
  -2.91000009E-02   5.05495512E-09
  -2.90500000E-02   5.21863219E-09
  -2.89999992E-02   5.38606315E-09
  -2.89500002E-02   5.55700685E-09
  -2.88999993E-02   5.73132253E-09
  -2.88500004E-02   5.90917937E-09
  -2.87999995E-02   6.09098771E-09
  -2.87500005E-02   6.27711927E-09
  -2.86999997E-02   6.46769793E-09
  -2.86500007E-02   6.66265443E-09
  -2.85999998E-02   6.86193857E-09
  -2.85500009E-02   7.06562897E-09
  -2.85000000E-02   7.27384464E-09
  -2.84499992E-02   7.48659534E-09
  -2.84000002E-02   7.70380293E-09
  -2.83499993E-02   7.92550559E-09
  -2.83000004E-02   8.15200263E-09
  -2.82499995E-02   8.38373904E-09
  -2.82000005E-02   8.62100435E-09
  -2.81499997E-02   8.86373641E-09
  -2.81000007E-02   9.11164477E-09
  -2.80499998E-02   9.36450562E-09
  -2.80000009E-02   9.62233049E-09
  -2.79500000E-02   9.88524640E-09
  -2.78999992E-02   1.01532747E-08
  -2.78500002E-02   1.04262670E-08
  -2.77999993E-02   1.07040767E-08
  -2.77500004E-02   1.09867271E-08
  -2.76999995E-02   1.12743370E-08
  -2.76500005E-02   1.15668692E-08
  -2.75999997E-02   1.18640049E-08
  -2.75500007E-02   1.21653265E-08
  -2.74999999E-02   1.24706387E-08
  -2.74500009E-02   1.27800792E-08
  -2.74000000E-02   1.30938744E-08
  -2.73499992E-02   1.34120031E-08
  -2.73000002E-02   1.37341312E-08
  -2.72499993E-02   1.40598599E-08
  -2.72000004E-02   1.43890055E-08
  -2.71499995E-02   1.47215893E-08
  -2.71000005E-02   1.50576120E-08
  -2.70499997E-02   1.53969104E-08
  -2.70000007E-02   1.57393334E-08
  -2.69499999E-02   1.60850018E-08
  -2.69000009E-02   1.64343081E-08
  -2.68500000E-02   1.67875776E-08
  -2.67999992E-02   1.71447070E-08
  -2.67500002E-02   1.75052097E-08
  -2.66999993E-02   1.78686044E-08
  -2.66500004E-02   1.82347772E-08
  -2.65999995E-02   1.86039149E-08
  -2.65500005E-02   1.89761913E-08
  -2.64999997E-02   1.93515657E-08
  -2.64500007E-02   1.97299439E-08
  -2.63999999E-02   2.01114432E-08
  -2.63500009E-02   2.04963762E-08
  -2.63000000E-02   2.08849080E-08
  -2.62499992E-02   2.12768168E-08
  -2.62000002E-02   2.16716565E-08
  -2.61499994E-02   2.20692051E-08
  -2.61000004E-02   2.24697203E-08
  -2.60499995E-02   2.28737154E-08
  -2.60000005E-02   2.32814816E-08
  -2.59499997E-02   2.36929232E-08
  -2.59000007E-02   2.41077984E-08
  -2.58499999E-02   2.45260630E-08
  -2.58000009E-02   2.49479051E-08
  -2.57500000E-02   2.53734509E-08
  -2.56999992E-02   2.58025494E-08
  -2.56500002E-02   2.62349946E-08
  -2.55999994E-02   2.66708664E-08
  -2.55500004E-02   2.71106142E-08
  -2.54999995E-02   2.75546927E-08
  -2.54500005E-02   2.80031252E-08
  -2.53999997E-02   2.84554744E-08
  -2.53500007E-02   2.89112698E-08
  -2.52999999E-02   2.93704296E-08
  -2.52500009E-02   2.98332559E-08
  -2.52000000E-02   3.03000789E-08
  -2.51499992E-02   3.07710479E-08
  -2.51000002E-02   3.12462305E-08
  -2.50499994E-02   3.17258717E-08
  -2.50000004E-02   3.22103908E-08
  -2.49499995E-02   3.27000578E-08
  -2.49000005E-02   3.31946843E-08
  -2.48499997E-02   3.36937838E-08
  -2.48000007E-02   3.41970541E-08
  -2.47499999E-02   3.47047369E-08
  -2.47000009E-02   3.52174432E-08
  -2.46500000E-02   3.57357131E-08
  -2.45999992E-02   3.62597383E-08
  -2.45500002E-02   3.67895190E-08
  -2.44999994E-02   3.73251510E-08
  -2.44500004E-02   3.78668830E-08
  -2.43999995E-02   3.84148855E-08
  -2.43500005E-02   3.89690662E-08
  -2.42999997E-02   3.95292687E-08
  -2.42500007E-02   4.00956388E-08
  -2.41999999E-02   4.06688088E-08
  -2.41500009E-02   4.12495673E-08
  -2.41000000E-02   4.18383905E-08
  -2.40499992E-02   4.24353139E-08
  -2.40000002E-02   4.30401883E-08
  -2.39499994E-02   4.36530918E-08
  -2.39000004E-02   4.42743939E-08
  -2.38499995E-02   4.49045352E-08
  -2.38000005E-02   4.55437998E-08
  -2.37499997E-02   4.61924117E-08
  -2.37000007E-02   4.68507544E-08
  -2.36499999E-02   4.75194213E-08
  -2.36000009E-02   4.81989275E-08
  -2.35500000E-02   4.88893761E-08
  -2.34999992E-02   4.95905255E-08
  -2.34500002E-02   5.03021766E-08
  -2.33999994E-02   5.10245712E-08
  -2.33500004E-02   5.17583629E-08
  -2.32999995E-02   5.25043014E-08
  -2.32500006E-02   5.32629194E-08
  -2.31999997E-02   5.40345440E-08
  -2.31500007E-02   5.48194627E-08
  -2.30999999E-02   5.56180346E-08
  -2.30500009E-02   5.64305225E-08
  -2.30000000E-02   5.72569547E-08
  -2.29499992E-02   5.80972248E-08
  -2.29000002E-02   5.89514393E-08
  -2.28499994E-02   5.98201524E-08
  -2.28000004E-02   6.07042594E-08
  -2.27499995E-02   6.16045455E-08
  -2.27000006E-02   6.25214014E-08
  -2.26499997E-02   6.34548840E-08
  -2.26000007E-02   6.44049578E-08
  -2.25499999E-02   6.53717720E-08
  -2.25000009E-02   6.63555468E-08
  -2.24500000E-02   6.73564529E-08
  -2.23999992E-02   6.83746251E-08
  -2.23500002E-02   6.94103193E-08
  -2.22999994E-02   7.04640968E-08
  -2.22500004E-02   7.15366468E-08
  -2.21999995E-02   7.26284384E-08
  -2.21500006E-02   7.37395141E-08
  -2.20999997E-02   7.48696252E-08
  -2.20500007E-02   7.60186794E-08
  -2.19999999E-02   7.71869111E-08
  -2.19500009E-02   7.83747325E-08
  -2.19000001E-02   7.95825059E-08
  -2.18499992E-02   8.08103309E-08
  -2.18000002E-02   8.20582002E-08
  -2.17499994E-02   8.33261353E-08
  -2.17000004E-02   8.46142072E-08
  -2.16499995E-02   8.59223377E-08
  -2.16000006E-02   8.72501360E-08
  -2.15499997E-02   8.85971900E-08
  -2.15000007E-02   8.99634145E-08
  -2.14499999E-02   9.13491647E-08
  -2.14000009E-02   9.27550090E-08
  -2.13500001E-02   9.41812388E-08
  -2.12999992E-02   9.56276693E-08
  -2.12500002E-02   9.70938103E-08
  -2.11999994E-02   9.85792425E-08
  -2.11500004E-02   1.00083675E-07
  -2.10999995E-02   1.01606823E-07
  -2.10500006E-02   1.03148253E-07
  -2.09999997E-02   1.04707489E-07
  -2.09500007E-02   1.06284411E-07
  -2.08999999E-02   1.07879295E-07
  -2.08500009E-02   1.09492404E-07
  -2.08000001E-02   1.11123576E-07
  -2.07499992E-02   1.12772071E-07
  -2.07000002E-02   1.14437036E-07
  -2.06499994E-02   1.16117889E-07
  -2.06000004E-02   1.17814409E-07
  -2.05499995E-02   1.19526433E-07
  -2.05000006E-02   1.21253620E-07
  -2.04499997E-02   1.22995559E-07
  -2.04000007E-02   1.24751935E-07
  -2.03499999E-02   1.26522679E-07
  -2.03000009E-02   1.28307605E-07
  -2.02500001E-02   1.30106088E-07
  -2.01999992E-02   1.31917147E-07
  -2.01500002E-02   1.33739846E-07
  -2.00999994E-02   1.35573799E-07
  -2.00500004E-02   1.37419008E-07
  -1.99999996E-02   1.39275457E-07
  -1.99500006E-02   1.41142749E-07
  -1.98999997E-02   1.43020131E-07
  -1.98500007E-02   1.44906949E-07
  -1.97999999E-02   1.46802776E-07
  -1.97500009E-02   1.48707201E-07
  -1.97000001E-02   1.50619542E-07
  -1.96499992E-02   1.52538917E-07
  -1.96000002E-02   1.54464715E-07
  -1.95499994E-02   1.56396879E-07
  -1.95000004E-02   1.58335624E-07
  -1.94499996E-02   1.60280706E-07
  -1.94000006E-02   1.62231274E-07
  -1.93499997E-02   1.64186076E-07
  -1.93000007E-02   1.66144062E-07
  -1.92499999E-02   1.68104719E-07
  -1.92000009E-02   1.70067693E-07
  -1.91500001E-02   1.72032486E-07
  -1.90999992E-02   1.73998600E-07
  -1.90500002E-02   1.75965710E-07
  -1.89999994E-02   1.77933913E-07
  -1.89500004E-02   1.79903239E-07
  -1.88999996E-02   1.81873190E-07
  -1.88500006E-02   1.83842687E-07
  -1.87999997E-02   1.85810450E-07
  -1.87500007E-02   1.87775669E-07
  -1.86999999E-02   1.89738145E-07
  -1.86500009E-02   1.91697850E-07
  -1.86000001E-02   1.93654529E-07
  -1.85499992E-02   1.95607612E-07
  -1.85000002E-02   1.97556588E-07
  -1.84499994E-02   1.99501130E-07
  -1.84000004E-02   2.01440969E-07
  -1.83499996E-02   2.03375578E-07
  -1.83000006E-02   2.05303976E-07
  -1.82499997E-02   2.07225355E-07
  -1.82000007E-02   2.09139614E-07
  -1.81499999E-02   2.11047123E-07
  -1.81000009E-02   2.12948137E-07
  -1.80500001E-02   2.14842274E-07
  -1.79999992E-02   2.16728637E-07
  -1.79500002E-02   2.18606431E-07
  -1.78999994E-02   2.20475215E-07
  -1.78500004E-02   2.22334734E-07
  -1.77999996E-02   2.24184689E-07
  -1.77500006E-02   2.26024582E-07
  -1.76999997E-02   2.27854201E-07
  -1.76500008E-02   2.29673716E-07
  -1.75999999E-02   2.31483483E-07
  -1.75500009E-02   2.33283401E-07
  -1.75000001E-02   2.35072633E-07
  -1.74499992E-02   2.36849942E-07
  -1.74000002E-02   2.38614547E-07
  -1.73499994E-02   2.40366404E-07
  -1.73000004E-02   2.42105841E-07
  -1.72499996E-02   2.43833142E-07
  -1.72000006E-02   2.45548136E-07
  -1.71499997E-02   2.47250739E-07
  -1.71000008E-02   2.48940950E-07
  -1.70499999E-02   2.50618768E-07
  -1.70000009E-02   2.52283684E-07
  -1.69500001E-02   2.53934729E-07
  -1.68999992E-02   2.55570853E-07
  -1.68500002E-02   2.57191743E-07
  -1.67999994E-02   2.58797883E-07
  -1.67500004E-02   2.60390038E-07
  -1.66999996E-02   2.61968466E-07
  -1.66500006E-02   2.63532741E-07
  -1.65999997E-02   2.65082207E-07
  -1.65500008E-02   2.66616496E-07
  -1.64999999E-02   2.68135551E-07
  -1.64500009E-02   2.69639088E-07
  -1.64000001E-02   2.71126538E-07
  -1.63499992E-02   2.72597418E-07
  -1.63000003E-02   2.74051956E-07
  -1.62499994E-02   2.75490834E-07
  -1.62000004E-02   2.76914477E-07
  -1.61499996E-02   2.78322347E-07
  -1.61000006E-02   2.79713163E-07
  -1.60499997E-02   2.81085903E-07
  -1.60000008E-02   2.82440396E-07
  -1.59499999E-02   2.83777041E-07
  -1.59000009E-02   2.85096093E-07
  -1.58500001E-02   2.86397494E-07
  -1.57999992E-02   2.87681104E-07
  -1.57500003E-02   2.88947149E-07
  -1.56999994E-02   2.90195857E-07
  -1.56500004E-02   2.91426886E-07
  -1.55999996E-02   2.92639044E-07
  -1.55499997E-02   2.93830794E-07
  -1.54999997E-02   2.95001513E-07
  -1.54499998E-02   2.96151512E-07
  -1.53999999E-02   2.97281616E-07
  -1.53500000E-02   2.98392308E-07
  -1.53000001E-02   2.99483162E-07
  -1.52500002E-02   3.00553438E-07
  -1.52000003E-02   3.01602711E-07
  -1.51500003E-02   3.02630582E-07
  -1.51000004E-02   3.03636369E-07
  -1.50499996E-02   3.04618879E-07
  -1.49999997E-02   3.05577174E-07
  -1.49499997E-02   3.06511225E-07
  -1.48999998E-02   3.07421942E-07
  -1.48499999E-02   3.08310092E-07
  -1.48000000E-02   3.09175334E-07
  -1.47500001E-02   3.10016333E-07
  -1.47000002E-02   3.10831666E-07
  -1.46500003E-02   3.11620397E-07
  -1.46000003E-02   3.12382127E-07
  -1.45500004E-02   3.13116487E-07
  -1.44999996E-02   3.13822824E-07
  -1.44499997E-02   3.14500625E-07
  -1.43999998E-02   3.15149975E-07
  -1.43499998E-02   3.15771302E-07
  -1.42999999E-02   3.16364378E-07
  -1.42500000E-02   3.16927867E-07
  -1.42000001E-02   3.17459893E-07
  -1.41500002E-02   3.17959092E-07
  -1.41000003E-02   3.18425236E-07
  -1.40500003E-02   3.18858810E-07
  -1.40000004E-02   3.19260010E-07
  -1.39499996E-02   3.19628413E-07
  -1.38999997E-02   3.19963220E-07
  -1.38499998E-02   3.20263808E-07
  -1.37999998E-02   3.20529409E-07
  -1.37499999E-02   3.20758886E-07
  -1.37000000E-02   3.20950392E-07
  -1.36500001E-02   3.21102334E-07
  -1.36000002E-02   3.21214173E-07
  -1.35500003E-02   3.21286620E-07
  -1.35000004E-02   3.21320755E-07
  -1.34500004E-02   3.21316804E-07
  -1.33999996E-02   3.21273689E-07
  -1.33499997E-02   3.21189731E-07
  -1.32999998E-02   3.21063595E-07
  -1.32499998E-02   3.20894173E-07
  -1.31999999E-02   3.20680329E-07
  -1.31500000E-02   3.20420838E-07
  -1.31000001E-02   3.20114822E-07
  -1.30500002E-02   3.19762364E-07
  -1.30000003E-02   3.19364233E-07
  -1.29500004E-02   3.18920883E-07
  -1.29000004E-02   3.18431546E-07
  -1.28499996E-02   3.17894262E-07
  -1.27999997E-02   3.17307126E-07
  -1.27499998E-02   3.16669144E-07
  -1.26999998E-02   3.15980145E-07
  -1.26499999E-02   3.15240015E-07
  -1.26000000E-02   3.14447988E-07
  -1.25500001E-02   3.13603124E-07
  -1.25000002E-02   3.12704685E-07
  -1.24500003E-02   3.11751904E-07
  -1.24000004E-02   3.10743530E-07
  -1.23500004E-02   3.09677404E-07
  -1.22999996E-02   3.08551364E-07
  -1.22499997E-02   3.07364417E-07
  -1.21999998E-02   3.06117386E-07
  -1.21499998E-02   3.04811948E-07
  -1.20999999E-02   3.03449156E-07
  -1.20500000E-02   3.02028894E-07
  -1.20000001E-02   3.00549857E-07
  -1.19500002E-02   2.99010452E-07
  -1.19000003E-02   2.97408775E-07
  -1.18500004E-02   2.95742382E-07
  -1.18000004E-02   2.94008174E-07
  -1.17499996E-02   2.92203424E-07
  -1.16999997E-02   2.90326824E-07
  -1.16499998E-02   2.88378601E-07
  -1.15999999E-02   2.86359125E-07
  -1.15499999E-02   2.84267855E-07
  -1.15000000E-02   2.82103400E-07
  -1.14500001E-02   2.79864310E-07
  -1.14000002E-02   2.77550186E-07
  -1.13500003E-02   2.75161540E-07
  -1.13000004E-02   2.72699026E-07
  -1.12500004E-02   2.70162843E-07
  -1.11999996E-02   2.67552849E-07
  -1.11499997E-02   2.64868845E-07
  -1.10999998E-02   2.62110120E-07
  -1.10499999E-02   2.59274401E-07
  -1.09999999E-02   2.56357595E-07
  -1.09500000E-02   2.53354784E-07
  -1.09000001E-02   2.50262161E-07
  -1.08500002E-02   2.47077963E-07
  -1.08000003E-02   2.43802077E-07
  -1.07500004E-02   2.40434929E-07
  -1.07000005E-02   2.36976817E-07
  -1.06499996E-02   2.33427940E-07
  -1.05999997E-02   2.29788540E-07
  -1.05499998E-02   2.26058333E-07
  -1.04999999E-02   2.22235897E-07
  -1.04499999E-02   2.18318874E-07
  -1.04000000E-02   2.14305004E-07
  -1.03500001E-02   2.10193193E-07
  -1.03000002E-02   2.05983426E-07
  -1.02500003E-02   2.01675562E-07
  -1.02000004E-02   1.97268420E-07
  -1.01500005E-02   1.92759714E-07
  -1.00999996E-02   1.88146856E-07
  -1.00499997E-02   1.83427559E-07
  -9.99999978E-03   1.78600047E-07
  -9.94999986E-03   1.73662727E-07
  -9.89999995E-03   1.68614420E-07
  -9.85000003E-03   1.63454658E-07
  -9.80000012E-03   1.58183596E-07
  -9.75000020E-03   1.52801135E-07
  -9.70000029E-03   1.47305741E-07
  -9.65000037E-03   1.41694201E-07
  -9.60000046E-03   1.35962551E-07
  -9.54999961E-03   1.30107367E-07
  -9.49999969E-03   1.24126629E-07
  -9.44999978E-03   1.18019543E-07
  -9.39999986E-03   1.11786008E-07
  -9.34999995E-03   1.05426231E-07
  -9.30000003E-03   9.89404469E-08
  -9.25000012E-03   9.23284489E-08
  -9.20000020E-03   8.55889013E-08
  -9.15000029E-03   7.87190544E-08
  -9.10000037E-03   7.17153483E-08
  -9.05000046E-03   6.45746496E-08
  -8.99999961E-03   5.72951286E-08
  -8.94999970E-03   4.98762240E-08
  -8.89999978E-03   4.23177973E-08
  -8.84999987E-03   3.46193048E-08
  -8.79999995E-03   2.67794160E-08
  -8.75000004E-03   1.87961415E-08
  -8.70000012E-03   1.06669154E-08
  -8.65000021E-03   2.38880027E-09
  -8.60000029E-03  -6.04107830E-09
  -8.55000038E-03  -1.46248809E-08
  -8.50000046E-03  -2.33635919E-08
  -8.44999962E-03  -3.22573754E-08
  -8.39999970E-03  -4.13065280E-08
  -8.34999979E-03  -5.05123872E-08
  -8.29999987E-03  -5.98775571E-08
  -8.24999996E-03  -6.94053313E-08
  -8.20000004E-03  -7.90989674E-08
  -8.15000013E-03  -8.89609097E-08
  -8.10000021E-03  -9.89925368E-08
  -8.05000030E-03  -1.09193998E-07
  -8.00000038E-03  -1.19564490E-07
  -7.95000046E-03  -1.30102961E-07
  -7.89999962E-03  -1.40809320E-07
  -7.84999970E-03  -1.51685185E-07
  -7.79999979E-03  -1.62733869E-07
  -7.74999987E-03  -1.73959563E-07
  -7.69999996E-03  -1.85366204E-07
  -7.65000004E-03  -1.96956492E-07
  -7.60000013E-03  -2.08731777E-07
  -7.55000021E-03  -2.20692371E-07
  -7.49999983E-03  -2.32837920E-07
  -7.44999992E-03  -2.45168309E-07
  -7.40000000E-03  -2.57684434E-07
  -7.35000009E-03  -2.70388739E-07
  -7.30000017E-03  -2.83284862E-07
  -7.24999979E-03  -2.96376385E-07
  -7.19999988E-03  -3.09666149E-07
  -7.14999996E-03  -3.23155462E-07
  -7.10000005E-03  -3.36844323E-07
  -7.05000013E-03  -3.50732421E-07
  -7.00000022E-03  -3.64819584E-07
  -6.94999984E-03  -3.79106524E-07
  -6.89999992E-03  -3.93594860E-07
  -6.85000001E-03  -4.08287150E-07
  -6.80000009E-03  -4.23186350E-07
  -6.75000018E-03  -4.38294961E-07
  -6.69999979E-03  -4.53614206E-07
  -6.64999988E-03  -4.69143885E-07
  -6.59999996E-03  -4.84883174E-07
  -6.55000005E-03  -5.00831845E-07
  -6.50000013E-03  -5.16990951E-07
  -6.45000022E-03  -5.33363163E-07
  -6.39999984E-03  -5.49951892E-07
  -6.34999992E-03  -5.66760320E-07
  -6.30000001E-03  -5.83791177E-07
  -6.25000009E-03  -6.01045770E-07
  -6.20000018E-03  -6.18524155E-07
  -6.14999980E-03  -6.36225195E-07
  -6.09999988E-03  -6.54147414E-07
  -6.04999997E-03  -6.72290582E-07
  -6.00000005E-03  -6.90656179E-07
  -5.95000014E-03  -7.09247843E-07
  -5.90000022E-03  -7.28069438E-07
  -5.84999984E-03  -7.47123977E-07
  -5.79999993E-03  -7.66413109E-07
  -5.75000001E-03  -7.85937004E-07
  -5.70000010E-03  -8.05694754E-07
  -5.65000018E-03  -8.25684708E-07
  -5.59999980E-03  -8.45905049E-07
  -5.54999989E-03  -8.66355435E-07
  -5.49999997E-03  -8.87037345E-07
  -5.45000006E-03  -9.07953677E-07
  -5.40000014E-03  -9.29107387E-07
  -5.35000023E-03  -9.50500635E-07
  -5.29999984E-03  -9.72133876E-07
  -5.24999993E-03  -9.94006200E-07
  -5.20000001E-03  -1.01611658E-06
  -5.15000010E-03  -1.03846492E-06
  -5.10000018E-03  -1.06105176E-06
  -5.04999980E-03  -1.08387849E-06
  -4.99999989E-03  -1.10694748E-06
  -4.94999997E-03  -1.13026124E-06
  -4.90000006E-03  -1.15382170E-06
  -4.85000014E-03  -1.17763022E-06
  -4.80000023E-03  -1.20168590E-06
  -4.74999985E-03  -1.22598658E-06
  -4.69999993E-03  -1.25053111E-06
  -4.65000002E-03  -1.27531916E-06
  -4.60000010E-03  -1.30035278E-06
  -4.55000019E-03  -1.32563400E-06
  -4.49999981E-03  -1.35116477E-06
  -4.44999989E-03  -1.37694587E-06
  -4.39999998E-03  -1.40297686E-06
  -4.35000006E-03  -1.42925660E-06
  -4.30000015E-03  -1.45578315E-06
  -4.25000023E-03  -1.48255367E-06
  -4.19999985E-03  -1.50956612E-06
  -4.14999994E-03  -1.53682060E-06
  -4.10000002E-03  -1.56432031E-06
  -4.05000011E-03  -1.59206934E-06
  -4.00000019E-03  -1.62007075E-06
  -3.94999981E-03  -1.64832659E-06
  -3.89999989E-03  -1.67683731E-06
  -3.84999998E-03  -1.70560270E-06
  -3.80000006E-03  -1.73462172E-06
  -3.74999992E-03  -1.76389358E-06
  -3.70000000E-03  -1.79341737E-06
  -3.65000009E-03  -1.82319309E-06
  -3.59999994E-03  -1.85322222E-06
  -3.55000002E-03  -1.88350623E-06
  -3.50000011E-03  -1.91404570E-06
  -3.44999996E-03  -1.94483960E-06
  -3.40000005E-03  -1.97588656E-06
  -3.34999990E-03  -2.00718500E-06
  -3.29999998E-03  -2.03873446E-06
  -3.25000007E-03  -2.07053608E-06
  -3.19999992E-03  -2.10259282E-06
  -3.15000000E-03  -2.13490762E-06
  -3.10000009E-03  -2.16748299E-06
  -3.04999994E-03  -2.20032098E-06
  -3.00000003E-03  -2.23342317E-06
  -2.95000011E-03  -2.26678958E-06
  -2.89999996E-03  -2.30041860E-06
  -2.85000005E-03  -2.33430887E-06
  -2.79999990E-03  -2.36845995E-06
  -2.74999999E-03  -2.40287409E-06
  -2.70000007E-03  -2.43755494E-06
  -2.64999992E-03  -2.47250546E-06
  -2.60000001E-03  -2.50772837E-06
  -2.55000009E-03  -2.54322526E-06
  -2.49999994E-03  -2.57899615E-06
  -2.45000003E-03  -2.61504147E-06
  -2.40000011E-03  -2.65136191E-06
  -2.34999997E-03  -2.68795816E-06
  -2.30000005E-03  -2.72483248E-06
  -2.24999990E-03  -2.76198830E-06
  -2.19999999E-03  -2.79942992E-06
  -2.15000007E-03  -2.83716236E-06
  -2.09999993E-03  -2.87518878E-06
  -2.05000001E-03  -2.91351034E-06
  -2.00000009E-03  -2.95212590E-06
  -1.94999995E-03  -2.99103453E-06
  -1.90000003E-03  -3.03023830E-06
  -1.85000000E-03  -3.06974130E-06
  -1.79999997E-03  -3.10954783E-06
  -1.75000005E-03  -3.14966246E-06
  -1.70000002E-03  -3.19009018E-06
  -1.64999999E-03  -3.23083782E-06
  -1.59999996E-03  -3.27191037E-06
  -1.55000004E-03  -3.31331103E-06
  -1.50000001E-03  -3.35504114E-06
  -1.44999998E-03  -3.39710255E-06
  -1.39999995E-03  -3.43949955E-06
  -1.35000004E-03  -3.48223875E-06
  -1.30000000E-03  -3.52532811E-06
  -1.24999997E-03  -3.56877490E-06
  -1.20000006E-03  -3.61258481E-06
  -1.15000003E-03  -3.65676169E-06
  -1.09999999E-03  -3.70131238E-06
  -1.04999996E-03  -3.74624119E-06
  -1.00000005E-03  -3.79155267E-06
  -9.50000016E-04  -3.83725001E-06
  -8.99999985E-04  -3.88334001E-06
  -8.50000011E-04  -3.92983338E-06
  -7.99999980E-04  -3.97674148E-06
  -7.50000007E-04  -4.02407386E-06
  -6.99999975E-04  -4.07183916E-06
  -6.50000002E-04  -4.12004238E-06
  -6.00000028E-04  -4.16868943E-06
  -5.49999997E-04  -4.21778850E-06
  -5.00000024E-04  -4.26734823E-06
  -4.49999992E-04  -4.31737908E-06
  -3.99999990E-04  -4.36789060E-06
  -3.49999988E-04  -4.41889733E-06
  -3.00000014E-04  -4.47041430E-06
  -2.50000012E-04  -4.52245558E-06
  -1.99999995E-04  -4.57503211E-06
  -1.50000007E-04  -4.62815251E-06
  -9.99999975E-05  -4.68182407E-06
  -4.99999987E-05  -4.73605633E-06
   0.00000000      -4.79086020E-06
   4.99999987E-05  -4.84625252E-06
   9.99999975E-05  -4.90224920E-06
   1.50000007E-04  -4.95886570E-06
   1.99999995E-04  -5.01611748E-06
   2.50000012E-04  -5.07402137E-06
   3.00000014E-04  -5.13259192E-06
   3.49999988E-04  -5.19184232E-06
   3.99999990E-04  -5.25178666E-06
   4.49999992E-04  -5.31243631E-06
   5.00000024E-04  -5.37380856E-06
   5.49999997E-04  -5.43592569E-06
   6.00000028E-04  -5.49880860E-06
   6.50000002E-04  -5.56248006E-06
   6.99999975E-04  -5.62695777E-06
   7.50000007E-04  -5.69225995E-06
   7.99999980E-04  -5.75840295E-06
   8.50000011E-04  -5.82540451E-06
   8.99999985E-04  -5.89328511E-06
   9.50000016E-04  -5.96206519E-06
   1.00000005E-03  -6.03176477E-06
   1.04999996E-03  -6.10240841E-06
   1.09999999E-03  -6.17402566E-06
   1.15000003E-03  -6.24664335E-06
   1.20000006E-03  -6.32028468E-06
   1.24999997E-03  -6.39496966E-06
   1.30000000E-03  -6.47071602E-06
   1.35000004E-03  -6.54754649E-06
   1.39999995E-03  -6.62548609E-06
   1.44999998E-03  -6.70456257E-06
   1.50000001E-03  -6.78480546E-06
   1.55000004E-03  -6.86624526E-06
   1.59999996E-03  -6.94891241E-06
   1.64999999E-03  -7.03283786E-06
   1.70000002E-03  -7.11804705E-06
   1.75000005E-03  -7.20456501E-06
   1.79999997E-03  -7.29241674E-06
   1.85000000E-03  -7.38162635E-06
   1.90000003E-03  -7.47222430E-06
   1.94999995E-03  -7.56424515E-06
   2.00000009E-03  -7.65772620E-06
   2.05000001E-03  -7.75270200E-06
   2.09999993E-03  -7.84920940E-06
   2.15000007E-03  -7.94727748E-06
   2.19999999E-03  -8.04693718E-06
   2.24999990E-03  -8.14821669E-06
   2.30000005E-03  -8.25114876E-06
   2.34999997E-03  -8.35576611E-06
   2.40000011E-03  -8.46210150E-06
   2.45000003E-03  -8.57019222E-06
   2.49999994E-03  -8.68008192E-06
   2.55000009E-03  -8.79181243E-06
   2.60000001E-03  -8.90541742E-06
   2.64999992E-03  -9.02093052E-06
   2.70000007E-03  -9.13838176E-06
   2.74999999E-03  -9.25780387E-06
   2.79999990E-03  -9.37923323E-06