  -3.99999991E-02   0.00000000    
  -3.99499983E-02   0.00000000    
  -3.99000011E-02   0.00000000    
  -3.98500003E-02   0.00000000    
  -3.97999994E-02  -2.67351782E-21
  -3.97499986E-02  -2.16268035E-20
  -3.97000015E-02  -9.35367823E-20
  -3.96500006E-02  -2.84326818E-19
  -3.95999998E-02  -6.75565282E-19
  -3.95499989E-02  -1.32598303E-18
  -3.95000018E-02  -2.22319782E-18
  -3.94500010E-02  -3.25801400E-18
  -3.94000001E-02  -4.25135804E-18
  -3.93499993E-02  -5.03790878E-18
  -3.92999984E-02  -5.57464022E-18
  -3.92500013E-02  -6.01739526E-18
  -3.92000005E-02  -6.71035465E-18
  -3.91499996E-02  -8.06524589E-18
  -3.90999988E-02  -1.03614480E-17
  -3.90500017E-02  -1.35532882E-17
  -3.90000008E-02  -1.71942063E-17
  -3.89500000E-02  -2.05512692E-17
  -3.88999991E-02  -2.28914674E-17
  -3.88499983E-02  -2.38162818E-17
  -3.88000011E-02  -2.34708363E-17
  -3.87500003E-02  -2.24944637E-17
  -3.86999995E-02  -2.16994058E-17
  -3.86499986E-02  -2.16022634E-17
  -3.86000015E-02  -2.20230386E-17
  -3.85500006E-02  -2.19664346E-17
  -3.84999998E-02  -1.98975070E-17
  -3.84499989E-02  -1.43472409E-17
  -3.84000018E-02  -4.59678659E-18
  -3.83500010E-02   8.90534458E-18
  -3.83000001E-02   2.46614850E-17
  -3.82499993E-02   4.08047104E-17
  -3.81999984E-02   5.60654814E-17
  -3.81500013E-02   7.05668839E-17
  -3.81000005E-02   8.60314622E-17
  -3.80499996E-02   1.05238318E-16
  -3.79999988E-02   1.30910358E-16
  -3.79500017E-02   1.64495889E-16
  -3.79000008E-02   2.05401334E-16
  -3.78500000E-02   2.51091932E-16
  -3.77999991E-02   2.98114940E-16
  -3.77499983E-02   3.43655137E-16
  -3.77000012E-02   3.86904639E-16
  -3.76500003E-02   4.29522281E-16
  -3.75999995E-02   4.74855352E-16
  -3.75499986E-02   5.26200054E-16
  -3.75000015E-02   5.84895202E-16
  -3.74500006E-02   6.49155145E-16
  -3.73999998E-02   7.14267521E-16
  -3.73499990E-02   7.74140415E-16
  -3.73000018E-02   8.23586916E-16
  -3.72500010E-02   8.60324535E-16
  -3.72000001E-02   8.85718160E-16
  -3.71499993E-02   9.03756944E-16
  -3.70999984E-02   9.18586267E-16
  -3.70500013E-02   9.31649633E-16
  -3.70000005E-02   9.39829854E-16
  -3.69499996E-02   9.35586113E-16
  -3.68999988E-02   9.09153391E-16
  -3.68500017E-02   8.51832183E-16
  -3.68000008E-02   7.58845012E-16
  -3.67500000E-02   6.30343708E-16
  -3.66999991E-02   4.70021547E-16
  -3.66499983E-02   2.81796427E-16
  -3.66000012E-02   6.60074445E-17
  -3.65500003E-02  -1.83114613E-16
  -3.64999995E-02  -4.77326253E-16
  -3.64499986E-02  -8.31423983E-16
  -3.64000015E-02  -1.25861833E-15
  -3.63500006E-02  -1.76638864E-15
  -3.62999998E-02  -2.35485641E-15
  -3.62499990E-02  -3.01869011E-15
  -3.62000018E-02  -3.75177362E-15
  -3.61500010E-02  -4.55259753E-15
  -3.61000001E-02  -5.42786421E-15
  -3.60499993E-02  -6.39255977E-15
  -3.59999985E-02  -7.46623544E-15
  -3.59500013E-02  -8.66700375E-15
  -3.59000005E-02  -1.00058342E-14
  -3.58499996E-02  -1.14838999E-14
  -3.57999988E-02  -1.30943958E-14
  -3.57500017E-02  -1.48283028E-14
  -3.57000008E-02  -1.66815245E-14
  -3.56500000E-02  -1.86599817E-14
  -3.55999991E-02  -2.07801746E-14
  -3.55499983E-02  -2.30646851E-14
  -3.55000012E-02  -2.55345383E-14
  -3.54500003E-02  -2.82018434E-14
  -3.53999995E-02  -3.10661768E-14
  -3.53499986E-02  -3.41163560E-14
  -3.53000015E-02  -3.73372089E-14
  -3.52500007E-02  -4.07182866E-14
  -3.51999998E-02  -4.42605954E-14
  -3.51499990E-02  -4.79779519E-14
  -3.51000018E-02  -5.18921149E-14
  -3.50500010E-02  -5.60234808E-14
  -3.50000001E-02  -6.03819024E-14
  -3.49499993E-02  -6.49617892E-14
  -3.48999985E-02  -6.97440695E-14
  -3.48500013E-02  -7.47042944E-14
  -3.48000005E-02  -7.98232194E-14
  -3.47499996E-02  -8.50950034E-14
  -3.46999988E-02  -9.05291264E-14
  -3.46500017E-02  -9.61448531E-14
  -3.46000008E-02  -1.01960324E-13
  -3.45500000E-02  -1.07981136E-13
  -3.44999991E-02  -1.14193811E-13
  -3.44499983E-02  -1.20567402E-13
  -3.44000012E-02  -1.27062857E-13
  -3.43500003E-02  -1.33645848E-13
  -3.42999995E-02  -1.40297415E-13
  -3.42499986E-02  -1.47016866E-13
  -3.42000015E-02  -1.53815911E-13
  -3.41500007E-02  -1.60706057E-13
  -3.40999998E-02  -1.67685500E-13
  -3.40499990E-02  -1.74730849E-13
  -3.40000018E-02  -1.81798424E-13
  -3.39500010E-02  -1.88834259E-13
  -3.39000002E-02  -1.95788982E-13
  -3.38499993E-02  -2.02630488E-13
  -3.37999985E-02  -2.09348313E-13
  -3.37500013E-02  -2.15947730E-13
  -3.37000005E-02  -2.22435731E-13
  -3.36499996E-02  -2.28805581E-13
  -3.35999988E-02  -2.35026842E-13
  -3.35500017E-02  -2.41045899E-13
  -3.35000008E-02  -2.46797049E-13
  -3.34500000E-02  -2.52218277E-13
  -3.33999991E-02  -2.57265617E-13
  -3.33499983E-02  -2.61918552E-13
  -3.33000012E-02  -2.66174290E-13
  -3.32500003E-02  -2.70032992E-13
  -3.31999995E-02  -2.73481514E-13
  -3.31499986E-02  -2.76482423E-13
  -3.31000015E-02  -2.78974868E-13
  -3.30500007E-02  -2.80886317E-13
  -3.29999998E-02  -2.82150415E-13
  -3.29499990E-02  -2.82722359E-13
  -3.29000019E-02  -2.82584638E-13
  -3.28500010E-02  -2.81740451E-13
  -3.28000002E-02  -2.80197333E-13
  -3.27499993E-02  -2.77949782E-13
  -3.26999985E-02  -2.74967901E-13
  -3.26500013E-02  -2.71198347E-13
  -3.26000005E-02  -2.66577315E-13
  -3.25499997E-02  -2.61048995E-13
  -3.24999988E-02  -2.54581322E-13
  -3.24500017E-02  -2.47170990E-13
  -3.24000008E-02  -2.38834343E-13
  -3.23500000E-02  -2.29589405E-13
  -3.22999991E-02  -2.19436069E-13
  -3.22499983E-02  -2.08345358E-13
  -3.22000012E-02  -1.96262413E-13
  -3.21500003E-02  -1.83122533E-13
  -3.20999995E-02  -1.68872986E-13
  -3.20499986E-02  -1.53490054E-13
  -3.20000015E-02  -1.36983971E-13
  -3.19500007E-02  -1.19388494E-13
  -3.18999998E-02  -1.00740705E-13
  -3.18499990E-02  -8.10609582E-14
  -3.18000019E-02  -6.03427085E-14
  -3.17500010E-02  -3.85583662E-14
  -3.17000002E-02  -1.56785951E-14
  -3.16499993E-02   8.30318531E-15
  -3.15999985E-02   3.33535079E-14
  -3.15500014E-02   5.93971893E-14
  -3.15000005E-02   8.63326473E-14
  -3.14499997E-02   1.14057174E-13
  -3.13999988E-02   1.42489983E-13
  -3.13500017E-02   1.71581513E-13
  -3.13000008E-02   2.01303411E-13
  -3.12500000E-02   2.31623911E-13
  -3.11999992E-02   2.62480169E-13
  -3.11500002E-02   2.93761895E-13
  -3.10999993E-02   3.25315702E-13
  -3.10500003E-02   3.56970367E-13
  -3.09999995E-02   3.88572746E-13
  -3.09500005E-02   4.20018268E-13
  -3.08999997E-02   4.51261099E-13
  -3.08500007E-02   4.82298554E-13
  -3.07999998E-02   5.13136192E-13
  -3.07500008E-02   5.43750537E-13
  -3.07000000E-02   5.74067053E-13
  -3.06499992E-02   6.03967017E-13
  -3.06000002E-02   6.33321087E-13
  -3.05499993E-02   6.62036398E-13
  -3.05000003E-02   6.90095388E-13
  -3.04499995E-02   7.17566035E-13
  -3.04000005E-02   7.44578336E-13
  -3.03499997E-02   7.71272586E-13
  -3.03000007E-02   7.97743544E-13
  -3.02499998E-02   8.24003734E-13
  -3.02000009E-02   8.49985230E-13
  -3.01500000E-02   8.75577063E-13
  -3.00999992E-02   9.00683011E-13
  -3.00500002E-02   9.25269193E-13
  -2.99999993E-02   9.49376862E-13
  -2.99500003E-02   9.73088038E-13
  -2.98999995E-02   9.96456173E-13
  -2.98500005E-02   1.01942922E-12
  -2.97999997E-02   1.04179848E-12
  -2.97500007E-02   1.06319716E-12
  -2.96999998E-02   1.08315234E-12
  -2.96500009E-02   1.10116798E-12
  -2.96000000E-02   1.11679990E-12
  -2.95499992E-02   1.12968966E-12
  -2.95000002E-02   1.13953725E-12
  -2.94499993E-02   1.14602208E-12
  -2.94000003E-02   1.14870927E-12
  -2.93499995E-02   1.14698528E-12
  -2.93000005E-02   1.14005994E-12
  -2.92499997E-02   1.12703987E-12
  -2.92000007E-02   1.10704913E-12
  -2.91499998E-02   1.07935037E-12
  -2.91000009E-02   1.04341535E-12
  -2.90500000E-02   9.98913083E-13
  -2.89999992E-02   9.45628124E-13
  -2.89500002E-02   8.83338975E-13
  -2.88999993E-02   8.11726175E-13
  -2.88500004E-02   7.30354145E-13
  -2.87999995E-02   6.38747844E-13
  -2.87500005E-02   5.36539834E-13
  -2.86999997E-02   4.23627957E-13
  -2.86500007E-02   3.00278167E-13
  -2.85999998E-02   1.67123043E-13
  -2.85500009E-02   2.50558648E-14
  -2.85000000E-02  -1.24936438E-13
  -2.84499992E-02  -2.81930946E-13
  -2.84000002E-02  -4.45140805E-13
  -2.83499993E-02  -6.13871421E-13
  -2.83000004E-02  -7.87373693E-13
  -2.82499995E-02  -9.64662703E-13
  -2.82000005E-02  -1.14438970E-12
  -2.81499997E-02  -1.32483412E-12
  -2.81000007E-02  -1.50403431E-12
  -2.80499998E-02  -1.68001160E-12
  -2.80000009E-02  -1.85100286E-12
  -2.79500000E-02  -2.01560144E-12
  -2.78999992E-02  -2.17275026E-12
  -2.78500002E-02  -2.32159279E-12
  -2.77999993E-02  -2.46125104E-12
  -2.77500004E-02  -2.59063842E-12
  -2.76999995E-02  -2.70840685E-12
  -2.76500005E-02  -2.81306597E-12
  -2.75999997E-02  -2.90323776E-12
  -2.75500007E-02  -2.97794667E-12
  -2.74999999E-02  -3.03682318E-12
  -2.74500009E-02  -3.08012426E-12
  -2.74000000E-02  -3.10855985E-12
  -2.73499992E-02  -3.12299817E-12
  -2.73000002E-02  -3.12417626E-12
  -2.72499993E-02  -3.11254820E-12
  -2.72000004E-02  -3.08834338E-12
  -2.71499995E-02  -3.05181640E-12
  -2.71000005E-02  -3.00357439E-12
  -2.70499997E-02  -2.94484164E-12
  -2.70000007E-02  -2.87751680E-12
  -2.69499999E-02  -2.80399141E-12
  -2.69000009E-02  -2.72678473E-12
  -2.68500000E-02  -2.64813952E-12
  -2.67999992E-02  -2.56976059E-12
  -2.67500002E-02  -2.49279980E-12
  -2.66999993E-02  -2.41809979E-12
  -2.66500004E-02  -2.34658256E-12
  -2.65999995E-02  -2.27960988E-12
  -2.65500005E-02  -2.21913525E-12
  -2.64999997E-02  -2.16756214E-12
  -2.64500007E-02  -2.12735060E-12
  -2.63999999E-02  -2.10053437E-12
  -2.63500009E-02  -2.08835163E-12
  -2.63000000E-02  -2.09115602E-12
  -2.62499992E-02  -2.10865678E-12
  -2.62000002E-02  -2.14038227E-12
  -2.61499994E-02  -2.18616119E-12
  -2.61000004E-02  -2.24640272E-12
  -2.60499995E-02  -2.32203102E-12
  -2.60000005E-02  -2.41409583E-12
  -2.59499997E-02  -2.52320517E-12
  -2.59000007E-02  -2.64904635E-12
  -2.58499999E-02  -2.79020578E-12
  -2.58000009E-02  -2.94438410E-12
  -2.57500000E-02  -3.10893043E-12
  -2.56999992E-02  -3.28146494E-12
  -2.56500002E-02  -3.46032144E-12
  -2.55999994E-02  -3.64460285E-12
  -2.55500004E-02  -3.83381564E-12
  -2.54999995E-02  -4.02724685E-12
  -2.54500005E-02  -4.22335908E-12
  -2.53999997E-02  -4.41949645E-12
  -2.53500007E-02  -4.61204989E-12
  -2.52999999E-02  -4.79704210E-12
  -2.52500009E-02  -4.97089305E-12
  -2.52000000E-02  -5.13104012E-12
  -2.51499992E-02  -5.27612806E-12
  -2.51000002E-02  -5.40569456E-12
  -2.50499994E-02  -5.51947767E-12
  -2.50000004E-02  -5.61665254E-12
  -2.49499995E-02  -5.69536519E-12
  -2.49000005E-02  -5.75277803E-12
  -2.48499997E-02  -5.78564844E-12
  -2.48000007E-02  -5.79118611E-12
  -2.47499999E-02  -5.76783239E-12
  -2.47000009E-02  -5.71559336E-12
  -2.46500000E-02  -5.63577266E-12
  -2.45999992E-02  -5.53019739E-12
  -2.45500002E-02  -5.40028829E-12
  -2.44999994E-02  -5.24637191E-12
  -2.44500004E-02  -5.06757527E-12
  -2.43999995E-02  -4.86234620E-12
  -2.43500005E-02  -4.62940450E-12
  -2.42999997E-02  -4.36867990E-12
  -2.42500007E-02  -4.08181952E-12
  -2.41999999E-02  -3.77200398E-12
  -2.41500009E-02  -3.44312643E-12
  -2.41000000E-02  -3.09868949E-12
  -2.40499992E-02  -2.74089518E-12
  -2.40000002E-02  -2.37034632E-12
  -2.39499994E-02  -1.98650623E-12
  -2.39000004E-02  -1.58871809E-12
  -2.38499995E-02  -1.17733817E-12
  -2.38000005E-02  -7.54452273E-13
  -2.37499997E-02  -3.23829668E-13
  -2.37000007E-02   1.09897964E-13
  -2.36499999E-02   5.42486141E-13
  -2.36000009E-02   9.71212585E-13
  -2.35500000E-02   1.39537795E-12
  -2.34999992E-02   1.81593380E-12
  -2.34500002E-02   2.23437458E-12
  -2.33999994E-02   2.65139018E-12
  -2.33500004E-02   3.06589064E-12
  -2.32999995E-02   3.47485148E-12
  -2.32500006E-02   3.87409115E-12
  -2.31999997E-02   4.25964776E-12
  -2.31500007E-02   4.62914602E-12
  -2.30999999E-02   4.98253435E-12
  -2.30500009E-02   5.32183238E-12
  -2.30000000E-02   5.64997832E-12
  -2.29499992E-02   5.96926545E-12
  -2.29000002E-02   6.28007498E-12
  -2.28499994E-02   6.58048876E-12
  -2.28000004E-02   6.86698051E-12
  -2.27499995E-02   7.13590081E-12
  -2.27000006E-02   7.38510034E-12
  -2.26499997E-02   7.61494687E-12
  -2.26000007E-02   7.82824673E-12
  -2.25499999E-02   8.02909302E-12
  -2.25000009E-02   8.22109655E-12
  -2.24500000E-02   8.40582898E-12
  -2.23999992E-02   8.58215495E-12
  -2.23500002E-02   8.74681664E-12
  -2.22999994E-02   8.89601760E-12
  -2.22500004E-02   9.02731535E-12
  -2.21999995E-02   9.14096923E-12
  -2.21500006E-02   9.24010694E-12
  -2.20999997E-02   9.32959699E-12
  -2.20500007E-02   9.41410665E-12
  -2.19999999E-02   9.49620937E-12
  -2.19500009E-02   9.57540644E-12
  -2.19000001E-02   9.64853891E-12
  -2.18499992E-02   9.71143478E-12
  -2.18000002E-02   9.76108604E-12
  -2.17499994E-02   9.79737038E-12
  -2.17000004E-02   9.82351787E-12
  -2.16499995E-02   9.84507267E-12
  -2.16000006E-02   9.86777673E-12
  -2.15499997E-02   9.89531374E-12
  -2.15000007E-02   9.92792740E-12
  -2.14499999E-02   9.96257330E-12
  -2.14000009E-02   9.99457201E-12
  -2.13500001E-02   1.00200412E-11
  -2.12999992E-02   1.00380286E-11
  -2.12500002E-02   1.00513400E-11
  -2.11999994E-02   1.00656644E-11
  -2.11500004E-02   1.00873303E-11
  -2.10999995E-02   1.01206560E-11
  -2.10500006E-02   1.01661232E-11
  -2.09999997E-02   1.02201771E-11
  -2.09500007E-02   1.02768193E-11
  -2.08999999E-02   1.03302913E-11
  -2.08500009E-02   1.03776631E-11
  -2.08000001E-02   1.04201535E-11
  -2.07499992E-02   1.04625275E-11
  -2.07000002E-02   1.05107971E-11
  -2.06499994E-02   1.05692443E-11
  -2.06000004E-02   1.06380764E-11
  -2.05499995E-02   1.07128030E-11
  -2.05000006E-02   1.07856736E-11
  -2.04499997E-02   1.08485694E-11
  -2.04000007E-02   1.08960931E-11
  -2.03499999E-02   1.09274456E-11
  -2.03000009E-02   1.09462179E-11
  -2.02500001E-02   1.09581537E-11
  -2.01999992E-02   1.09678291E-11
  -2.01500002E-02   1.09757438E-11
  -2.00999994E-02   1.09771506E-11
  -2.00500004E-02   1.09632199E-11
  -1.99999996E-02   1.09240516E-11
  -1.99500006E-02   1.08522523E-11
  -1.98999997E-02   1.07454766E-11
  -1.98500007E-02   1.06067741E-11
  -1.97999999E-02   1.04425054E-11
  -1.97500009E-02   1.02587765E-11
  -1.97000001E-02   1.00579094E-11
  -1.96499992E-02   9.83658641E-12
  -1.96000002E-02   9.58654250E-12
  -1.95499994E-02   9.29755231E-12
  -1.95000004E-02   8.96143923E-12
  -1.94499996E-02   8.57533836E-12
  -1.94000006E-02   8.14271046E-12
  -1.93499997E-02   7.67163850E-12
  -1.93000007E-02   7.17107840E-12
  -1.92499999E-02   6.64673568E-12
  -1.92000009E-02   6.09835923E-12
  -1.91500001E-02   5.51976954E-12
  -1.90999992E-02   4.90160300E-12
  -1.90500002E-02   4.23563875E-12
  -1.89999994E-02   3.51879094E-12
  -1.89500004E-02   2.75498092E-12
  -1.88999996E-02   1.95397388E-12
  -1.88500006E-02   1.12767846E-12
  -1.87999997E-02   2.85459997E-13
  -1.87500007E-02  -5.69442388E-13
  -1.86999999E-02  -1.44078315E-12
  -1.86500009E-02  -2.33702033E-12
  -1.86000001E-02  -3.26684231E-12
  -1.85499992E-02  -4.23445220E-12
  -1.85000002E-02  -5.23671774E-12
  -1.84499994E-02  -6.26351748E-12
  -1.84000004E-02  -7.30115881E-12
  -1.83499996E-02  -8.33747307E-12
  -1.83000006E-02  -9.36632022E-12
  -1.82499997E-02  -1.03895165E-11
  -1.82000007E-02  -1.14153097E-11
  -1.81499999E-02  -1.24539719E-11
  -1.81000009E-02  -1.35124776E-11
  -1.80500001E-02  -1.45905562E-11
  -1.79999992E-02  -1.56799539E-11
  -1.79500002E-02  -1.67672230E-11
  -1.78999994E-02  -1.78389629E-11
  -1.78500004E-02  -1.88871783E-11
  -1.77999996E-02  -1.99124016E-11
  -1.77500006E-02  -2.09231989E-11
  -1.76999997E-02  -2.19321714E-11
  -1.76500008E-02  -2.29501626E-11
  -1.75999999E-02  -2.39811799E-11
  -1.75500009E-02  -2.50202966E-11
  -1.75000001E-02  -2.60554581E-11
  -1.74499992E-02  -2.70724901E-11
  -1.74000002E-02  -2.80611558E-11
  -1.73499994E-02  -2.90195975E-11
  -1.73000004E-02  -2.99551980E-11
  -1.72499996E-02  -3.08813981E-11
  -1.72000006E-02  -3.18118379E-11
  -1.71499997E-02  -3.27542576E-11
  -1.71000008E-02  -3.37068880E-11
  -1.70499999E-02  -3.46588765E-11
  -1.70000009E-02  -3.55946973E-11
  -1.69500001E-02  -3.65005734E-11
  -1.68999992E-02  -3.73702423E-11
  -1.68500002E-02  -3.82074372E-11
  -1.67999994E-02  -3.90239924E-11
  -1.67500004E-02  -3.98343372E-11
  -1.66999996E-02  -4.06486372E-11
  -1.66500006E-02  -4.14676418E-11
  -1.65999997E-02  -4.22813937E-11
  -1.65500008E-02  -4.30725108E-11
  -1.64999999E-02  -4.38226885E-11
  -1.64500009E-02  -4.45195547E-11
  -1.64000001E-02  -4.51610624E-11
  -1.63499992E-02  -4.57553440E-11
  -1.63000003E-02  -4.63161072E-11
  -1.62499994E-02  -4.68554952E-11
  -1.62000004E-02  -4.73773971E-11
  -1.61499996E-02  -4.78741838E-11
  -1.61000006E-02  -4.83283552E-11
  -1.60499997E-02  -4.87184702E-11
  -1.60000008E-02  -4.90268416E-11
  -1.59499999E-02  -4.92458054E-11
  -1.59000009E-02  -4.93797191E-11
  -1.58500001E-02  -4.94419644E-11
  -1.57999992E-02  -4.94478972E-11
  -1.57500003E-02  -4.94069473E-11
  -1.56999994E-02  -4.93171649E-11
  -1.56500004E-02  -4.91646029E-11
  -1.55999996E-02  -4.89280144E-11
  -1.55499997E-02  -4.85868464E-11
  -1.54999997E-02  -4.81292194E-11
  -1.54499998E-02  -4.75564241E-11
  -1.53999999E-02  -4.68820399E-11
  -1.53500000E-02  -4.61258289E-11
  -1.53000001E-02  -4.53050028E-11
  -1.52500002E-02  -4.44265631E-11
  -1.52000003E-02  -4.34840601E-11
  -1.51500003E-02  -4.24602124E-11
  -1.51000004E-02  -4.13344532E-11
  -1.50499996E-02  -4.00922663E-11
  -1.49999997E-02  -3.87323021E-11
  -1.49499997E-02  -3.72682302E-11
  -1.48999998E-02  -3.57242916E-11
  -1.48499999E-02  -3.41264725E-11
  -1.48000000E-02  -3.24927620E-11
  -1.47500001E-02  -3.08269001E-11
  -1.47000002E-02  -2.91181940E-11
  -1.46500003E-02  -2.73476745E-11
  -1.46000003E-02  -2.54981296E-11
  -1.45500004E-02  -2.35637256E-11
  -1.44999996E-02  -2.15550321E-11
  -1.44499997E-02  -1.94971522E-11
  -1.43999998E-02  -1.74215607E-11
  -1.43499998E-02  -1.53549760E-11
  -1.42999999E-02  -1.33099625E-11
  -1.42500000E-02  -1.12813231E-11
  -1.42000001E-02  -9.25006165E-12
  -1.41500002E-02  -7.19333404E-12
  -1.41000003E-02  -5.09628277E-12
  -1.40500003E-02  -2.96068400E-12
  -1.40000004E-02  -8.06550085E-13
  -1.39499996E-02   1.33420000E-12
  -1.38999997E-02   3.42949345E-12
  -1.38499998E-02   5.45942284E-12
  -1.37999998E-02   7.42372049E-12
  -1.37499999E-02   9.34109040E-12
  -1.37000000E-02   1.12403715E-11
  -1.36500001E-02   1.31471795E-11
  -1.36000002E-02   1.50716037E-11
  -1.35500003E-02   1.70024567E-11
  -1.35000004E-02   1.89106161E-11
  -1.34500004E-02   2.07604212E-11
  -1.33999996E-02   2.25243366E-11
  -1.33499997E-02   2.41946498E-11
  -1.32999998E-02   2.57869837E-11
  -1.32499998E-02   2.73338539E-11
  -1.31999999E-02   2.88707443E-11
  -1.31500000E-02   3.04205237E-11
  -1.31000001E-02   3.19829128E-11
  -1.30500002E-02   3.35337730E-11
  -1.30000003E-02   3.50347876E-11
  -1.29500004E-02   3.64496558E-11
  -1.29000004E-02   3.77599098E-11
  -1.28499996E-02   3.89734044E-11
  -1.27999997E-02   4.01216282E-11
  -1.27499998E-02   4.12465027E-11
  -1.26999998E-02   4.23822401E-11
  -1.26499999E-02   4.35399494E-11
  -1.26000000E-02   4.47018325E-11
  -1.25500001E-02   4.58278103E-11
  -1.25000002E-02   4.68720479E-11
  -1.24500003E-02   4.78024391E-11
  -1.24000004E-02   4.86145985E-11
  -1.23500004E-02   4.93340542E-11
  -1.22999996E-02   5.00052777E-11
  -1.22499997E-02   5.06720083E-11
  -1.21999998E-02   5.13571824E-11
  -1.21499998E-02   5.20512904E-11
  -1.20999999E-02   5.27145133E-11
  -1.20500000E-02   5.32922179E-11
  -1.20000001E-02   5.37373201E-11
  -1.19500002E-02   5.40300304E-11
  -1.19000003E-02   5.41862111E-11
  -1.18500004E-02   5.42503507E-11
  -1.18000004E-02   5.42758338E-11
  -1.17499996E-02   5.43008000E-11
  -1.16999997E-02   5.43300856E-11
  -1.16499998E-02   5.43314248E-11
  -1.15999999E-02   5.42478944E-11
  -1.15499999E-02   5.40217385E-11
  -1.15000000E-02   5.36193173E-11
  -1.14500001E-02   5.30462237E-11
  -1.14000002E-02   5.23457493E-11
  -1.13500003E-02   5.15807778E-11
  -1.13000004E-02   5.08066922E-11
  -1.12500004E-02   5.00469804E-11
  -1.11999996E-02   4.92823317E-11
  -1.11499997E-02   4.84585115E-11
  -1.10999998E-02   4.75099994E-11
  -1.10499999E-02   4.63893542E-11
  -1.09999999E-02   4.50896646E-11
  -1.09500000E-02   4.36499031E-11
  -1.09000001E-02   4.21403051E-11
  -1.08500002E-02   4.06337880E-11
  -1.08000003E-02   3.91755309E-11
  -1.07500004E-02   3.77641321E-11
  -1.07000005E-02   3.63528686E-11
  -1.06499996E-02   3.48711164E-11
  -1.05999997E-02   3.32568834E-11
  -1.05499998E-02   3.14863934E-11
  -1.04999999E-02   2.95876483E-11
  -1.04499999E-02   2.76314232E-11
  -1.04000000E-02   2.57032139E-11
  -1.03500001E-02   2.38679614E-11
  -1.03000002E-02   2.21428501E-11
  -1.02500003E-02   2.04905953E-11
  -1.02000004E-02   1.88364133E-11
  -1.01500005E-02   1.71019032E-11
  -1.00999996E-02   1.52412180E-11
  -1.00499997E-02   1.32635760E-11
  -9.99999978E-03   1.12319286E-11
  -9.94999986E-03   9.23765751E-12
  -9.89999995E-03   7.36212480E-12
  -9.85000003E-03   5.64164037E-12
  -9.80000012E-03   4.05141242E-12
  -9.75000020E-03   2.51617477E-12
  -9.70000029E-03   9.43196476E-13
  -9.65000037E-03  -7.36203199E-13
  -9.60000046E-03  -2.53495966E-12
  -9.54999961E-03  -4.40253780E-12
  -9.49999969E-03  -6.24513722E-12
  -9.44999978E-03  -7.96556657E-12
  -9.39999986E-03  -9.50553265E-12
  -9.34999995E-03  -1.08718095E-11
  -9.30000003E-03  -1.21342944E-11
  -9.25000012E-03  -1.33961774E-11
  -9.20000020E-03  -1.47489937E-11
  -9.15000029E-03  -1.62319203E-11
  -9.10000037E-03  -1.78135371E-11
  -9.05000046E-03  -1.94045249E-11
  -8.99999961E-03  -2.08962344E-11
  -8.94999970E-03  -2.22086776E-11
  -8.89999978E-03  -2.33267971E-11
  -8.84999987E-03  -2.43087113E-11
  -8.79999995E-03  -2.52616851E-11
  -8.75000004E-03  -2.62958336E-11
  -8.70000012E-03  -2.74754733E-11
  -8.65000021E-03  -2.87897050E-11
  -8.60000029E-03  -3.01555378E-11
  -8.55000038E-03  -3.14527744E-11
  -8.50000046E-03  -3.25758830E-11
  -8.44999962E-03  -3.34801874E-11
  -8.39999970E-03  -3.42019087E-11
  -8.34999979E-03  -3.48426878E-11
  -8.29999987E-03  -3.55248435E-11
  -8.24999996E-03  -3.63366871E-11
  -8.20000004E-03  -3.72919161E-11
  -8.15000013E-03  -3.83213773E-11
  -8.10000021E-03  -3.93013989E-11
  -8.05000030E-03  -4.01068484E-11
  -8.00000038E-03  -4.06657555E-11
  -7.95000046E-03  -4.09914810E-11
  -7.89999962E-03  -4.11775267E-11
  -7.84999970E-03  -4.13567409E-11
  -7.79999979E-03  -4.16423909E-11
  -7.74999987E-03  -4.20767240E-11
  -7.69999996E-03  -4.26100717E-11
  -7.65000004E-03  -4.31201463E-11
  -7.60000013E-03  -4.34636285E-11
  -7.55000021E-03  -4.35379267E-11
  -7.49999983E-03  -4.33256694E-11
  -7.44999992E-03  -4.29021749E-11
  -7.40000000E-03  -4.24018390E-11
  -7.35000009E-03  -4.19577914E-11
  -7.30000017E-03  -4.16410864E-11
  -7.24999979E-03  -4.14264179E-11
  -7.19999988E-03  -4.11999879E-11
  -7.14999996E-03  -4.08067156E-11
  -7.10000005E-03  -4.01163894E-11
  -7.05000013E-03  -3.90799962E-11
  -7.00000022E-03  -3.77507400E-11
  -6.94999984E-03  -3.62602517E-11
  -6.89999992E-03  -3.47595182E-11
  -6.85000001E-03  -3.33505758E-11
  -6.80000009E-03  -3.20386599E-11
  -6.75000018E-03  -3.07267718E-11
  -6.69999979E-03  -2.92551712E-11
  -6.64999988E-03  -2.74694781E-11
  -6.59999996E-03  -2.52871109E-11
  -6.55000005E-03  -2.27326630E-11
  -6.50000013E-03  -1.99262898E-11
  -6.45000022E-03  -1.70291854E-11
  -6.39999984E-03  -1.41700002E-11
  -6.34999992E-03  -1.13846328E-11
  -6.30000001E-03  -8.59613596E-12
  -6.25000009E-03  -5.64423291E-12
  -6.20000018E-03  -2.35228677E-12
  -6.14999980E-03   1.39778683E-12
  -6.09999988E-03   5.61543086E-12
  -6.04999997E-03   1.01991878E-11
  -6.00000005E-03   1.49835803E-11
  -5.95000014E-03   1.98149362E-11
  -5.90000022E-03   2.46231369E-11
  -5.84999984E-03   2.94569057E-11
  -5.79999993E-03   3.44668738E-11
  -5.75000001E-03   3.98429345E-11
  -5.70000010E-03   4.57333130E-11
  -5.65000018E-03   5.21809436E-11
  -5.59999980E-03   5.91056717E-11
  -5.54999989E-03   6.63410576E-11
  -5.49999997E-03   7.37097536E-11
  -5.45000006E-03   8.11048798E-11
  -5.40000014E-03   8.85408483E-11
  -5.35000023E-03   9.61510593E-11
  -5.29999984E-03   1.04132716E-10
  -5.24999993E-03   1.12662206E-10
  -5.20000001E-03   1.21818972E-10
  -5.15000010E-03   1.31551312E-10
  -5.10000018E-03   1.41699888E-10
  -5.04999980E-03   1.52069635E-10
  -4.99999989E-03   1.62517846E-10
  -4.94999997E-03   1.73020070E-10
  -4.90000006E-03   1.83683707E-10
  -4.85000014E-03   1.94703198E-10
  -4.80000023E-03   2.06274886E-10
  -4.74999985E-03   2.18510390E-10
  -4.69999993E-03   2.31385813E-10
  -4.65000002E-03   2.44750775E-10
  -4.60000010E-03   2.58393001E-10
  -4.55000019E-03   2.72131595E-10
  -4.49999981E-03   2.85896723E-10
  -4.44999989E-03   2.99760439E-10
  -4.39999998E-03   3.13904569E-10
  -4.35000006E-03   3.28538724E-10
  -4.30000015E-03   3.43804735E-10
  -4.25000023E-03   3.59709901E-10
  -4.19999985E-03   3.76119330E-10
  -4.14999994E-03   3.92811228E-10
  -4.10000002E-03   4.09571932E-10
  -4.05000011E-03   4.26287672E-10
  -4.00000019E-03   4.42992948E-10
  -3.94999981E-03   4.59853905E-10
  -3.89999989E-03   4.77091255E-10
  -3.84999998E-03   4.94878694E-10
  -3.80000006E-03   5.13260601E-10
  -3.74999992E-03   5.32125899E-10
  -3.70000000E-03   5.51251156E-10
  -3.65000009E-03   5.70394010E-10
  -3.59999994E-03   5.89395699E-10
  -3.55000002E-03   6.08247286E-10
  -3.50000011E-03   6.27089825E-10
  -3.44999996E-03   6.46146858E-10
  -3.40000005E-03   6.65618838E-10
  -3.34999990E-03   6.85586921E-10
  -3.29999998E-03   7.05968173E-10
  -3.25000007E-03   7.26544047E-10
  -3.19999992E-03   7.47049311E-10
  -3.15000000E-03   7.67282959E-10
  -3.10000009E-03   7.87191978E-10
  -3.04999994E-03   8.06889833E-10
  -3.00000003E-03   8.26600677E-10
  -2.95000011E-03   8.46553327E-10
  -2.89999996E-03   8.66871852E-10
  -2.85000005E-03   8.87511509E-10
  -2.79999990E-03   9.08269737E-10
  -2.74999999E-03   9.28867705E-10
  -2.70000007E-03   9.49067380E-10
  -2.64999992E-03   9.68771285E-10
  -2.60000001E-03   9.88061299E-10
  -2.55000009E-03   1.00715747E-09
  -2.49999994E-03   1.02631381E-09
  -2.45000003E-03   1.04569831E-09
  -2.40000011E-03   1.06530962E-09
  -2.34999997E-03   1.08496812E-09
  -2.30000005E-03   1.10438703E-09
  -2.24999990E-03   1.12329313E-09
  -2.19999999E-03   1.14154131E-09
  -2.15000007E-03   1.15917531E-09
  -2.09999993E-03   1.17640320E-09
  -2.05000001E-03   1.19349930E-09
  -2.00000009E-03   1.21067534E-09
  -1.94999995E-03   1.22797716E-09
  -1.90000003E-03   1.24525545E-09
  -1.85000000E-03   1.26222321E-09
  -1.79999997E-03   1.27857480E-09
  -1.75000005E-03   1.29411726E-09
  -1.70000002E-03   1.30885169E-09
  -1.64999999E-03   1.32296873E-09
  -1.59999996E-03   1.33676048E-09
  -1.55000004E-03   1.35048472E-09
  -1.50000001E-03   1.36424294E-09
  -1.44999998E-03   1.37792677E-09
  -1.39999995E-03   1.39125800E-09
  -1.35000004E-03   1.40390521E-09
  -1.30000000E-03   1.41562584E-09
  -1.24999997E-03   1.42637124E-09
  -1.20000006E-03   1.43630385E-09
  -1.15000003E-03   1.44572343E-09
  -1.09999999E-03   1.45492685E-09
  -1.04999996E-03   1.46406975E-09
  -1.00000005E-03   1.47308665E-09
  -9.50000016E-04   1.48171142E-09
  -8.99999985E-04   1.48958623E-09
  -8.50000011E-04   1.49641377E-09
  -7.99999980E-04   1.50208412E-09
  -7.50000007E-04   1.50672008E-09
  -6.99999975E-04   1.51061741E-09
  -6.50000002E-04   1.51410784E-09
  -6.00000028E-04   1.51740287E-09
  -5.49999997E-04   1.52048751E-09
  -5.00000024E-04   1.52311652E-09
  -4.49999992E-04   1.52491109E-09
  -3.99999990E-04   1.52551805E-09
  -3.49999988E-04   1.52475865E-09
  -3.00000014E-04   1.52270330E-09
  -2.50000012E-04   1.51963153E-09
  -1.99999995E-04   1.51590118E-09
  -1.50000007E-04   1.51177748E-09
  -9.99999975E-05   1.50730028E-09
  -4.99999987E-05   1.50224977E-09
   0.00000000       1.49622947E-09
   4.99999987E-05   1.48882517E-09
   9.99999975E-05   1.47977763E-09
   1.50000007E-04   1.46908519E-09
   1.99999995E-04   1.45699419E-09
   2.50000012E-04   1.44387569E-09
   3.00000014E-04   1.43004342E-09
   3.49999988E-04   1.41559475E-09
   3.99999990E-04   1.40034329E-09
   4.49999992E-04   1.38387823E-09
   5.00000024E-04   1.36572398E-09
   5.49999997E-04   1.34552969E-09
   6.00000028E-04   1.32320821E-09
   6.50000002E-04   1.29895539E-09
   6.99999975E-04   1.27314359E-09
   7.50000007E-04   1.24613408E-09
   7.99999980E-04   1.21808863E-09
   8.50000011E-04   1.18886945E-09
   8.99999985E-04   1.15806653E-09
   9.50000016E-04   1.12515031E-09
   1.00000005E-03   1.08967768E-09
   1.04999996E-03   1.05146314E-09
   1.09999999E-03   1.01063413E-09
   1.15000003E-03   9.67548930E-10
   1.20000006E-03   9.22605881E-10
   1.24999997E-03   8.76031692E-10
   1.30000000E-03   8.27740154E-10
   1.35000004E-03   7.77328368E-10
   1.39999995E-03   7.24212079E-10
   1.44999998E-03   6.67844724E-10
   1.50000001E-03   6.07922435E-10
   1.55000004E-03   5.44481682E-10
   1.59999996E-03   4.77844375E-10
   1.64999999E-03   4.08438311E-10
   1.70000002E-03   3.36557199E-10
   1.75000005E-03   2.62185718E-10
   1.79999997E-03   1.84948432E-10
   1.85000000E-03   1.04224560E-10
   1.90000003E-03   1.93711002E-11
   1.94999995E-03  -7.00451780E-11
   2.00000009E-03  -1.64097208E-10
   2.05000001E-03  -2.62515482E-10
   2.09999993E-03  -3.64860003E-10
   2.15000007E-03  -4.70768924E-10
   2.19999999E-03  -5.80178072E-10
   2.24999990E-03  -6.93423319E-10
   2.30000005E-03  -8.11153866E-10
   2.34999997E-03  -9.34116784E-10
   2.40000011E-03  -1.06288578E-09
   2.45000003E-03  -1.19767185E-09
   2.49999994E-03  -1.33829436E-09
   2.55000009E-03  -1.48432000E-09
   2.60000001E-03  -1.63532898E-09
   2.64999992E-03  -1.79117510E-09
   2.70000007E-03  -1.95213179E-09
   2.74999999E-03  -2.11885620E-09
   2.79999990E-03  -2.29218533E-09