  -3.99999991E-02     1.00000002E-24
  -3.99499983E-02     1.00000002E-24
  -3.99000011E-02     1.00000002E-24
  -3.98500003E-02    -3.35814451E-17
  -3.97999994E-02    -2.02965016E-16
  -3.97499986E-02    -6.80047813E-16
  -3.97000015E-02    -1.66481975E-15
  -3.96500006E-02    -3.32296002E-15
  -3.95999998E-02    -5.73500809E-15
  -3.95499989E-02    -8.88060089E-15
  -3.95000018E-02    -1.26665925E-14
  -3.94500010E-02    -1.69942151E-14
  -3.94000001E-02    -2.18461842E-14
  -3.93499993E-02    -2.73634502E-14
  -3.92999984E-02    -3.38844960E-14
  -3.92500013E-02    -4.19397488E-14
  -3.92000005E-02    -5.22112769E-14
  -3.91499996E-02    -6.54628668E-14
  -3.90999988E-02    -8.24252504E-14
  -3.90500017E-02    -1.03621776E-13
  -3.90000008E-02    -1.29165179E-13
  -3.89500000E-02    -1.58624497E-13
  -3.88999991E-02    -1.91090565E-13
  -3.88499983E-02    -2.25513144E-13
  -3.88000011E-02    -2.61252202E-13
  -3.87500003E-02    -2.98638881E-13
  -3.86999995E-02    -3.39252986E-13
  -3.86499986E-02    -3.85656459E-13
  -3.86000015E-02    -4.40505596E-13
  -3.85500006E-02    -5.05272256E-13
  -3.84999998E-02    -5.79120465E-13
  -3.84499989E-02    -6.58609289E-13
  -3.84000018E-02    -7.38670572E-13
  -3.83500010E-02    -8.14741178E-13
  -3.83000001E-02    -8.85262350E-13
  -3.82499993E-02    -9.53345367E-13
  -3.81999984E-02    -1.02653649E-12
  -3.81500013E-02    -1.11431708E-12
  -3.81000005E-02    -1.22400896E-12
  -3.80499996E-02    -1.35668712E-12
  -3.79999988E-02    -1.50506896E-12
  -3.79500017E-02    -1.65485410E-12
  -3.79000008E-02    -1.78962921E-12
  -3.78500000E-02    -1.89771397E-12
  -3.77999991E-02    -1.97802300E-12
  -3.77499983E-02    -2.04191872E-12
  -3.77000012E-02    -2.10946690E-12
  -3.76500003E-02    -2.20096879E-12
  -3.75999995E-02    -2.32706606E-12
  -3.75499986E-02    -2.48189121E-12
  -3.75000015E-02    -2.64295356E-12
  -3.74500006E-02    -2.77882621E-12
  -3.73999998E-02    -2.86218705E-12
  -3.73499990E-02    -2.88285997E-12
  -3.73000018E-02    -2.85466139E-12
  -3.72500010E-02    -2.81185340E-12
  -3.72000001E-02    -2.79536442E-12
  -3.71499993E-02    -2.83388677E-12
  -3.70999984E-02    -2.92812736E-12
  -3.70500013E-02    -3.04607142E-12
  -3.70000005E-02    -3.13286528E-12
  -3.69499996E-02    -3.13247345E-12
  -3.68999988E-02    -3.01244706E-12
  -3.68500017E-02    -2.78069234E-12
  -3.68000008E-02    -2.48555170E-12
  -3.67500000E-02    -2.19722309E-12
  -3.66999991E-02    -1.97700471E-12
  -3.66499983E-02    -1.84732481E-12
  -3.66000012E-02    -1.77667516E-12
  -3.65500003E-02    -1.68818930E-12
  -3.64999995E-02    -1.49041131E-12
  -3.64499986E-02    -1.11820123E-12
  -3.64000015E-02    -5.65717341E-13
  -3.63500006E-02     1.04691693E-13
  -3.62999998E-02     7.84241270E-13
  -3.62499990E-02     1.36313833E-12
  -3.62000018E-02     1.78110803E-12
  -3.61500010E-02     2.06025323E-12
  -3.61000001E-02     2.30333526E-12
  -3.60499993E-02     2.65480238E-12
  -3.59999985E-02     3.23885493E-12
  -3.59500013E-02     4.10087068E-12
  -3.59000005E-02     5.17947577E-12
  -3.58499996E-02     6.32487118E-12
  -3.57999988E-02     7.35903005E-12
  -3.57500017E-02     8.15373463E-12
  -3.57000008E-02     8.69222229E-12
  -3.56500000E-02     9.08495501E-12
  -3.55999991E-02     9.52853595E-12
  -3.55499983E-02     1.02218806E-11
  -3.55000012E-02     1.12743504E-11
  -3.54500003E-02     1.26471880E-11
  -3.53999995E-02     1.41577184E-11
  -3.53499986E-02     1.55495287E-11
  -3.53000015E-02     1.66017842E-11
  -3.52500007E-02     1.72308105E-11
  -3.51999998E-02     1.75369753E-11
  -3.51499990E-02     1.77714874E-11
  -3.51000018E-02     1.82323601E-11
  -3.50500010E-02     1.91317864E-11
  -3.50000001E-02     2.04930344E-11
  -3.49499993E-02     2.21257231E-11
  -3.48999985E-02     2.36961527E-11
  -3.48500013E-02     2.48674345E-11
  -3.48000005E-02     2.54506052E-11
  -3.47499996E-02     2.54987698E-11
  -3.46999988E-02     2.52975037E-11
  -3.46500017E-02     2.52487961E-11
  -3.46000008E-02     2.56942349E-11
  -3.45500000E-02     2.67537815E-11
  -3.44999991E-02     2.82544751E-11
  -3.44499983E-02     2.97873150E-11
  -3.44000012E-02     3.08748548E-11
  -3.43500003E-02     3.11807559E-11
  -3.42999995E-02     3.06693733E-11
  -3.42499986E-02     2.96398739E-11
  -3.42000015E-02     2.86117085E-11
  -3.41500007E-02     2.81037138E-11
  -3.40999998E-02     2.84002023E-11
  -3.40499990E-02     2.94089093E-11
  -3.40000018E-02     3.06805414E-11
  -3.39500010E-02     3.15907266E-11
  -3.39000002E-02     3.16115779E-11
  -3.38499993E-02     3.05554991E-11
  -3.37999985E-02     2.86795223E-11
  -3.37500013E-02     2.65952087E-11
  -3.37000005E-02     2.50135190E-11
  -3.36499996E-02     2.44303345E-11
  -3.35999988E-02     2.48909886E-11
  -3.35500017E-02     2.59443890E-11
  -3.35000008E-02     2.68181675E-11
  -3.34500000E-02     2.67482963E-11
  -3.33999991E-02     2.53233441E-11
  -3.33499983E-02     2.26892168E-11
  -3.33000012E-02     1.95148394E-11
  -3.32500003E-02     1.67215304E-11
  -3.31999995E-02     1.50853045E-11
  -3.31499986E-02     1.48841998E-11
  -3.31000015E-02     1.57512614E-11
  -3.30500007E-02     1.68097133E-11
  -3.29999998E-02     1.70438733E-11
  -3.29499990E-02     1.57512076E-11
  -3.29000019E-02     1.28765453E-11
  -3.28500010E-02     9.07247021E-12
  -3.28000002E-02     5.44513002E-12
  -3.27499993E-02     3.08404604E-12
  -3.26999985E-02     2.57640046E-12
  -3.26500013E-02     3.72301799E-12
  -3.26000005E-02     5.59316916E-12
  -3.25499997E-02     6.90981517E-12
  -3.24999988E-02     6.60820574E-12
  -3.24500017E-02     4.32558503E-12
  -3.24000008E-02     5.99221302E-13
  -3.23500000E-02    -3.32969438E-12
  -3.22999991E-02    -6.03683813E-12
  -3.22499983E-02    -6.54211277E-12
  -3.22000012E-02    -4.76767063E-12
  -3.21500003E-02    -1.61396688E-12
  -3.20999995E-02     1.39737592E-12
  -3.20499986E-02     2.77339263E-12
  -3.20000015E-02     1.71451687E-12
  -3.19500007E-02    -1.50248943E-12
  -3.18999998E-02    -5.60700748E-12
  -3.18499990E-02    -8.86569464E-12
  -3.18000019E-02    -9.84403010E-12
  -3.17500010E-02    -8.06746423E-12
  -3.17000002E-02    -4.28207253E-12
  -3.16499993E-02    -1.80840613E-13
  -3.15999985E-02     2.30515498E-12
  -3.15500014E-02     1.85282649E-12
  -3.15000005E-02    -1.64118523E-12
  -3.14499997E-02    -6.96549762E-12
  -3.13999988E-02    -1.20790045E-11
  -3.13500017E-02    -1.49829073E-11
  -3.13000008E-02    -1.46061652E-11
  -3.12500000E-02    -1.13098975E-11
  -3.11999992E-02    -6.77072244E-12
  -3.11500002E-02    -3.27084713E-12
  -3.10999993E-02    -2.68873010E-12
  -3.10500003E-02    -5.62913605E-12
  -3.09999995E-02    -1.10862847E-11
  -3.09500005E-02    -1.68110751E-11
  -3.08999997E-02    -2.02459629E-11
  -3.08500007E-02    -1.96326705E-11
  -3.07999998E-02    -1.48058128E-11
  -3.07500008E-02    -7.30715488E-12
  -3.07000000E-02     2.55665633E-13
  -3.06499992E-02     5.34800633E-12
  -3.06000002E-02     6.65535682E-12
  -3.05499993E-02     4.72766010E-12
  -3.05000003E-02     1.81519632E-12
  -3.04499995E-02     9.39714018E-13
  -3.04000005E-02     4.58674808E-12
  -3.03499997E-02     1.35876163E-11
  -3.03000007E-02     2.66952484E-11
  -3.02499998E-02     4.10668929E-11
  -3.02000009E-02     5.34704017E-11
  -3.01500000E-02     6.17022128E-11
  -3.00999992E-02     6.55927881E-11
  -3.00500002E-02     6.71373998E-11
  -2.99999993E-02     6.96635180E-11
  -2.99500003E-02     7.63720753E-11
  -2.98999995E-02     8.88805488E-11
  -2.98500005E-02     1.06415939E-10
  -2.97999997E-02     1.26039013E-10
  -2.97500007E-02     1.43834472E-10
  -2.96999998E-02     1.56571076E-10
  -2.96500009E-02     1.63109526E-10
  -2.96000000E-02     1.64925643E-10
  -2.95499992E-02     1.65488526E-10
  -2.95000002E-02     1.68734124E-10
  -2.94499993E-02     1.77284923E-10
  -2.94000003E-02     1.91199903E-10
  -2.93499995E-02     2.07828033E-10
  -2.93000005E-02     2.22865879E-10
  -2.92499997E-02     2.32187353E-10
  -2.92000007E-02     2.33656677E-10
  -2.91499998E-02     2.28118663E-10
  -2.91000009E-02     2.19101473E-10
  -2.90500000E-02     2.11324527E-10
  -2.89999992E-02     2.08638357E-10
  -2.89500002E-02     2.12294085E-10
  -2.88999993E-02     2.20321206E-10
  -2.88500004E-02     2.28323110E-10
  -2.87999995E-02     2.31378874E-10
  -2.87500005E-02     2.26239388E-10
  -2.86999997E-02     2.12850695E-10
  -2.86500007E-02     1.94508229E-10
  -2.85999998E-02     1.76533857E-10
  -2.85500009E-02     1.64020755E-10
  -2.85000000E-02     1.59621386E-10
  -2.84499992E-02     1.62361929E-10
  -2.84000002E-02     1.68038763E-10
  -2.83499993E-02     1.71065884E-10
  -2.83000004E-02     1.66993447E-10
  -2.82499995E-02     1.54597710E-10
  -2.82000005E-02     1.36601910E-10
  -2.81499997E-02     1.18668617E-10
  -2.81000007E-02     1.07062283E-10
  -2.80499998E-02     1.05981252E-10
  -2.80000009E-02     1.15733069E-10
  -2.79500000E-02     1.32583639E-10
  -2.78999992E-02     1.50390034E-10
  -2.78500002E-02     1.63337663E-10
  -2.77999993E-02     1.68594028E-10
  -2.77500004E-02     1.67697037E-10
  -2.76999995E-02     1.66026429E-10
  -2.76500005E-02     1.70539943E-10
  -2.75999997E-02     1.86732282E-10
  -2.75500007E-02     2.16143756E-10
  -2.74999999E-02     2.55537674E-10
  -2.74500009E-02     2.98153752E-10
  -2.74000000E-02     3.36534106E-10
  -2.73499992E-02     3.65708991E-10
  -2.73000002E-02     3.85339261E-10
  -2.72499993E-02     3.99841021E-10
  -2.72000004E-02     4.16390422E-10
  -2.71499995E-02     4.41643805E-10
  -2.71000005E-02     4.78600881E-10
  -2.70499997E-02     5.25009591E-10
  -2.70000007E-02     5.74062298E-10
  -2.69499999E-02     6.17134732E-10
  -2.69000009E-02     6.47405518E-10
  -2.68500000E-02     6.62776223E-10
  -2.67999992E-02     6.66783517E-10
  -2.67500002E-02     6.67052136E-10
  -2.66999993E-02     6.71920075E-10
  -2.66500004E-02     6.86690704E-10
  -2.65999995E-02     7.11165793E-10
  -2.65500005E-02     7.39584616E-10
  -2.64999997E-02     7.63050678E-10
  -2.64500007E-02     7.73427600E-10
  -2.63999999E-02     7.67008013E-10
  -2.63500009E-02     7.46322171E-10
  -2.63000000E-02     7.19238336E-10
  -2.62499992E-02     6.95690561E-10
  -2.62000002E-02     6.83426704E-10
  -2.61499994E-02     6.84638846E-10
  -2.61000004E-02     6.94985514E-10
  -2.60499995E-02     7.05491110E-10
  -2.60000005E-02     7.06541936E-10
  -2.59499997E-02     6.92252700E-10
  -2.59000007E-02     6.63273769E-10
  -2.58499999E-02     6.26761198E-10
  -2.58000009E-02     5.93459448E-10
  -2.57500000E-02     5.73127823E-10
  -2.56999992E-02     5.70301528E-10
  -2.56500002E-02     5.82272841E-10
  -2.55999994E-02     6.00234529E-10
  -2.55500004E-02     6.13145423E-10
  -2.54999995E-02     6.12662532E-10
  -2.54500005E-02     5.96976413E-10
  -2.53999997E-02     5.71826253E-10
  -2.53500007E-02     5.48185775E-10
  -2.52999999E-02     5.37575262E-10
  -2.52500009E-02     5.47025814E-10
  -2.52000000E-02     5.75918535E-10
  -2.51499992E-02     6.16134310E-10
  -2.51000002E-02     6.55513033E-10
  -2.50499994E-02     6.83154866E-10
  -2.50000004E-02     6.94249935E-10
  -2.49499995E-02     6.92288393E-10
  -2.49000005E-02     6.87618795E-10
  -2.48499997E-02     6.92922941E-10
  -2.48000007E-02     7.17551685E-10
  -2.47499999E-02     7.63210162E-10
  -2.47000009E-02     8.22933388E-10
  -2.46500000E-02     8.83871476E-10
  -2.45999992E-02     9.32728339E-10
  -2.45500002E-02     9.61500990E-10
  -2.44999994E-02     9.70985292E-10
  -2.44500004E-02     9.70458602E-10
  -2.43999995E-02     9.73610192E-10
  -2.43500005E-02     9.92452009E-10
  -2.42999997E-02     1.03186981E-09
  -2.42500007E-02     1.08723941E-09
  -2.41999999E-02     1.14621856E-09
  -2.41500009E-02     1.19400012E-09
  -2.41000000E-02     1.21976285E-09
  -2.40499992E-02     1.22148647E-09
  -2.40000002E-02     1.20697075E-09
  -2.39499994E-02     1.19053856E-09
  -2.39000004E-02     1.18680576E-09
  -2.38499995E-02     1.20422028E-09
  -2.38000005E-02     1.24122690E-09
  -2.37499997E-02     1.28679989E-09
  -2.37000007E-02     1.32518219E-09
  -2.36499999E-02     1.34281108E-09
  -2.36000009E-02     1.33440159E-09
  -2.35500000E-02     1.30548516E-09
  -2.34999992E-02     1.27021960E-09
  -2.34500002E-02     1.24535704E-09
  -2.33999994E-02     1.24297495E-09
  -2.33500004E-02     1.26515831E-09
  -2.32999995E-02     1.30301825E-09
  -2.32500006E-02     1.34054867E-09
  -2.31999997E-02     1.36169187E-09
  -2.31500007E-02     1.35754019E-09
  -2.30999999E-02     1.33048950E-09
  -2.30500009E-02     1.29345834E-09
  -2.30000000E-02     1.26443689E-09
  -2.29499992E-02     1.25870026E-09
  -2.29000002E-02     1.28208932E-09
  -2.28499994E-02     1.32834610E-09
  -2.28000004E-02     1.38174205E-09
  -2.27499995E-02     1.42392342E-09
  -2.27000006E-02     1.44201140E-09
  -2.26499997E-02     1.43439816E-09
  -2.26000007E-02     1.41164702E-09
  -2.25499999E-02     1.39202228E-09
  -2.25000009E-02     1.39354706E-09
  -2.24500000E-02     1.42604606E-09
  -2.23999992E-02     1.48668655E-09
  -2.23500002E-02     1.56104007E-09
  -2.22999994E-02     1.62927627E-09
  -2.22500004E-02     1.67482672E-09
  -2.21999995E-02     1.69173153E-09
  -2.21500006E-02     1.68740233E-09
  -2.20999997E-02     1.67952052E-09
  -2.20500007E-02     1.68835423E-09
  -2.19999999E-02     1.72782399E-09
  -2.19500009E-02     1.79924131E-09
  -2.19000001E-02     1.89052130E-09
  -2.18499992E-02     1.98128891E-09
  -2.18000002E-02     2.05170680E-09
  -2.17499994E-02     2.09117901E-09
  -2.17000004E-02     2.10308859E-09
  -2.16499995E-02     2.10343232E-09
  -2.16000006E-02     2.11387063E-09
  -2.15499997E-02     2.15219575E-09
  -2.15000007E-02     2.22438357E-09
  -2.14499999E-02     2.32176278E-09
  -2.14000009E-02     2.42461096E-09
  -2.13500001E-02     2.51067434E-09
  -2.12999992E-02     2.56491339E-09
  -2.12500002E-02     2.58619459E-09
  -2.11999994E-02     2.58793831E-09
  -2.11500004E-02     2.59236543E-09
  -2.10999995E-02     2.62080491E-09
  -2.10500006E-02     2.68428124E-09
  -2.09999997E-02     2.77853873E-09
  -2.09500007E-02     2.88574387E-09
  -2.08999999E-02     2.98218761E-09
  -2.08500009E-02     3.04866421E-09
  -2.08000001E-02     3.07898018E-09
  -2.07499992E-02     3.08282311E-09
  -2.07000002E-02     3.08166670E-09
  -2.06499994E-02     3.09943604E-09
  -2.06000004E-02     3.15200110E-09
  -2.05499995E-02     3.24010085E-09
  -2.05000006E-02     3.34886385E-09
  -2.04499997E-02     3.45419848E-09
  -2.04000007E-02     3.53331142E-09
  -2.03499999E-02     3.57476626E-09
  -2.03000009E-02     3.58364716E-09
  -2.02500001E-02     3.57950536E-09
  -2.01999992E-02     3.58792396E-09
  -2.01500002E-02     3.62934616E-09
  -2.00999994E-02     3.71006204E-09
  -2.00500004E-02     3.81933685E-09
  -1.99999996E-02     3.93399979E-09
  -1.99500006E-02     4.02853795E-09
  -1.98999997E-02     4.08630862E-09
  -1.98500007E-02     4.10693879E-09
  -1.97999999E-02     4.10662704E-09
  -1.97500009E-02     4.11115897E-09
  -1.97000001E-02     4.14464019E-09
  -1.96499992E-02     4.21887503E-09
  -1.96000002E-02     4.32806457E-09
  -1.95499994E-02     4.45120429E-09
  -1.95000004E-02     4.56118210E-09
  -1.94499996E-02     4.63663818E-09
  -1.94000006E-02     4.67138372E-09
  -1.93499997E-02     4.67722749E-09
  -1.93000007E-02     4.67891770E-09
  -1.92499999E-02     4.70336259E-09
  -1.92000009E-02     4.76783235E-09
  -1.91500001E-02     4.87231144E-09
  -1.90999992E-02     4.99939734E-09
  -1.90500002E-02     5.12182607E-09
  -1.89999994E-02     5.21438315E-09
  -1.89500004E-02     5.26497201E-09
  -1.88999996E-02     5.27998578E-09
  -1.88500006E-02     5.28158139E-09
  -1.87999997E-02     5.29800781E-09
  -1.87500007E-02     5.35119016E-09
  -1.86999999E-02     5.44702550E-09
  -1.86500009E-02     5.57264501E-09
  -1.86000001E-02     5.70190473E-09
  -1.85499992E-02     5.80672577E-09
  -1.85000002E-02     5.86934368E-09
  -1.84499994E-02     5.89008931E-09
  -1.84000004E-02     5.88727733E-09
  -1.83499996E-02     5.88920113E-09
  -1.83000006E-02     5.92173288E-09
  -1.82499997E-02     5.99693672E-09
  -1.82000007E-02     6.10770412E-09
  -1.81499999E-02     6.23078877E-09
  -1.81000009E-02     6.33693276E-09
  -1.80500001E-02     6.40367359E-09
  -1.79999992E-02     6.42521325E-09
  -1.79500002E-02     6.41501252E-09
  -1.78999994E-02     6.39995346E-09
  -1.78500004E-02     6.40859277E-09
  -1.77999996E-02     6.45866027E-09
  -1.77500006E-02     6.54925980E-09
  -1.76999997E-02     6.66122446E-09
  -1.76500008E-02     6.76547529E-09
  -1.75999999E-02     6.83573909E-09
  -1.75500009E-02     6.86006363E-09
  -1.75000001E-02     6.84607659E-09
  -1.74499992E-02     6.81767798E-09
  -1.74000002E-02     6.80460932E-09
  -1.73499994E-02     6.82945966E-09
  -1.73000004E-02     6.89780411E-09
  -1.72499996E-02     6.99579994E-09
  -1.72000006E-02     7.09628845E-09
  -1.71499997E-02     7.17074222E-09
  -1.71000008E-02     7.20180537E-09
  -1.70499999E-02     7.19094917E-09
  -1.70000009E-02     7.15787296E-09
  -1.69500001E-02     7.13192172E-09
  -1.68999992E-02     7.13928339E-09
  -1.68500002E-02     7.19157445E-09
  -1.67999994E-02     7.28080884E-09
  -1.67500004E-02     7.38294981E-09
  -1.66999996E-02     7.46847473E-09
  -1.66500006E-02     7.51531903E-09
  -1.65999997E-02     7.51852802E-09
  -1.65500008E-02     7.49239781E-09
  -1.64999999E-02     7.46419992E-09
  -1.64500009E-02     7.46223972E-09
  -1.64000001E-02     7.50351159E-09
  -1.63499992E-02     7.58634044E-09
  -1.63000003E-02     7.69122011E-09
  -1.62499994E-02     7.78945086E-09
  -1.62000004E-02     7.85576404E-09
  -1.61499996E-02     7.87939136E-09
  -1.61000006E-02     7.86874566E-09
  -1.60499997E-02     7.84768250E-09
  -1.60000008E-02     7.84502330E-09
  -1.59499999E-02     7.88194754E-09
  -1.59000009E-02     7.96277977E-09
  -1.58500001E-02     8.07318035E-09
  -1.57999992E-02     8.18649326E-09
  -1.57500003E-02     8.27541324E-09
  -1.56999994E-02     8.32385805E-09
  -1.56500004E-02     8.33384028E-09
  -1.55999996E-02     8.32438385E-09
  -1.55499997E-02     8.32300806E-09
  -1.54999997E-02     8.35358094E-09
  -1.54499998E-02     8.42585468E-09
  -1.53999999E-02     8.53127613E-09
  -1.53500000E-02     8.64683258E-09
  -1.53000001E-02     8.74519657E-09
  -1.52500002E-02     8.80667006E-09
  -1.52000003E-02     8.82770124E-09
  -1.51500003E-02     8.82227358E-09
  -1.51000004E-02     8.81563622E-09
  -1.50499996E-02     8.83317774E-09
  -1.49999997E-02     8.88936658E-09
  -1.49499997E-02     8.98157371E-09
  -1.48999998E-02     9.09142894E-09
  -1.48499999E-02     9.19301169E-09
  -1.48000000E-02     9.26423205E-09
  -1.47500001E-02     9.29637523E-09
  -1.47000002E-02     9.29767641E-09
  -1.46500003E-02     9.28943145E-09
  -1.46000003E-02     9.29645427E-09
  -1.45500004E-02     9.33612476E-09
  -1.44999996E-02     9.41083833E-09
  -1.44499997E-02     9.50710710E-09
  -1.43999998E-02     9.60161017E-09
  -1.43499998E-02     9.67144320E-09
  -1.42999999E-02     9.70403491E-09
  -1.42500000E-02     9.70239977E-09
  -1.42000001E-02     9.68351710E-09
  -1.41500002E-02     9.67066338E-09
  -1.41000003E-02     9.68315295E-09
  -1.40500003E-02     9.72801661E-09
  -1.40000004E-02     9.79720305E-09
  -1.39499996E-02     9.87142013E-09
  -1.38999997E-02     9.92880622E-09
  -1.38499998E-02     9.95453497E-09
  -1.37999998E-02     9.94713112E-09
  -1.37499999E-02     9.91882398E-09
  -1.37000000E-02     9.88990045E-09
  -1.36500001E-02     9.87966686E-09
  -1.36000002E-02     9.89805571E-09
  -1.35500003E-02     9.94151517E-09
  -1.35000004E-02     9.99489469E-09
  -1.34500004E-02     1.00383186E-08
  -1.33999996E-02     1.00559481E-08
  -1.33499997E-02     1.00427258E-08
  -1.32999998E-02     1.00062127E-08
  -1.32499998E-02     9.96287497E-09
  -1.31999999E-02     9.93057192E-09
  -1.31500000E-02     9.92069005E-09
  -1.31000001E-02     9.93333771E-09
  -1.30500002E-02     9.95763294E-09
  -1.30000003E-02     9.97678740E-09
  -1.29500004E-02     9.97557947E-09
  -1.29000004E-02     9.94688509E-09
  -1.28499996E-02     9.89441240E-09
  -1.27999997E-02     9.83058879E-09
  -1.27499998E-02     9.77071668E-09
  -1.26999998E-02     9.72610525E-09
  -1.26499999E-02     9.69924674E-09
  -1.26000000E-02     9.68307035E-09
  -1.25500001E-02     9.66444791E-09
  -1.25000002E-02     9.63020330E-09
  -1.24500003E-02     9.57287494E-09
  -1.24000004E-02     9.49368761E-09
  -1.23500004E-02     9.40157463E-09
  -1.22999996E-02     9.30884436E-09
  -1.22499997E-02     9.22561227E-09
  -1.21999998E-02     9.15552612E-09
  -1.21499998E-02     9.09461573E-09
  -1.20999999E-02     9.03361119E-09
  -1.20500000E-02     8.96248675E-09
  -1.20000001E-02     8.87506335E-09
  -1.19500002E-02     8.77158080E-09
  -1.19000003E-02     8.65820482E-09
  -1.18500004E-02     8.54388293E-09
  -1.18000004E-02     8.43617087E-09
  -1.17499996E-02     8.33799341E-09
  -1.16999997E-02     8.24678903E-09
  -1.16499998E-02     8.15626233E-09
  -1.15999999E-02     8.05976086E-09
  -1.15499999E-02     7.95355959E-09
  -1.15000000E-02     7.83850229E-09
  -1.14500001E-02     7.71933273E-09
  -1.14000002E-02     7.60218732E-09
  -1.13500003E-02     7.49161266E-09
  -1.13000004E-02     7.38860972E-09
  -1.12500004E-02     7.29064453E-09
  -1.11999996E-02     7.19350046E-09
  -1.11499997E-02     7.09392634E-09
  -1.10999998E-02     6.99165748E-09
  -1.10499999E-02     6.88973412E-09
  -1.09999999E-02     6.79296486E-09
  -1.09500000E-02     6.70536515E-09
  -1.09000001E-02     6.62795019E-09
  -1.08500002E-02     6.55811006E-09
  -1.08000003E-02     6.49096377E-09
  -1.07500004E-02     6.42205666E-09
  -1.07000005E-02     6.34999875E-09
  -1.06499996E-02     6.27759444E-09
  -1.05999997E-02     6.21075413E-09
  -1.05499998E-02     6.15556894E-09
  -1.04999999E-02     6.11496631E-09
  -1.04499999E-02     6.08667072E-09
  -1.04000000E-02     6.06366513E-09
  -1.03500001E-02     6.03715300E-09
  -1.03000002E-02     6.00072925E-09
  -1.02500003E-02     5.95376815E-09
  -1.02000004E-02     5.90223070E-09
  -1.01500005E-02     5.85626658E-09
  -1.00999996E-02     5.82549697E-09
  -1.00499997E-02     5.81411497E-09
  -9.99999978E-03     5.81818105E-09
  -9.94999986E-03     5.82661652E-09
  -9.89999995E-03     5.82572213E-09
  -9.85000003E-03     5.80531490E-09
  -9.80000012E-03     5.76366910E-09
  -9.75000020E-03     5.70880410E-09
  -9.70000029E-03     5.65522784E-09
  -9.65000037E-03     5.61735947E-09
  -9.60000046E-03     5.60249580E-09
  -9.54999961E-03     5.60661917E-09
  -9.49999969E-03     5.61521274E-09
  -9.44999978E-03     5.60904878E-09
  -9.39999986E-03     5.57256907E-09
  -9.34999995E-03     5.50112578E-09
  -9.30000003E-03     5.40364864E-09
  -9.25000012E-03     5.29920774E-09
  -9.20000020E-03     5.20870147E-09
  -9.15000029E-03     5.14522425E-09
  -9.10000037E-03     5.10746689E-09
  -9.05000046E-03     5.07936537E-09
  -8.99999961E-03     5.03649566E-09
  -8.94999970E-03     4.95664887E-09
  -8.89999978E-03     4.82994711E-09
  -8.84999987E-03     4.66385730E-09
  -8.79999995E-03     4.48054216E-09
  -8.75000004E-03     4.30736513E-09
  -8.70000012E-03     4.16455581E-09
  -8.65000021E-03     4.05550615E-09
  -8.60000029E-03     3.96425026E-09
  -8.55000038E-03     3.86161148E-09
  -8.50000046E-03     3.71762399E-09
  -8.44999962E-03     3.51489526E-09
  -8.39999970E-03     3.25687433E-09
  -8.34999979E-03     2.96708547E-09
  -8.29999987E-03     2.67926725E-09
  -8.24999996E-03     2.42250264E-09
  -8.20000004E-03     2.20784413E-09
  -8.15000013E-03     2.02253547E-09
  -8.10000021E-03     1.83474258E-09
  -8.05000030E-03     1.60707403E-09
  -8.00000038E-03     1.31314359E-09
  -7.95000046E-03     9.49824219E-10
  -7.89999962E-03     5.39506273E-10
  -7.84999970E-03     1.20971802E-10
  -7.79999979E-03    -2.67441042E-10
  -7.74999987E-03    -6.05093475E-10
  -7.69999996E-03    -8.98987940E-10
  -7.65000004E-03    -1.18166710E-09
  -7.60000013E-03    -1.49757817E-09
  -7.55000021E-03    -1.88362614E-09
  -7.49999983E-03    -2.35242359E-09
  -7.44999992E-03    -2.88583291E-09
  -7.40000000E-03    -3.44203954E-09
  -7.35000009E-03    -3.97343136E-09
  -7.30000017E-03    -4.44762893E-09
  -7.24999979E-03    -4.86236429E-09
  -7.19999988E-03    -5.24734745E-09
  -7.14999996E-03    -5.65189051E-09
  -7.10000005E-03    -6.12338003E-09
  -7.05000013E-03    -6.68592914E-09
  -7.00000022E-03    -7.32877581E-09
  -6.94999984E-03    -8.00988698E-09
  -6.89999992E-03    -8.67361294E-09
  -6.85000001E-03    -9.27494970E-09
  -6.80000009E-03    -9.79975034E-09
  -6.75000018E-03    -1.02717692E-08
  -6.69999979E-03    -1.07430429E-08
  -6.64999988E-03    -1.12714016E-08
  -6.59999996E-03    -1.18948185E-08
  -6.55000005E-03    -1.26139001E-08
  -6.50000013E-03    -1.33905633E-08
  -6.45000022E-03    -1.41639109E-08
  -6.39999984E-03    -1.48766732E-08
  -6.34999992E-03    -1.55007456E-08
  -6.30000001E-03    -1.60504090E-08
  -6.25000009E-03    -1.65770331E-08
  -6.20000018E-03    -1.71471743E-08
  -6.14999980E-03    -1.78133668E-08
  -6.09999988E-03    -1.85904501E-08
  -6.04999997E-03    -1.94480645E-08
  -6.00000005E-03    -2.03230908E-08
  -5.95000014E-03    -2.11469438E-08
  -5.90000022E-03    -2.18759908E-08
  -5.84999984E-03    -2.25116210E-08
  -5.79999993E-03    -2.31008386E-08
  -5.75000001E-03    -2.37166571E-08
  -5.70000010E-03    -2.44265301E-08
  -5.65000018E-03    -2.52625654E-08
  -5.59999980E-03    -2.62067879E-08
  -5.54999989E-03    -2.71983343E-08
  -5.49999997E-03    -2.81598176E-08
  -5.45000006E-03    -2.90316375E-08
  -5.40000014E-03    -2.97991249E-08
  -5.35000023E-03    -3.05003773E-08
  -5.29999984E-03    -3.12108241E-08
  -5.24999993E-03    -3.20109734E-08
  -5.20000001E-03    -3.29511600E-08
  -5.15000010E-03    -3.40289965E-08
  -5.10000018E-03    -3.51896681E-08
  -5.04999980E-03    -3.63494976E-08
  -4.99999989E-03    -3.74327449E-08
  -4.94999997E-03    -3.84056129E-08
  -4.90000006E-03    -3.92923916E-08
  -4.85000014E-03    -4.01661779E-08
  -4.80000023E-03    -4.11178398E-08
  -4.74999985E-03    -4.22165414E-08
  -4.69999993E-03    -4.34791509E-08
  -4.65000002E-03    -4.48622473E-08
  -4.60000010E-03    -4.62806398E-08
  -4.55000019E-03    -4.76447646E-08
  -4.49999981E-03    -4.89006489E-08
  -4.44999989E-03    -5.00548865E-08
  -4.39999998E-03    -5.11731919E-08
  -4.35000006E-03    -5.23528207E-08
  -4.30000015E-03    -5.36804876E-08
  -4.25000023E-03    -5.51942065E-08
  -4.19999985E-03    -5.68660283E-08
  -4.14999994E-03    -5.86135478E-08
  -4.10000002E-03    -6.03357577E-08
  -4.05000011E-03    -6.19576639E-08
  -4.00000019E-03    -6.34641921E-08
  -3.94999981E-03    -6.49081286E-08
  -3.89999989E-03    -6.63882318E-08
  -3.84999998E-03    -6.80066989E-08
  -3.80000006E-03    -6.98243880E-08
  -3.74999992E-03    -7.18337105E-08
  -3.70000000E-03    -7.39612744E-08
  -3.65000009E-03    -7.60997452E-08
  -3.59999994E-03    -7.81551392E-08
  -3.55000002E-03    -8.00890234E-08
  -3.50000011E-03    -8.19368253E-08
  -3.44999996E-03    -8.37938146E-08
  -3.40000005E-03    -8.57744524E-08
  -3.34999990E-03    -8.79626825E-08
  -3.29999998E-03    -9.03749964E-08
  -3.25000007E-03    -9.29526820E-08
  -3.19999992E-03    -9.55872821E-08
  -3.15000000E-03    -9.81682575E-08
  -3.10000009E-03    -1.00632363E-07
  -3.04999994E-03    -1.02992779E-07
  -3.00000003E-03    -1.05335012E-07
  -2.95000011E-03    -1.07780757E-07
  -2.89999996E-03    -1.10435366E-07
  -2.85000005E-03    -1.13341919E-07
  -2.79999990E-03    -1.16462076E-07
  -2.74999999E-03    -1.19692785E-07
  -2.70000007E-03    -1.22911715E-07
  -2.64999992E-03    -1.26031921E-07
  -2.60000001E-03    -1.29041553E-07
  -2.55000009E-03    -1.32011024E-07
  -2.49999994E-03    -1.35064113E-07
  -2.45000003E-03    -1.38324964E-07
  -2.40000011E-03    -1.41864547E-07
  -2.34999997E-03    -1.45669688E-07
  -2.30000005E-03    -1.49649026E-07
  -2.24999990E-03    -1.53673440E-07
  -2.19999999E-03    -1.57633664E-07
  -2.15000007E-03    -1.61489822E-07
  -2.09999993E-03    -1.65291013E-07
  -2.05000001E-03    -1.69155868E-07
  -2.00000009E-03    -1.73222190E-07
  -1.94999995E-03    -1.77587779E-07
  -1.90000003E-03    -1.82268067E-07
  -1.85000000E-03    -1.87189642E-07
  -1.79999997E-03    -1.92223141E-07
  -1.75000005E-03    -1.97240936E-07
  -1.70000002E-03    -2.02174931E-07
  -1.64999999E-03    -2.07048757E-07
  -1.59999996E-03    -2.11969919E-07
  -1.55000004E-03    -2.17084946E-07
  -1.50000001E-03    -2.22516817E-07
  -1.44999998E-03    -2.28312359E-07
  -1.39999995E-03    -2.34422444E-07
  -1.35000004E-03    -2.40724404E-07
  -1.30000000E-03    -2.47077111E-07
  -1.24999997E-03    -2.53384769E-07
  -1.20000006E-03    -2.59641524E-07
  -1.15000003E-03    -2.65936478E-07
  -1.09999999E-03    -2.72417481E-07
  -1.04999996E-03    -2.79228487E-07
  -1.00000005E-03    -2.86448000E-07
  -9.50000016E-04    -2.94055837E-07
  -8.99999985E-04    -3.01943345E-07
  -8.50000011E-04    -3.09962445E-07
  -7.99999980E-04    -3.17992829E-07
  -7.50000007E-04    -3.25997490E-07
  -6.99999975E-04    -3.34042227E-07
  -6.50000002E-04    -3.42270027E-07
  -6.00000028E-04    -3.50841447E-07
  -5.49999997E-04    -3.59866675E-07
  -5.00000024E-04    -3.69359213E-07
  -4.49999992E-04    -3.79232091E-07
  -3.99999990E-04    -3.89338197E-07
  -3.49999988E-04    -3.99537413E-07
  -3.00000014E-04    -4.09761441E-07
  -2.50000012E-04    -4.20047684E-07
  -1.99999995E-04    -4.30526740E-07
  -1.50000007E-04    -4.41368883E-07
  -9.99999975E-05    -4.52712669E-07
  -4.99999987E-05    -4.64607069E-07
   0.00000000        -4.76992625E-07
   4.99999987E-05    -4.89730439E-07
   9.99999975E-05    -5.02666126E-07
   1.50000007E-04    -5.15701686E-07
   1.99999995E-04    -5.28842691E-07
   2.50000012E-04    -5.42200610E-07
   3.00000014E-04    -5.55948645E-07
   3.49999988E-04    -5.70250108E-07
   3.99999990E-04    -5.85190776E-07
   4.49999992E-04    -6.00745011E-07