  -3.99999991E-02     1.00000002E-24
  -3.99499983E-02     1.00000002E-24
  -3.99000011E-02     1.00000002E-24
  -3.98500003E-02    -2.57920523E-17
  -3.97999994E-02    -1.63816688E-16
  -3.97499986E-02    -5.39139118E-16
  -3.97000015E-02    -1.14422314E-15
  -3.96500006E-02    -1.51015842E-15
  -3.95999998E-02    -3.91547438E-16
  -3.95499989E-02     4.23847071E-15
  -3.95000018E-02     1.46652117E-14
  -3.94500010E-02     3.24421378E-14
  -3.94000001E-02     5.73146877E-14
  -3.93499993E-02     8.66259782E-14
  -3.92999984E-02     1.15727577E-13
  -3.92500013E-02     1.39615004E-13
  -3.92000005E-02     1.55464400E-13
  -3.91499996E-02     1.65107633E-13
  -3.90999988E-02     1.76084706E-13
  -3.90500017E-02     2.00161516E-13
  -3.90000008E-02     2.49232655E-13
  -3.89500000E-02     3.29963677E-13
  -3.88999991E-02     4.39589175E-13
  -3.88499983E-02     5.65275528E-13
  -3.88000011E-02     6.88192071E-13
  -3.87500003E-02     7.91349299E-13
  -3.86999995E-02     8.68210614E-13
  -3.86499986E-02     9.28017537E-13
  -3.86000015E-02     9.94437280E-13
  -3.85500006E-02     1.09668232E-12
  -3.84999998E-02     1.25590044E-12
  -3.84499989E-02     1.47270835E-12
  -3.84000018E-02     1.72240293E-12
  -3.83500010E-02     1.96173047E-12
  -3.83000001E-02     2.14592775E-12
  -3.82499993E-02     2.24940704E-12
  -3.81999984E-02     2.28059347E-12
  -3.81500013E-02     2.28276230E-12
  -3.81000005E-02     2.31813050E-12
  -3.80499996E-02     2.44005228E-12
  -3.79999988E-02     2.66469919E-12
  -3.79500017E-02     2.95584325E-12
  -3.79000008E-02     3.23227339E-12
  -3.78500000E-02     3.39787031E-12
  -3.77999991E-02     3.38319520E-12
  -3.77499983E-02     3.18016230E-12
  -3.77000012E-02     2.85214994E-12
  -3.76500003E-02     2.51144830E-12
  -3.75999995E-02     2.27051472E-12
  -3.75499986E-02     2.18666101E-12
  -3.75000015E-02     2.22530544E-12
  -3.74500006E-02     2.26136688E-12
  -3.73999998E-02     2.12305282E-12
  -3.73499990E-02     1.66290213E-12
  -3.73000018E-02     8.26133432E-13
  -3.72500010E-02    -3.16217077E-13
  -3.72000001E-02    -1.58909713E-12
  -3.71499993E-02    -2.78610186E-12
  -3.70999984E-02    -3.76437857E-12
  -3.70500013E-02    -4.51971143E-12
  -3.70000005E-02    -5.20490422E-12
  -3.69499996E-02    -6.07735910E-12
  -3.68999988E-02    -7.39319023E-12
  -3.68500017E-02    -9.29151894E-12
  -3.68000008E-02    -1.17214337E-11
  -3.67500000E-02    -1.44496611E-11
  -3.66999991E-02    -1.71533343E-11
  -3.66499983E-02    -1.95629971E-11
  -3.66000012E-02    -2.15940182E-11
  -3.65500003E-02    -2.34041085E-11
  -3.64999995E-02    -2.53434634E-11
  -3.64499986E-02    -2.78113158E-11
  -3.64000015E-02    -3.10772102E-11
  -3.63500006E-02    -3.51464378E-11
  -3.62999998E-02    -3.97350902E-11
  -3.62499990E-02    -4.43753194E-11
  -3.62000018E-02    -4.86133495E-11
  -3.61500010E-02    -5.22172028E-11
  -3.61000001E-02    -5.52994699E-11
  -3.60499993E-02    -5.82914619E-11
  -3.59999985E-02    -6.17683821E-11
  -3.59500013E-02    -6.61941196E-11
  -3.59000005E-02    -7.16967735E-11
  -3.58499996E-02    -7.79804693E-11
  -3.57999988E-02    -8.44241690E-11
  -3.57500017E-02    -9.03357181E-11
  -3.57000008E-02    -9.52567400E-11
  -3.56500000E-02    -9.91829396E-11
  -3.55999991E-02    -1.02593635E-10
  -3.55499983E-02    -1.06263276E-10
  -3.55000012E-02    -1.10924922E-10
  -3.54500003E-02    -1.16928245E-10
  -3.53999995E-02    -1.24047675E-10
  -3.53499986E-02    -1.31538461E-10
  -3.53000015E-02    -1.38432182E-10
  -3.52500007E-02    -1.43952975E-10
  -3.51999998E-02    -1.47872992E-10
  -3.51499990E-02    -1.50642138E-10
  -3.51000018E-02    -1.53219049E-10
  -3.50500010E-02    -1.56661600E-10
  -3.50000001E-02    -1.61647279E-10
  -3.49499993E-02    -1.68135839E-10
  -3.48999985E-02    -1.75335635E-10
  -3.48500013E-02    -1.82007798E-10
  -3.48000005E-02    -1.86991006E-10
  -3.47499996E-02    -1.89722835E-10
  -3.46999988E-02    -1.90521043E-10
  -3.46500017E-02    -1.90483601E-10
  -3.46000008E-02    -1.91031066E-10
  -3.45500000E-02    -1.93278130E-10
  -3.44999991E-02    -1.97508912E-10
  -3.44499983E-02    -2.02998271E-10
  -3.44000012E-02    -2.08278866E-10
  -3.43500003E-02    -2.11757736E-10
  -3.42999995E-02    -2.12423648E-10
  -3.42499986E-02    -2.10331488E-10
  -3.42000015E-02    -2.06632850E-10
  -3.41500007E-02    -2.03114331E-10
  -3.40999998E-02    -2.01425571E-10
  -3.40499990E-02    -2.02328654E-10
  -3.40000018E-02    -2.05308812E-10
  -3.39500010E-02    -2.08740178E-10
  -3.39000002E-02    -2.10560458E-10
  -3.38499993E-02    -2.09176704E-10
  -3.37999985E-02    -2.04206763E-10
  -3.37500013E-02    -1.96715449E-10
  -3.37000005E-02    -1.88814575E-10
  -3.36499996E-02    -1.82774559E-10
  -3.35999988E-02    -1.80022677E-10
  -3.35500017E-02    -1.80471610E-10
  -3.35000008E-02    -1.82495866E-10
  -3.34500000E-02    -1.83597471E-10
  -3.33999991E-02    -1.81494639E-10
  -3.33499983E-02    -1.75164591E-10
  -3.33000012E-02    -1.65370953E-10
  -3.32500003E-02    -1.54415730E-10
  -3.31999995E-02    -1.45192039E-10
  -3.31499986E-02    -1.39930359E-10
  -3.31000015E-02    -1.39185510E-10
  -3.30500007E-02    -1.41528317E-10
  -3.29999998E-02    -1.44111348E-10
  -3.29499990E-02    -1.43894174E-10
  -3.29000019E-02    -1.39009332E-10
  -3.28500010E-02    -1.29663863E-10
  -3.28000002E-02    -1.18153723E-10
  -3.27499993E-02    -1.07946575E-10
  -3.26999985E-02    -1.02203718E-10
  -3.26500013E-02    -1.02378168E-10
  -3.26000005E-02    -1.07517592E-10
  -3.25499997E-02    -1.14611973E-10
  -3.24999988E-02    -1.19872931E-10
  -3.24500017E-02    -1.20410945E-10
  -3.24000008E-02    -1.15578075E-10
  -3.23500000E-02    -1.07363139E-10
  -3.22999991E-02    -9.96253982E-11
  -3.22499983E-02    -9.64622202E-11
  -3.22000012E-02    -1.00404962E-10
  -3.21500003E-02    -1.11241079E-10
  -3.20999995E-02    -1.26012076E-10
  -3.20499986E-02    -1.40233852E-10
  -3.20000015E-02    -1.49842319E-10
  -3.19500007E-02    -1.53024940E-10
  -3.18999998E-02    -1.51118063E-10
  -3.18499990E-02    -1.48135448E-10
  -3.18000019E-02    -1.49086743E-10
  -3.17500010E-02    -1.57789823E-10
  -3.17000002E-02    -1.75132006E-10
  -3.16499993E-02    -1.98570396E-10
  -3.15999985E-02    -2.23139035E-10
  -3.15500014E-02    -2.43569498E-10
  -3.15000005E-02    -2.56622418E-10
  -3.14499997E-02    -2.62600414E-10
  -3.13999988E-02    -2.65341499E-10
  -3.13500017E-02    -2.70642120E-10
  -3.13000008E-02    -2.83756102E-10
  -3.12500000E-02    -3.07048609E-10
  -3.11999992E-02    -3.38852946E-10
  -3.11500002E-02    -3.74078435E-10
  -3.10999993E-02    -4.06358364E-10
  -3.10500003E-02    -4.30836616E-10
  -3.09999995E-02    -4.46376713E-10
  -3.09500005E-02    -4.56194665E-10
  -3.08999997E-02    -4.66582051E-10
  -3.08500007E-02    -4.84224105E-10
  -3.07999998E-02    -5.13256659E-10
  -3.07500008E-02    -5.53358914E-10
  -3.07000000E-02    -5.99762184E-10
  -3.06499992E-02    -6.45230258E-10
  -3.06000002E-02    -6.83195611E-10
  -3.05499993E-02    -7.10695613E-10
  -3.05000003E-02    -7.29800387E-10
  -3.04499995E-02    -7.46851525E-10
  -3.04000005E-02    -7.69782404E-10
  -3.03499997E-02    -8.04647515E-10
  -3.03000007E-02    -8.52876048E-10
  -3.02499998E-02    -9.10487574E-10
  -3.02000009E-02    -9.69677783E-10
  -3.01500000E-02    -1.02214326E-09
  -3.00999992E-02    -1.06272369E-09
  -3.00500002E-02    -1.09175924E-09
  -2.99999993E-02    -1.11507803E-09
  -2.99500003E-02    -1.14155441E-09
  -2.98999995E-02    -1.17924526E-09
  -2.98500005E-02    -1.23177879E-09
  -2.97999997E-02    -1.29660027E-09
  -2.97500007E-02    -1.36590450E-09
  -2.96999998E-02    -1.42992018E-09
  -2.96500009E-02    -1.48115953E-09
  -2.96000000E-02    -1.51777879E-09
  -2.95499992E-02    -1.54453894E-09
  -2.95000002E-02    -1.57087443E-09
  -2.94499993E-02    -1.60684310E-09
  -2.94000003E-02    -1.65869118E-09
  -2.93499995E-02    -1.72598613E-09
  -2.93000005E-02    -1.80162496E-09
  -2.92499997E-02    -1.87479254E-09
  -2.92000007E-02    -1.93564009E-09
  -2.91499998E-02    -1.97965799E-09
  -2.91000009E-02    -2.00980588E-09
  -2.90500000E-02    -2.03539585E-09
  -2.89999992E-02    -2.06814343E-09
  -2.89500002E-02    -2.11705342E-09
  -2.88999993E-02    -2.18437668E-09
  -2.88500004E-02    -2.26444863E-09
  -2.87999995E-02    -2.34600028E-09
  -2.87500005E-02    -2.41700349E-09
  -2.86999997E-02    -2.46997556E-09
  -2.86500007E-02    -2.50540610E-09
  -2.85999998E-02    -2.53174726E-09
  -2.85500009E-02    -2.56188537E-09
  -2.85000000E-02    -2.60757038E-09
  -2.84499992E-02    -2.67420797E-09
  -2.84000002E-02    -2.75833023E-09
  -2.83499993E-02    -2.84892199E-09
  -2.83000004E-02    -2.93210944E-09
  -2.82499995E-02    -2.99722269E-09
  -2.82000005E-02    -3.04158321E-09
  -2.81499997E-02    -3.07187009E-09
  -2.81000007E-02    -3.10138404E-09
  -2.80499998E-02    -3.14432169E-09
  -2.80000009E-02    -3.20951887E-09
  -2.79500000E-02    -3.29641625E-09
  -2.78999992E-02    -3.39508022E-09
  -2.78500002E-02    -3.49035933E-09
  -2.77999993E-02    -3.56843910E-09
  -2.77500004E-02    -3.62295149E-09
  -2.76999995E-02    -3.65793640E-09
  -2.76500005E-02    -3.68627529E-09
  -2.75999997E-02    -3.72419051E-09
  -2.75500007E-02    -3.78415255E-09
  -2.74999999E-02    -3.86928889E-09
  -2.74500009E-02    -3.97180422E-09
  -2.74000000E-02    -4.07618339E-09
  -2.73499992E-02    -4.16587698E-09
  -2.73000002E-02    -4.23058610E-09
  -2.72499993E-02    -4.27094404E-09
  -2.72000004E-02    -4.29847891E-09
  -2.71499995E-02    -4.33077263E-09
  -2.71000005E-02    -4.38385328E-09
  -2.70499997E-02    -4.46512161E-09
  -2.70000007E-02    -4.56994131E-09
  -2.69499999E-02    -4.68347849E-09
  -2.69000009E-02    -4.78707252E-09
  -2.68500000E-02    -4.86643259E-09
  -2.67999992E-02    -4.91806373E-09
  -2.67500002E-02    -4.95106578E-09
  -2.66999993E-02    -4.98340658E-09
  -2.66500004E-02    -5.03421660E-09
  -2.65999995E-02    -5.11542009E-09
  -2.65500005E-02    -5.22638421E-09
  -2.64999997E-02    -5.35400257E-09
  -2.64500007E-02    -5.47828405E-09
  -2.63999999E-02    -5.58107915E-09
  -2.63500009E-02    -5.65415847E-09
  -2.63000000E-02    -5.70306646E-09
  -2.62499992E-02    -5.74496761E-09
  -2.62000002E-02    -5.80132564E-09
  -2.61499994E-02    -5.88854876E-09
  -2.61000004E-02    -6.01068928E-09
  -2.60499995E-02    -6.15745632E-09
  -2.60000005E-02    -6.30851549E-09
  -2.59499997E-02    -6.44229070E-09
  -2.59000007E-02    -6.54547305E-09
  -2.58499999E-02    -6.61904487E-09
  -2.58000009E-02    -6.67811673E-09
  -2.57500000E-02    -6.74552592E-09
  -2.56999992E-02    -6.84191859E-09
  -2.56500002E-02    -6.97661751E-09
  -2.55999994E-02    -7.14332815E-09
  -2.55500004E-02    -7.32264427E-09
  -2.54999995E-02    -7.49037543E-09
  -2.54500005E-02    -7.62811858E-09
  -2.53999997E-02    -7.73145103E-09
  -2.53500007E-02    -7.81209675E-09
  -2.52999999E-02    -7.89300447E-09
  -2.52500009E-02    -7.99840194E-09
  -2.52000000E-02    -8.14311552E-09
  -2.51499992E-02    -8.32586622E-09
  -2.51000002E-02    -8.52954596E-09
  -2.50499994E-02    -8.72847927E-09
  -2.50000004E-02    -8.89957708E-09
  -2.49499995E-02    -9.03252584E-09
  -2.49000005E-02    -9.13451714E-09
  -2.48499997E-02    -9.22734067E-09
  -2.48000007E-02    -9.33801036E-09
  -2.47499999E-02    -9.48694900E-09
  -2.47000009E-02    -9.67890745E-09
  -2.46500000E-02    -9.90066074E-09
  -2.45999992E-02    -1.01265920E-08
  -2.45500002E-02    -1.03298268E-08
  -2.44999994E-02    -1.04940945E-08
  -2.44500004E-02    -1.06210978E-08
  -2.43999995E-02    -1.07300826E-08
  -2.43500005E-02    -1.08496705E-08
  -2.42999997E-02    -1.10054614E-08
  -2.42500007E-02    -1.12087832E-08
  -2.41999999E-02    -1.14515792E-08
  -2.41500009E-02    -1.17097567E-08
  -2.41000000E-02    -1.19536558E-08
  -2.40499992E-02    -1.21611086E-08
  -2.40000002E-02    -1.23273907E-08
  -2.39499994E-02    -1.24676260E-08
  -2.39000004E-02    -1.26104851E-08
  -2.38499995E-02    -1.27858462E-08
  -2.38000005E-02    -1.30117481E-08
  -2.37499997E-02    -1.32863951E-08
  -2.37000007E-02    -1.35887763E-08
  -2.36499999E-02    -1.38877621E-08
  -2.36000009E-02    -1.41557557E-08
  -2.35500000E-02    -1.43809746E-08
  -2.34999992E-02    -1.45729206E-08
  -2.34500002E-02    -1.47585419E-08
  -2.33999994E-02    -1.49706771E-08
  -2.33500004E-02    -1.52337485E-08
  -2.32999995E-02    -1.55529847E-08
  -2.32500006E-02    -1.59119509E-08
  -2.31999997E-02    -1.62795697E-08
  -2.31500007E-02    -1.66236660E-08
  -2.30999999E-02    -1.69251368E-08
  -2.30500009E-02    -1.71865349E-08
  -2.30000000E-02    -1.74312191E-08
  -2.29499992E-02    -1.76933241E-08
  -2.29000002E-02    -1.80028881E-08
  -2.28499994E-02    -1.83725941E-08
  -2.28000004E-02    -1.87920026E-08
  -2.27499995E-02    -1.92318872E-08
  -2.27000006E-02    -1.96568628E-08
  -2.26499997E-02    -2.00408756E-08
  -2.26000007E-02    -2.03787209E-08
  -2.25499999E-02    -2.06885353E-08
  -2.25000009E-02    -2.10040305E-08
  -2.24500000E-02    -2.13598010E-08
  -2.23999992E-02    -2.17760885E-08
  -2.23500002E-02    -2.22497007E-08
  -2.22999994E-02    -2.27551276E-08
  -2.22500004E-02    -2.32554935E-08
  -2.21999995E-02    -2.37185880E-08
  -2.21500006E-02    -2.41310101E-08
  -2.20999997E-02    -2.45041658E-08
  -2.20500007E-02    -2.48694292E-08
  -2.19999999E-02    -2.52644536E-08
  -2.19500009E-02    -2.57166235E-08
  -2.19000001E-02    -2.62308575E-08
  -2.18499992E-02    -2.67871556E-08
  -2.18000002E-02    -2.73490972E-08
  -2.17499994E-02    -2.78796186E-08
  -2.17000004E-02    -2.83572028E-08
  -2.16499995E-02    -2.87853918E-08
  -2.16000006E-02    -2.91913622E-08
  -2.15499997E-02    -2.96141049E-08
  -2.15000007E-02    -3.00873388E-08
  -2.14499999E-02    -3.06246051E-08
  -2.14000009E-02    -3.12130801E-08
  -2.13500001E-02    -3.18189635E-08
  -2.12999992E-02    -3.24020846E-08
  -2.12500002E-02    -3.29334320E-08
  -2.11999994E-02    -3.34079040E-08
  -2.11500004E-02    -3.38466712E-08
  -2.10999995E-02    -3.42879893E-08
  -2.10500006E-02    -3.47705011E-08
  -2.09999997E-02    -3.53162051E-08
  -2.09500007E-02    -3.59206673E-08
  -2.08999999E-02    -3.65547450E-08
  -2.08500009E-02    -3.71771769E-08
  -2.08000001E-02    -3.77525957E-08
  -2.07499992E-02    -3.82670358E-08
  -2.07000002E-02    -3.87341679E-08
  -2.06499994E-02    -3.91894481E-08
  -2.06000004E-02    -3.96746742E-08
  -2.05499995E-02    -4.02196676E-08
  -2.05000006E-02    -4.08291392E-08
  -2.04499997E-02    -4.14804830E-08
  -2.04000007E-02    -4.21335429E-08
  -2.03499999E-02    -4.27481446E-08
  -2.03000009E-02    -4.33017249E-08
  -2.02500001E-02    -4.37993037E-08
  -2.01999992E-02    -4.42714310E-08
  -2.01500002E-02    -4.47609061E-08
  -2.00999994E-02    -4.53040805E-08
  -2.00500004E-02    -4.59149092E-08
  -1.99999996E-02    -4.65787338E-08
  -1.99500006E-02    -4.72586201E-08
  -1.98999997E-02    -4.79114490E-08
  -1.98500007E-02    -4.85068092E-08
  -1.97999999E-02    -4.90403735E-08
  -1.97500009E-02    -4.95358705E-08
  -1.97000001E-02    -5.00348207E-08
  -1.96499992E-02    -5.05783824E-08
  -1.96000002E-02    -5.11893532E-08
  -1.95499994E-02    -5.18621341E-08
  -1.95000004E-02    -5.25651238E-08
  -1.94499996E-02    -5.32544959E-08
  -1.94000006E-02    -5.38933982E-08
  -1.93499997E-02    -5.44680709E-08
  -1.93000007E-02    -5.49939401E-08
  -1.92499999E-02    -5.55089130E-08
  -1.92000009E-02    -5.60568054E-08
  -1.91500001E-02    -5.66681528E-08
  -1.90999992E-02    -5.73468313E-08
  -1.90500002E-02    -5.80682880E-08
  -1.89999994E-02    -5.87902349E-08
  -1.89500004E-02    -5.94711373E-08
  -1.88999996E-02    -6.00883254E-08
  -1.88500006E-02    -6.06479063E-08
  -1.87999997E-02    -6.11820425E-08
  -1.87500007E-02    -6.17348448E-08
  -1.86999999E-02    -6.23430125E-08
  -1.86500009E-02    -6.30197405E-08
  -1.86000001E-02    -6.37488924E-08
  -1.85499992E-02    -6.44920206E-08
  -1.85000002E-02    -6.52051639E-08
  -1.84499994E-02    -6.58579964E-08
  -1.84000004E-02    -6.64470505E-08
  -1.83499996E-02    -6.69971385E-08
  -1.83000006E-02    -6.75503671E-08
  -1.82499997E-02    -6.81476919E-08
  -1.82000007E-02    -6.88109054E-08
  -1.81499999E-02    -6.95330726E-08
  -1.81000009E-02    -7.02815726E-08
  -1.80500001E-02    -7.10123089E-08
  -1.79999992E-02    -7.16889730E-08
  -1.79500002E-02    -7.22987750E-08
  -1.78999994E-02    -7.28578868E-08
  -1.78500004E-02    -7.34042231E-08
  -1.77999996E-02    -7.39807007E-08
  -1.77500006E-02    -7.46163735E-08
  -1.76999997E-02    -7.53137002E-08
  -1.76500008E-02    -7.60474990E-08
  -1.75999999E-02    -7.67759545E-08
  -1.75500009E-02    -7.74588713E-08
  -1.75000001E-02    -7.80751108E-08
  -1.74499992E-02    -7.86316789E-08
  -1.74000002E-02    -7.91604009E-08
  -1.73499994E-02    -7.97038098E-08
  -1.73000004E-02    -8.02964308E-08
  -1.72499996E-02    -8.09496257E-08
  -1.72000006E-02    -8.16466894E-08
  -1.71499997E-02    -8.23502049E-08
  -1.71000008E-02    -8.30184348E-08
  -1.70499999E-02    -8.36234193E-08
  -1.70000009E-02    -8.41630481E-08
  -1.69500001E-02    -8.46616572E-08
  -1.68999992E-02    -8.51591793E-08
  -1.68500002E-02    -8.56934577E-08
  -1.67999994E-02    -8.62836842E-08
  -1.67500004E-02    -8.69221068E-08
  -1.66999996E-02    -8.75775541E-08
  -1.66500006E-02    -8.82091697E-08
  -1.65999997E-02    -8.87843257E-08
  -1.65500008E-02    -8.92926764E-08
  -1.64999999E-02    -8.97504933E-08
  -1.64500009E-02    -9.01932751E-08
  -1.64000001E-02    -9.06600022E-08
  -1.63499992E-02    -9.11761475E-08
  -1.63000003E-02    -9.17426277E-08
  -1.62499994E-02    -9.23357177E-08
  -1.62000004E-02    -9.29175954E-08
  -1.61499996E-02    -9.34530817E-08
  -1.61000006E-02    -9.39248963E-08
  -1.60499997E-02    -9.43410470E-08
  -1.60000008E-02    -9.47310497E-08
  -1.59499999E-02    -9.51328190E-08
  -1.59000009E-02    -9.55760626E-08
  -1.58500001E-02    -9.60694493E-08
  -1.57999992E-02    -9.65971765E-08
  -1.57500003E-02    -9.71262537E-08
  -1.56999994E-02    -9.76211609E-08
  -1.56500004E-02    -9.80594876E-08
  -1.55999996E-02    -9.84415323E-08
  -1.55499997E-02    -9.87899682E-08
  -1.54999997E-02    -9.91396405E-08
  -1.54499998E-02    -9.95222891E-08
  -1.53999999E-02    -9.99528567E-08
  -1.53500000E-02    -1.00423307E-07
  -1.53000001E-02    -1.00906625E-07
  -1.52500002E-02    -1.01369032E-07
  -1.52000003E-02    -1.01784885E-07
  -1.51500003E-02    -1.02147837E-07
  -1.51000004E-02    -1.02473344E-07
  -1.50499996E-02    -1.02791553E-07
  -1.49999997E-02    -1.03133978E-07
  -1.49499997E-02    -1.03519810E-07
  -1.48999998E-02    -1.03947833E-07
  -1.48499999E-02    -1.04397486E-07
  -1.48000000E-02    -1.04838307E-07
  -1.47500001E-02    -1.05243522E-07
  -1.47000002E-02    -1.05601700E-07
  -1.46500003E-02    -1.05921472E-07
  -1.46000003E-02    -1.06227368E-07
  -1.45500004E-02    -1.06548761E-07
  -1.44999996E-02    -1.06906981E-07
  -1.44499997E-02    -1.07306221E-07
  -1.43999998E-02    -1.07732184E-07
  -1.43499998E-02    -1.08158801E-07
  -1.42999999E-02    -1.08559981E-07
  -1.42500000E-02    -1.08921007E-07
  -1.42000001E-02    -1.09244631E-07
  -1.41500002E-02    -1.09549376E-07
  -1.41000003E-02    -1.09860913E-07
  -1.40500003E-02    -1.10200581E-07
  -1.40000004E-02    -1.10576075E-07
  -1.39499996E-02    -1.10978412E-07
  -1.38999997E-02    -1.11386321E-07
  -1.38499998E-02    -1.11775805E-07
  -1.37999998E-02    -1.12130650E-07
  -1.37499999E-02    -1.12449165E-07
  -1.37000000E-02    -1.12744218E-07
  -1.36500001E-02    -1.13036940E-07
  -1.36000002E-02    -1.13346914E-07
  -1.35500003E-02    -1.13683427E-07
  -1.35000004E-02    -1.14041590E-07
  -1.34500004E-02    -1.14404763E-07
  -1.33999996E-02    -1.14752133E-07
  -1.33499997E-02    -1.15067849E-07
  -1.32999998E-02    -1.15347490E-07
  -1.32499998E-02    -1.15599285E-07
  -1.31999999E-02    -1.15839555E-07
  -1.31500000E-02    -1.16084756E-07
  -1.31000001E-02    -1.16343799E-07
  -1.30500002E-02    -1.16614032E-07
  -1.30000003E-02    -1.16882589E-07
  -1.29500004E-02    -1.17132217E-07
  -1.29000004E-02    -1.17348861E-07
  -1.28499996E-02    -1.17527371E-07
  -1.27999997E-02    -1.17672954E-07
  -1.27499998E-02    -1.17797825E-07
  -1.26999998E-02    -1.17914851E-07
  -1.26499999E-02    -1.18031153E-07
  -1.26000000E-02    -1.18144676E-07
  -1.25500001E-02    -1.18245133E-07
  -1.25000002E-02    -1.18318681E-07
  -1.24500003E-02    -1.18354073E-07
  -1.24000004E-02    -1.18347224E-07
  -1.23500004E-02    -1.18302204E-07
  -1.22999996E-02    -1.18228442E-07
  -1.22499997E-02    -1.18135382E-07
  -1.21999998E-02    -1.18027437E-07
  -1.21499998E-02    -1.17901550E-07
  -1.20999999E-02    -1.17748456E-07
  -1.20500000E-02    -1.17556951E-07
  -1.20000001E-02    -1.17318905E-07
  -1.19500002E-02    -1.17032670E-07
  -1.19000003E-02    -1.16703156E-07
  -1.18500004E-02    -1.16338626E-07
  -1.18000004E-02    -1.15945888E-07
  -1.17499996E-02    -1.15526227E-07
  -1.16999997E-02    -1.15074201E-07
  -1.16499998E-02    -1.14579855E-07
  -1.15999999E-02    -1.14033305E-07
  -1.15499999E-02    -1.13429323E-07
  -1.15000000E-02    -1.12769726E-07
  -1.14500001E-02    -1.12062210E-07
  -1.14000002E-02    -1.11316155E-07
  -1.13500003E-02    -1.10537442E-07
  -1.13000004E-02    -1.09724851E-07
  -1.12500004E-02    -1.08869870E-07
  -1.11999996E-02    -1.07960268E-07
  -1.11499997E-02    -1.06985652E-07
  -1.10999998E-02    -1.05942497E-07
  -1.10499999E-02    -1.04835962E-07
  -1.09999999E-02    -1.03677543E-07
  -1.09500000E-02    -1.02479419E-07
  -1.09000001E-02    -1.01248176E-07
  -1.08500002E-02    -9.99808734E-08
  -1.08000003E-02    -9.86655664E-08
  -1.07500004E-02    -9.72862608E-08
  -1.07000005E-02    -9.58301456E-08
  -1.06499996E-02    -9.42937532E-08
  -1.05999997E-02    -9.26850419E-08
  -1.05499998E-02    -9.10200697E-08
  -1.04999999E-02    -8.93157051E-08
  -1.04499999E-02    -8.75814905E-08
  -1.04000000E-02    -8.58145199E-08
  -1.03500001E-02    -8.39999572E-08
  -1.03000002E-02    -8.21171469E-08
  -1.02500003E-02    -8.01488724E-08
  -1.02000004E-02    -7.80894851E-08
  -1.01500005E-02    -7.59480443E-08
  -1.00999996E-02    -7.37448360E-08
  -1.00499997E-02    -7.15023987E-08
  -9.99999978E-03    -6.92351350E-08
  -9.94999986E-03    -6.69421070E-08
  -9.89999995E-03    -6.46065814E-08
  -9.85000003E-03    -6.22028438E-08
  -9.80000012E-03    -5.97074461E-08
  -9.75000020E-03    -5.71098866E-08
  -9.70000029E-03    -5.44179208E-08
  -9.65000037E-03    -5.16546592E-08
  -9.60000046E-03    -4.88485483E-08
  -9.54999961E-03    -4.60205030E-08
  -9.49999969E-03    -4.31738769E-08
  -9.44999978E-03    -4.02920968E-08
  -9.39999986E-03    -3.73451847E-08
  -9.34999995E-03    -3.43026905E-08
  -9.30000003E-03    -3.11473158E-08
  -9.25000012E-03    -2.78830452E-08
  -9.20000020E-03    -2.45339944E-08
  -9.15000029E-03    -2.11340048E-08
  -9.10000037E-03    -1.77114767E-08
  -9.05000046E-03    -1.42760825E-08
  -8.99999961E-03    -1.08134373E-08
  -8.94999970E-03    -7.29043093E-09
  -8.89999978E-03    -3.66916186E-09
  -8.84999987E-03     7.65161615E-11
  -8.79999995E-03     3.94920585E-09
  -8.75000004E-03     7.92640531E-09
  -8.70000012E-03     1.19702062E-08
  -8.65000021E-03     1.60442397E-08
  -8.60000029E-03     2.01304982E-08
  -8.55000038E-03     2.42384317E-08
  -8.50000046E-03     2.84020576E-08
  -8.44999962E-03     3.26659730E-08
  -8.39999970E-03     3.70662327E-08
  -8.34999979E-03     4.16145305E-08
  -8.29999987E-03     4.62928185E-08
  -8.24999996E-03     5.10611144E-08
  -8.20000004E-03     5.58753399E-08
  -8.15000013E-03     6.07074782E-08
  -8.10000021E-03     6.55591137E-08
  -8.05000030E-03     7.04621428E-08
  -8.00000038E-03     7.54659908E-08
  -7.95000046E-03     8.06167151E-08
  -7.89999962E-03     8.59370672E-08
  -7.84999970E-03     9.14165952E-08
  -7.79999979E-03     9.70161622E-08
  -7.74999987E-03     1.02685519E-07
  -7.69999996E-03     1.08386182E-07
  -7.65000004E-03     1.14109703E-07
  -7.60000013E-03     1.19882927E-07
  -7.55000021E-03     1.25757765E-07
  -7.49999983E-03     1.31789506E-07
  -7.44999992E-03     1.38013291E-07
  -7.40000000E-03     1.44428924E-07
  -7.35000009E-03     1.51001188E-07
  -7.30000017E-03     1.57675672E-07
  -7.24999979E-03     1.64403531E-07
  -7.19999988E-03     1.71164316E-07
  -7.14999996E-03     1.77976688E-07
  -7.10000005E-03     1.84891931E-07
  -7.05000013E-03     1.91973001E-07
  -7.00000022E-03     1.99267944E-07
  -6.94999984E-03     2.06789423E-07
  -6.89999992E-03     2.14509640E-07
  -6.85000001E-03     2.22373004E-07
  -6.80000009E-03     2.30321561E-07
  -6.75000018E-03     2.38321803E-07
  -6.69999979E-03     2.46381262E-07
  -6.64999988E-03     2.54547189E-07
  -6.59999996E-03     2.62887824E-07
  -6.55000005E-03     2.71463875E-07
  -6.50000013E-03     2.80302970E-07
  -6.45000022E-03     2.89388538E-07
  -6.39999984E-03     2.98667743E-07
  -6.34999992E-03     3.08075869E-07
  -6.30000001E-03     3.17566446E-07
  -6.25000009E-03     3.27133563E-07
  -6.20000018E-03     3.36816839E-07
  -6.14999980E-03     3.46686392E-07
  -6.09999988E-03     3.56813928E-07
  -6.04999997E-03     3.67243132E-07
  -6.00000005E-03     3.77971617E-07
  -5.95000014E-03     3.88953367E-07
  -5.90000022E-03     4.00120314E-07
  -5.84999984E-03     4.11414135E-07
  -5.79999993E-03     4.22814168E-07
  -5.75000001E-03     4.34349175E-07
  -5.70000010E-03     4.46087313E-07
  -5.65000018E-03     4.58108957E-07
  -5.59999980E-03     4.70473424E-07
  -5.54999989E-03     4.83195038E-07
  -5.49999997E-03     4.96238385E-07
  -5.45000006E-03     5.09536051E-07
  -5.40000014E-03     5.23020162E-07
  -5.35000023E-03     5.36655136E-07
  -5.29999984E-03     5.50456150E-07
  -5.24999993E-03     5.64485845E-07
  -5.20000001E-03     5.78829770E-07
  -5.15000010E-03     5.93561992E-07
  -5.10000018E-03     6.08714970E-07
  -5.04999980E-03     6.24267614E-07
  -4.99999989E-03     6.40157225E-07
  -4.94999997E-03     6.56309453E-07
  -4.90000006E-03     6.72674275E-07
  -4.85000014E-03     6.89251237E-07
  -4.80000023E-03     7.06093601E-07
  -4.74999985E-03     7.23288451E-07
  -4.69999993E-03     7.40922246E-07
  -4.65000002E-03     7.59045861E-07
  -4.60000010E-03     7.77655544E-07
  -4.55000019E-03     7.96697634E-07
  -4.49999981E-03     8.16095167E-07
  -4.44999989E-03     8.35785556E-07
  -4.39999998E-03     8.55751637E-07
  -4.35000006E-03     8.76033596E-07
  -4.30000015E-03     8.96715846E-07
  -4.25000023E-03     9.17893829E-07
  -4.19999985E-03     9.39636095E-07
  -4.14999994E-03     9.61958449E-07
  -4.10000002E-03     9.84820531E-07
  -4.05000011E-03     1.00814759E-06
  -4.00000019E-03     1.03186767E-06
  -3.94999981E-03     1.05594768E-06
  -3.89999989E-03     1.08041297E-06
  -3.84999998E-03     1.10534108E-06
  -3.80000006E-03     1.13083240E-06
  -3.74999992E-03     1.15697139E-06
  -3.70000000E-03     1.18379410E-06
  -3.65000009E-03     1.21127675E-06
  -3.59999994E-03     1.23935092E-06
  -3.55000002E-03     1.26793907E-06
  -3.50000011E-03     1.29699356E-06
  -3.44999996E-03     1.32652292E-06
  -3.40000005E-03     1.35659434E-06
  -3.34999990E-03     1.38730934E-06
  -3.29999998E-03     1.41876512E-06
  -3.25000007E-03     1.45101774E-06
  -3.19999992E-03     1.48406309E-06
  -3.15000000E-03     1.51784400E-06
  -3.10000009E-03     1.55228224E-06
  -3.04999994E-03     1.58731837E-06
  -3.00000003E-03     1.62294486E-06
  -2.95000011E-03     1.65921551E-06
  -2.89999996E-03     1.69622922E-06
  -2.85000005E-03     1.73409273E-06
  -2.79999990E-03     1.77288121E-06
  -2.74999999E-03     1.81261123E-06
  -2.70000007E-03     1.85324166E-06
  -2.64999992E-03     1.89469779E-06
  -2.60000001E-03     1.93691244E-06
  -2.55000009E-03     1.97986287E-06
  -2.49999994E-03     2.02358819E-06
  -2.45000003E-03     2.06818049E-06
  -2.40000011E-03     2.11375186E-06
  -2.34999997E-03     2.16039348E-06
  -2.30000005E-03     2.20814354E-06
  -2.24999990E-03     2.25697886E-06
  -2.19999999E-03     2.30683372E-06
  -2.15000007E-03     2.35763764E-06
  -2.09999993E-03     2.40935515E-06
  -2.05000001E-03     2.46200989E-06
  -2.00000009E-03     2.51568463E-06
  -1.94999995E-03     2.57049305E-06
  -1.90000003E-03     2.62653953E-06
  -1.85000000E-03     2.68388317E-06
  -1.79999997E-03     2.74252147E-06
  -1.75000005E-03     2.80240147E-06
  -1.70000002E-03     2.86345403E-06
  -1.64999999E-03     2.92563391E-06
  -1.59999996E-03     2.98895111E-06
  -1.55000004E-03     3.05347726E-06
  -1.50000001E-03     3.11932354E-06
  -1.44999998E-03     3.18660364E-06
  -1.39999995E-03     3.25539509E-06
  -1.35000004E-03     3.32571608E-06
  -1.30000000E-03     3.39752933E-06
  -1.24999997E-03     3.47077071E-06
  -1.20000006E-03     3.54538884E-06
  -1.15000003E-03     3.62138121E-06
  -1.09999999E-03     3.69880649E-06
  -1.04999996E-03     3.77777110E-06
  -1.00000005E-03     3.85839530E-06
  -9.50000016E-04     3.94077188E-06
  -8.99999985E-04     4.02494015E-06
  -8.50000011E-04     4.11088058E-06
  -7.99999980E-04     4.19853859E-06
  -7.50000007E-04     4.28786052E-06
  -6.99999975E-04     4.37883455E-06
  -6.50000002E-04     4.47150614E-06
  -6.00000028E-04     4.56597581E-06
  -5.49999997E-04     4.66236588E-06
  -5.00000024E-04     4.76078185E-06
  -4.49999992E-04     4.86128283E-06
  -3.99999990E-04     4.96386701E-06
  -3.49999988E-04     5.06849165E-06
  -3.00000014E-04     5.17510534E-06
  -2.50000012E-04     5.28368719E-06
  -1.99999995E-04     5.39427310E-06
  -1.50000007E-04     5.50695358E-06
  -9.99999975E-05     5.62185005E-06
  -4.99999987E-05     5.73907892E-06
   0.00000000         5.85871476E-06
   4.99999987E-05     5.98077577E-06
   9.99999975E-05     6.10523193E-06
   1.50000007E-04     6.23203687E-06
   1.99999995E-04     6.36116647E-06
   2.50000012E-04     6.49264666E-06
   3.00000014E-04     6.62655884E-06
   3.49999988E-04     6.76302398E-06
   3.99999990E-04     6.90216393E-06
   4.49999992E-04     7.04406784E-06