  -3.99999991E-02   0.00000000    
  -3.99499983E-02   0.00000000    
  -3.99000011E-02   0.00000000    
  -3.98500003E-02   1.15875381E-17
  -3.97999994E-02   1.14858157E-16
  -3.97499986E-02   5.87433654E-16
  -3.97000015E-02   2.06766418E-15
  -3.96500006E-02   5.62557821E-15
  -3.95999998E-02   1.25857856E-14
  -3.95499989E-02   2.40491864E-14
  -3.95000018E-02   4.02769757E-14
  -3.94500010E-02   6.03003162E-14
  -3.94000001E-02   8.21402137E-14
  -3.93499993E-02   1.03789746E-13
  -3.92999984E-02   1.24703064E-13
  -3.92500013E-02   1.47147499E-13
  -3.92000005E-02   1.76626536E-13
  -3.91499996E-02   2.20828469E-13
  -3.90999988E-02   2.87190546E-13
  -3.90500017E-02   3.79958489E-13
  -3.90000008E-02   4.98154306E-13
  -3.89500000E-02   6.35734737E-13
  -3.88999991E-02   7.84334837E-13
  -3.88499983E-02   9.37712039E-13
  -3.88000011E-02   1.09597639E-12
  -3.87500003E-02   1.26750563E-12
  -3.86999995E-02   1.46724267E-12
  -3.86499986E-02   1.71159560E-12
  -3.86000015E-02   2.01179199E-12
  -3.85500006E-02   2.36861767E-12
  -3.84999998E-02   2.77136387E-12
  -3.84499989E-02   3.20230973E-12
  -3.84000018E-02   3.64552616E-12
  -3.83500010E-02   4.09639380E-12
  -3.83000001E-02   4.56723808E-12
  -3.82499993E-02   5.08580027E-12
  -3.81999984E-02   5.68635937E-12
  -3.81500013E-02   6.39677460E-12
  -3.81000005E-02   7.22691091E-12
  -3.80499996E-02   8.16377261E-12
  -3.79999988E-02   9.17623789E-12
  -3.79500017E-02   1.02283815E-11
  -3.79000008E-02   1.12964187E-11
  -3.78500000E-02   1.23819887E-11
  -3.77999991E-02   1.35151499E-11
  -3.77499983E-02   1.47444938E-11
  -3.77000012E-02   1.61176992E-11
  -3.76500003E-02   1.76608086E-11
  -3.75999995E-02   1.93657868E-11
  -3.75499986E-02   2.11926882E-11
  -3.75000015E-02   2.30864650E-11
  -3.74500006E-02   2.50017906E-11
  -3.73999998E-02   2.69255000E-11
  -3.73499990E-02   2.88864991E-11
  -3.73000018E-02   3.09475987E-11
  -3.72500010E-02   3.31811592E-11
  -3.72000001E-02   3.56380030E-11
  -3.71499993E-02   3.83232716E-11
  -3.70999984E-02   4.11909742E-11
  -3.70500013E-02   4.41612406E-11
  -3.70000005E-02   4.71538225E-11
  -3.69499996E-02   5.01232875E-11
  -3.68999988E-02   5.30800924E-11
  -3.68500017E-02   5.60873813E-11
  -3.68000008E-02   5.92338817E-11
  -3.67500000E-02   6.25933957E-11
  -3.66999991E-02   6.61881661E-11
  -3.66499983E-02   6.99726249E-11
  -3.66000012E-02   7.38466233E-11
  -3.65500003E-02   7.76945938E-11
  -3.64999995E-02   8.14346021E-11
  -3.64499986E-02   8.50553239E-11
  -3.64000015E-02   8.86227619E-11
  -3.63500006E-02   9.22518381E-11
  -3.62999998E-02   9.60538732E-11
  -3.62499990E-02   1.00082442E-10
  -3.62000018E-02   1.04301526E-10
  -3.61500010E-02   1.08590990E-10
  -3.61000001E-02   1.12789049E-10
  -3.60499993E-02   1.16755189E-10
  -3.59999985E-02   1.20427432E-10
  -3.59500013E-02   1.23847793E-10
  -3.59000005E-02   1.27142435E-10
  -3.58499996E-02   1.30462557E-10
  -3.57999988E-02   1.33910494E-10
  -3.57500017E-02   1.37484052E-10
  -3.57000008E-02   1.41065173E-10
  -3.56500000E-02   1.44459500E-10
  -3.55999991E-02   1.47471077E-10
  -3.55499983E-02   1.49980695E-10
  -3.55000012E-02   1.51993612E-10
  -3.54500003E-02   1.53634883E-10
  -3.53999995E-02   1.55091662E-10
  -3.53499986E-02   1.56525154E-10
  -3.53000015E-02   1.57989857E-10
  -3.52500007E-02   1.59396898E-10
  -3.51999998E-02   1.60540248E-10
  -3.51499990E-02   1.61176891E-10
  -3.51000018E-02   1.61126848E-10
  -3.50500010E-02   1.60348151E-10
  -3.50000001E-02   1.58952976E-10
  -3.49499993E-02   1.57155705E-10
  -3.48999985E-02   1.55174207E-10
  -3.48500013E-02   1.53125693E-10
  -3.48000005E-02   1.50963422E-10
  -3.47499996E-02   1.48483684E-10
  -3.46999988E-02   1.45403800E-10
  -3.46500017E-02   1.41480133E-10
  -3.46000008E-02   1.36614664E-10
  -3.45500000E-02   1.30901803E-10
  -3.44999991E-02   1.24591476E-10
  -3.44499983E-02   1.17982124E-10
  -3.44000012E-02   1.11289172E-10
  -3.43500003E-02   1.04547038E-10
  -3.42999995E-02   9.75887218E-11
  -3.42499986E-02   9.01144506E-11
  -3.42000015E-02   8.18219520E-11
  -3.41500007E-02   7.25436933E-11
  -3.40999998E-02   6.23307170E-11
  -3.40499990E-02   5.14435855E-11
  -3.40000018E-02   4.02500741E-11
  -3.39500010E-02   2.90714917E-11
  -3.39000002E-02   1.80444392E-11
  -3.38499993E-02   7.06064417E-12
  -3.37999985E-02  -4.18544843E-12
  -3.37500013E-02  -1.60594333E-11
  -3.37000005E-02  -2.88180174E-11
  -3.36499996E-02  -4.24819728E-11
  -3.35999988E-02  -5.68074962E-11
  -3.35500017E-02  -7.13712908E-11
  -3.35000008E-02  -8.57358282E-11
  -3.34500000E-02  -9.96248847E-11
  -3.33999991E-02  -1.13032410E-10
  -3.33499983E-02  -1.26214317E-10
  -3.33000012E-02  -1.39562778E-10
  -3.32500003E-02  -1.53415919E-10
  -3.31999995E-02  -1.67886066E-10
  -3.31499986E-02  -1.82783830E-10
  -3.31000015E-02  -1.97674238E-10
  -3.30500007E-02  -2.12043202E-10
  -3.29999998E-02  -2.25503019E-10
  -3.29499990E-02  -2.37947662E-10
  -3.29000019E-02  -2.49587656E-10
  -3.28500010E-02  -2.60845623E-10
  -3.28000002E-02  -2.72154244E-10
  -3.27499993E-02  -2.83742613E-10
  -3.26999985E-02  -2.95505675E-10
  -3.26500013E-02  -3.07018105E-10
  -3.26000005E-02  -3.17690180E-10
  -3.25499997E-02  -3.27001592E-10
  -3.24999988E-02  -3.34710593E-10
  -3.24500017E-02  -3.40945439E-10
  -3.24000008E-02  -3.46135176E-10
  -3.23500000E-02  -3.50806301E-10
  -3.22999991E-02  -3.55332069E-10
  -3.22499983E-02  -3.59743263E-10
  -3.22000012E-02  -3.63686248E-10
  -3.21500003E-02  -3.66550484E-10
  -3.20999995E-02  -3.67714692E-10
  -3.20499986E-02  -3.66806585E-10
  -3.20000015E-02  -3.63861358E-10
  -3.19500007E-02  -3.59305807E-10
  -3.18999998E-02  -3.53770430E-10
  -3.18499990E-02  -3.47808810E-10
  -3.18000019E-02  -3.41645406E-10
  -3.17500010E-02  -3.35064143E-10
  -3.17000002E-02  -3.27490007E-10
  -3.16499993E-02  -3.18231302E-10
  -3.15999985E-02  -3.06779963E-10
  -3.15500014E-02  -2.93038954E-10
  -3.15000005E-02  -2.77375289E-10
  -3.14499997E-02  -2.60470895E-10
  -3.13999988E-02  -2.43032122E-10
  -3.13500017E-02  -2.25482896E-10
  -3.13000008E-02  -2.07776685E-10
  -3.12500000E-02  -1.89413818E-10
  -3.11999992E-02  -1.69661049E-10
  -3.11500002E-02  -1.47880388E-10
  -3.10999993E-02  -1.23824048E-10
  -3.10500003E-02  -9.77645812E-11
  -3.09999995E-02  -7.03991934E-11
  -3.09500005E-02  -4.25661208E-11
  -3.08999997E-02  -1.48941484E-11
  -3.08500007E-02   1.24619291E-11
  -3.07999998E-02   3.98813448E-11
  -3.07500008E-02   6.81019338E-11
  -3.07000000E-02   9.78810089E-11
  -3.06499992E-02   1.29639147E-10
  -3.06000002E-02   1.63244543E-10
  -3.05499993E-02   1.98037003E-10
  -3.05000003E-02   2.33087188E-10
  -3.04499995E-02   2.67579819E-10
  -3.04000005E-02   3.01156156E-10
  -3.03499997E-02   3.34059586E-10
  -3.03000007E-02   3.67019914E-10
  -3.02499998E-02   4.00918770E-10
  -3.02000009E-02   4.36379516E-10
  -3.01500000E-02   4.73459272E-10
  -3.00999992E-02   5.11580112E-10
  -3.00500002E-02   5.49735979E-10
  -2.99999993E-02   5.86888926E-10
  -2.99500003E-02   6.22384977E-10
  -2.98999995E-02   6.56205479E-10
  -2.98500005E-02   6.88940738E-10
  -2.97999997E-02   7.21491200E-10
  -2.97500007E-02   7.54626583E-10
  -2.96999998E-02   7.88593357E-10
  -2.96500009E-02   8.22947710E-10
  -2.96000000E-02   8.56688442E-10
  -2.95499992E-02   8.88640439E-10
  -2.95000002E-02   9.17922238E-10
  -2.94499993E-02   9.44297307E-10
  -2.94000003E-02   9.68248370E-10
  -2.93499995E-02   9.90739379E-10
  -2.93000005E-02   1.01276332E-09
  -2.92499997E-02   1.03486986E-09
  -2.92000007E-02   1.05688525E-09
  -2.91499998E-02   1.07794895E-09
  -2.91000009E-02   1.09685772E-09
  -2.90500000E-02   1.11256859E-09
  -2.89999992E-02   1.12463916E-09
  -2.89500002E-02   1.13341525E-09
  -2.88999993E-02   1.13987286E-09
  -2.88500004E-02   1.14518306E-09
  -2.87999995E-02   1.15018406E-09
  -2.87500005E-02   1.15499244E-09
  -2.86999997E-02   1.15892873E-09
  -2.86500007E-02   1.16079868E-09
  -2.85999998E-02   1.15941134E-09
  -2.85500009E-02   1.15410903E-09
  -2.85000000E-02   1.14507337E-09
  -2.84499992E-02   1.13327081E-09
  -2.84000002E-02   1.12005294E-09
  -2.83499993E-02   1.10658349E-09
  -2.83000004E-02   1.09334308E-09
  -2.82499995E-02   1.07992870E-09
  -2.82000005E-02   1.06523990E-09
  -2.81499997E-02   1.04797770E-09
  -2.81000007E-02   1.02724129E-09
  -2.80499998E-02   1.00295883E-09
  -2.80000009E-02   9.75959202E-10
  -2.79500000E-02   9.47644518E-10
  -2.78999992E-02   9.19401166E-10
  -2.78500002E-02   8.92006857E-10
  -2.77999993E-02   8.65292893E-10
  -2.77500004E-02   8.38215775E-10
  -2.76999995E-02   8.09309231E-10
  -2.76500005E-02   7.77323816E-10
  -2.75999997E-02   7.41773809E-10
  -2.75500007E-02   7.03149927E-10
  -2.74999999E-02   6.62702837E-10
  -2.74500009E-02   6.21882101E-10
  -2.74000000E-02   5.81676263E-10
  -2.73499992E-02   5.42146050E-10
  -2.73000002E-02   5.02363762E-10
  -2.72499993E-02   4.60787519E-10
  -2.72000004E-02   4.15917856E-10
  -2.71499995E-02   3.66943337E-10
  -2.71000005E-02   3.14094278E-10
  -2.70499997E-02   2.58541660E-10
  -2.70000007E-02   2.01885161E-10
  -2.69499999E-02   1.45448847E-10
  -2.69000009E-02   8.96909699E-11
  -2.68500000E-02   3.39965243E-11
  -2.67999992E-02  -2.30553961E-11
  -2.67500002E-02  -8.30560135E-11
  -2.66999993E-02  -1.47041157E-10
  -2.66500004E-02  -2.14995827E-10
  -2.65999995E-02  -2.85813428E-10
  -2.65500005E-02  -3.57735064E-10
  -2.64999997E-02  -4.29080216E-10
  -2.64500007E-02  -4.98950714E-10
  -2.63999999E-02  -5.67595804E-10
  -2.63500009E-02  -6.36277420E-10
  -2.63000000E-02  -7.06687209E-10
  -2.62499992E-02  -7.80169707E-10
  -2.62000002E-02  -8.57091120E-10
  -2.61499994E-02  -9.36638100E-10
  -2.61000004E-02  -1.01714126E-09
  -2.60499995E-02  -1.09678755E-09
  -2.60000005E-02  -1.17441068E-09
  -2.59499997E-02  -1.25001220E-09
  -2.59000007E-02  -1.32477362E-09
  -2.58499999E-02  -1.40055390E-09
  -2.58000009E-02  -1.47908263E-09
  -2.57500000E-02  -1.56120694E-09
  -2.56999992E-02  -1.64651837E-09
  -2.56500002E-02  -1.73353376E-09
  -2.55999994E-02  -1.82034965E-09
  -2.55500004E-02  -1.90548932E-09
  -2.54999995E-02  -1.98856887E-09
  -2.54500005E-02  -2.07048712E-09
  -2.53999997E-02  -2.15304641E-09
  -2.53500007E-02  -2.23817342E-09
  -2.52999999E-02  -2.32707653E-09
  -2.52500009E-02  -2.41971998E-09
  -2.52000000E-02  -2.51484900E-09
  -2.51499992E-02  -2.61056154E-09
  -2.51000002E-02  -2.70518186E-09
  -2.50499994E-02  -2.79804269E-09
  -2.50000004E-02  -2.88983526E-09
  -2.49499995E-02  -2.98236680E-09
  -2.49000005E-02  -3.07781978E-09
  -2.48499997E-02  -3.17784132E-09
  -2.48000007E-02  -3.28285643E-09
  -2.47499999E-02  -3.39191941E-09
  -2.47000009E-02  -3.50316731E-09
  -2.46500000E-02  -3.61468744E-09
  -2.45999992E-02  -3.72540665E-09
  -2.45500002E-02  -3.83562027E-09
  -2.44999994E-02  -3.94690769E-09
  -2.44500004E-02  -4.06147382E-09
  -2.43999995E-02  -4.18120516E-09
  -2.43500005E-02  -4.30684688E-09
  -2.42999997E-02  -4.43767378E-09
  -2.42500007E-02  -4.57180560E-09
  -2.41999999E-02  -4.70702677E-09
  -2.41500009E-02  -4.84175944E-09
  -2.41000000E-02  -4.97575536E-09
  -2.40499992E-02  -5.11020026E-09
  -2.40000002E-02  -5.24717381E-09
  -2.39499994E-02  -5.38870815E-09
  -2.39000004E-02  -5.53584822E-09
  -2.38499995E-02  -5.68814329E-09
  -2.38000005E-02  -5.84379523E-09
  -2.37499997E-02  -6.00039884E-09
  -2.37000007E-02  -6.15595663E-09
  -2.36499999E-02  -6.30972075E-09
  -2.36000009E-02  -6.46247811E-09
  -2.35500000E-02  -6.61616451E-09
  -2.34999992E-02  -6.77296086E-09
  -2.34500002E-02  -6.93427848E-09
  -2.33999994E-02  -7.10007919E-09
  -2.33500004E-02  -7.26883576E-09
  -2.32999995E-02  -7.43816253E-09
  -2.32500006E-02  -7.60583685E-09
  -2.31999997E-02  -7.77076092E-09
  -2.31500007E-02  -7.93343613E-09
  -2.30999999E-02  -8.09572942E-09
  -2.30500009E-02  -8.26004420E-09
  -2.30000000E-02  -8.42825099E-09
  -2.29499992E-02  -8.60085514E-09
  -2.29000002E-02  -8.77676953E-09
  -2.28499994E-02  -8.95381369E-09
  -2.28000004E-02  -9.12969611E-09
  -2.27499995E-02  -9.30308541E-09
  -2.27000006E-02  -9.47425161E-09
  -2.26499997E-02  -9.64502256E-09
  -2.26000007E-02  -9.81803705E-09
  -2.25499999E-02  -9.99564076E-09
  -2.25000009E-02  -1.01789084E-08
  -2.24500000E-02  -1.03672155E-08
  -2.23999992E-02  -1.05585771E-08
  -2.23500002E-02  -1.07505853E-08
  -2.22999994E-02  -1.09415463E-08
  -2.22500004E-02  -1.11313048E-08
  -2.21999995E-02  -1.13213945E-08
  -2.21500006E-02  -1.15144392E-08
  -2.20999997E-02  -1.17130581E-08
  -2.20500007E-02  -1.19187744E-08
  -2.19999999E-02  -1.21313875E-08
  -2.19500009E-02  -1.23491253E-08
  -2.19000001E-02  -1.25694832E-08
  -2.18499992E-02  -1.27904096E-08
  -2.18000002E-02  -1.30112738E-08
  -2.17499994E-02  -1.32332234E-08
  -2.17000004E-02  -1.34587248E-08
  -2.16499995E-02  -1.36905243E-08
  -2.16000006E-02  -1.39304559E-08
  -2.15499997E-02  -1.41786485E-08
  -2.15000007E-02  -1.44334749E-08
  -2.14499999E-02  -1.46922767E-08
  -2.14000009E-02  -1.49525530E-08
  -2.13500001E-02  -1.52130859E-08
  -2.12999992E-02  -1.54744821E-08
  -2.12500002E-02  -1.57389142E-08
  -2.11999994E-02  -1.60091371E-08
  -2.11500004E-02  -1.62872311E-08
  -2.10999995E-02  -1.65736420E-08
  -2.10500006E-02  -1.68669292E-08
  -2.09999997E-02  -1.71643606E-08
  -2.09500007E-02  -1.74630799E-08
  -2.08999999E-02  -1.77613302E-08
  -2.08500009E-02  -1.80592199E-08
  -2.08000001E-02  -1.83586391E-08
  -2.07499992E-02  -1.86623801E-08
  -2.07000002E-02  -1.89728429E-08
  -2.06499994E-02  -1.92908960E-08
  -2.06000004E-02  -1.96154097E-08
  -2.05499995E-02  -1.99436716E-08
  -2.05000006E-02  -2.02725268E-08
  -2.04499997E-02  -2.05997051E-08
  -2.04000007E-02  -2.09247908E-08
  -2.03499999E-02  -2.12493472E-08
  -2.03000009E-02  -2.15761826E-08
  -2.02500001E-02  -2.19080505E-08
  -2.01999992E-02  -2.22463523E-08
  -2.01500002E-02  -2.25904415E-08
  -2.00999994E-02  -2.29378383E-08
  -2.00500004E-02  -2.32852706E-08
  -1.99999996E-02  -2.36300881E-08
  -1.99500006E-02  -2.39714133E-08
  -1.98999997E-02  -2.43105180E-08
  -1.98500007E-02  -2.46502410E-08
  -1.97999999E-02  -2.49937084E-08
  -1.97500009E-02  -2.53429313E-08
  -1.97000001E-02  -2.56978776E-08
  -1.96499992E-02  -2.60564601E-08
  -1.96000002E-02  -2.64154547E-08
  -1.95499994E-02  -2.67719429E-08
  -1.95000004E-02  -2.71246243E-08
  -1.94499996E-02  -2.74744458E-08
  -1.94000006E-02  -2.78242140E-08
  -1.93499997E-02  -2.81773698E-08
  -1.93000007E-02  -2.85364674E-08
  -1.92499999E-02  -2.89020203E-08
  -1.92000009E-02  -2.92722699E-08
  -1.91500001E-02  -2.96439460E-08
  -1.90999992E-02  -3.00137266E-08
  -1.90500002E-02  -3.03797449E-08
  -1.89999994E-02  -3.07424521E-08
  -1.89500004E-02  -3.11044737E-08
  -1.88999996E-02  -3.14694937E-08
  -1.88500006E-02  -3.18406101E-08
  -1.87999997E-02  -3.22190061E-08
  -1.87500007E-02  -3.26033671E-08
  -1.86999999E-02  -3.29904886E-08
  -1.86500009E-02  -3.33767005E-08
  -1.86000001E-02  -3.37595161E-08
  -1.85499992E-02  -3.41387754E-08
  -1.85000002E-02  -3.45167557E-08
  -1.84499994E-02  -3.48971909E-08
  -1.84000004E-02  -3.52836196E-08
  -1.83499996E-02  -3.56777825E-08
  -1.83000006E-02  -3.60787986E-08
  -1.82499997E-02  -3.64834989E-08
  -1.82000007E-02  -3.68877942E-08
  -1.81499999E-02  -3.72884372E-08
  -1.81000009E-02  -3.76844653E-08
  -1.80500001E-02  -3.80776370E-08
  -1.79999992E-02  -3.84716117E-08
  -1.79500002E-02  -3.88703292E-08
  -1.78999994E-02  -3.92762018E-08
  -1.78500004E-02  -3.96889845E-08
  -1.77999996E-02  -4.01058031E-08
  -1.77500006E-02  -4.05223695E-08
  -1.76999997E-02  -4.09348360E-08
  -1.76500008E-02  -4.13414867E-08
  -1.75999999E-02  -4.17434762E-08
  -1.75500009E-02  -4.21442969E-08
  -1.75000001E-02  -4.25481872E-08
  -1.74499992E-02  -4.29581526E-08
  -1.74000002E-02  -4.33745306E-08
  -1.73499994E-02  -4.37947136E-08
  -1.73000004E-02  -4.42141790E-08
  -1.72499996E-02  -4.46283828E-08
  -1.72000006E-02  -4.50347173E-08
  -1.71499997E-02  -4.54336195E-08
  -1.71000008E-02  -4.58283438E-08
  -1.70499999E-02  -4.62234624E-08
  -1.70000009E-02  -4.66227590E-08
  -1.69500001E-02  -4.70274415E-08
  -1.68999992E-02  -4.74354849E-08
  -1.68500002E-02  -4.78423878E-08
  -1.67999994E-02  -4.82430877E-08
  -1.67500004E-02  -4.86341065E-08
  -1.66999996E-02  -4.90150640E-08
  -1.66500006E-02  -4.93888095E-08
  -1.65999997E-02  -4.97601036E-08
  -1.65500008E-02  -5.01334441E-08
  -1.64999999E-02  -5.05109554E-08
  -1.64500009E-02  -5.08912947E-08
  -1.64000001E-02  -5.12700993E-08
  -1.63499992E-02  -5.16417877E-08
  -1.63000003E-02  -5.20019334E-08
  -1.62499994E-02  -5.23491295E-08
  -1.62000004E-02  -5.26855324E-08
  -1.61499996E-02  -5.30158637E-08
  -1.61000006E-02  -5.33452251E-08
  -1.60499997E-02  -5.36766862E-08
  -1.60000008E-02  -5.40097780E-08
  -1.59499999E-02  -5.43405143E-08
  -1.59000009E-02  -5.46630083E-08
  -1.58500001E-02  -5.49719488E-08
  -1.57999992E-02  -5.52648771E-08
  -1.57500003E-02  -5.55432003E-08
  -1.56999994E-02  -5.58115225E-08
  -1.56500004E-02  -5.60754856E-08
  -1.55999996E-02  -5.63391893E-08
  -1.55499997E-02  -5.66032021E-08
  -1.54999997E-02  -5.68641276E-08
  -1.54499998E-02  -5.71159546E-08
  -1.53999999E-02  -5.73525654E-08
  -1.53500000E-02  -5.75703680E-08
  -1.53000001E-02  -5.77698351E-08
  -1.52500002E-02  -5.79552477E-08
  -1.52000003E-02  -5.81327271E-08
  -1.51500003E-02  -5.83074353E-08
  -1.51000004E-02  -5.84811417E-08
  -1.50499996E-02  -5.86512812E-08
  -1.49999997E-02  -5.88119704E-08
  -1.49499997E-02  -5.89565019E-08
  -1.48999998E-02  -5.90802429E-08
  -1.48499999E-02  -5.91827316E-08
  -1.48000000E-02  -5.92679186E-08
  -1.47500001E-02  -5.93424900E-08
  -1.47000002E-02  -5.94129403E-08
  -1.46500003E-02  -5.94827050E-08
  -1.46000003E-02  -5.95506187E-08
  -1.45500004E-02  -5.96113949E-08
  -1.44999996E-02  -5.96579994E-08
  -1.44499997E-02  -5.96848224E-08
  -1.43999998E-02  -5.96902581E-08
  -1.43499998E-02  -5.96775322E-08
  -1.42999999E-02  -5.96534520E-08
  -1.42500000E-02  -5.96254637E-08
  -1.42000001E-02  -5.95984702E-08
  -1.41500002E-02  -5.95726704E-08
  -1.41000003E-02  -5.95435239E-08
  -1.40500003E-02  -5.95038010E-08
  -1.40000004E-02  -5.94469185E-08
  -1.39499996E-02  -5.93700271E-08
  -1.38999997E-02  -5.92755107E-08
  -1.38499998E-02  -5.91701692E-08
  -1.37999998E-02  -5.90624261E-08
  -1.37499999E-02  -5.89587899E-08
  -1.37000000E-02  -5.88611293E-08
  -1.36500001E-02  -5.87659805E-08
  -1.36000002E-02  -5.86662381E-08
  -1.35500003E-02  -5.85544733E-08
  -1.35000004E-02  -5.84264974E-08
  -1.34500004E-02  -5.82835291E-08
  -1.33999996E-02  -5.81319952E-08
  -1.33499997E-02  -5.79809836E-08
  -1.32999998E-02  -5.78385020E-08
  -1.32499998E-02  -5.77081600E-08
  -1.31999999E-02  -5.75877657E-08
  -1.31500000E-02  -5.74704977E-08
  -1.31000001E-02  -5.73481955E-08
  -1.30500002E-02  -5.72152636E-08
  -1.30000003E-02  -5.70715812E-08
  -1.29500004E-02  -5.69229570E-08
  -1.29000004E-02  -5.67790295E-08
  -1.28499996E-02  -5.66494123E-08
  -1.27999997E-02  -5.65398253E-08
  -1.27499998E-02  -5.64498954E-08
  -1.26999998E-02  -5.63736648E-08
  -1.26499999E-02  -5.63026035E-08
  -1.26000000E-02  -5.62298119E-08
  -1.25500001E-02  -5.61535636E-08
  -1.25000002E-02  -5.60786049E-08
  -1.24500003E-02  -5.60145601E-08
  -1.24000004E-02  -5.59722046E-08
  -1.23500004E-02  -5.59591520E-08
  -1.22999996E-02  -5.59769333E-08
  -1.22499997E-02  -5.60207489E-08
  -1.21999998E-02  -5.60820723E-08
  -1.21499998E-02  -5.61530165E-08
  -1.20999999E-02  -5.62304798E-08
  -1.20500000E-02  -5.63182283E-08
  -1.20000001E-02  -5.64260070E-08
  -1.19500002E-02  -5.65659306E-08
  -1.19000003E-02  -5.67477869E-08
  -1.18500004E-02  -5.69753347E-08
  -1.18000004E-02  -5.72451953E-08
  -1.17499996E-02  -5.75489132E-08
  -1.16999997E-02  -5.78773331E-08
  -1.16499998E-02  -5.82253108E-08
  -1.15999999E-02  -5.85947575E-08
  -1.15499999E-02  -5.89945657E-08
  -1.15000000E-02  -5.94374647E-08
  -1.14500001E-02  -5.99351679E-08
  -1.14000002E-02  -6.04938961E-08
  -1.13500003E-02  -6.11123738E-08
  -1.13000004E-02  -6.17831546E-08
  -1.12500004E-02  -6.24966958E-08
  -1.11999996E-02  -6.32465316E-08
  -1.11499997E-02  -6.40330242E-08
  -1.10999998E-02  -6.48642668E-08
  -1.10499999E-02  -6.57534258E-08
  -1.09999999E-02  -6.67138664E-08
  -1.09500000E-02  -6.77540939E-08
  -1.09000001E-02  -6.88747761E-08
  -1.08500002E-02  -7.00692908E-08
  -1.08000003E-02  -7.13275057E-08
  -1.07500004E-02  -7.26411784E-08
  -1.07000005E-02  -7.40086676E-08
  -1.06499996E-02  -7.54367449E-08
  -1.05999997E-02  -7.69387398E-08
  -1.05499998E-02  -7.85297658E-08
  -1.04999999E-02  -8.02211062E-08
  -1.04499999E-02  -8.20162995E-08
  -1.04000000E-02  -8.39105994E-08
  -1.03500001E-02  -8.58941291E-08
  -1.03000002E-02  -8.79574600E-08
  -1.02500003E-02  -9.00969326E-08
  -1.02000004E-02  -9.23176557E-08
  -1.01500005E-02  -9.46325329E-08
  -1.00999996E-02  -9.70579350E-08
  -1.00499997E-02  -9.96078384E-08
  -9.99999978E-03  -1.02288901E-07
  -9.94999986E-03  -1.05098906E-07
  -9.89999995E-03  -1.08029070E-07
  -9.85000003E-03  -1.11069390E-07
  -9.80000012E-03  -1.14214551E-07
  -9.75000020E-03  -1.17467856E-07
  -9.70000029E-03  -1.20841364E-07
  -9.65000037E-03  -1.24352098E-07
  -9.60000046E-03  -1.28016026E-07
  -9.54999961E-03  -1.31842583E-07
  -9.49999969E-03  -1.35831868E-07
  -9.44999978E-03  -1.39976208E-07
  -9.39999986E-03  -1.44265059E-07
  -9.34999995E-03  -1.48691470E-07
  -9.30000003E-03  -1.53256863E-07
  -9.25000012E-03  -1.57972295E-07
  -9.20000020E-03  -1.62855542E-07
  -9.15000029E-03  -1.67925009E-07
  -9.10000037E-03  -1.73193527E-07
  -9.05000046E-03  -1.78664592E-07
  -8.99999961E-03  -1.84332677E-07
  -8.94999970E-03  -1.90187748E-07
  -8.89999978E-03  -1.96221833E-07
  -8.84999987E-03  -2.02434691E-07
  -8.79999995E-03  -2.08836298E-07
  -8.75000004E-03  -2.15444729E-07
  -8.70000012E-03  -2.22280548E-07
  -8.65000021E-03  -2.29359955E-07
  -8.60000029E-03  -2.36689914E-07
  -8.55000038E-03  -2.44267341E-07
  -8.50000046E-03  -2.52082856E-07
  -8.44999962E-03  -2.60127166E-07
  -8.39999970E-03  -2.68397855E-07
  -8.34999979E-03  -2.76902711E-07
  -8.29999987E-03  -2.85659098E-07
  -8.24999996E-03  -2.94688590E-07
  -8.20000004E-03  -3.04010172E-07
  -8.15000013E-03  -3.13634473E-07
  -8.10000021E-03  -3.23561551E-07
  -8.05000030E-03  -3.33783703E-07
  -8.00000038E-03  -3.44291749E-07
  -7.95000046E-03  -3.55082136E-07
  -7.89999962E-03  -3.66161544E-07
  -7.84999970E-03  -3.77547110E-07
  -7.79999979E-03  -3.89262055E-07
  -7.74999987E-03  -4.01328521E-07
  -7.69999996E-03  -4.13760915E-07
  -7.65000004E-03  -4.26562792E-07
  -7.60000013E-03  -4.39728296E-07
  -7.55000021E-03  -4.53248163E-07
  -7.49999983E-03  -4.67117104E-07
  -7.44999992E-03  -4.81339669E-07
  -7.40000000E-03  -4.95931772E-07
  -7.35000009E-03  -5.10917062E-07
  -7.30000017E-03  -5.26320264E-07
  -7.24999979E-03  -5.42159285E-07
  -7.19999988E-03  -5.58441286E-07
  -7.14999996E-03  -5.75162574E-07
  -7.10000005E-03  -5.92314166E-07
  -7.05000013E-03  -6.09889469E-07
  -7.00000022E-03  -6.27890870E-07
  -6.94999984E-03  -6.46332751E-07
  -6.89999992E-03  -6.65239099E-07
  -6.85000001E-03  -6.84637087E-07
  -6.80000009E-03  -7.04549109E-07
  -6.75000018E-03  -7.24986933E-07
  -6.69999979E-03  -7.45950672E-07
  -6.64999988E-03  -7.67433278E-07
  -6.59999996E-03  -7.89427872E-07
  -6.55000005E-03  -8.11935422E-07
  -6.50000013E-03  -8.34968660E-07
  -6.45000022E-03  -8.58551289E-07
  -6.39999984E-03  -8.82711788E-07
  -6.34999992E-03  -9.07475567E-07
  -6.30000001E-03  -9.32858200E-07
  -6.25000009E-03  -9.58863325E-07
  -6.20000018E-03  -9.85485258E-07
  -6.14999980E-03  -1.01271701E-06
  -6.09999988E-03  -1.04055778E-06
  -6.04999997E-03  -1.06901894E-06
  -6.00000005E-03  -1.09812322E-06
  -5.95000014E-03  -1.12790042E-06
  -5.90000022E-03  -1.15837952E-06
  -5.84999984E-03  -1.18958019E-06
  -5.79999993E-03  -1.22151039E-06
  -5.75000001E-03  -1.25416727E-06
  -5.70000010E-03  -1.28754448E-06
  -5.65000018E-03  -1.32164041E-06
  -5.59999980E-03  -1.35646519E-06
  -5.54999989E-03  -1.39204121E-06
  -5.49999997E-03  -1.42839986E-06
  -5.45000006E-03  -1.46557306E-06
  -5.40000014E-03  -1.50358596E-06
  -5.35000023E-03  -1.54245095E-06
  -5.29999984E-03  -1.58216915E-06
  -5.24999993E-03  -1.62273568E-06
  -5.20000001E-03  -1.66414861E-06
  -5.15000010E-03  -1.70641647E-06
  -5.10000018E-03  -1.74956085E-06
  -5.04999980E-03  -1.79361359E-06
  -4.99999989E-03  -1.83861005E-06
  -4.94999997E-03  -1.88457921E-06
  -4.90000006E-03  -1.93153846E-06
  -4.85000014E-03  -1.97949294E-06
  -4.80000023E-03  -2.02843944E-06
  -4.74999985E-03  -2.07837616E-06
  -4.69999993E-03  -2.12931104E-06
  -4.65000002E-03  -2.18126411E-06
  -4.60000010E-03  -2.23426832E-06
  -4.55000019E-03  -2.28836188E-06
  -4.49999981E-03  -2.34357867E-06
  -4.44999989E-03  -2.39994256E-06
  -4.39999998E-03  -2.45746378E-06
  -4.35000006E-03  -2.51614347E-06
  -4.30000015E-03  -2.57598163E-06
  -4.25000023E-03  -2.63698621E-06
  -4.19999985E-03  -2.69917837E-06
  -4.14999994E-03  -2.76259198E-06
  -4.10000002E-03  -2.82726842E-06
  -4.05000011E-03  -2.89324635E-06
  -4.00000019E-03  -2.96055532E-06
  -3.94999981E-03  -3.02921057E-06
  -3.89999989E-03  -3.09921711E-06
  -3.84999998E-03  -3.17057675E-06
  -3.80000006E-03  -3.24329721E-06
  -3.74999992E-03  -3.31740011E-06
  -3.70000000E-03  -3.39291933E-06
  -3.65000009E-03  -3.46989918E-06
  -3.59999994E-03  -3.54838380E-06
  -3.55000002E-03  -3.62840956E-06
  -3.50000011E-03  -3.70999828E-06
  -3.44999996E-03  -3.79316111E-06
  -3.40000005E-03  -3.87790305E-06
  -3.34999990E-03  -3.96423411E-06
  -3.29999998E-03  -4.05217634E-06
  -3.25000007E-03  -4.14176657E-06
  -3.19999992E-03  -4.23305028E-06
  -3.15000000E-03  -4.32607794E-06
  -3.10000009E-03  -4.42089140E-06
  -3.04999994E-03  -4.51752021E-06
  -3.00000003E-03  -4.61598074E-06
  -2.95000011E-03  -4.71628300E-06
  -2.89999996E-03  -4.81843790E-06
  -2.85000005E-03  -4.92246909E-06
  -2.79999990E-03  -5.02841567E-06
  -2.74999999E-03  -5.13632676E-06
  -2.70000007E-03  -5.24625739E-06
  -2.64999992E-03  -5.35825620E-06
  -2.60000001E-03  -5.47235959E-06
  -2.55000009E-03  -5.58859119E-06
  -2.49999994E-03  -5.70696511E-06
  -2.45000003E-03  -5.82749635E-06
  -2.40000011E-03  -5.95021038E-06
  -2.34999997E-03  -6.07514539E-06
  -2.30000005E-03  -6.20235687E-06
  -2.24999990E-03  -6.33190393E-06
  -2.19999999E-03  -6.46384387E-06
  -2.15000007E-03  -6.59822263E-06
  -2.09999993E-03  -6.73506975E-06
  -2.05000001E-03  -6.87440524E-06
  -2.00000009E-03  -7.01624685E-06
  -1.94999995E-03  -7.16062232E-06
  -1.90000003E-03  -7.30757256E-06
  -1.85000000E-03  -7.45715533E-06
  -1.79999997E-03  -7.60943931E-06
  -1.75000005E-03  -7.76448724E-06
  -1.70000002E-03  -7.92235278E-06
  -1.64999999E-03  -8.08307504E-06
  -1.59999996E-03  -8.24667768E-06
  -1.55000004E-03  -8.41318251E-06
  -1.50000001E-03  -8.58261956E-06
  -1.44999998E-03  -8.75503065E-06
  -1.39999995E-03  -8.93047672E-06
  -1.35000004E-03  -9.10902963E-06
  -1.30000000E-03  -9.29076123E-06
  -1.24999997E-03  -9.47573335E-06
  -1.20000006E-03  -9.66399421E-06
  -1.15000003E-03  -9.85557836E-06
  -1.09999999E-03  -1.00505113E-05
  -1.04999996E-03  -1.02488229E-05
  -1.00000005E-03  -1.04505598E-05
  -9.50000016E-04  -1.06557827E-05
  -8.99999985E-04  -1.08645690E-05
  -8.50000011E-04  -1.10769988E-05
  -7.99999980E-04  -1.12931466E-05
  -7.50000007E-04  -1.15130670E-05
  -6.99999975E-04  -1.17367999E-05
  -6.50000002E-04  -1.19643764E-05
  -6.00000028E-04  -1.21958283E-05
  -5.49999997E-04  -1.24312000E-05
  -5.00000024E-04  -1.26705554E-05
  -4.49999992E-04  -1.29139744E-05
  -3.99999990E-04  -1.31615461E-05
  -3.49999988E-04  -1.34133525E-05
  -3.00000014E-04  -1.36694580E-05
  -2.50000012E-04  -1.39299109E-05
  -1.99999995E-04  -1.41947467E-05
  -1.50000007E-04  -1.44639971E-05
  -9.99999975E-05  -1.47377095E-05
  -4.99999987E-05  -1.50159485E-05
   0.00000000      -1.52987959E-05
   4.99999987E-05  -1.55863454E-05
   9.99999975E-05  -1.58786861E-05
   1.50000007E-04  -1.61758944E-05
   1.99999995E-04  -1.64780267E-05
   2.50000012E-04  -1.67851231E-05
   3.00000014E-04  -1.70972216E-05
   3.49999988E-04  -1.74143661E-05
   3.99999990E-04  -1.77366182E-05
   4.49999992E-04  -1.80640636E-05
   5.00000024E-04  -1.83967968E-05
   5.49999997E-04  -1.87349178E-05
   6.00000028E-04  -1.90785140E-05
   6.50000002E-04  -1.94276527E-05
   6.99999975E-04  -1.97823811E-05
   7.50000007E-04  -2.01427301E-05
   7.99999980E-04  -2.05087435E-05
   8.50000011E-04  -2.08804795E-05
   8.99999985E-04  -2.12580144E-05
   9.50000016E-04  -2.16414501E-05
   1.00000005E-03  -2.20308921E-05
   1.04999996E-03  -2.24264386E-05
   1.09999999E-03  -2.28281569E-05
   1.15000003E-03  -2.32361017E-05
   1.20000006E-03  -2.36503092E-05
   1.24999997E-03  -2.40708105E-05
   1.30000000E-03  -2.44976618E-05
   1.35000004E-03  -2.49309396E-05
   1.39999995E-03  -2.53707385E-05
   1.44999998E-03  -2.58171731E-05
   1.50000001E-03  -2.62703434E-05
   1.55000004E-03  -2.67303349E-05
   1.59999996E-03  -2.71971985E-05
   1.64999999E-03  -2.76709743E-05
   1.70000002E-03  -2.81516895E-05
   1.75000005E-03  -2.86393879E-05
   1.79999997E-03  -2.91341385E-05
   1.85000000E-03  -2.96360340E-05
   1.90000003E-03  -3.01451855E-05
   1.94999995E-03  -3.06616967E-05
   2.00000009E-03  -3.11856566E-05
   2.05000001E-03  -3.17171289E-05
   2.09999993E-03  -3.22561391E-05
   2.15000007E-03  -3.28027163E-05
   2.19999999E-03  -3.33568896E-05
   2.24999990E-03  -3.39187172E-05
   2.30000005E-03  -3.44882756E-05
   2.34999997E-03  -3.50656774E-05
   2.40000011E-03  -3.56510245E-05
   2.45000003E-03  -3.62444043E-05
   2.49999994E-03  -3.68458786E-05
   2.55000009E-03  -3.74554802E-05
   2.60000001E-03  -3.80732272E-05
   2.64999992E-03  -3.86991269E-05
   2.70000007E-03  -3.93332230E-05
   2.74999999E-03  -3.99755845E-05
   2.79999990E-03  -4.06263061E-05