  -3.99999991E-02   0.00000000    
  -3.99499983E-02   0.00000000    
  -3.99000011E-02   0.00000000    
  -3.98500003E-02   8.61185081E-17
  -3.97999994E-02   4.83832631E-16
  -3.97499986E-02   1.39688237E-15
  -3.97000015E-02   2.54744312E-15
  -3.96500006E-02   2.61559412E-15
  -3.95999998E-02  -9.42178782E-16
  -3.95499989E-02  -1.12469009E-14
  -3.95000018E-02  -3.05468575E-14
  -3.94500010E-02  -5.86337009E-14
  -3.94000001E-02  -9.21284398E-14
  -3.93499993E-02  -1.25357759E-13
  -3.92999984E-02  -1.52767827E-13
  -3.92500013E-02  -1.71976596E-13
  -3.92000005E-02  -1.86054744E-13
  -3.91499996E-02  -2.03690079E-13
  -3.90999988E-02  -2.36612731E-13
  -3.90500017E-02  -2.94907382E-13
  -3.90000008E-02  -3.82142289E-13
  -3.89500000E-02  -4.92829410E-13
  -3.88999991E-02  -6.13994587E-13
  -3.88499983E-02  -7.30712203E-13
  -3.88000011E-02  -8.33315025E-13
  -3.87500003E-02  -9.22853265E-13
  -3.86999995E-02  -1.01191028E-12
  -3.86499986E-02  -1.11984608E-12
  -3.86000015E-02  -1.26404854E-12
  -3.85500006E-02  -1.45082123E-12
  -3.84999998E-02  -1.67024825E-12
  -3.84499989E-02  -1.89819731E-12
  -3.84000018E-02  -2.10562384E-12
  -3.83500010E-02  -2.27163991E-12
  -3.83000001E-02  -2.39428594E-12
  -3.82499993E-02  -2.49331111E-12
  -3.81999984E-02  -2.60268521E-12
  -3.81500013E-02  -2.75545732E-12
  -3.81000005E-02  -2.96744226E-12
  -3.80499996E-02  -3.22719520E-12
  -3.79999988E-02  -3.49743823E-12
  -3.79500017E-02  -3.72845504E-12
  -3.79000008E-02  -3.87864957E-12
  -3.78500000E-02  -3.93359000E-12
  -3.77999991E-02  -3.91436102E-12
  -3.77499983E-02  -3.86996208E-12
  -3.77000012E-02  -3.85564844E-12
  -3.76500003E-02  -3.90626637E-12
  -3.75999995E-02  -4.01686713E-12
  -3.75499986E-02  -4.14023893E-12
  -3.75000015E-02  -4.20355330E-12
  -3.74500006E-02  -4.13772358E-12
  -3.73999998E-02  -3.90713763E-12
  -3.73499990E-02  -3.52659048E-12
  -3.73000018E-02  -3.05686075E-12
  -3.72500010E-02  -2.57912094E-12
  -3.72000001E-02  -2.15799687E-12
  -3.71499993E-02  -1.80946382E-12
  -3.70999984E-02  -1.48910907E-12
  -3.70500013E-02  -1.10784971E-12
  -3.70000005E-02  -5.69444773E-13
  -3.69499996E-02   1.86585082E-13
  -3.68999988E-02   1.15623310E-12
  -3.68500017E-02   2.27019922E-12
  -3.68000008E-02   3.42263045E-12
  -3.67500000E-02   4.51807211E-12
  -3.66999991E-02   5.51672553E-12
  -3.66499983E-02   6.45745219E-12
  -3.66000012E-02   7.44623981E-12
  -3.65500003E-02   8.61257246E-12
  -3.64999995E-02   1.00514666E-11
  -3.64499986E-02   1.17773170E-11
  -3.64000015E-02   1.37120029E-11
  -3.63500006E-02   1.57147403E-11
  -3.62999998E-02   1.76419504E-11
  -3.62499990E-02   1.94111741E-11
  -3.62000018E-02   2.10405200E-11
  -3.61500010E-02   2.26450039E-11
  -3.61000001E-02   2.43892285E-11
  -3.60499993E-02   2.64148668E-11
  -3.59999985E-02   2.87738115E-11
  -3.59500013E-02   3.13976171E-11
  -3.59000005E-02   3.41197660E-11
  -3.58499996E-02   3.67440314E-11
  -3.57999988E-02   3.91300395E-11
  -3.57500017E-02   4.12575564E-11
  -3.57000008E-02   4.32391033E-11
  -3.56500000E-02   4.52732886E-11
  -3.55999991E-02   4.75577078E-11
  -3.55499983E-02   5.01986404E-11
  -3.55000012E-02   5.31573292E-11
  -3.54500003E-02   5.62580815E-11
  -3.53999995E-02   5.92577792E-11
  -3.53499986E-02   6.19490778E-11
  -3.53000015E-02   6.42527490E-11
  -3.52500007E-02   6.62565211E-11
  -3.51999998E-02   6.81800311E-11
  -3.51499990E-02   7.02785469E-11
  -3.51000018E-02   7.27270466E-11
  -3.50500010E-02   7.55365978E-11
  -3.50000001E-02   7.85415899E-11
  -3.49499993E-02   8.14655218E-11
  -3.48999985E-02   8.40385747E-11
  -3.48500013E-02   8.61168220E-11
  -3.48000005E-02   8.77501821E-11
  -3.47499996E-02   8.91666324E-11
  -3.46999988E-02   9.06755990E-11
  -3.46500017E-02   9.25303376E-11
  -3.46000008E-02   9.48099169E-11
  -3.45500000E-02   9.73756631E-11
  -3.44999991E-02   9.99248392E-11
  -3.44499983E-02   1.02120687E-10
  -3.44000012E-02   1.03742570E-10
  -3.43500003E-02   1.04789580E-10
  -3.42999995E-02   1.05489943E-10
  -3.42499986E-02   1.06208958E-10
  -3.42000015E-02   1.07292467E-10
  -3.41500007E-02   1.08912677E-10
  -3.40999998E-02   1.10985034E-10
  -3.40499990E-02   1.13196612E-10
  -3.40000018E-02   1.15138052E-10
  -3.39500010E-02   1.16484156E-10
  -3.39000002E-02   1.17143489E-10
  -3.38499993E-02   1.17308815E-10
  -3.37999985E-02   1.17382631E-10
  -3.37500013E-02   1.17807722E-10
  -3.37000005E-02   1.18875201E-10
  -3.36499996E-02   1.20594590E-10
  -3.35999988E-02   1.22684737E-10
  -3.35500017E-02   1.24693422E-10
  -3.35000008E-02   1.26196970E-10
  -3.34500000E-02   1.26993721E-10
  -3.33999991E-02   1.27205080E-10
  -3.33499983E-02   1.27235278E-10
  -3.33000012E-02   1.27603331E-10
  -3.32500003E-02   1.28718508E-10
  -3.31999995E-02   1.30698008E-10
  -3.31499986E-02   1.33309891E-10
  -3.31000015E-02   1.36069461E-10
  -3.30500007E-02   1.38450820E-10
  -3.29999998E-02   1.40122913E-10
  -3.29499990E-02   1.41106390E-10
  -3.29000019E-02   1.41779838E-10
  -3.28500010E-02   1.42728038E-10
  -3.28000002E-02   1.44494777E-10
  -3.27499993E-02   1.47346996E-10
  -3.26999985E-02   1.51155685E-10
  -3.26500013E-02   1.55449487E-10
  -3.26000005E-02   1.59621941E-10
  -3.25499997E-02   1.63203395E-10
  -3.24999988E-02   1.66078234E-10
  -3.24500017E-02   1.68549064E-10
  -3.24000008E-02   1.71215681E-10
  -3.23500000E-02   1.74717615E-10
  -3.22999991E-02   1.79450788E-10
  -3.22499983E-02   1.85383417E-10
  -3.22000012E-02   1.92055399E-10
  -3.21500003E-02   1.98766906E-10
  -3.20999995E-02   2.04878045E-10
  -3.20499986E-02   2.10090140E-10
  -3.20000015E-02   2.14583185E-10
  -3.19500007E-02   2.18945209E-10
  -3.18999998E-02   2.23919300E-10
  -3.18499990E-02   2.30075833E-10
  -3.18000019E-02   2.37553477E-10
  -3.17500010E-02   2.45984566E-10
  -3.17000002E-02   2.54642613E-10
  -3.16499993E-02   2.62751487E-10
  -3.15999985E-02   2.69824080E-10
  -3.15500014E-02   2.75881651E-10
  -3.15000005E-02   2.81455304E-10
  -3.14499997E-02   2.87363910E-10
  -3.13999988E-02   2.94361951E-10
  -3.13500017E-02   3.02809722E-10
  -3.13000008E-02   3.12512183E-10
  -3.12500000E-02   3.22801480E-10
  -3.11999992E-02   3.32831623E-10
  -3.11500002E-02   3.41959322E-10
  -3.10999993E-02   3.50043577E-10
  -3.10500003E-02   3.57530505E-10
  -3.09999995E-02   3.65281000E-10
  -3.09500005E-02   3.74212938E-10
  -3.08999997E-02   3.84912269E-10
  -3.08500007E-02   3.97382821E-10
  -3.07999998E-02   4.11048889E-10
  -3.07500008E-02   4.25013025E-10
  -3.07000000E-02   4.38461489E-10
  -3.06499992E-02   4.51040094E-10
  -3.06000002E-02   4.63033223E-10
  -3.05499993E-02   4.75262107E-10
  -3.05000003E-02   4.88741492E-10
  -3.04499995E-02   5.04241371E-10
  -3.04000005E-02   5.21947041E-10
  -3.03499997E-02   5.41368506E-10
  -3.03000007E-02   5.61543756E-10
  -3.02499998E-02   5.81452386E-10
  -3.02000009E-02   6.00460681E-10
  -3.01500000E-02   6.18604834E-10
  -3.00999992E-02   6.36583508E-10
  -3.00500002E-02   6.55458632E-10
  -2.99999993E-02   6.76189937E-10
  -2.99500003E-02   6.99206359E-10
  -2.98999995E-02   7.24205362E-10
  -2.98500005E-02   7.50272622E-10
  -2.97999997E-02   7.76275100E-10
  -2.97500007E-02   8.01357813E-10
  -2.96999998E-02   8.25326529E-10
  -2.96500009E-02   8.48746518E-10
  -2.96000000E-02   8.72709904E-10
  -2.95499992E-02   8.98367325E-10
  -2.95000002E-02   9.26426991E-10
  -2.94499993E-02   9.56838941E-10
  -2.94000003E-02   9.88807924E-10
  -2.93499995E-02   1.02113373E-09
  -2.93000005E-02   1.05273479E-09
  -2.92499997E-02   1.08312626E-09
  -2.92000007E-02   1.11263843E-09
  -2.91499998E-02   1.14227794E-09
  -2.91000009E-02   1.17328769E-09
  -2.90500000E-02   1.20659638E-09
  -2.89999992E-02   1.24240096E-09
  -2.89500002E-02   1.28006694E-09
  -2.88999993E-02   1.31839462E-09
  -2.88500004E-02   1.35614209E-09
  -2.87999995E-02   1.39257506E-09
  -2.87500005E-02   1.42780487E-09
  -2.86999997E-02   1.46275680E-09
  -2.86500007E-02   1.49877855E-09
  -2.85999998E-02   1.53705515E-09
  -2.85500009E-02   1.57808833E-09
  -2.85000000E-02   1.62146896E-09
  -2.84499992E-02   1.66604996E-09
  -2.84000002E-02   1.71044445E-09
  -2.83499993E-02   1.75363679E-09
  -2.83000004E-02   1.79543591E-09
  -2.82499995E-02   1.83657300E-09
  -2.82000005E-02   1.87839122E-09
  -2.81499997E-02   1.92226191E-09
  -2.81000007E-02   1.96897920E-09
  -2.80499998E-02   2.01840256E-09
  -2.80000009E-02   2.06950701E-09
  -2.79500000E-02   2.12083018E-09
  -2.78999992E-02   2.17111618E-09
  -2.78500002E-02   2.21988028E-09
  -2.77999993E-02   2.26763897E-09
  -2.77500004E-02   2.31570474E-09
  -2.76999995E-02   2.36562925E-09
  -2.76500005E-02   2.41853471E-09
  -2.75999997E-02   2.47463205E-09
  -2.75500007E-02   2.53313459E-09
  -2.74999999E-02   2.59261412E-09
  -2.74500009E-02   2.65164624E-09
  -2.74000000E-02   2.70946199E-09
  -2.73499992E-02   2.76631718E-09
  -2.73000002E-02   2.82341084E-09
  -2.72499993E-02   2.88238522E-09
  -2.72000004E-02   2.94462388E-09
  -2.71499995E-02   3.01065661E-09
  -2.71000005E-02   3.07993719E-09
  -2.70499997E-02   3.15109272E-09
  -2.70000007E-02   3.22254201E-09
  -2.69499999E-02   3.29321193E-09
  -2.69000009E-02   3.36303629E-09
  -2.68500000E-02   3.43301121E-09
  -2.67999992E-02   3.50478135E-09
  -2.67500002E-02   3.57992991E-09
  -2.66999993E-02   3.65928665E-09
  -2.66500004E-02   3.74256270E-09
  -2.65999995E-02   3.82847576E-09
  -2.65500005E-02   3.91532007E-09
  -2.64999997E-02   4.00172295E-09
  -2.64500007E-02   4.08726919E-09
  -2.63999999E-02   4.17269819E-09
  -2.63500009E-02   4.25959934E-09
  -2.63000000E-02   4.34971836E-09
  -2.62499992E-02   4.44418946E-09
  -2.62000002E-02   4.54302862E-09
  -2.61499994E-02   4.64511363E-09
  -2.61000004E-02   4.74866546E-09
  -2.60499995E-02   4.85203033E-09
  -2.60000005E-02   4.95440799E-09
  -2.59499997E-02   5.05621234E-09
  -2.59000007E-02   5.15889376E-09
  -2.58499999E-02   5.26430277E-09
  -2.58000009E-02   5.37387379E-09
  -2.57500000E-02   5.48798118E-09
  -2.56999992E-02   5.60576696E-09
  -2.56500002E-02   5.72550629E-09
  -2.55999994E-02   5.84536730E-09
  -2.55500004E-02   5.96421934E-09
  -2.54999995E-02   6.08214101E-09
  -2.54500005E-02   6.20039353E-09
  -2.53999997E-02   6.32086872E-09
  -2.53500007E-02   6.44525100E-09
  -2.52999999E-02   6.57426469E-09
  -2.52500009E-02   6.70734046E-09
  -2.52000000E-02   6.84285650E-09
  -2.51499992E-02   6.97884506E-09
  -2.51000002E-02   7.11386283E-09
  -2.50499994E-02   7.24763538E-09
  -2.50000004E-02   7.38118988E-09
  -2.49499995E-02   7.51640972E-09
  -2.49000005E-02   7.65521335E-09
  -2.48499997E-02   7.79870479E-09
  -2.48000007E-02   7.94668598E-09
  -2.47499999E-02   8.09774559E-09
  -2.47000009E-02   8.24988522E-09
  -2.46500000E-02   8.40142178E-09
  -2.45999992E-02   8.55175397E-09
  -2.45500002E-02   8.70165895E-09
  -2.44999994E-02   8.85297879E-09
  -2.44500004E-02   9.00783448E-09
  -2.43999995E-02   9.16770748E-09
  -2.43500005E-02   9.33280031E-09
  -2.42999997E-02   9.50196455E-09
  -2.42500007E-02   9.67321778E-09
  -2.41999999E-02   9.84464865E-09
  -2.41500009E-02   1.00152846E-08
  -2.41000000E-02   1.01855635E-08
  -2.40499992E-02   1.03571791E-08
  -2.40000002E-02   1.05323608E-08
  -2.39499994E-02   1.07129265E-08
  -2.39000004E-02   1.08994991E-08
  -2.38499995E-02   1.10912524E-08
  -2.38000005E-02   1.12863017E-08
  -2.37499997E-02   1.14825625E-08
  -2.37000007E-02   1.16787060E-08
  -2.36499999E-02   1.18747847E-08
  -2.36000009E-02   1.20722472E-08
  -2.35500000E-02   1.22733343E-08
  -2.34999992E-02   1.24801218E-08
  -2.34500002E-02   1.26936293E-08
  -2.33999994E-02   1.29133877E-08
  -2.33500004E-02   1.31376758E-08
  -2.32999995E-02   1.33643034E-08
  -2.32500006E-02   1.35916167E-08
  -2.31999997E-02   1.38192702E-08
  -2.31500007E-02   1.40484140E-08
  -2.30999999E-02   1.42812233E-08
  -2.30500009E-02   1.45199657E-08
  -2.30000000E-02   1.47660257E-08
  -2.29499992E-02   1.50193085E-08
  -2.29000002E-02   1.52783031E-08
  -2.28499994E-02   1.55407740E-08
  -2.28000004E-02   1.58047779E-08
  -2.27499995E-02   1.60695635E-08
  -2.27000006E-02   1.63359477E-08
  -2.26499997E-02   1.66059984E-08
  -2.26000007E-02   1.68821526E-08
  -2.25499999E-02   1.71661796E-08
  -2.25000009E-02   1.74584205E-08
  -2.24500000E-02   1.77576691E-08
  -2.23999992E-02   1.80617299E-08
  -2.23500002E-02   1.83684232E-08
  -2.22999994E-02   1.86765927E-08
  -2.22500004E-02   1.89866505E-08
  -2.21999995E-02   1.93004492E-08
  -2.21500006E-02   1.96204937E-08
  -2.20999997E-02   1.99488621E-08
  -2.20500007E-02   2.02863237E-08
  -2.19999999E-02   2.06319992E-08
  -2.19500009E-02   2.09837943E-08
  -2.19000001E-02   2.13393268E-08
  -2.18499992E-02   2.16970282E-08
  -2.18000002E-02   2.20568630E-08
  -2.17499994E-02   2.24203696E-08
  -2.17000004E-02   2.27900170E-08
  -2.16499995E-02   2.31681341E-08
  -2.16000006E-02   2.35558986E-08
  -2.15499997E-02   2.39528344E-08
  -2.15000007E-02   2.43570337E-08
  -2.14499999E-02   2.47660221E-08
  -2.14000009E-02   2.51778829E-08
  -2.13500001E-02   2.55921258E-08
  -2.12999992E-02   2.60099302E-08
  -2.12500002E-02   2.64336393E-08
  -2.11999994E-02   2.68657381E-08
  -2.11500004E-02   2.73077472E-08
  -2.10999995E-02   2.77595547E-08
  -2.10500006E-02   2.82194605E-08
  -2.09999997E-02   2.86849282E-08
  -2.09500007E-02   2.91537070E-08
  -2.08999999E-02   2.96248359E-08
  -2.08500009E-02   3.00990912E-08
  -2.08000001E-02   3.05786330E-08
  -2.07499992E-02   3.10660653E-08
  -2.07000002E-02   3.15632569E-08
  -2.06499994E-02   3.20705098E-08
  -2.06000004E-02   3.25863994E-08
  -2.05499995E-02   3.31083889E-08
  -2.05000006E-02   3.36339347E-08
  -2.04499997E-02   3.41616051E-08
  -2.04000007E-02   3.46916877E-08
  -2.03499999E-02   3.52260550E-08
  -2.03000009E-02   3.57673180E-08
  -2.02500001E-02   3.63176156E-08
  -2.01999992E-02   3.68776512E-08
  -2.01500002E-02   3.74463234E-08
  -2.00999994E-02   3.80211667E-08
  -2.00500004E-02   3.85994134E-08
  -1.99999996E-02   3.91791595E-08
  -1.99500006E-02   3.97601987E-08
  -1.98999997E-02   4.03440445E-08
  -1.98500007E-02   4.09332230E-08
  -1.97999999E-02   4.15300967E-08
  -1.97500009E-02   4.21357562E-08
  -1.97000001E-02   4.27494591E-08
  -1.96499992E-02   4.33689138E-08
  -1.96000002E-02   4.39912142E-08
  -1.95499994E-02   4.46140866E-08
  -1.95000004E-02   4.52368312E-08
  -1.94499996E-02   4.58605847E-08
  -1.94000006E-02   4.64877523E-08
  -1.93499997E-02   4.71208601E-08
  -1.93000007E-02   4.77613682E-08
  -1.92499999E-02   4.84089249E-08
  -1.92000009E-02   4.90614411E-08
  -1.91500001E-02   4.97159611E-08
  -1.90999992E-02   5.03698594E-08
  -1.90500002E-02   5.10219813E-08
  -1.89999994E-02   5.16730552E-08
  -1.89500004E-02   5.23253263E-08
  -1.88999996E-02   5.29814628E-08
  -1.88500006E-02   5.36432871E-08
  -1.87999997E-02   5.43108563E-08
  -1.87500007E-02   5.49823618E-08
  -1.86999999E-02   5.56548194E-08
  -1.86500009E-02   5.63253373E-08
  -1.86000001E-02   5.69922953E-08
  -1.85499992E-02   5.76560417E-08
  -1.85000002E-02   5.83186335E-08
  -1.84499994E-02   5.89828772E-08
  -1.84000004E-02   5.96509864E-08
  -1.83499996E-02   6.03235364E-08
  -1.83000006E-02   6.09991275E-08
  -1.82499997E-02   6.16749247E-08
  -1.82000007E-02   6.23478513E-08
  -1.81499999E-02   6.30159107E-08
  -1.81000009E-02   6.36790176E-08
  -1.80500001E-02   6.43390052E-08
  -1.79999992E-02   6.49987300E-08
  -1.79500002E-02   6.56607781E-08
  -1.78999994E-02   6.63262085E-08
  -1.78500004E-02   6.69940547E-08
  -1.77999996E-02   6.76616949E-08
  -1.77500006E-02   6.83259316E-08
  -1.76999997E-02   6.89844342E-08
  -1.76500008E-02   6.96367337E-08
  -1.75999999E-02   7.02844076E-08
  -1.75500009E-02   7.09303478E-08
  -1.75000001E-02   7.15774817E-08
  -1.74499992E-02   7.22273654E-08
  -1.74000002E-02   7.28795015E-08
  -1.73499994E-02   7.35315098E-08
  -1.73000004E-02   7.41801287E-08
  -1.72499996E-02   7.48227080E-08
  -1.72000006E-02   7.54583311E-08
  -1.71499997E-02   7.60882841E-08
  -1.71000008E-02   7.67154376E-08
  -1.70499999E-02   7.73429889E-08
  -1.70000009E-02   7.79730129E-08
  -1.69500001E-02   7.86055026E-08
  -1.68999992E-02   7.92383545E-08
  -1.68500002E-02   7.98682933E-08
  -1.67999994E-02   8.04923275E-08
  -1.67500004E-02   8.11090999E-08
  -1.66999996E-02   8.17195414E-08
  -1.66500006E-02   8.23264656E-08
  -1.65999997E-02   8.29333473E-08
  -1.65500008E-02   8.35427869E-08
  -1.64999999E-02   8.41553387E-08
  -1.64500009E-02   8.47692547E-08
  -1.64000001E-02   8.53812807E-08
  -1.63499992E-02   8.59880913E-08
  -1.63000003E-02   8.65877965E-08
  -1.62499994E-02   8.71808226E-08
  -1.62000004E-02   8.77697630E-08
  -1.61499996E-02   8.83582203E-08
  -1.61000006E-02   8.89492000E-08
  -1.60499997E-02   8.95437893E-08
  -1.60000008E-02   9.01405954E-08
  -1.59499999E-02   9.07363855E-08
  -1.59000009E-02   9.13275215E-08
  -1.58500001E-02   9.19115308E-08
  -1.57999992E-02   9.24882855E-08
  -1.57500003E-02   9.30600379E-08
  -1.56999994E-02   9.36304048E-08
  -1.56500004E-02   9.42027469E-08
  -1.55999996E-02   9.47786347E-08
  -1.55499997E-02   9.53570662E-08
  -1.54999997E-02   9.59348654E-08
  -1.54499998E-02   9.65080105E-08
  -1.53999999E-02   9.70734177E-08
  -1.53500000E-02   9.76302630E-08
  -1.53000001E-02   9.81803154E-08
  -1.52500002E-02   9.87271349E-08
  -1.52000003E-02   9.92744020E-08
  -1.51500003E-02   9.98241845E-08
  -1.51000004E-02   1.00375921E-07
  -1.50499996E-02   1.00926528E-07
  -1.49999997E-02   1.01471642E-07
  -1.49499997E-02   1.02007483E-07
  -1.48999998E-02   1.02532411E-07
  -1.48499999E-02   1.03047597E-07
  -1.48000000E-02   1.03556381E-07
  -1.47500001E-02   1.04062693E-07
  -1.47000002E-02   1.04569132E-07
  -1.46500003E-02   1.05075657E-07
  -1.46000003E-02   1.05579431E-07
  -1.45500004E-02   1.06075866E-07
  -1.44999996E-02   1.06560513E-07
  -1.44499997E-02   1.07030885E-07
  -1.43999998E-02   1.07487445E-07
  -1.43499998E-02   1.07933225E-07
  -1.42999999E-02   1.08372326E-07
  -1.42500000E-02   1.08807953E-07
  -1.42000001E-02   1.09240737E-07
  -1.41500002E-02   1.09668221E-07
  -1.41000003E-02   1.10085772E-07
  -1.40500003E-02   1.10488379E-07
  -1.40000004E-02   1.10872683E-07
  -1.39499996E-02   1.11238329E-07
  -1.38999997E-02   1.11587887E-07
  -1.38499998E-02   1.11925573E-07
  -1.37999998E-02   1.12255123E-07
  -1.37499999E-02   1.12577915E-07
  -1.37000000E-02   1.12892081E-07
  -1.36500001E-02   1.13193110E-07
  -1.36000002E-02   1.13475551E-07
  -1.35500003E-02   1.13735275E-07
  -1.35000004E-02   1.13971090E-07
  -1.34500004E-02   1.14185092E-07
  -1.33999996E-02   1.14381557E-07
  -1.33499997E-02   1.14564841E-07
  -1.32999998E-02   1.14737212E-07
  -1.32499998E-02   1.14897553E-07
  -1.31999999E-02   1.15041622E-07
  -1.31500000E-02   1.15163644E-07
  -1.31000001E-02   1.15258665E-07
  -1.30500002E-02   1.15324532E-07
  -1.30000003E-02   1.15362681E-07
  -1.29500004E-02   1.15377297E-07
  -1.29000004E-02   1.15373311E-07
  -1.28499996E-02   1.15353963E-07
  -1.27999997E-02   1.15319160E-07
  -1.27499998E-02   1.15265287E-07
  -1.26999998E-02   1.15186538E-07
  -1.26499999E-02   1.15077292E-07
  -1.26000000E-02   1.14934444E-07
  -1.25500001E-02   1.14758549E-07
  -1.25000002E-02   1.14553487E-07
  -1.24500003E-02   1.14324521E-07
  -1.24000004E-02   1.14075803E-07
  -1.23500004E-02   1.13808298E-07
  -1.22999996E-02   1.13519178E-07
  -1.22499997E-02   1.13202795E-07
  -1.21999998E-02   1.12853051E-07
  -1.21499998E-02   1.12465948E-07
  -1.20999999E-02   1.12041228E-07
  -1.20500000E-02   1.11582381E-07
  -1.20000001E-02   1.11095027E-07
  -1.19500002E-02   1.10584232E-07
  -1.19000003E-02   1.10052156E-07
  -1.18500004E-02   1.09496867E-07
  -1.18000004E-02   1.08913000E-07
  -1.17499996E-02   1.08293946E-07
  -1.16999997E-02   1.07634598E-07
  -1.16499998E-02   1.06933470E-07
  -1.15999999E-02   1.06193269E-07
  -1.15499999E-02   1.05419588E-07
  -1.15000000E-02   1.04618287E-07
  -1.14500001E-02   1.03792821E-07
  -1.14000002E-02   1.02942529E-07
  -1.13500003E-02   1.02062813E-07
  -1.13000004E-02   1.01147037E-07
  -1.12500004E-02   1.00189396E-07
  -1.11999996E-02   9.91873890E-08
  -1.11499997E-02   9.81429125E-08
  -1.10999998E-02   9.70613385E-08
  -1.10499999E-02   9.59491118E-08
  -1.09999999E-02   9.48107512E-08
  -1.09500000E-02   9.36467259E-08
  -1.09000001E-02   9.24530923E-08
  -1.08500002E-02   9.12230931E-08
  -1.08000003E-02   8.99499852E-08
  -1.07500004E-02   8.86299603E-08
  -1.07000005E-02   8.72637429E-08
  -1.06499996E-02   8.58562004E-08
  -1.05999997E-02   8.44141539E-08
  -1.05499998E-02   8.29432878E-08
  -1.04999999E-02   8.14455206E-08
  -1.04499999E-02   7.99180242E-08
  -1.04000000E-02   7.83543825E-08
  -1.03500001E-02   7.67473125E-08
  -1.03000002E-02   7.50917977E-08
  -1.02500003E-02   7.33872767E-08
  -1.02000004E-02   7.16378707E-08
  -1.01500005E-02   6.98505289E-08
  -1.00999996E-02   6.80319019E-08
  -1.00499997E-02   6.61853647E-08
  -9.99999978E-03   6.43093898E-08
  -9.94999986E-03   6.23981720E-08
  -9.89999995E-03   6.04440160E-08
  -9.85000003E-03   5.84407260E-08
  -9.80000012E-03   5.63862130E-08
  -9.75000020E-03   5.42833831E-08
  -9.70000029E-03   5.21387555E-08
  -9.65000037E-03   4.99594819E-08
  -9.60000046E-03   4.77500848E-08
  -9.54999961E-03   4.55103120E-08
  -9.49999969E-03   4.32351008E-08
  -9.44999978E-03   4.09166923E-08
  -9.39999986E-03   3.85479737E-08
  -9.34999995E-03   3.61255417E-08
  -9.30000003E-03   3.36511690E-08
  -9.25000012E-03   3.11309805E-08
  -9.20000020E-03   2.85726802E-08
  -9.15000029E-03   2.59820734E-08
  -9.10000037E-03   2.33603998E-08
  -9.05000046E-03   2.07036575E-08
  -8.99999961E-03   1.80042736E-08
  -8.94999970E-03   1.52543436E-08
  -8.89999978E-03   1.24490542E-08
  -8.84999987E-03   9.58877155E-09
  -8.79999995E-03   6.67881528E-09
  -8.75000004E-03   3.72706488E-09
  -8.70000012E-03   7.40376038E-10
  -8.65000021E-03  -2.27857644E-09
  -8.60000029E-03  -5.33259659E-09
  -8.55000038E-03  -8.42889136E-09
  -8.50000046E-03  -1.15760157E-08
  -8.44999962E-03  -1.47802171E-08
  -8.39999970E-03  -1.80427779E-08
  -8.34999979E-03  -2.13595452E-08
  -8.29999987E-03  -2.47228638E-08
  -8.24999996E-03  -2.81250614E-08
  -8.20000004E-03  -3.15619495E-08
  -8.15000013E-03  -3.50347840E-08
  -8.10000021E-03  -3.85497962E-08
  -8.05000030E-03  -4.21155129E-08
  -8.00000038E-03  -4.57390108E-08
  -7.95000046E-03  -4.94228125E-08
  -7.89999962E-03  -5.31637774E-08
  -7.84999970E-03  -5.69545406E-08
  -7.79999979E-03  -6.07868031E-08
  -7.74999987E-03  -6.46551115E-08
  -7.69999996E-03  -6.85593591E-08
  -7.65000004E-03  -7.25049816E-08
  -7.60000013E-03  -7.65006263E-08
  -7.55000021E-03  -8.05544360E-08
  -7.49999983E-03  -8.46704751E-08
  -7.44999992E-03  -8.88469884E-08
  -7.40000000E-03  -9.30772117E-08
  -7.35000009E-03  -9.73524124E-08
  -7.30000017E-03  -1.01665840E-07
  -7.24999979E-03  -1.06015840E-07
  -7.19999988E-03  -1.10406631E-07
  -7.14999996E-03  -1.14846564E-07
  -7.10000005E-03  -1.19344463E-07
  -7.05000013E-03  -1.23905778E-07
  -7.00000022E-03  -1.28530161E-07
  -6.94999984E-03  -1.33211557E-07
  -6.89999992E-03  -1.37941029E-07
  -6.85000001E-03  -1.42710547E-07
  -6.80000009E-03  -1.47516744E-07
  -6.75000018E-03  -1.52362361E-07
  -6.69999979E-03  -1.57255045E-07
  -6.64999988E-03  -1.62204074E-07
  -6.59999996E-03  -1.67216186E-07
  -6.55000005E-03  -1.72292616E-07
  -6.50000013E-03  -1.77428603E-07
  -6.45000022E-03  -1.82615466E-07
  -6.39999984E-03  -1.87844520E-07
  -6.34999992E-03  -1.93111021E-07
  -6.30000001E-03  -1.98416330E-07
  -6.25000009E-03  -2.03767371E-07
  -6.20000018E-03  -2.09173635E-07
  -6.14999980E-03  -2.14642938E-07
  -6.09999988E-03  -2.20178080E-07
  -6.04999997E-03  -2.25775480E-07
  -6.00000005E-03  -2.31426853E-07
  -5.95000014E-03  -2.37122919E-07
  -5.90000022E-03  -2.42857595E-07
  -5.84999984E-03  -2.48630698E-07
  -5.79999993E-03  -2.54448253E-07
  -5.75000001E-03  -2.60319695E-07
  -5.70000010E-03  -2.66253920E-07
  -5.65000018E-03  -2.72255193E-07
  -5.59999980E-03  -2.78321352E-07
  -5.54999989E-03  -2.84444752E-07
  -5.49999997E-03  -2.90615731E-07
  -5.45000006E-03  -2.96827068E-07
  -5.40000014E-03  -3.03077144E-07
  -5.35000023E-03  -3.09370989E-07
  -5.29999984E-03  -3.15718069E-07
  -5.24999993E-03  -3.22128244E-07
  -5.20000001E-03  -3.28607513E-07
  -5.15000010E-03  -3.35155420E-07
  -5.10000018E-03  -3.41765343E-07
  -5.04999980E-03  -3.48427591E-07
  -4.99999989E-03  -3.55133835E-07
  -4.94999997E-03  -3.61880979E-07
  -4.90000006E-03  -3.68672744E-07
  -4.85000014E-03  -3.75518312E-07
  -4.80000023E-03  -3.82428254E-07
  -4.74999985E-03  -3.89410218E-07
  -4.69999993E-03  -3.96465623E-07
  -4.65000002E-03  -4.03589240E-07
  -4.60000010E-03  -4.10771776E-07
  -4.55000019E-03  -4.18004248E-07
  -4.49999981E-03  -4.25282195E-07
  -4.44999989E-03  -4.32608033E-07
  -4.39999998E-03  -4.39990231E-07
  -4.35000006E-03  -4.47439788E-07
  -4.30000015E-03  -4.54965630E-07
  -4.25000023E-03  -4.62570796E-07
  -4.19999985E-03  -4.70251479E-07
  -4.14999994E-03  -4.77998753E-07
  -4.10000002E-03  -4.85803184E-07
  -4.05000011E-03  -4.93659229E-07
  -4.00000019E-03  -5.01568081E-07
  -3.94999981E-03  -5.09537813E-07
  -3.89999989E-03  -5.17580133E-07
  -3.84999998E-03  -5.25705559E-07
  -3.80000006E-03  -5.33919319E-07
  -3.74999992E-03  -5.42219254E-07
  -3.70000000E-03  -5.50597406E-07
  -3.65000009E-03  -5.59043997E-07
  -3.59999994E-03  -5.67552206E-07
  -3.55000002E-03  -5.76121806E-07
  -3.50000011E-03  -5.84759732E-07
  -3.44999996E-03  -5.93477694E-07
  -3.40000005E-03  -6.02287400E-07
  -3.34999990E-03  -6.11195730E-07
  -3.29999998E-03  -6.20202400E-07
  -3.25000007E-03  -6.29300530E-07
  -3.19999992E-03  -6.38480287E-07
  -3.15000000E-03  -6.47733884E-07
  -3.10000009E-03  -6.57059843E-07
  -3.04999994E-03  -6.66464189E-07
  -3.00000003E-03  -6.75958631E-07
  -2.95000011E-03  -6.85556074E-07
  -2.89999996E-03  -6.95265385E-07
  -2.85000005E-03  -7.05088269E-07
  -2.79999990E-03  -7.15019439E-07
  -2.74999999E-03  -7.25049233E-07
  -2.70000007E-03  -7.35169124E-07
  -2.64999992E-03  -7.45376440E-07
  -2.60000001E-03  -7.55676183E-07
  -2.55000009E-03  -7.66079950E-07
  -2.49999994E-03  -7.76601439E-07
  -2.45000003E-03  -7.87251622E-07
  -2.40000011E-03  -7.98034080E-07
  -2.34999997E-03  -8.08944890E-07
  -2.30000005E-03  -8.19974673E-07
  -2.24999990E-03  -8.31114278E-07
  -2.19999999E-03  -8.42359498E-07
  -2.15000007E-03  -8.53714084E-07
  -2.09999993E-03  -8.65189349E-07
  -2.05000001E-03  -8.76799845E-07
  -2.00000009E-03  -8.88558077E-07
  -1.94999995E-03  -9.00470013E-07
  -1.90000003E-03  -9.12533153E-07
  -1.85000000E-03  -9.24738856E-07
  -1.79999997E-03  -9.37077402E-07
  -1.75000005E-03  -9.49543278E-07
  -1.70000002E-03  -9.62139211E-07
  -1.64999999E-03  -9.74876116E-07
  -1.59999996E-03  -9.87769681E-07
  -1.55000004E-03  -1.00083446E-06
  -1.50000001E-03  -1.01407875E-06
  -1.44999998E-03  -1.02750221E-06
  -1.39999995E-03  -1.04109711E-06
  -1.35000004E-03  -1.05485276E-06
  -1.30000000E-03  -1.06876246E-06
  -1.24999997E-03  -1.08282711E-06
  -1.20000006E-03  -1.09705650E-06
  -1.15000003E-03  -1.11146687E-06
  -1.09999999E-03  -1.12607461E-06
  -1.04999996E-03  -1.14089028E-06
  -1.00000005E-03  -1.15591547E-06
  -9.50000016E-04  -1.17114348E-06
  -8.99999985E-04  -1.18656328E-06
  -8.50000011E-04  -1.20216691E-06
  -7.99999980E-04  -1.21795335E-06
  -7.50000007E-04  -1.23393215E-06
  -6.99999975E-04  -1.25011968E-06
  -6.50000002E-04  -1.26653447E-06
  -6.00000028E-04  -1.28318993E-06
  -5.49999997E-04  -1.30009028E-06
  -5.00000024E-04  -1.31723016E-06
  -4.49999992E-04  -1.33459821E-06
  -3.99999990E-04  -1.35218500E-06
  -3.49999988E-04  -1.36998779E-06
  -3.00000014E-04  -1.38801454E-06
  -2.50000012E-04  -1.40628174E-06
  -1.99999995E-04  -1.42480962E-06
  -1.50000007E-04  -1.44361400E-06
  -9.99999975E-05  -1.46270179E-06
  -4.99999987E-05  -1.48206891E-06
   0.00000000      -1.50170445E-06
   4.99999987E-05  -1.52159669E-06
   9.99999975E-05  -1.54174097E-06
   1.50000007E-04  -1.56214332E-06
   1.99999995E-04  -1.58282057E-06
   2.50000012E-04  -1.60379432E-06
   3.00000014E-04  -1.62508377E-06
   3.49999988E-04  -1.64669905E-06
   3.99999990E-04  -1.66863845E-06
   4.49999992E-04  -1.69089083E-06
   5.00000024E-04  -1.71344311E-06
   5.49999997E-04  -1.73628769E-06
   6.00000028E-04  -1.75942841E-06
   6.50000002E-04  -1.78288110E-06
   6.99999975E-04  -1.80666837E-06
   7.50000007E-04  -1.83081204E-06
   7.99999980E-04  -1.85532645E-06
   8.50000011E-04  -1.88021215E-06
   8.99999985E-04  -1.90545961E-06
   9.50000016E-04  -1.93105416E-06
   1.00000005E-03  -1.95698544E-06
   1.04999996E-03  -1.98325438E-06
   1.09999999E-03  -2.00987483E-06
   1.15000003E-03  -2.03687000E-06
   1.20000006E-03  -2.06426489E-06
   1.24999997E-03  -2.09207678E-06
   1.30000000E-03  -2.12031046E-06
   1.35000004E-03  -2.14895726E-06
   1.39999995E-03  -2.17800198E-06
   1.44999998E-03  -2.20743073E-06
   1.50000001E-03  -2.23724101E-06
   1.55000004E-03  -2.26744328E-06
   1.59999996E-03  -2.29806164E-06
   1.64999999E-03  -2.32912316E-06
   1.70000002E-03  -2.36064921E-06
   1.75000005E-03  -2.39264818E-06
   1.79999997E-03  -2.42511373E-06
   1.85000000E-03  -2.45802971E-06
   1.90000003E-03  -2.49137929E-06
   1.94999995E-03  -2.52515474E-06
   2.00000009E-03  -2.55936379E-06
   2.05000001E-03  -2.59402827E-06
   2.09999993E-03  -2.62917752E-06
   2.15000007E-03  -2.66483676E-06
   2.19999999E-03  -2.70101896E-06
   2.24999990E-03  -2.73772048E-06
   2.30000005E-03  -2.77492586E-06
   2.34999997E-03  -2.81261487E-06
   2.40000011E-03  -2.85077499E-06
   2.45000003E-03  -2.88940919E-06
   2.49999994E-03  -2.92853656E-06
   2.55000009E-03  -2.96818689E-06
   2.60000001E-03  -3.00838860E-06
   2.64999992E-03  -3.04915898E-06
   2.70000007E-03  -3.09049938E-06
   2.74999999E-03  -3.13239411E-06
   2.79999990E-03  -3.17482090E-06