  -3.99999991E-02     1.00000002E-24
  -3.99499983E-02     1.00000002E-24
  -3.99000011E-02     1.00000002E-24
  -3.98500003E-02     9.68028300E-15
  -3.97999994E-02     5.68495311E-14
  -3.97499986E-02     1.82048549E-13
  -3.97000015E-02     4.16489055E-13
  -3.96500006E-02     7.54550394E-13
  -3.95999998E-02     1.14003642E-12
  -3.95499989E-02     1.48138435E-12
  -3.95000018E-02     1.69649093E-12
  -3.94500010E-02     1.76970092E-12
  -3.94000001E-02     1.79080557E-12
  -3.93499993E-02     1.94670235E-12
  -3.92999984E-02     2.45446632E-12
  -3.92500013E-02     3.45525973E-12
  -3.92000005E-02     4.91722635E-12
  -3.91499996E-02     6.60369242E-12
  -3.90999988E-02     8.13990975E-12
  -3.90500017E-02     9.16423101E-12
  -3.90000008E-02     9.50135803E-12
  -3.89500000E-02     9.27335726E-12
  -3.88999991E-02     8.88305228E-12
  -3.88499983E-02     8.85869069E-12
  -3.88000011E-02     9.61483497E-12
  -3.87500003E-02     1.12326251E-11
  -3.86999995E-02     1.33681096E-11
  -3.86499986E-02     1.53515742E-11
  -3.86000015E-02     1.64571690E-11
  -3.85500006E-02     1.62353551E-11
  -3.84999998E-02     1.47544008E-11
  -3.84499989E-02     1.26216520E-11
  -3.84000018E-02     1.07478236E-11
  -3.83500010E-02     9.93887958E-12
  -3.83000001E-02     1.04917967E-11
  -3.82499993E-02     1.19855332E-11
  -3.81999984E-02     1.33845183E-11
  -3.81500013E-02     1.34373493E-11
  -3.81000005E-02     1.12152865E-11
  -3.80499996E-02     6.55529754E-12
  -3.79999988E-02     1.92985019E-13
  -3.79500017E-02    -6.50666760E-12
  -3.79000008E-02    -1.21335841E-11
  -3.78500000E-02    -1.58879888E-11
  -3.77999991E-02    -1.80071427E-11
  -3.77499983E-02    -1.97458473E-11
  -3.77000012E-02    -2.28851469E-11
  -3.76500003E-02    -2.89611252E-11
  -3.75999995E-02    -3.85478767E-11
  -3.75499986E-02    -5.09264644E-11
  -3.75000015E-02    -6.43186546E-11
  -3.74500006E-02    -7.66207583E-11
  -3.73999998E-02    -8.63413785E-11
  -3.73499990E-02    -9.33314329E-11
  -3.73000018E-02    -9.89579321E-11
  -3.72500010E-02    -1.05600959E-10
  -3.72000001E-02    -1.15655818E-10
  -3.71499993E-02    -1.30462460E-10
  -3.70999984E-02    -1.49644575E-10
  -3.70500013E-02    -1.71181513E-10
  -3.70000005E-02    -1.92220698E-10
  -3.69499996E-02    -2.10303330E-10
  -3.68999988E-02    -2.24474300E-10
  -3.68500017E-02    -2.35772402E-10
  -3.68000008E-02    -2.46847598E-10
  -3.67500000E-02    -2.60829719E-10
  -3.66999991E-02    -2.79917950E-10
  -3.66499983E-02    -3.04313963E-10
  -3.66000012E-02    -3.32003258E-10
  -3.65500003E-02    -3.59530711E-10
  -3.64999995E-02    -3.83471283E-10
  -3.64499986E-02    -4.01963934E-10
  -3.64000015E-02    -4.15617152E-10
  -3.63500006E-02    -4.27348629E-10
  -3.62999998E-02    -4.41179482E-10
  -3.62499990E-02    -4.60475297E-10
  -3.62000018E-02    -4.86392815E-10
  -3.61500010E-02    -5.17236975E-10
  -3.61000001E-02    -5.49060020E-10
  -3.60499993E-02    -5.77296100E-10
  -3.59999985E-02    -5.98747663E-10
  -3.59500013E-02    -6.13049167E-10
  -3.59000005E-02    -6.22923324E-10
  -3.58499996E-02    -6.33062491E-10
  -3.57999988E-02    -6.48077869E-10
  -3.57500017E-02    -6.70399125E-10
  -3.57000008E-02    -6.99063085E-10
  -3.56500000E-02    -7.29966754E-10
  -3.55999991E-02    -7.57533258E-10
  -3.55499983E-02    -7.77107489E-10
  -3.55000012E-02    -7.87046595E-10
  -3.54500003E-02    -7.89563748E-10
  -3.53999995E-02    -7.89895038E-10
  -3.53499986E-02    -7.94089350E-10
  -3.53000015E-02    -8.06350708E-10
  -3.52500007E-02    -8.27101165E-10
  -3.51999998E-02    -8.52654336E-10
  -3.51499990E-02    -8.76704043E-10
  -3.51000018E-02    -8.93025764E-10
  -3.50500010E-02    -8.98231711E-10
  -3.50000001E-02    -8.93358942E-10
  -3.49499993E-02    -8.83546958E-10
  -3.48999985E-02    -8.75883921E-10
  -3.48500013E-02    -8.76312356E-10
  -3.48000005E-02    -8.86935081E-10
  -3.47499996E-02    -9.04934960E-10
  -3.46999988E-02    -9.23649046E-10
  -3.46500017E-02    -9.35397870E-10
  -3.46000008E-02    -9.34870847E-10
  -3.45500000E-02    -9.21580312E-10
  -3.44999991E-02    -9.00261088E-10
  -3.44499983E-02    -8.78974893E-10
  -3.44000012E-02    -8.65687910E-10
  -3.43500003E-02    -8.64788685E-10
  -3.42999995E-02    -8.75084116E-10
  -3.42499986E-02    -8.90202523E-10
  -3.42000015E-02    -9.01301200E-10
  -3.41500007E-02    -9.00951924E-10
  -3.40999998E-02    -8.86519580E-10
  -3.40499990E-02    -8.61517746E-10
  -3.40000018E-02    -8.34272873E-10
  -3.39500010E-02    -8.14407430E-10
  -3.39000002E-02    -8.08636991E-10
  -3.38499993E-02    -8.17727608E-10
  -3.37999985E-02    -8.35996439E-10
  -3.37500013E-02    -8.53651316E-10
  -3.37000005E-02    -8.61019867E-10
  -3.36499996E-02    -8.52856230E-10
  -3.35999988E-02    -8.30830960E-10
  -3.35500017E-02    -8.03053402E-10
  -3.35000008E-02    -7.80748632E-10
  -3.34500000E-02    -7.73472897E-10
  -3.33999991E-02    -7.84933729E-10
  -3.33499983E-02    -8.11277823E-10
  -3.33000012E-02    -8.42667658E-10
  -3.32500003E-02    -8.67534766E-10
  -3.31999995E-02    -8.77696804E-10
  -3.31499986E-02    -8.72101058E-10
  -3.31000015E-02    -8.57507010E-10
  -3.30500007E-02    -8.45733206E-10
  -3.29999998E-02    -8.48596915E-10
  -3.29499990E-02    -8.72719397E-10
  -3.29000019E-02    -9.16485443E-10
  -3.28500010E-02    -9.70554526E-10
  -3.28000002E-02    -1.02179376E-09
  -3.27499993E-02    -1.05898867E-09
  -3.26999985E-02    -1.07785714E-09
  -3.26500013E-02    -1.08313691E-09
  -3.26000005E-02    -1.08675380E-09
  -3.25499997E-02    -1.10278364E-09
  -3.24999988E-02    -1.14135479E-09
  -3.24500017E-02    -1.20415078E-09
  -3.24000008E-02    -1.28352928E-09
  -3.23500000E-02    -1.36572220E-09
  -3.22999991E-02    -1.43680123E-09
  -3.22499983E-02    -1.48884460E-09
  -3.22000012E-02    -1.52359181E-09
  -3.21500003E-02    -1.55191571E-09
  -3.20999995E-02    -1.58924518E-09
  -3.20499986E-02    -1.64886071E-09
  -3.20000015E-02    -1.73597092E-09
  -3.19500007E-02    -1.84520266E-09
  -3.18999998E-02    -1.96268979E-09
  -3.18499990E-02    -2.07194528E-09
  -3.18000019E-02    -2.16101514E-09
  -3.17500010E-02    -2.22779795E-09
  -3.17000002E-02    -2.28115637E-09
  -3.16499993E-02    -2.33724329E-09
  -3.15999985E-02    -2.41255749E-09
  -3.15500014E-02    -2.51671017E-09
  -3.15000005E-02    -2.64807487E-09
  -3.14499997E-02    -2.79429124E-09
  -3.13999988E-02    -2.93750424E-09
  -3.13500017E-02    -3.06212899E-09
  -3.13000008E-02    -3.16177085E-09
  -3.12500000E-02    -3.24223626E-09
  -3.11999992E-02    -3.31923267E-09
  -3.11500002E-02    -3.41166517E-09
  -3.10999993E-02    -3.53339136E-09
  -3.10500003E-02    -3.68703357E-09
  -3.09999995E-02    -3.86259780E-09
  -3.09500005E-02    -4.04160660E-09
  -3.08999997E-02    -4.20503099E-09
  -3.08500007E-02    -4.34161995E-09
  -3.07999998E-02    -4.45297266E-09
  -3.07500008E-02    -4.55306770E-09
  -3.07000000E-02    -4.66235317E-09
  -3.06499992E-02    -4.79889950E-09
  -3.06000002E-02    -4.97045338E-09
  -3.05499993E-02    -5.17091037E-09
  -3.05000003E-02    -5.38282752E-09
  -3.04499995E-02    -5.58496671E-09
  -3.04000005E-02    -5.76164672E-09
  -3.03499997E-02    -5.90980953E-09
  -3.03000007E-02    -6.04065997E-09
  -3.02499998E-02    -6.17505291E-09
  -3.02000009E-02    -6.33455022E-09
  -3.01500000E-02    -6.53197985E-09
  -3.00999992E-02    -6.76564715E-09
  -3.00500002E-02    -7.01981451E-09
  -2.99999993E-02    -7.27133065E-09
  -2.99500003E-02    -7.49962137E-09
  -2.98999995E-02    -7.69569208E-09
  -2.98500005E-02    -7.86618948E-09
  -2.97999997E-02    -8.03065525E-09
  -2.97500007E-02    -8.21309776E-09
  -2.96999998E-02    -8.43147685E-09
  -2.96500009E-02    -8.68970762E-09
  -2.96000000E-02    -8.97571617E-09
  -2.95499992E-02    -9.26649957E-09
  -2.95000002E-02    -9.53808854E-09
  -2.94499993E-02    -9.77608927E-09
  -2.94000003E-02    -9.98220173E-09
  -2.93499995E-02    -1.01737658E-08
  -2.93000005E-02    -1.03764366E-08
  -2.92499997E-02    -1.06130988E-08
  -2.92000007E-02    -1.08938440E-08
  -2.91499998E-02    -1.12114149E-08
  -2.91000009E-02    -1.15441852E-08
  -2.90500000E-02    -1.18654704E-08
  -2.89999992E-02    -1.21551640E-08
  -2.89500002E-02    -1.24086386E-08
  -2.88999993E-02    -1.26389645E-08
  -2.88500004E-02    -1.28713955E-08
  -2.87999995E-02    -1.31324311E-08
  -2.87500005E-02    -1.34382034E-08
  -2.86999997E-02    -1.37872851E-08
  -2.86500007E-02    -1.41611363E-08
  -2.85999998E-02    -1.45320875E-08
  -2.85500009E-02    -1.48754529E-08
  -2.85000000E-02    -1.51804667E-08
  -2.84499992E-02    -1.54552726E-08
  -2.84000002E-02    -1.57236464E-08
  -2.83499993E-02    -1.60148623E-08
  -2.83000004E-02    -1.63509863E-08
  -2.82499995E-02    -1.67372001E-08
  -2.82000005E-02    -1.71594028E-08
  -2.81499997E-02    -1.75902350E-08
  -2.81000007E-02    -1.80009838E-08
  -2.80499998E-02    -1.83741822E-08
  -2.80000009E-02    -1.87114093E-08
  -2.79500000E-02    -1.90327558E-08
  -2.78999992E-02    -1.93681711E-08
  -2.78500002E-02    -1.97443644E-08
  -2.77999993E-02    -2.01729797E-08
  -2.77500004E-02    -2.06452562E-08
  -2.76999995E-02    -2.11355591E-08
  -2.76500005E-02    -2.16123279E-08
  -2.75999997E-02    -2.20517222E-08
  -2.75500007E-02    -2.24479990E-08
  -2.74999999E-02    -2.28160371E-08
  -2.74500009E-02    -2.31848460E-08
  -2.74000000E-02    -2.35848017E-08
  -2.73499992E-02    -2.40341951E-08
  -2.73000002E-02    -2.45309906E-08
  -2.72499993E-02    -2.50534420E-08
  -2.72000004E-02    -2.55693813E-08
  -2.71499995E-02    -2.60501682E-08
  -2.71000005E-02    -2.64832085E-08
  -2.70499997E-02    -2.68775633E-08
  -2.70000007E-02    -2.72601373E-08
  -2.69499999E-02    -2.76640666E-08
  -2.69000009E-02    -2.81143144E-08
  -2.68500000E-02    -2.86168067E-08
  -2.67999992E-02    -2.91559097E-08
  -2.67500002E-02    -2.97013738E-08
  -2.66999993E-02    -3.02217842E-08
  -2.66500004E-02    -3.06986330E-08
  -2.65999995E-02    -3.11348067E-08
  -2.65500005E-02    -3.15537463E-08
  -2.64999997E-02    -3.19896145E-08
  -2.64500007E-02    -3.24726521E-08
  -2.63999999E-02    -3.30162351E-08
  -2.63500009E-02    -3.36111619E-08
  -2.63000000E-02    -3.42298350E-08
  -2.62499992E-02    -3.48384859E-08
  -2.62000002E-02    -3.54120751E-08
  -2.61499994E-02    -3.59454546E-08
  -2.61000004E-02    -3.64557344E-08
  -2.60499995E-02    -3.69749102E-08
  -2.60000005E-02    -3.75358624E-08
  -2.59499997E-02    -3.81579497E-08
  -2.59000007E-02    -3.88384684E-08
  -2.58499999E-02    -3.95537896E-08
  -2.58000009E-02    -4.02697005E-08
  -2.57500000E-02    -4.09564471E-08
  -2.56999992E-02    -4.16018935E-08
  -2.56500002E-02    -4.22170565E-08
  -2.55999994E-02    -4.28315410E-08
  -2.55500004E-02    -4.34808562E-08
  -2.54999995E-02    -4.41911787E-08
  -2.54500005E-02    -4.49682140E-08
  -2.53999997E-02    -4.57950229E-08
  -2.53500007E-02    -4.66398014E-08
  -2.52999999E-02    -4.74701238E-08
  -2.52500009E-02    -4.82674487E-08
  -2.52000000E-02    -4.90354211E-08
  -2.51499992E-02    -4.97984480E-08
  -2.51000002E-02    -5.05910442E-08
  -2.50499994E-02    -5.14427612E-08
  -2.50000004E-02    -5.23652197E-08
  -2.49499995E-02    -5.33469979E-08
  -2.49000005E-02    -5.43586047E-08
  -2.48499997E-02    -5.53653656E-08
  -2.48000007E-02    -5.63425324E-08
  -2.47499999E-02    -5.72860301E-08
  -2.47000009E-02    -5.82141162E-08
  -2.46500000E-02    -5.91592553E-08
  -2.45999992E-02    -6.01538517E-08
  -2.45500002E-02    -6.12160918E-08
  -2.44999994E-02    -6.23421315E-08
  -2.44500004E-02    -6.35080468E-08
  -2.43999995E-02    -6.46805560E-08
  -2.43500005E-02    -6.58319053E-08
  -2.42999997E-02    -6.69521967E-08
  -2.42500007E-02    -6.80538434E-08
  -2.41999999E-02    -6.91662265E-08
  -2.41500009E-02    -7.03228551E-08
  -2.41000000E-02    -7.15468289E-08
  -2.40499992E-02    -7.28409049E-08
  -2.40000002E-02    -7.41865733E-08
  -2.39499994E-02    -7.55524496E-08
  -2.39000004E-02    -7.69082575E-08
  -2.38499995E-02    -7.82382017E-08
  -2.38000005E-02    -7.95478456E-08
  -2.37499997E-02    -8.08616107E-08
  -2.37000007E-02    -8.22119972E-08
  -2.36499999E-02    -8.36253449E-08
  -2.36000009E-02    -8.51105142E-08
  -2.35500000E-02    -8.66552554E-08
  -2.34999992E-02    -8.82319924E-08
  -2.34500002E-02    -8.98101931E-08
  -2.33999994E-02    -9.13699836E-08
  -2.33500004E-02    -9.29107387E-08
  -2.32999995E-02    -9.44512308E-08
  -2.32500006E-02    -9.60210826E-08
  -2.31999997E-02    -9.76475931E-08
  -2.31500007E-02    -9.93436728E-08
  -2.30999999E-02    -1.01102245E-07
  -2.30500009E-02    -1.02899477E-07
  -2.30000000E-02    -1.04705308E-07
  -2.29499992E-02    -1.06496493E-07
  -2.29000002E-02    -1.08266427E-07
  -2.28499994E-02    -1.10027486E-07
  -2.28000004E-02    -1.11804837E-07
  -2.27499995E-02    -1.13624857E-07
  -2.27000006E-02    -1.15503063E-07
  -2.26499997E-02    -1.17437189E-07
  -2.26000007E-02    -1.19408199E-07
  -2.25499999E-02    -1.21388780E-07
  -2.25000009E-02    -1.23355278E-07
  -2.24500000E-02    -1.25297902E-07
  -2.23999992E-02    -1.27224496E-07
  -2.23500002E-02    -1.29156575E-07
  -2.22999994E-02    -1.31119251E-07
  -2.22500004E-02    -1.33129873E-07
  -2.21999995E-02    -1.35190362E-07
  -2.21500006E-02    -1.37286492E-07
  -2.20999997E-02    -1.39394459E-07
  -2.20500007E-02    -1.41491441E-07
  -2.19999999E-02    -1.43565586E-07
  -2.19500009E-02    -1.45620760E-07
  -2.19000001E-02    -1.47674186E-07
  -2.18499992E-02    -1.49748232E-07
  -2.18000002E-02    -1.51860078E-07
  -2.17499994E-02    -1.54014060E-07
  -2.17000004E-02    -1.56200016E-07
  -2.16499995E-02    -1.58398137E-07
  -2.16000006E-02    -1.60588172E-07
  -2.15499997E-02    -1.62758539E-07
  -2.15000007E-02    -1.64911341E-07
  -2.14499999E-02    -1.67061074E-07
  -2.14000009E-02    -1.69227761E-07
  -2.13500001E-02    -1.71427928E-07
  -2.12999992E-02    -1.73667246E-07
  -2.12500002E-02    -1.75938652E-07
  -2.11999994E-02    -1.78226145E-07
  -2.11500004E-02    -1.80512586E-07
  -2.10999995E-02    -1.82787829E-07
  -2.10500006E-02    -1.85053239E-07
  -2.09999997E-02    -1.87320779E-07
  -2.09500007E-02    -1.89607235E-07
  -2.08999999E-02    -1.91926190E-07
  -2.08500009E-02    -1.94281839E-07
  -2.08000001E-02    -1.96667330E-07
  -2.07499992E-02    -1.99068353E-07
  -2.07000002E-02    -2.01470243E-07
  -2.06499994E-02    -2.03865028E-07
  -2.06000004E-02    -2.06255265E-07
  -2.05499995E-02    -2.08652693E-07
  -2.05000006E-02    -2.11072560E-07
  -2.04499997E-02    -2.13526405E-07
  -2.04000007E-02    -2.16016716E-07
  -2.03499999E-02    -2.18536016E-07
  -2.03000009E-02    -2.21070891E-07
  -2.02500001E-02    -2.23608836E-07
  -2.01999992E-02    -2.26144621E-07
  -2.01500002E-02    -2.28683206E-07
  -2.00999994E-02    -2.31237323E-07
  -2.00500004E-02    -2.33821410E-07
  -1.99999996E-02    -2.36444350E-07
  -1.99500006E-02    -2.39104821E-07
  -1.98999997E-02    -2.41791525E-07
  -1.98500007E-02    -2.44488547E-07
  -1.97999999E-02    -2.47182811E-07
  -1.97500009E-02    -2.49870510E-07
  -1.97000001E-02    -2.52559317E-07
  -1.96499992E-02    -2.55264723E-07
  -1.96000002E-02    -2.58002473E-07
  -1.95499994E-02    -2.60780809E-07
  -1.95000004E-02    -2.63595723E-07
  -1.94499996E-02    -2.66432380E-07
  -1.94000006E-02    -2.69271709E-07
  -1.93499997E-02    -2.72099584E-07
  -1.93000007E-02    -2.74913958E-07
  -1.92499999E-02    -2.77726571E-07
  -1.92000009E-02    -2.80557856E-07
  -1.91500001E-02    -2.83427511E-07
  -1.90999992E-02    -2.86344772E-07
  -1.90500002E-02    -2.89303017E-07
  -1.89999994E-02    -2.92281840E-07
  -1.89500004E-02    -2.95255688E-07
  -1.88999996E-02    -2.98205350E-07
  -1.88500006E-02    -3.01127017E-07
  -1.87999997E-02    -3.04034614E-07
  -1.87500007E-02    -3.06953865E-07
  -1.86999999E-02    -3.09910405E-07
  -1.86500009E-02    -3.12917280E-07
  -1.86000001E-02    -3.15968038E-07
  -1.85499992E-02    -3.19038293E-07
  -1.85000002E-02    -3.22096099E-07
  -1.84499994E-02    -3.25116304E-07
  -1.84000004E-02    -3.28092625E-07
  -1.83499996E-02    -3.31041406E-07
  -1.83000006E-02    -3.33995274E-07
  -1.82499997E-02    -3.36988791E-07
  -1.82000007E-02    -3.40042504E-07
  -1.81499999E-02    -3.43152863E-07
  -1.81000009E-02    -3.46292410E-07
  -1.80500001E-02    -3.49421327E-07
  -1.79999992E-02    -3.52504912E-07
  -1.79500002E-02    -3.55529636E-07
  -1.78999994E-02    -3.58510022E-07
  -1.78500004E-02    -3.61483160E-07
  -1.77999996E-02    -3.64492422E-07
  -1.77500006E-02    -3.67567765E-07
  -1.76999997E-02    -3.70711234E-07
  -1.76500008E-02    -3.73894920E-07
  -1.75999999E-02    -3.77072126E-07
  -1.75500009E-02    -3.80198173E-07
  -1.75000001E-02    -3.83250637E-07
  -1.74499992E-02    -3.86240941E-07
  -1.74000002E-02    -3.89210470E-07
  -1.73499994E-02    -3.92213423E-07
  -1.73000004E-02    -3.95292943E-07
  -1.72499996E-02    -3.98461282E-07
  -1.72000006E-02    -4.01693342E-07
  -1.71499997E-02    -4.04936742E-07
  -1.71000008E-02    -4.08134497E-07
  -1.70499999E-02    -4.11250795E-07
  -1.70000009E-02    -4.14287825E-07
  -1.69500001E-02    -4.17286202E-07
  -1.68999992E-02    -4.20307884E-07
  -1.68500002E-02    -4.23409091E-07
  -1.67999994E-02    -4.26614548E-07
  -1.67500004E-02    -4.29905214E-07
  -1.66999996E-02    -4.33225210E-07
  -1.66500006E-02    -4.36505843E-07
  -1.65999997E-02    -4.39695896E-07
  -1.65500008E-02    -4.42785421E-07
  -1.64999999E-02    -4.45811764E-07
  -1.64500009E-02    -4.48844503E-07
  -1.64000001E-02    -4.51955458E-07
  -1.63499992E-02    -4.55187035E-07
  -1.63000003E-02    -4.58532355E-07
  -1.62499994E-02    -4.61937276E-07
  -1.62000004E-02    -4.65323296E-07
  -1.61499996E-02    -4.68622176E-07
  -1.61000006E-02    -4.71806914E-07
  -1.60499997E-02    -4.74905221E-07
  -1.60000008E-02    -4.77988635E-07
  -1.59499999E-02    -4.81141910E-07
  -1.59000009E-02    -4.84425414E-07
  -1.58500001E-02    -4.87847331E-07
  -1.57999992E-02    -4.91358435E-07
  -1.57500003E-02    -4.94872381E-07
  -1.56999994E-02    -4.98303393E-07
  -1.56500004E-02    -5.01604120E-07
  -1.55999996E-02    -5.04788261E-07
  -1.55499997E-02    -5.07925847E-07
  -1.54999997E-02    -5.11114138E-07
  -1.54499998E-02    -5.14434760E-07
  -1.53999999E-02    -5.17917442E-07
  -1.53500000E-02    -5.21525578E-07
  -1.53000001E-02    -5.25171174E-07
  -1.52500002E-02    -5.28752992E-07
  -1.52000003E-02    -5.32201398E-07
  -1.51500003E-02    -5.35510594E-07
  -1.51000004E-02    -5.38742768E-07
  -1.50499996E-02    -5.42002397E-07
  -1.49999997E-02    -5.45390549E-07
  -1.49499997E-02    -5.48960088E-07
  -1.48999998E-02    -5.52690892E-07
  -1.48499999E-02    -5.56496730E-07
  -1.48000000E-02    -5.60262038E-07
  -1.47500001E-02    -5.63892343E-07
  -1.47000002E-02    -5.67356665E-07
  -1.46500003E-02    -5.70702355E-07
  -1.46000003E-02    -5.74036221E-07
  -1.45500004E-02    -5.77478374E-07
  -1.44999996E-02    -5.81109134E-07
  -1.44499997E-02    -5.84932820E-07
  -1.43999998E-02    -5.88874627E-07
  -1.43499998E-02    -5.92812171E-07
  -1.42999999E-02    -5.96629206E-07
  -1.42500000E-02    -6.00267640E-07
  -1.42000001E-02    -6.03754756E-07
  -1.41500002E-02    -6.07193499E-07
  -1.41000003E-02    -6.10718473E-07
  -1.40500003E-02    -6.14437397E-07
  -1.40000004E-02    -6.18382842E-07
  -1.39499996E-02    -6.22496543E-07
  -1.38999997E-02    -6.26653673E-07
  -1.38499998E-02    -6.30716784E-07
  -1.37999998E-02    -6.34596859E-07
  -1.37499999E-02    -6.38293500E-07
  -1.37000000E-02    -6.41897543E-07
  -1.36500001E-02    -6.45552518E-07
  -1.36000002E-02    -6.49392859E-07
  -1.35500003E-02    -6.53484506E-07
  -1.35000004E-02    -6.57795113E-07
  -1.34500004E-02    -6.62206901E-07
  -1.33999996E-02    -6.66568269E-07
  -1.33499997E-02    -6.70760812E-07
  -1.32999998E-02    -6.74752982E-07
  -1.32499998E-02    -6.78616857E-07
  -1.31999999E-02    -6.82498580E-07
  -1.31500000E-02    -6.86555836E-07
  -1.31000001E-02    -6.90889465E-07
  -1.30500002E-02    -6.95498329E-07
  -1.30000003E-02    -7.00278918E-07
  -1.29500004E-02    -7.05069908E-07
  -1.29000004E-02    -7.09723338E-07
  -1.28499996E-02    -7.14170596E-07
  -1.27999997E-02    -7.18455169E-07
  -1.27499998E-02    -7.22715924E-07
  -1.26999998E-02    -7.27128054E-07
  -1.26499999E-02    -7.31827583E-07
  -1.26000000E-02    -7.36851291E-07
  -1.25500001E-02    -7.42120619E-07
  -1.25000002E-02    -7.47475042E-07
  -1.24500003E-02    -7.52743517E-07
  -1.24000004E-02    -7.57820885E-07
  -1.23500004E-02    -7.62716809E-07
  -1.22999996E-02    -7.67554752E-07
  -1.22499997E-02    -7.72520252E-07
  -1.21999998E-02    -7.77781963E-07
  -1.21499998E-02    -7.83417647E-07
  -1.20999999E-02    -7.89380124E-07
  -1.20500000E-02    -7.95517678E-07
  -1.20000001E-02    -8.01640397E-07
  -1.19500002E-02    -8.07605090E-07
  -1.19000003E-02    -8.13380325E-07
  -1.18500004E-02    -8.19063018E-07
  -1.18000004E-02    -8.24839390E-07
  -1.17499996E-02    -8.30905265E-07
  -1.16999997E-02    -8.37381606E-07
  -1.16499998E-02    -8.44261308E-07
  -1.15999999E-02    -8.51412835E-07
  -1.15499999E-02    -8.58637748E-07
  -1.15000000E-02    -8.65759205E-07
  -1.14500001E-02    -8.72702572E-07
  -1.14000002E-02    -8.79530944E-07
  -1.13500003E-02    -8.86421901E-07
  -1.13000004E-02    -8.93592642E-07
  -1.12500004E-02    -9.01206931E-07
  -1.11999996E-02    -9.09304617E-07
  -1.11499997E-02    -9.17784632E-07
  -1.10999998E-02    -9.26450525E-07
  -1.10499999E-02    -9.35097944E-07
  -1.09999999E-02    -9.43607006E-07
  -1.09500000E-02    -9.51998800E-07
  -1.09000001E-02    -9.60430157E-07
  -1.08500002E-02    -9.69128564E-07
  -1.08000003E-02    -9.78295589E-07
  -1.07500004E-02    -9.88020247E-07
  -1.07000005E-02    -9.98240466E-07
  -1.06499996E-02    -1.00877230E-06
  -1.05999997E-02    -1.01939168E-06
  -1.05499998E-02    -1.02993545E-06
  -1.04999999E-02    -1.04037792E-06
  -1.04499999E-02    -1.05084621E-06
  -1.04000000E-02    -1.06156983E-06
  -1.03500001E-02    -1.07278470E-06
  -1.03000002E-02    -1.08463291E-06
  -1.02500003E-02    -1.09710311E-06
  -1.02000004E-02    -1.11003783E-06
  -1.01500005E-02    -1.12320492E-06
  -1.00999996E-02    -1.13640374E-06
  -1.00499997E-02    -1.14955708E-06
  -9.99999978E-03    -1.16275089E-06
  -9.94999986E-03    -1.17620255E-06
  -9.89999995E-03    -1.19017034E-06
  -9.85000003E-03    -1.20484481E-06
  -9.80000012E-03    -1.22026881E-06
  -9.75000020E-03    -1.23632140E-06
  -9.70000029E-03    -1.25277438E-06
  -9.65000037E-03    -1.26939699E-06
  -9.60000046E-03    -1.28606143E-06
  -9.54999961E-03    -1.30280637E-06
  -9.49999969E-03    -1.31982677E-06
  -9.44999978E-03    -1.33739445E-06
  -9.39999986E-03    -1.35574658E-06
  -9.34999995E-03    -1.37498535E-06
  -9.30000003E-03    -1.39503902E-06
  -9.25000012E-03    -1.41569797E-06
  -9.20000020E-03    -1.43671218E-06
  -9.15000029E-03    -1.45790739E-06
  -9.10000037E-03    -1.47926903E-06
  -9.05000046E-03    -1.50095730E-06
  -8.99999961E-03    -1.52324458E-06
  -8.94999970E-03    -1.54640395E-06
  -8.89999978E-03    -1.57059640E-06
  -8.84999987E-03    -1.59580532E-06
  -8.79999995E-03    -1.62185063E-06
  -8.75000004E-03    -1.64847359E-06
  -8.70000012E-03    -1.67545738E-06
  -8.65000021E-03    -1.70273131E-06
  -8.60000029E-03    -1.73041053E-06
  -8.55000038E-03    -1.75875596E-06
  -8.50000046E-03    -1.78806908E-06
  -8.44999962E-03    -1.81856888E-06
  -8.39999970E-03    -1.85030387E-06
  -8.34999979E-03    -1.88313970E-06
  -8.29999987E-03    -1.91682579E-06
  -8.24999996E-03    -1.95111488E-06
  -8.20000004E-03    -1.98588236E-06
  -8.15000013E-03    -2.02119168E-06
  -8.10000021E-03    -2.05727838E-06
  -8.05000030E-03    -2.09445898E-06
  -8.00000038E-03    -2.13300223E-06
  -7.95000046E-03    -2.17302227E-06
  -7.89999962E-03    -2.21443861E-06
  -7.84999970E-03    -2.25702138E-06
  -7.79999979E-03    -2.30050227E-06
  -7.74999987E-03    -2.34470554E-06
  -7.69999996E-03    -2.38963662E-06
  -7.65000004E-03    -2.43549425E-06
  -7.60000013E-03    -2.48259676E-06
  -7.55000021E-03    -2.53125654E-06
  -7.49999983E-03    -2.58165551E-06
  -7.44999992E-03    -2.63377865E-06
  -7.40000000E-03    -2.68743338E-06
  -7.35000009E-03    -2.74234776E-06
  -7.30000017E-03    -2.79830442E-06
  -7.24999979E-03    -2.85525175E-06
  -7.19999988E-03    -2.91334436E-06
  -7.14999996E-03    -2.97289125E-06
  -7.10000005E-03    -3.03423803E-06
  -7.05000013E-03    -3.09763254E-06
  -7.00000022E-03    -3.16313185E-06
  -6.94999984E-03    -3.23059407E-06
  -6.89999992E-03    -3.29975569E-06
  -6.85000001E-03    -3.37036681E-06
  -6.80000009E-03    -3.44231648E-06
  -6.75000018E-03    -3.51570293E-06
  -6.69999979E-03    -3.59080991E-06
  -6.64999988E-03    -3.66800259E-06
  -6.59999996E-03    -3.74758679E-06
  -6.55000005E-03    -3.82969711E-06
  -6.50000013E-03    -3.91425556E-06
  -6.45000022E-03    -4.00102772E-06
  -6.39999984E-03    -4.08974711E-06
  -6.34999992E-03    -4.18025365E-06
  -6.30000001E-03    -4.27258919E-06
  -6.25000009E-03    -4.36700248E-06
  -6.20000018E-03    -4.46386457E-06
  -6.14999980E-03    -4.56353382E-06
  -6.09999988E-03    -4.66622078E-06
  -6.04999997E-03    -4.77192089E-06
  -6.00000005E-03    -4.88044270E-06
  -5.95000014E-03    -4.99151793E-06
  -5.90000022E-03    -5.10494328E-06
  -5.84999984E-03    -5.22070013E-06
  -5.79999993E-03    -5.33898947E-06
  -5.75000001E-03    -5.46017282E-06
  -5.70000010E-03    -5.58464490E-06
  -5.65000018E-03    -5.71268674E-06
  -5.59999980E-03    -5.84437430E-06
  -5.54999989E-03    -5.97957342E-06
  -5.49999997E-03    -6.11802989E-06
  -5.45000006E-03    -6.25951179E-06
  -5.40000014E-03    -6.40394455E-06
  -5.35000023E-03    -6.55147733E-06
  -5.29999984E-03    -6.70245208E-06
  -5.24999993E-03    -6.85728855E-06
  -5.20000001E-03    -7.01633553E-06
  -5.15000010E-03    -7.17975263E-06
  -5.10000018E-03    -7.34747800E-06
  -5.04999980E-03    -7.51929019E-06
  -4.99999989E-03    -7.69494272E-06
  -4.94999997E-03    -7.87431054E-06
  -4.90000006E-03    -8.05748550E-06
  -4.85000014E-03    -8.24477320E-06
  -4.80000023E-03    -8.43660109E-06
  -4.74999985E-03    -8.63337118E-06
  -4.69999993E-03    -8.83532721E-06
  -4.65000002E-03    -9.04248645E-06
  -4.60000010E-03    -9.25467521E-06
  -4.55000019E-03    -9.47164972E-06
  -4.49999981E-03    -9.69324719E-06
  -4.44999989E-03    -9.91949946E-06
  -4.39999998E-03    -1.01506675E-05
  -4.35000006E-03    -1.03871771E-05
  -4.30000015E-03    -1.06294738E-05
  -4.25000023E-03    -1.08778822E-05
  -4.19999985E-03    -1.11325089E-05
  -4.14999994E-03    -1.13932474E-05
  -4.10000002E-03    -1.16598749E-05
  -4.05000011E-03    -1.19322021E-05
  -4.00000019E-03    -1.22102092E-05
  -3.94999981E-03    -1.24941062E-05
  -3.89999989E-03    -1.27842995E-05
  -3.84999998E-03    -1.30812659E-05
  -3.80000006E-03    -1.33854010E-05
  -3.74999992E-03    -1.36969011E-05
  -3.70000000E-03    -1.40157335E-05
  -3.65000009E-03    -1.43417146E-05
  -3.59999994E-03    -1.46746415E-05
  -3.55000002E-03    -1.50144469E-05
  -3.50000011E-03    -1.53612873E-05
  -3.44999996E-03    -1.57155428E-05
  -3.40000005E-03    -1.60777072E-05
  -3.34999990E-03    -1.64482353E-05
  -3.29999998E-03    -1.68274219E-05
  -3.25000007E-03    -1.72153250E-05
  -3.19999992E-03    -1.76118137E-05
  -3.15000000E-03    -1.80166953E-05
  -3.10000009E-03    -1.84298733E-05
  -3.04999994E-03    -1.88514532E-05
  -3.00000003E-03    -1.92817661E-05
  -2.95000011E-03    -1.97213158E-05
  -2.89999996E-03    -2.01706025E-05
  -2.85000005E-03    -2.06300083E-05
  -2.79999990E-03    -2.10996823E-05
  -2.74999999E-03    -2.15795644E-05
  -2.70000007E-03    -2.20694892E-05
  -2.64999992E-03    -2.25693238E-05
  -2.60000001E-03    -2.30791265E-05
  -2.55000009E-03    -2.35991884E-05
  -2.49999994E-03    -2.41299931E-05
  -2.45000003E-03    -2.46720920E-05
  -2.40000011E-03    -2.52259379E-05
  -2.34999997E-03    -2.57917764E-05
  -2.30000005E-03    -2.63696347E-05
  -2.24999990E-03    -2.69593857E-05
  -2.19999999E-03    -2.75609036E-05
  -2.15000007E-03    -2.81741995E-05
  -2.09999993E-03    -2.87995244E-05
  -2.05000001E-03    -2.94373349E-05
  -2.00000009E-03    -3.00882020E-05
  -1.94999995E-03    -3.07526461E-05
  -1.90000003E-03    -3.14310091E-05
  -1.85000000E-03    -3.21234002E-05
  -1.79999997E-03    -3.28297538E-05
  -1.75000005E-03    -3.35499426E-05
  -1.70000002E-03    -3.42839630E-05
  -1.64999999E-03    -3.50320042E-05
  -1.59999996E-03    -3.57944882E-05
  -1.55000004E-03    -3.65719934E-05
  -1.50000001E-03    -3.73650946E-05
  -1.44999998E-03    -3.81742248E-05
  -1.39999995E-03    -3.89995876E-05
  -1.35000004E-03    -3.98411867E-05
  -1.30000000E-03    -4.06989420E-05
  -1.24999997E-03    -4.15728136E-05
  -1.20000006E-03    -4.24629507E-05
  -1.15000003E-03    -4.33697460E-05
  -1.09999999E-03    -4.42937562E-05
  -1.04999996E-03    -4.52356035E-05
  -1.00000005E-03    -4.61958007E-05
  -9.50000016E-04    -4.71746571E-05
  -8.99999985E-04    -4.81722491E-05
  -8.50000011E-04    -4.91885367E-05
  -7.99999980E-04    -5.02234834E-05
  -7.50000007E-04    -5.12771876E-05
  -6.99999975E-04    -5.23499875E-05
  -6.50000002E-04    -5.34424325E-05
  -6.00000028E-04    -5.45551520E-05
  -5.49999997E-04    -5.56887353E-05
  -5.00000024E-04    -5.68435826E-05
  -4.49999992E-04    -5.80198684E-05
  -3.99999990E-04    -5.92176075E-05
  -3.49999988E-04    -6.04367597E-05
  -3.00000014E-04    -6.16774050E-05
  -2.50000012E-04    -6.29398419E-05
  -1.99999995E-04    -6.42245650E-05
  -1.50000007E-04    -6.55322365E-05
  -9.99999975E-05    -6.68634821E-05
  -4.99999987E-05    -6.82188038E-05
   0.00000000        -6.95984854E-05
   4.99999987E-05    -7.10025852E-05
   9.99999975E-05    -7.24311030E-05
   1.50000007E-04    -7.38840827E-05
   1.99999995E-04    -7.53617642E-05
   2.50000012E-04    -7.68646278E-05
   3.00000014E-04    -7.83932919E-05
   3.49999988E-04    -7.99484405E-05
   3.99999990E-04    -8.15306485E-05
   4.49999992E-04    -8.31402795E-05