  -3.99999991E-02   1.00000002E-24
  -3.99499983E-02   1.00000002E-24
  -3.99000011E-02   3.31548045E-16
  -3.98500003E-02  -6.08027693E-15
  -3.97999994E-02  -3.29375063E-14
  -3.97499986E-02  -8.70967185E-14
  -3.97000015E-02  -1.61949311E-13
  -3.96500006E-02  -2.52716603E-13
  -3.95999998E-02  -3.75581050E-13
  -3.95499989E-02  -5.58205500E-13
  -3.95000018E-02  -8.03198599E-13
  -3.94500010E-02  -1.06967668E-12
  -3.94000001E-02  -1.30764301E-12
  -3.93499993E-02  -1.51625544E-12
  -3.92999984E-02  -1.75759515E-12
  -3.92500013E-02  -2.10142494E-12
  -3.92000005E-02  -2.55927874E-12
  -3.91499996E-02  -3.08468398E-12
  -3.90999988E-02  -3.63883012E-12
  -3.90500017E-02  -4.23860166E-12
  -3.90000008E-02  -4.92339806E-12
  -3.89500000E-02  -5.68185863E-12
  -3.88999991E-02  -6.43911096E-12
  -3.88499983E-02  -7.13585571E-12
  -3.88000011E-02  -7.81009198E-12
  -3.87500003E-02  -8.57339373E-12
  -3.86999995E-02  -9.49279544E-12
  -3.86499986E-02  -1.05083858E-11
  -3.86000015E-02  -1.14854012E-11
  -3.85500006E-02  -1.23454085E-11
  -3.84999998E-02  -1.31272710E-11
  -3.84499989E-02  -1.39129333E-11
  -3.84000018E-02  -1.47169603E-11
  -3.83500010E-02  -1.54809464E-11
  -3.83000001E-02  -1.61781647E-11
  -3.82499993E-02  -1.68865859E-11
  -3.81999984E-02  -1.77177578E-11
  -3.81500013E-02  -1.86684834E-11
  -3.81000005E-02  -1.95729804E-11
  -3.80499996E-02  -2.02298005E-11
  -3.79999988E-02  -2.05744692E-11
  -3.79500017E-02  -2.07095573E-11
  -3.79000008E-02  -2.07655820E-11
  -3.78500000E-02  -2.07592728E-11
  -3.77999991E-02  -2.06086832E-11
  -3.77499983E-02  -2.02673607E-11
  -3.77000012E-02  -1.97939633E-11
  -3.76500003E-02  -1.92598073E-11
  -3.75999995E-02  -1.86092045E-11
  -3.75499986E-02  -1.76610011E-11
  -3.75000015E-02  -1.62756406E-11
  -3.74500006E-02  -1.45046058E-11
  -3.73999998E-02  -1.25436311E-11
  -3.73499990E-02  -1.05315600E-11
  -3.73000018E-02  -8.41437423E-12
  -3.72500010E-02  -6.01689228E-12
  -3.72000001E-02  -3.22459117E-12
  -3.71499993E-02  -6.09162175E-14
  -3.70999984E-02   3.41368080E-12
  -3.70500013E-02   7.23259603E-12
  -3.70000005E-02   1.15042151E-11
  -3.69499996E-02   1.62599847E-11
  -3.68999988E-02   2.13657755E-11
  -3.68500017E-02   2.66305780E-11
  -3.68000008E-02   3.20106788E-11
  -3.67500000E-02   3.76813060E-11
  -3.66999991E-02   4.38872584E-11
  -3.66499983E-02   5.07293409E-11
  -3.66000012E-02   5.81087817E-11
  -3.65500003E-02   6.58655491E-11
  -3.64999995E-02   7.39323880E-11
  -3.64499986E-02   8.23331681E-11
  -3.64000015E-02   9.10612558E-11
  -3.63500006E-02   1.00022456E-10
  -3.62999998E-02   1.09138108E-10
  -3.62499990E-02   1.18489801E-10
  -3.62000018E-02   1.28312916E-10
  -3.61500010E-02   1.38809991E-10
  -3.61000001E-02   1.49965693E-10
  -3.60499993E-02   1.61556185E-10
  -3.59999985E-02   1.73339537E-10
  -3.59500013E-02   1.85227472E-10
  -3.59000005E-02   1.97278929E-10
  -3.58499996E-02   2.09564865E-10
  -3.57999988E-02   2.22084309E-10
  -3.57500017E-02   2.34820580E-10
  -3.57000008E-02   2.47838639E-10
  -3.56500000E-02   2.61268007E-10
  -3.55999991E-02   2.75161227E-10
  -3.55499983E-02   2.89384350E-10
  -3.55000012E-02   3.03682579E-10
  -3.54500003E-02   3.17876975E-10
  -3.53999995E-02   3.31998928E-10
  -3.53499986E-02   3.46230211E-10
  -3.53000015E-02   3.60718150E-10
  -3.52500007E-02   3.75455528E-10
  -3.51999998E-02   3.90326133E-10
  -3.51499990E-02   4.05231043E-10
  -3.51000018E-02   4.20139201E-10
  -3.50500010E-02   4.35021241E-10
  -3.50000001E-02   4.49778881E-10
  -3.49499993E-02   4.64291550E-10
  -3.48999985E-02   4.78551032E-10
  -3.48500013E-02   4.92727525E-10
  -3.48000005E-02   5.07060005E-10
  -3.47499996E-02   5.21651278E-10
  -3.46999988E-02   5.36361233E-10
  -3.46500017E-02   5.50903545E-10
  -3.46000008E-02   5.65047731E-10
  -3.45500000E-02   5.78733894E-10
  -3.44999991E-02   5.92017324E-10
  -3.44499983E-02   6.04946704E-10
  -3.44000012E-02   6.17533302E-10
  -3.43500003E-02   6.29828689E-10
  -3.42999995E-02   6.41977582E-10
  -3.42499986E-02   6.54128973E-10
  -3.42000015E-02   6.66266819E-10
  -3.41500007E-02   6.78150702E-10
  -3.40999998E-02   6.89467650E-10
  -3.40499990E-02   7.00071723E-10
  -3.40000018E-02   7.10081383E-10
  -3.39500010E-02   7.19744209E-10
  -3.39000002E-02   7.29219352E-10
  -3.38499993E-02   7.38499262E-10
  -3.37999985E-02   7.47516604E-10
  -3.37500013E-02   7.56270158E-10
  -3.37000005E-02   7.64798447E-10
  -3.36499996E-02   7.73042130E-10
  -3.35999988E-02   7.80796650E-10
  -3.35500017E-02   7.87866883E-10
  -3.35000008E-02   7.94281696E-10
  -3.34500000E-02   8.00319422E-10
  -3.33999991E-02   8.06282818E-10
  -3.33499983E-02   8.12240164E-10
  -3.33000012E-02   8.17998336E-10
  -3.32500003E-02   8.23323409E-10
  -3.31999995E-02   8.28157820E-10
  -3.31499986E-02   8.32611424E-10
  -3.31000015E-02   8.36781255E-10
  -3.30500007E-02   8.40657599E-10
  -3.29999998E-02   8.44248005E-10
  -3.29499990E-02   8.47754533E-10
  -3.29000019E-02   8.51543058E-10
  -3.28500010E-02   8.55879645E-10
  -3.28000002E-02   8.60705340E-10
  -3.27499993E-02   8.65711891E-10
  -3.26999985E-02   8.70658379E-10
  -3.26500013E-02   8.75595652E-10
  -3.26000005E-02   8.80772177E-10
  -3.25499997E-02   8.86354157E-10
  -3.24999988E-02   8.92289242E-10
  -3.24500017E-02   8.98445152E-10
  -3.24000008E-02   9.04811615E-10
  -3.23500000E-02   9.11482501E-10
  -3.22999991E-02   9.18426335E-10
  -3.22499983E-02   9.25347188E-10
  -3.22000012E-02   9.31863253E-10
  -3.21500003E-02   9.37856348E-10
  -3.20999995E-02   9.43620071E-10
  -3.20499986E-02   9.49636259E-10
  -3.20000015E-02   9.56213886E-10
  -3.19500007E-02   9.63364277E-10
  -3.18999998E-02   9.70996616E-10
  -3.18499990E-02   9.79150316E-10
  -3.18000019E-02   9.87969928E-10
  -3.17500010E-02   9.97476213E-10
  -3.17000002E-02   1.00746211E-09
  -3.16499993E-02   1.01770103E-09
  -3.15999985E-02   1.02826070E-09
  -3.15500014E-02   1.03955766E-09
  -3.15000005E-02   1.05206677E-09
  -3.14499997E-02   1.06599474E-09
  -3.13999988E-02   1.08127296E-09
  -3.13500017E-02   1.09785503E-09
  -3.13000008E-02   1.11596798E-09
  -3.12500000E-02   1.13603826E-09
  -3.11999992E-02   1.15841070E-09
  -3.11500002E-02   1.18321741E-09
  -3.10999993E-02   1.21054389E-09
  -3.10500003E-02   1.24066257E-09
  -3.09999995E-02   1.27400479E-09
  -3.09500005E-02   1.31086753E-09
  -3.08999997E-02   1.35118705E-09
  -3.08500007E-02   1.39466327E-09
  -3.07999998E-02   1.44112611E-09
  -3.07500008E-02   1.49075452E-09
  -3.07000000E-02   1.54393109E-09
  -3.06499992E-02   1.60091918E-09
  -3.06000002E-02   1.66172642E-09
  -3.05499993E-02   1.72626535E-09
  -3.05000003E-02   1.79456228E-09
  -3.04499995E-02   1.86672655E-09
  -3.04000005E-02   1.94271643E-09
  -3.03499997E-02   2.02221573E-09
  -3.03000007E-02   2.10482476E-09
  -3.02499998E-02   2.19039387E-09
  -3.02000009E-02   2.27914865E-09
  -3.01500000E-02   2.37145925E-09
  -3.00999992E-02   2.46750576E-09
  -3.00500002E-02   2.56717292E-09
  -2.99999993E-02   2.67024203E-09
  -2.99500003E-02   2.77661649E-09
  -2.98999995E-02   2.88631252E-09
  -2.98500005E-02   2.99926728E-09
  -2.97999997E-02   3.11524051E-09
  -2.97500007E-02   3.23397131E-09
  -2.96999998E-02   3.35542372E-09
  -2.96500009E-02   3.47983176E-09
  -2.96000000E-02   3.60746011E-09
  -2.95499992E-02   3.73833542E-09
  -2.95000002E-02   3.87223453E-09
  -2.94499993E-02   4.00893407E-09
  -2.94000003E-02   4.14845447E-09
  -2.93499995E-02   4.29104086E-09
  -2.93000005E-02   4.43694148E-09
  -2.92499997E-02   4.58624294E-09
  -2.92000007E-02   4.73893946E-09
  -2.91499998E-02   4.89511054E-09
  -2.91000009E-02   5.05495779E-09
  -2.90500000E-02   5.21863219E-09
  -2.89999992E-02   5.38606182E-09
  -2.89500002E-02   5.55700641E-09
  -2.88999993E-02   5.73132253E-09
  -2.88500004E-02   5.90917848E-09
  -2.87999995E-02   6.09098594E-09
  -2.87500005E-02   6.27711838E-09
  -2.86999997E-02   6.46769927E-09
  -2.86500007E-02   6.66265709E-09
  -2.85999998E-02   6.86193857E-09
  -2.85500009E-02   7.06562631E-09
  -2.85000000E-02   7.27384064E-09
  -2.84499992E-02   7.48659179E-09
  -2.84000002E-02   7.70380026E-09
  -2.83499993E-02   7.92550381E-09
  -2.83000004E-02   8.15200174E-09
  -2.82499995E-02   8.38373992E-09
  -2.82000005E-02   8.62100613E-09
  -2.81499997E-02   8.86373908E-09
  -2.81000007E-02   9.11164655E-09
  -2.80499998E-02   9.36450473E-09
  -2.80000009E-02   9.62232694E-09
  -2.79500000E-02   9.88524196E-09
  -2.78999992E-02   1.01532702E-08
  -2.78500002E-02   1.04262643E-08
  -2.77999993E-02   1.07040776E-08
  -2.77500004E-02   1.09867289E-08
  -2.76999995E-02   1.12743379E-08
  -2.76500005E-02   1.15668692E-08
  -2.75999997E-02   1.18640040E-08
  -2.75500007E-02   1.21653239E-08
  -2.74999999E-02   1.24706361E-08
  -2.74500009E-02   1.27800766E-08
  -2.74000000E-02   1.30938709E-08
  -2.73499992E-02   1.34120004E-08
  -2.73000002E-02   1.37341285E-08
  -2.72499993E-02   1.40598573E-08
  -2.72000004E-02   1.43890020E-08
  -2.71499995E-02   1.47215857E-08
  -2.71000005E-02   1.50576049E-08
  -2.70499997E-02   1.53969015E-08
  -2.70000007E-02   1.57393227E-08
  -2.69499999E-02   1.60849947E-08
  -2.69000009E-02   1.64343064E-08
  -2.68500000E-02   1.67875758E-08
  -2.67999992E-02   1.71447034E-08
  -2.67500002E-02   1.75052008E-08
  -2.66999993E-02   1.78685955E-08
  -2.66500004E-02   1.82347701E-08
  -2.65999995E-02   1.86039095E-08
  -2.65500005E-02   1.89761806E-08
  -2.64999997E-02   1.93515532E-08
  -2.64500007E-02   1.97299386E-08
  -2.63999999E-02   2.01114485E-08
  -2.63500009E-02   2.04963833E-08
  -2.63000000E-02   2.08849134E-08
  -2.62499992E-02   2.12768150E-08
  -2.62000002E-02   2.16716511E-08
  -2.61499994E-02   2.20692034E-08
  -2.61000004E-02   2.24697239E-08
  -2.60499995E-02   2.28737154E-08
  -2.60000005E-02   2.32814781E-08
  -2.59499997E-02   2.36929178E-08
  -2.59000007E-02   2.41077949E-08
  -2.58499999E-02   2.45260665E-08
  -2.58000009E-02   2.49479086E-08
  -2.57500000E-02   2.53734456E-08
  -2.56999992E-02   2.58025405E-08
  -2.56500002E-02   2.62349857E-08
  -2.55999994E-02   2.66708593E-08
  -2.55500004E-02   2.71106071E-08
  -2.54999995E-02   2.75546839E-08
  -2.54500005E-02   2.80031163E-08
  -2.53999997E-02   2.84554638E-08
  -2.53500007E-02   2.89112574E-08
  -2.52999999E-02   2.93704119E-08
  -2.52500009E-02   2.98332345E-08
  -2.52000000E-02   3.03000647E-08
  -2.51499992E-02   3.07710408E-08
  -2.51000002E-02   3.12462269E-08
  -2.50499994E-02   3.17258682E-08
  -2.50000004E-02   3.22103872E-08
  -2.49499995E-02   3.27000542E-08
  -2.49000005E-02   3.31946879E-08
  -2.48499997E-02   3.36937873E-08
  -2.48000007E-02   3.41970541E-08
  -2.47499999E-02   3.47047262E-08
  -2.47000009E-02   3.52174325E-08
  -2.46500000E-02   3.57357095E-08
  -2.45999992E-02   3.62597419E-08
  -2.45500002E-02   3.67895190E-08
  -2.44999994E-02   3.73251439E-08
  -2.44500004E-02   3.78668794E-08
  -2.43999995E-02   3.84148890E-08
  -2.43500005E-02   3.89690733E-08
  -2.42999997E-02   3.95292759E-08
  -2.42500007E-02   4.00956459E-08
  -2.41999999E-02   4.06688088E-08
  -2.41500009E-02   4.12495602E-08
  -2.41000000E-02   4.18383870E-08
  -2.40499992E-02   4.24353068E-08
  -2.40000002E-02   4.30401812E-08
  -2.39499994E-02   4.36530776E-08
  -2.39000004E-02   4.42743833E-08
  -2.38499995E-02   4.49045281E-08
  -2.38000005E-02   4.55437998E-08
  -2.37499997E-02   4.61924152E-08
  -2.37000007E-02   4.68507544E-08
  -2.36499999E-02   4.75194142E-08
  -2.36000009E-02   4.81989204E-08
  -2.35500000E-02   4.88893761E-08
  -2.34999992E-02   4.95905290E-08
  -2.34500002E-02   5.03021802E-08
  -2.33999994E-02   5.10245712E-08
  -2.33500004E-02   5.17583665E-08
  -2.32999995E-02   5.25043120E-08
  -2.32500006E-02   5.32629372E-08
  -2.31999997E-02   5.40345653E-08
  -2.31500007E-02   5.48194805E-08
  -2.30999999E-02   5.56180488E-08
  -2.30500009E-02   5.64305402E-08
  -2.30000000E-02   5.72569796E-08
  -2.29499992E-02   5.80972532E-08
  -2.29000002E-02   5.89514642E-08
  -2.28499994E-02   5.98201879E-08
  -2.28000004E-02   6.07042878E-08
  -2.27499995E-02   6.16045668E-08
  -2.27000006E-02   6.25214156E-08
  -2.26499997E-02   6.34548840E-08
  -2.26000007E-02   6.44049578E-08
  -2.25499999E-02   6.53717791E-08
  -2.25000009E-02   6.63555682E-08
  -2.24500000E-02   6.73564884E-08
  -2.23999992E-02   6.83746322E-08
  -2.23500002E-02   6.94103051E-08
  -2.22999994E-02   7.04640755E-08
  -2.22500004E-02   7.15366326E-08
  -2.21999995E-02   7.26284242E-08
  -2.21500006E-02   7.37394927E-08
  -2.20999997E-02   7.48695967E-08
  -2.20500007E-02   7.60186509E-08
  -2.19999999E-02   7.71869040E-08
  -2.19500009E-02   7.83747680E-08
  -2.19000001E-02   7.95825628E-08
  -2.18499992E-02   8.08103735E-08
  -2.18000002E-02   8.20581931E-08
  -2.17499994E-02   8.33261069E-08
  -2.17000004E-02   8.46142214E-08
  -2.16499995E-02   8.59223874E-08
  -2.16000006E-02   8.72502000E-08
  -2.15499997E-02   8.85972469E-08
  -2.15000007E-02   8.99634642E-08
  -2.14499999E-02   9.13492357E-08
  -2.14000009E-02   9.27551156E-08
  -2.13500001E-02   9.41813454E-08
  -2.12999992E-02   9.56277404E-08
  -2.12500002E-02   9.70938530E-08
  -2.11999994E-02   9.85792710E-08
  -2.11500004E-02   1.00083746E-07
  -2.10999995E-02   1.01606936E-07
  -2.10500006E-02   1.03148366E-07
  -2.09999997E-02   1.04707581E-07
  -2.09500007E-02   1.06284475E-07
  -2.08999999E-02   1.07879330E-07
  -2.08500009E-02   1.09492454E-07
  -2.08000001E-02   1.11123619E-07
  -2.07499992E-02   1.12772099E-07
  -2.07000002E-02   1.14437050E-07
  -2.06499994E-02   1.16117910E-07
  -2.06000004E-02   1.17814480E-07
  -2.05499995E-02   1.19526547E-07
  -2.05000006E-02   1.21253734E-07
  -2.04499997E-02   1.22995615E-07
  -2.04000007E-02   1.24751949E-07
  -2.03499999E-02   1.26522693E-07
  -2.03000009E-02   1.28307661E-07
  -2.02500001E-02   1.30106187E-07
  -2.01999992E-02   1.31917233E-07
  -2.01500002E-02   1.33739917E-07
  -2.00999994E-02   1.35573870E-07
  -2.00500004E-02   1.37419121E-07
  -1.99999996E-02   1.39275599E-07
  -1.99500006E-02   1.41142849E-07
  -1.98999997E-02   1.43020145E-07
  -1.98500007E-02   1.44906934E-07
  -1.97999999E-02   1.46802847E-07
  -1.97500009E-02   1.48707343E-07
  -1.97000001E-02   1.50619670E-07
  -1.96499992E-02   1.52538973E-07
  -1.96000002E-02   1.54464757E-07
  -1.95499994E-02   1.56396965E-07
  -1.95000004E-02   1.58335737E-07
  -1.94499996E-02   1.60280777E-07
  -1.94000006E-02   1.62231245E-07
  -1.93499997E-02   1.64185991E-07
  -1.93000007E-02   1.66144076E-07
  -1.92499999E-02   1.68104847E-07
  -1.92000009E-02   1.70067835E-07
  -1.91500001E-02   1.72032586E-07
  -1.90999992E-02   1.73998629E-07
  -1.90500002E-02   1.75965738E-07
  -1.89999994E-02   1.77933984E-07
  -1.89500004E-02   1.79903310E-07
  -1.88999996E-02   1.81873247E-07
  -1.88500006E-02   1.83842715E-07
  -1.87999997E-02   1.85810492E-07
  -1.87500007E-02   1.87775797E-07
  -1.86999999E-02   1.89738344E-07
  -1.86500009E-02   1.91698007E-07
  -1.86000001E-02   1.93654557E-07
  -1.85499992E-02   1.95607555E-07
  -1.85000002E-02   1.97556574E-07
  -1.84499994E-02   1.99501258E-07
  -1.84000004E-02   2.01441182E-07
  -1.83499996E-02   2.03375720E-07
  -1.83000006E-02   2.05304019E-07
  -1.82499997E-02   2.07225412E-07
  -1.82000007E-02   2.09139770E-07
  -1.81499999E-02   2.11047308E-07
  -1.81000009E-02   2.12948223E-07
  -1.80500001E-02   2.14842231E-07
  -1.79999992E-02   2.16728608E-07
  -1.79500002E-02   2.18606502E-07
  -1.78999994E-02   2.20475343E-07
  -1.78500004E-02   2.22334805E-07
  -1.77999996E-02   2.24184589E-07
  -1.77500006E-02   2.26024326E-07
  -1.76999997E-02   2.27853889E-07
  -1.76500008E-02   2.29673446E-07
  -1.75999999E-02   2.31483213E-07
  -1.75500009E-02   2.33283032E-07
  -1.75000001E-02   2.35072150E-07
  -1.74499992E-02   2.36849473E-07
  -1.74000002E-02   2.38614177E-07
  -1.73499994E-02   2.40366091E-07
  -1.73000004E-02   2.42105386E-07
  -1.72499996E-02   2.43832403E-07
  -1.72000006E-02   2.45547255E-07
  -1.71499997E-02   2.47249943E-07
  -1.71000008E-02   2.48940296E-07
  -1.70499999E-02   2.50618143E-07
  -1.70000009E-02   2.52282945E-07
  -1.69500001E-02   2.53933848E-07
  -1.68999992E-02   2.55569972E-07
  -1.68500002E-02   2.57190891E-07
  -1.67999994E-02   2.58797058E-07
  -1.67500004E-02   2.60389101E-07
  -1.66999996E-02   2.61967415E-07
  -1.66500006E-02   2.63531746E-07
  -1.65999997E-02   2.65081468E-07
  -1.65500008E-02   2.66615984E-07
  -1.64999999E-02   2.68134983E-07
  -1.64500009E-02   2.69638349E-07
  -1.64000001E-02   2.71125685E-07
  -1.63499992E-02   2.72596679E-07
  -1.63000003E-02   2.74051388E-07
  -1.62499994E-02   2.75490294E-07
  -1.62000004E-02   2.76913823E-07
  -1.61499996E-02   2.78321636E-07
  -1.61000006E-02   2.79712651E-07
  -1.60499997E-02   2.81085647E-07
  -1.60000008E-02   2.82440112E-07
  -1.59499999E-02   2.83776529E-07
  -1.59000009E-02   2.85095382E-07
  -1.58500001E-02   2.86396869E-07
  -1.57999992E-02   2.87680820E-07
  -1.57500003E-02   2.88947064E-07
  -1.56999994E-02   2.90195715E-07
  -1.56500004E-02   2.91426630E-07
  -1.55999996E-02   2.92638788E-07
  -1.55499997E-02   2.93830681E-07
  -1.54999997E-02   2.95001428E-07
  -1.54499998E-02   2.96151256E-07
  -1.53999999E-02   2.97281190E-07
  -1.53500000E-02   2.98391882E-07
  -1.53000001E-02   2.99483020E-07
  -1.52500002E-02   3.00553637E-07
  -1.52000003E-02   3.01602938E-07
  -1.51500003E-02   3.02630610E-07
  -1.51000004E-02   3.03636170E-07
  -1.50499996E-02   3.04618709E-07
  -1.49999997E-02   3.05577203E-07
  -1.49499997E-02   3.06511453E-07
  -1.48999998E-02   3.07422226E-07
  -1.48499999E-02   3.08310462E-07
  -1.48000000E-02   3.09175960E-07
  -1.47500001E-02   3.10017271E-07
  -1.47000002E-02   3.10832661E-07
  -1.46500003E-02   3.11621108E-07
  -1.46000003E-02   3.12382497E-07
  -1.45500004E-02   3.13116800E-07
  -1.44999996E-02   3.13823392E-07
  -1.44499997E-02   3.14501534E-07
  -1.43999998E-02   3.15151112E-07
  -1.43499998E-02   3.15772439E-07
  -1.42999999E-02   3.16365458E-07
  -1.42500000E-02   3.16928976E-07
  -1.42000001E-02   3.17461001E-07
  -1.41500002E-02   3.17960087E-07
  -1.41000003E-02   3.18425975E-07
  -1.40500003E-02   3.18859435E-07
  -1.40000004E-02   3.19260920E-07
  -1.39499996E-02   3.19629834E-07
  -1.38999997E-02   3.19964983E-07
  -1.38499998E-02   3.20265457E-07
  -1.37999998E-02   3.20530745E-07
  -1.37499999E-02   3.20759881E-07
  -1.37000000E-02   3.20951216E-07
  -1.36500001E-02   3.21103101E-07
  -1.36000002E-02   3.21214912E-07
  -1.35500003E-02   3.21287501E-07
  -1.35000004E-02   3.21321949E-07
  -1.34500004E-02   3.21318282E-07
  -1.33999996E-02   3.21275223E-07
  -1.33499997E-02   3.21190981E-07
  -1.32999998E-02   3.21064306E-07
  -1.32499998E-02   3.20894344E-07
  -1.31999999E-02   3.20680272E-07
  -1.31500000E-02   3.20420924E-07
  -1.31000001E-02   3.20115191E-07
  -1.30500002E-02   3.19763075E-07
  -1.30000003E-02   3.19365228E-07
  -1.29500004E-02   3.18921991E-07
  -1.29000004E-02   3.18432456E-07
  -1.28499996E-02   3.17894745E-07
  -1.27999997E-02   3.17307070E-07
  -1.27499998E-02   3.16668746E-07
  -1.26999998E-02   3.15979804E-07
  -1.26499999E-02   3.15239987E-07
  -1.26000000E-02   3.14448357E-07
  -1.25500001E-02   3.13603778E-07
  -1.25000002E-02   3.12705311E-07
  -1.24500003E-02   3.11752217E-07
  -1.24000004E-02   3.10743246E-07
  -1.23500004E-02   3.09676437E-07
  -1.22999996E-02   3.08549915E-07
  -1.22499997E-02   3.07362939E-07
  -1.21999998E-02   3.06116249E-07
  -1.21499998E-02   3.04811380E-07
  -1.20999999E-02   3.03449070E-07
  -1.20500000E-02   3.02028837E-07
  -1.20000001E-02   3.00549431E-07
  -1.19500002E-02   2.99009400E-07
  -1.19000003E-02   2.97407098E-07
  -1.18500004E-02   2.95740307E-07
  -1.18000004E-02   2.94006156E-07
  -1.17499996E-02   2.92202003E-07
  -1.16999997E-02   2.90326426E-07
  -1.16499998E-02   2.88379198E-07
  -1.15999999E-02   2.86360262E-07
  -1.15499999E-02   2.84268992E-07
  -1.15000000E-02   2.82104111E-07
  -1.14500001E-02   2.79864622E-07
  -1.14000002E-02   2.77550441E-07
  -1.13500003E-02   2.75162193E-07
  -1.13000004E-02   2.72700447E-07
  -1.12500004E-02   2.70165316E-07
  -1.11999996E-02   2.67556459E-07
  -1.11499997E-02   2.64873307E-07
  -1.10999998E-02   2.62114725E-07
  -1.10499999E-02   2.59278409E-07
  -1.09999999E-02   2.56360750E-07
  -1.09500000E-02   2.53357513E-07
  -1.09000001E-02   2.50265174E-07
  -1.08500002E-02   2.47081829E-07
  -1.08000003E-02   2.43806909E-07
  -1.07500004E-02   2.40440528E-07
  -1.07000005E-02   2.36982771E-07
  -1.06499996E-02   2.33433795E-07
  -1.05999997E-02   2.29793713E-07
  -1.05499998E-02   2.26062369E-07
  -1.04999999E-02   2.22238768E-07
  -1.04499999E-02   2.18321219E-07
  -1.04000000E-02   2.14307818E-07
  -1.03500001E-02   2.10197072E-07
  -1.03000002E-02   2.05988130E-07
  -1.02500003E-02   2.01680294E-07
  -1.02000004E-02   1.97272342E-07
  -1.01500005E-02   1.92762400E-07
  -1.00999996E-02   1.88148178E-07
  -1.00499997E-02   1.83427716E-07
  -9.99999978E-03   1.78599436E-07
  -9.94999986E-03   1.73662130E-07
  -9.89999995E-03   1.68614704E-07
  -9.85000003E-03   1.63456221E-07
  -9.80000012E-03   1.58185955E-07
  -9.75000020E-03   1.52803054E-07
  -9.70000029E-03   1.47306082E-07
  -9.65000037E-03   1.41692595E-07
  -9.60000046E-03   1.35959496E-07
  -9.54999961E-03   1.30103743E-07
  -9.49999969E-03   1.24123076E-07
  -9.44999978E-03   1.18016395E-07
  -9.39999986E-03   1.11783386E-07
  -9.34999995E-03   1.05423979E-07
  -9.30000003E-03   9.89378464E-08
  -9.25000012E-03   9.23243491E-08
  -9.20000020E-03   8.55823430E-08
  -9.15000029E-03   7.87100873E-08
  -9.10000037E-03   7.17051805E-08
  -9.05000046E-03   6.45648939E-08
  -8.99999961E-03   5.72868295E-08
  -8.94999970E-03   4.98693780E-08
  -8.89999978E-03   4.23116582E-08
  -8.84999987E-03   3.46129596E-08
  -8.79999995E-03   2.67720921E-08
  -8.75000004E-03   1.87872509E-08
  -8.70000012E-03   1.06562412E-08
  -8.65000021E-03   2.37681697E-09
  -8.60000029E-03  -6.05305095E-09
  -8.55000038E-03  -1.46352397E-08
  -8.50000046E-03  -2.33715163E-08
  -8.44999962E-03  -3.22634151E-08
  -8.39999970E-03  -4.13122265E-08
  -8.34999979E-03  -5.05192368E-08
  -8.29999987E-03  -5.98861902E-08
  -8.24999996E-03  -6.94154281E-08
  -8.20000004E-03  -7.91095971E-08
  -8.15000013E-03  -8.89709426E-08
  -8.10000021E-03  -9.90007791E-08
  -8.05000030E-03  -1.09199519E-07
  -8.00000038E-03  -1.19567147E-07
  -7.95000046E-03  -1.30103828E-07
  -7.89999962E-03  -1.40810315E-07
  -7.84999970E-03  -1.51687985E-07
  -7.79999979E-03  -1.62738814E-07
  -7.74999987E-03  -1.73965489E-07
  -7.69999996E-03  -1.85371263E-07
  -7.65000004E-03  -1.96959178E-07
  -7.60000013E-03  -2.08731507E-07
  -7.55000021E-03  -2.20689387E-07
  -7.49999983E-03  -2.32833173E-07
  -7.44999992E-03  -2.45163278E-07
  -7.40000000E-03  -2.57680739E-07
  -7.35000009E-03  -2.70387318E-07
  -7.30000017E-03  -2.83285203E-07
  -7.24999979E-03  -2.96376754E-07
  -7.19999988E-03  -3.09664273E-07
  -7.14999996E-03  -3.23149919E-07
  -7.10000005E-03  -3.36835257E-07
  -7.05000013E-03  -3.50721308E-07
  -7.00000022E-03  -3.64808443E-07
  -6.94999984E-03  -3.79096804E-07
  -6.89999992E-03  -3.93587214E-07
  -6.85000001E-03  -4.08281267E-07
  -6.80000009E-03  -4.23180978E-07
  -6.75000018E-03  -4.38288197E-07
  -6.69999979E-03  -4.53604258E-07
  -6.64999988E-03  -4.69130271E-07
  -6.59999996E-03  -4.84867144E-07
  -6.55000005E-03  -5.00815929E-07
  -6.50000013E-03  -5.16977764E-07
  -6.45000022E-03  -5.33353955E-07
  -6.39999984E-03  -5.49946037E-07
  -6.34999992E-03  -5.66756057E-07
  -6.30000001E-03  -5.83786289E-07
  -6.25000009E-03  -6.01038550E-07
  -6.20000018E-03  -6.18514150E-07
  -6.14999980E-03  -6.36213144E-07
  -6.09999988E-03  -6.54135306E-07
  -6.04999997E-03  -6.72281089E-07
  -6.00000005E-03  -6.90651348E-07
  -5.95000014E-03  -7.09247956E-07
  -5.90000022E-03  -7.28072791E-07
  -5.84999984E-03  -7.47128070E-07
  -5.79999993E-03  -7.66415610E-07
  -5.75000001E-03  -7.85937118E-07
  -5.70000010E-03  -8.05693446E-07
  -5.65000018E-03  -8.25684253E-07
  -5.59999980E-03  -8.45908232E-07
  -5.54999989E-03  -8.66364303E-07
  -5.49999997E-03  -8.87052579E-07
  -5.45000006E-03  -9.07974083E-07
  -5.40000014E-03  -9.29130408E-07
  -5.35000023E-03  -9.50523201E-07
  -5.29999984E-03  -9.72153885E-07
  -5.24999993E-03  -9.94023708E-07
  -5.20000001E-03  -1.01613398E-06
  -5.15000010E-03  -1.03848515E-06
  -5.10000018E-03  -1.06107711E-06
  -5.04999980E-03  -1.08390952E-06
  -4.99999989E-03  -1.10698227E-06
  -4.94999997E-03  -1.13029671E-06
  -4.90000006E-03  -1.15385535E-06
  -4.85000014E-03  -1.17765967E-06
  -4.80000023E-03  -1.20171023E-06
  -4.74999985E-03  -1.22600761E-06
  -4.69999993E-03  -1.25055158E-06
  -4.65000002E-03  -1.27534236E-06
  -4.60000010E-03  -1.30037984E-06
  -4.55000019E-03  -1.32566345E-06
  -4.49999981E-03  -1.35119308E-06
  -4.44999989E-03  -1.37696941E-06
  -4.39999998E-03  -1.40299346E-06
  -4.35000006E-03  -1.42926581E-06
  -4.30000015E-03  -1.45578633E-06
  -4.25000023E-03  -1.48255367E-06
  -4.19999985E-03  -1.50956623E-06
  -4.14999994E-03  -1.53682311E-06
  -4.10000002E-03  -1.56432475E-06
  -4.05000011E-03  -1.59207275E-06
  -4.00000019E-03  -1.62006916E-06
  -3.94999981E-03  -1.64831658E-06
  -3.89999989E-03  -1.67681787E-06
  -3.84999998E-03  -1.70557576E-06
  -3.80000006E-03  -1.73459114E-06
  -3.74999992E-03  -1.76386345E-06
  -3.70000000E-03  -1.79339042E-06
  -3.65000009E-03  -1.82316944E-06
  -3.59999994E-03  -1.85319993E-06
  -3.55000002E-03  -1.88348179E-06
  -3.50000011E-03  -1.91401568E-06
  -3.44999996E-03  -1.94480299E-06
  -3.40000005E-03  -1.97584495E-06
  -3.34999990E-03  -2.00714180E-06
  -3.29999998E-03  -2.03869422E-06
  -3.25000007E-03  -2.07050198E-06
  -3.19999992E-03  -2.10256553E-06
  -3.15000000E-03  -2.13488443E-06
  -3.10000009E-03  -2.16746002E-06
  -3.04999994E-03  -2.20029506E-06
  -3.00000003E-03  -2.23339202E-06
  -2.95000011E-03  -2.26675388E-06
  -2.89999996E-03  -2.30038177E-06
  -2.85000005E-03  -2.33427545E-06
  -2.79999990E-03  -2.36843289E-06
  -2.74999999E-03  -2.40285453E-06
  -2.70000007E-03  -2.43754039E-06
  -2.64999992E-03  -2.47249181E-06
  -2.60000001E-03  -2.50771063E-06
  -2.55000009E-03  -2.54320003E-06
  -2.49999994E-03  -2.57896340E-06
  -2.45000003E-03  -2.61500463E-06
  -2.40000011E-03  -2.65132667E-06
  -2.34999997E-03  -2.68792974E-06
  -2.30000005E-03  -2.72481134E-06
  -2.24999990E-03  -2.76197170E-06
  -2.19999999E-03  -2.79941378E-06
  -2.15000007E-03  -2.83714348E-06
  -2.09999993E-03  -2.87516445E-06
  -2.05000001E-03  -2.91347919E-06
  -2.00000009E-03  -2.95208952E-06
  -1.94999995E-03  -2.99099861E-06
  -1.90000003E-03  -3.03020829E-06
  -1.85000000E-03  -3.06972106E-06
  -1.79999997E-03  -3.10953624E-06
  -1.75000005E-03  -3.14965428E-06
  -1.70000002E-03  -3.19007972E-06
  -1.64999999E-03  -3.23082145E-06
  -1.59999996E-03  -3.27188877E-06
  -1.55000004E-03  -3.31328783E-06
  -1.50000001E-03  -3.35502023E-06
  -1.44999998E-03  -3.39708845E-06
  -1.39999995E-03  -3.43949523E-06
  -1.35000004E-03  -3.48224444E-06
  -1.30000000E-03  -3.52534084E-06
  -1.24999997E-03  -3.56878854E-06
  -1.20000006E-03  -3.61259254E-06
  -1.15000003E-03  -3.65676260E-06
  -1.09999999E-03  -3.70130851E-06
  -1.04999996E-03  -3.74623914E-06
  -1.00000005E-03  -3.79155790E-06
  -9.50000016E-04  -3.83726547E-06
  -8.99999985E-04  -3.88336503E-06
  -8.50000011E-04  -3.92986431E-06
  -7.99999980E-04  -3.97677331E-06
  -7.50000007E-04  -4.02410205E-06
  -6.99999975E-04  -4.07185917E-06
  -6.50000002E-04  -4.12005420E-06
  -6.00000028E-04  -4.16869716E-06
  -5.49999997E-04  -4.21780032E-06
  -5.00000024E-04  -4.26737006E-06
  -4.49999992E-04  -4.31741091E-06
  -3.99999990E-04  -4.36792789E-06
  -3.49999988E-04  -4.41893326E-06
  -3.00000014E-04  -4.47044476E-06
  -2.50000012E-04  -4.52247741E-06
  -1.99999995E-04  -4.57504575E-06
  -1.50000007E-04  -4.62816161E-06
  -9.99999975E-05  -4.68183316E-06
  -4.99999987E-05  -4.73607179E-06
   0.00000000      -4.79088567E-06
   4.99999987E-05  -4.84628526E-06
   9.99999975E-05  -4.90228194E-06
   1.50000007E-04  -4.95889117E-06
   1.99999995E-04  -5.01613204E-06
   2.50000012E-04  -5.07402592E-06
   3.00000014E-04  -5.13259147E-06
   3.49999988E-04  -5.19184141E-06
   3.99999990E-04  -5.25178848E-06
   4.49999992E-04  -5.31244359E-06
   5.00000024E-04  -5.37382266E-06
   5.49999997E-04  -5.43594388E-06
   6.00000028E-04  -5.49882407E-06
   6.50000002E-04  -5.56248415E-06
   6.99999975E-04  -5.62695050E-06
   7.50000007E-04  -5.69224585E-06
   7.99999980E-04  -5.75838931E-06
   8.50000011E-04  -5.82539678E-06
   8.99999985E-04  -5.89328374E-06
   9.50000016E-04  -5.96206746E-06
   1.00000005E-03  -6.03176886E-06
   1.04999996E-03  -6.10241204E-06
   1.09999999E-03  -6.17402338E-06
   1.15000003E-03  -6.24663062E-06
   1.20000006E-03  -6.32026195E-06
   1.24999997E-03  -6.39494237E-06
   1.30000000E-03  -6.47069328E-06
   1.35000004E-03  -6.54753421E-06
   1.39999995E-03  -6.62548382E-06
   1.44999998E-03  -6.70456575E-06
   1.50000001E-03  -6.78480774E-06
   1.55000004E-03  -6.86624344E-06
   1.59999996E-03  -6.94890514E-06
   1.64999999E-03  -7.03282558E-06
   1.70000002E-03  -7.11803295E-06
   1.75000005E-03  -7.20455637E-06
   1.79999997E-03  -7.29241674E-06
   1.85000000E-03  -7.38163817E-06
   1.90000003E-03  -7.47224476E-06
   1.94999995E-03  -7.56427016E-06
   2.00000009E-03  -7.65775076E-06
   2.05000001E-03  -7.75272383E-06
   2.09999993E-03  -7.84922577E-06
   2.15000007E-03  -7.94729385E-06
   2.19999999E-03  -8.04695810E-06
   2.24999990E-03  -8.14825216E-06
   2.30000005E-03  -8.25120060E-06
   2.34999997E-03  -8.35583342E-06
   2.40000011E-03  -8.46217972E-06
   2.45000003E-03  -8.57027590E-06
   2.49999994E-03  -8.68016741E-06
   2.55000009E-03  -8.79189793E-06
   2.60000001E-03  -8.90550291E-06
   2.64999992E-03  -9.02101601E-06
   2.70000007E-03  -9.13846998E-06
   2.74999999E-03  -9.25790300E-06
   2.79999990E-03  -9.37934510E-06