  -3.99999991E-02     1.00000002E-24
  -3.99499983E-02    -2.21919596E-12
  -3.99000011E-02    -5.96748345E-12
  -3.98500003E-02    -1.00818095E-11
  -3.97999994E-02    -1.34130302E-11
  -3.97499986E-02    -1.53098697E-11
  -3.97000015E-02    -1.58933179E-11
  -3.96500006E-02    -1.59976078E-11
  -3.95999998E-02    -1.67964271E-11
  -3.95499989E-02    -1.92723580E-11
  -3.95000018E-02    -2.37585177E-11
  -3.94500010E-02    -2.97519058E-11
  -3.94000001E-02    -3.60839206E-11
  -3.93499993E-02    -4.13850620E-11
  -3.92999984E-02    -4.46569795E-11
  -3.92500013E-02    -4.57124061E-11
  -3.92000005E-02    -4.52860492E-11
  -3.91499996E-02    -4.47486700E-11
  -3.90999988E-02    -4.55274811E-11
  -3.90500017E-02    -4.84745993E-11
  -3.90000008E-02    -5.34623838E-11
  -3.89500000E-02    -5.93948085E-11
  -3.88999991E-02    -6.46441303E-11
  -3.88499983E-02    -6.77342488E-11
  -3.88000011E-02    -6.79798232E-11
  -3.87500003E-02    -6.57999280E-11
  -3.86999995E-02    -6.25549335E-11
  -3.86499986E-02    -5.99545136E-11
  -3.86000015E-02    -5.92770694E-11
  -3.85500006E-02    -6.07410441E-11
  -3.84999998E-02    -6.33229025E-11
  -3.84499989E-02    -6.51291590E-11
  -3.84000018E-02    -6.41801126E-11
  -3.83500010E-02    -5.92660643E-11
  -3.83000001E-02    -5.04905250E-11
  -3.82499993E-02    -3.92441357E-11
  -3.81999984E-02    -2.76002953E-11
  -3.81500013E-02    -1.73799013E-11
  -3.81000005E-02    -9.29065679E-12
  -3.80499996E-02    -2.53083969E-12
  -3.79999988E-02     4.93876901E-12
  -3.79500017E-02     1.55437590E-11
  -3.79000008E-02     3.10263829E-11
  -3.78500000E-02     5.16403691E-11
  -3.77999991E-02     7.59937530E-11
  -3.77499983E-02     1.01639870E-10
  -3.77000012E-02     1.26172822E-10
  -3.76500003E-02     1.48345211E-10
  -3.75999995E-02     1.68699985E-10
  -3.75499986E-02     1.89411944E-10
  -3.75000015E-02     2.13379384E-10
  -3.74500006E-02     2.42945247E-10
  -3.73999998E-02     2.78813583E-10
  -3.73499990E-02     3.19666460E-10
  -3.73000018E-02     3.62688296E-10
  -3.72500010E-02     4.04796308E-10
  -3.72000001E-02     4.44035864E-10
  -3.71499993E-02     4.80500917E-10
  -3.70999984E-02     5.16339915E-10
  -3.70500013E-02     5.54814417E-10
  -3.70000005E-02     5.98813388E-10
  -3.69499996E-02     6.49484688E-10
  -3.68999988E-02     7.05613123E-10
  -3.68500017E-02     7.64056152E-10
  -3.68000008E-02     8.21081036E-10
  -3.67500000E-02     8.74023076E-10
  -3.66999991E-02     9.22514176E-10
  -3.66499983E-02     9.68695013E-10
  -3.66000012E-02     1.01627318E-09
  -3.65500003E-02     1.06882259E-09
  -3.64999995E-02     1.12808729E-09
  -3.64499986E-02     1.19307442E-09
  -3.64000015E-02     1.26037658E-09
  -3.63500006E-02     1.32561595E-09
  -3.62999998E-02     1.38538081E-09
  -3.62499990E-02     1.43878309E-09
  -3.62000018E-02     1.48790669E-09
  -3.61500010E-02     1.53689883E-09
  -3.61000001E-02     1.59007074E-09
  -3.60499993E-02     1.64985192E-09
  -3.59999985E-02     1.71554237E-09
  -3.59500013E-02     1.78347315E-09
  -3.59000005E-02     1.84855231E-09
  -3.58499996E-02     1.90652560E-09
  -3.57999988E-02     1.95593364E-09
  -3.57500017E-02     1.99885353E-09
  -3.57000008E-02     2.04004325E-09
  -3.56500000E-02     2.08483053E-09
  -3.55999991E-02     2.13666884E-09
  -3.55499983E-02     2.19547380E-09
  -3.55000012E-02     2.25753571E-09
  -3.54500003E-02     2.31710695E-09
  -3.53999995E-02     2.36899544E-09
  -3.53499986E-02     2.41099474E-09
  -3.53000015E-02     2.44502996E-09
  -3.52500007E-02     2.47643883E-09
  -3.51999998E-02     2.51166821E-09
  -3.51499990E-02     2.55538413E-09
  -3.51000018E-02     2.60831268E-09
  -3.50500010E-02     2.66681832E-09
  -3.50000001E-02     2.72447909E-09
  -3.49499993E-02     2.77500090E-09
  -3.48999985E-02     2.81518275E-09
  -3.48500013E-02     2.84657120E-09
  -3.48000005E-02     2.87500068E-09
  -3.47499996E-02     2.90815372E-09
  -3.46999988E-02     2.95220115E-09
  -3.46500017E-02     3.00903413E-09
  -3.46000008E-02     3.07537928E-09
  -3.45500000E-02     3.14425863E-09
  -3.44999991E-02     3.20820059E-09
  -3.44499983E-02     3.26278604E-09
  -3.44000012E-02     3.30892136E-09
  -3.43500003E-02     3.35275030E-09
  -3.42999995E-02     3.40316708E-09
  -3.42499986E-02     3.46798812E-09
  -3.42000015E-02     3.55048657E-09
  -3.41500007E-02     3.64789132E-09
  -3.40999998E-02     3.75260090E-09
  -3.40499990E-02     3.85564292E-09
  -3.40000018E-02     3.95087074E-09
  -3.39500010E-02     4.03800637E-09
  -3.39000002E-02     4.12310586E-09
  -3.38499993E-02     4.21615587E-09
  -3.37999985E-02     4.32680469E-09
  -3.37500013E-02     4.46011583E-09
  -3.37000005E-02     4.61426852E-09
  -3.36499996E-02     4.78132378E-09
  -3.35999988E-02     4.95079444E-09
  -3.35500017E-02     5.11448484E-09
  -3.35000008E-02     5.27043476E-09
  -3.34500000E-02     5.42414336E-09
  -3.33999991E-02     5.58644153E-09
  -3.33499983E-02     5.76886894E-09
  -3.33000012E-02     5.97859096E-09
  -3.32500003E-02     6.21512974E-09
  -3.31999995E-02     6.47045484E-09
  -3.31499986E-02     6.73248923E-09
  -3.31000015E-02     6.99053659E-09
  -3.30500007E-02     7.24024085E-09
  -3.29999998E-02     7.48581019E-09
  -3.29499990E-02     7.73843034E-09
  -3.29000019E-02     8.01146349E-09
  -3.28500010E-02     8.31453573E-09
  -3.28000002E-02     8.64914362E-09
  -3.27499993E-02     9.00779984E-09
  -3.26999985E-02     9.37721456E-09
  -3.26500013E-02     9.74417258E-09
  -3.26000005E-02     1.01015294E-08
  -3.25499997E-02     1.04516351E-08
  -3.24999988E-02     1.08055627E-08
  -3.24500017E-02     1.11783773E-08
  -3.24000008E-02     1.15824736E-08
  -3.23500000E-02     1.20219328E-08
  -3.22999991E-02     1.24904762E-08
  -3.22499983E-02     1.29740192E-08
  -3.22000012E-02     1.34568001E-08
  -3.21500003E-02     1.39284140E-08
  -3.20999995E-02     1.43886156E-08
  -3.20499986E-02     1.48476813E-08
  -3.20000015E-02     1.53220583E-08
  -3.19500007E-02     1.58271227E-08
  -3.18999998E-02     1.63702545E-08
  -3.18499990E-02     1.69473129E-08
  -3.18000019E-02     1.75442079E-08
  -3.17500010E-02     1.81429840E-08
  -3.17000002E-02     1.87297768E-08
  -3.16499993E-02     1.93011367E-08
  -3.15999985E-02     1.98658441E-08
  -3.15500014E-02     2.04413002E-08
  -3.15000005E-02     2.10459827E-08
  -3.14499997E-02     2.16912621E-08
  -3.13999988E-02     2.23762129E-08
  -3.13500017E-02     2.30878037E-08
  -3.13000008E-02     2.38065301E-08
  -3.12500000E-02     2.45150531E-08
  -3.11999992E-02     2.52060843E-08
  -3.11500002E-02     2.58859458E-08
  -3.10999993E-02     2.65721400E-08
  -3.10500003E-02     2.72858749E-08
  -3.09999995E-02     2.80427965E-08
  -3.09500005E-02     2.88460100E-08
  -3.08999997E-02     2.96845677E-08
  -3.08500007E-02     3.05382066E-08
  -3.07999998E-02     3.13863424E-08
  -3.07500008E-02     3.22174145E-08
  -3.07000000E-02     3.30344214E-08
  -3.06499992E-02     3.38540751E-08
  -3.06000002E-02     3.46998661E-08
  -3.05499993E-02     3.55919667E-08
  -3.05000003E-02     3.65384096E-08
  -3.04499995E-02     3.75315707E-08
  -3.04000005E-02     3.85515051E-08
  -3.03499997E-02     3.95748678E-08
  -3.03000007E-02     4.05855118E-08
  -3.02499998E-02     4.15821049E-08
  -3.02000009E-02     4.25792770E-08
  -3.01500000E-02     4.36017196E-08
  -3.00999992E-02     4.46736799E-08
  -3.00500002E-02     4.58084912E-08
  -2.99999993E-02     4.70027359E-08
  -2.99500003E-02     4.82377978E-08
  -2.98999995E-02     4.94881576E-08
  -2.98500005E-02     5.07329538E-08
  -2.97999997E-02     5.19656709E-08
  -2.97500007E-02     5.31975957E-08
  -2.96999998E-02     5.44534942E-08
  -2.96500009E-02     5.57612090E-08
  -2.96000000E-02     5.71397045E-08
  -2.95499992E-02     5.85909099E-08
  -2.95000002E-02     6.00989125E-08
  -2.94499993E-02     6.16371096E-08
  -2.94000003E-02     6.31801953E-08
  -2.93499995E-02     6.47157563E-08
  -2.93000005E-02     6.62503297E-08
  -2.92499997E-02     6.78071856E-08
  -2.92000007E-02     6.94165792E-08
  -2.91499998E-02     7.11028250E-08
  -2.91000009E-02     7.28737533E-08
  -2.90500000E-02     7.47173630E-08
  -2.89999992E-02     7.66071437E-08
  -2.89500002E-02     7.85139562E-08
  -2.88999993E-02     8.04192268E-08
  -2.88500004E-02     8.23236590E-08
  -2.87999995E-02     8.42475103E-08
  -2.87500005E-02     8.62222507E-08
  -2.86999997E-02     8.82770692E-08
  -2.86500007E-02     9.04262762E-08
  -2.85999998E-02     9.26630506E-08
  -2.85500009E-02     9.49625374E-08
  -2.85000000E-02     9.72928689E-08
  -2.84499992E-02     9.96295810E-08
  -2.84000002E-02     1.01966791E-07
  -2.83499993E-02     1.04320449E-07
  -2.83000004E-02     1.06721835E-07
  -2.82499995E-02     1.09204279E-07
  -2.82000005E-02     1.11788758E-07
  -2.81499997E-02     1.14474773E-07
  -2.81000007E-02     1.17240639E-07
  -2.80499998E-02     1.20053130E-07
  -2.80000009E-02     1.22882369E-07
  -2.79500000E-02     1.25715431E-07
  -2.78999992E-02     1.28562576E-07
  -2.78500002E-02     1.31453348E-07
  -2.77999993E-02     1.34424113E-07
  -2.77500004E-02     1.37502383E-07
  -2.76999995E-02     1.40694993E-07
  -2.76500005E-02     1.43985176E-07
  -2.75999997E-02     1.47340231E-07
  -2.75500007E-02     1.50726180E-07
  -2.74999999E-02     1.54123256E-07
  -2.74500009E-02     1.57535339E-07
  -2.74000000E-02     1.60988904E-07
  -2.73499992E-02     1.64522135E-07
  -2.73000002E-02     1.68168697E-07
  -2.72499993E-02     1.71943356E-07
  -2.72000004E-02     1.75835837E-07
  -2.71499995E-02     1.79815714E-07
  -2.71000005E-02     1.83846296E-07
  -2.70499997E-02     1.87901392E-07
  -2.70000007E-02     1.91977676E-07
  -2.69499999E-02     1.96097005E-07
  -2.69000009E-02     2.00297720E-07
  -2.68500000E-02     2.04618530E-07
  -2.67999992E-02     2.09082174E-07
  -2.67500002E-02     2.13685937E-07
  -2.66999993E-02     2.18403599E-07
  -2.66500004E-02     2.23197574E-07
  -2.65999995E-02     2.28036342E-07
  -2.65500005E-02     2.32909457E-07
  -2.64999997E-02     2.37833234E-07
  -2.64500007E-02     2.42844777E-07
  -2.63999999E-02     2.47986748E-07
  -2.63500009E-02     2.53289528E-07
  -2.63000000E-02     2.58758803E-07
  -2.62499992E-02     2.64373938E-07
  -2.62000002E-02     2.70098042E-07
  -2.61499994E-02     2.75895303E-07
  -2.61000004E-02     2.81748072E-07
  -2.60499995E-02     2.87665983E-07
  -2.60000005E-02     2.93682973E-07
  -2.59499997E-02     2.99843862E-07
  -2.59000007E-02     3.06185797E-07
  -2.58499999E-02     3.12722904E-07
  -2.58000009E-02     3.19441398E-07
  -2.57500000E-02     3.26306662E-07
  -2.56999992E-02     3.33280013E-07
  -2.56500002E-02     3.40337152E-07
  -2.55999994E-02     3.47480352E-07
  -2.55500004E-02     3.54739171E-07
  -2.54999995E-02     3.62158886E-07
  -2.54500005E-02     3.69782157E-07
  -2.53999997E-02     3.77631409E-07
  -2.53500007E-02     3.85700389E-07
  -2.52999999E-02     3.93958430E-07
  -2.52500009E-02     4.02365316E-07
  -2.52000000E-02     4.10890863E-07
  -2.51499992E-02     4.19529670E-07
  -2.51000002E-02     4.28305441E-07
  -2.50499994E-02     4.37261974E-07
  -2.50000004E-02     4.46445625E-07
  -2.49499995E-02     4.55886067E-07
  -2.49000005E-02     4.65584804E-07
  -2.48499997E-02     4.75515975E-07
  -2.48000007E-02     4.85639305E-07
  -2.47499999E-02     4.95919551E-07
  -2.47000009E-02     5.06343952E-07
  -2.46500000E-02     5.16929447E-07
  -2.45999992E-02     5.27717077E-07
  -2.45500002E-02     5.38755387E-07
  -2.44999994E-02     5.50080358E-07
  -2.44500004E-02     5.61701370E-07
  -2.43999995E-02     5.73598243E-07
  -2.43500005E-02     5.85732096E-07
  -2.42999997E-02     5.98064275E-07
  -2.42500007E-02     6.10574943E-07
  -2.41999999E-02     6.23274275E-07
  -2.41500009E-02     6.36199047E-07
  -2.41000000E-02     6.49398487E-07
  -2.40499992E-02     6.62913806E-07
  -2.40000002E-02     6.76761431E-07
  -2.39499994E-02     6.90927436E-07
  -2.39000004E-02     7.05375214E-07
  -2.38499995E-02     7.20063611E-07
  -2.38000005E-02     7.34966818E-07
  -2.37499997E-02     7.50087679E-07
  -2.37000007E-02     7.65458310E-07
  -2.36499999E-02     7.81127426E-07
  -2.36000009E-02     7.97140160E-07
  -2.35500000E-02     8.13519762E-07
  -2.34999992E-02     8.30259069E-07
  -2.34500002E-02     8.47324998E-07
  -2.33999994E-02     8.64675542E-07
  -2.33500004E-02     8.82280062E-07
  -2.32999995E-02     9.00135319E-07
  -2.32500006E-02     9.18268370E-07
  -2.31999997E-02     9.36726394E-07
  -2.31500007E-02     9.55557425E-07
  -2.30999999E-02     9.74790964E-07
  -2.30500009E-02     9.94425818E-07
  -2.30000000E-02     1.01443288E-06
  -2.29499992E-02     1.03477009E-06
  -2.29000002E-02     1.05540335E-06
  -2.28499994E-02     1.07632309E-06
  -2.28000004E-02     1.09755160E-06
  -2.27499995E-02     1.11913403E-06
  -2.27000006E-02     1.14112072E-06
  -2.26499997E-02     1.16354613E-06
  -2.26000007E-02     1.18641526E-06
  -2.25499999E-02     1.20970344E-06
  -2.25000009E-02     1.23336974E-06
  -2.24500000E-02     1.25737699E-06
  -2.23999992E-02     1.28171121E-06
  -2.23500002E-02     1.30639023E-06
  -2.22999994E-02     1.33145738E-06
  -2.22500004E-02     1.35696450E-06
  -2.21999995E-02     1.38295059E-06
  -2.21500006E-02     1.40942620E-06
  -2.20999997E-02     1.43637089E-06
  -2.20500007E-02     1.46374475E-06
  -2.19999999E-02     1.49150844E-06
  -2.19500009E-02     1.51964343E-06
  -2.19000001E-02     1.54816291E-06
  -2.18499992E-02     1.57710838E-06
  -2.18000002E-02     1.60653292E-06
  -2.17499994E-02     1.63647940E-06
  -2.17000004E-02     1.66696350E-06
  -2.16499995E-02     1.69796863E-06
  -2.16000006E-02     1.72945590E-06
  -2.15499997E-02     1.76138440E-06
  -2.15000007E-02     1.79373160E-06
  -2.14499999E-02     1.82650717E-06
  -2.14000009E-02     1.85975102E-06
  -2.13500001E-02     1.89351749E-06
  -2.12999992E-02     1.92785319E-06
  -2.12500002E-02     1.96277915E-06
  -2.11999994E-02     1.99828173E-06
  -2.11500004E-02     2.03432319E-06
  -2.10999995E-02     2.07085986E-06
  -2.10500006E-02     2.10786538E-06
  -2.09999997E-02     2.14534589E-06
  -2.09500007E-02     2.18333980E-06
  -2.08999999E-02     2.22190283E-06
  -2.08500009E-02     2.26108614E-06
  -2.08000001E-02     2.30091496E-06
  -2.07499992E-02     2.34137929E-06
  -2.07000002E-02     2.38244115E-06
  -2.06499994E-02     2.42405372E-06
  -2.06000004E-02     2.46618674E-06
  -2.05499995E-02     2.50884250E-06
  -2.05000006E-02     2.55205828E-06
  -2.04499997E-02     2.59589274E-06
  -2.04000007E-02     2.64040204E-06
  -2.03499999E-02     2.68561689E-06
  -2.03000009E-02     2.73153114E-06
  -2.02500001E-02     2.77810682E-06
  -2.01999992E-02     2.82529368E-06
  -2.01500002E-02     2.87305625E-06
  -2.00999994E-02     2.92139248E-06
  -2.00500004E-02     2.97033944E-06
  -1.99999996E-02     3.01995806E-06
  -1.99500006E-02     3.07031110E-06
  -1.98999997E-02     3.12143561E-06
  -1.98500007E-02     3.17332911E-06
  -1.97999999E-02     3.22595361E-06
  -1.97500009E-02     3.27925591E-06
  -1.97000001E-02     3.33319349E-06
  -1.96499992E-02     3.38775931E-06
  -1.96000002E-02     3.44298883E-06
  -1.95499994E-02     3.49894731E-06
  -1.95000004E-02     3.55570478E-06
  -1.94499996E-02     3.61330763E-06
  -1.94000006E-02     3.67175949E-06
  -1.93499997E-02     3.73102353E-06
  -1.93000007E-02     3.79104131E-06
  -1.92499999E-02     3.85176418E-06
  -1.92000009E-02     3.91317826E-06
  -1.91500001E-02     3.97531721E-06
  -1.90999992E-02     4.03825106E-06
  -1.90500002E-02     4.10205848E-06
  -1.89999994E-02     4.16679632E-06
  -1.89500004E-02     4.23247593E-06
  -1.88999996E-02     4.29906277E-06
  -1.88500006E-02     4.36649407E-06
  -1.87999997E-02     4.43471254E-06
  -1.87500007E-02     4.50369544E-06
  -1.86999999E-02     4.57347369E-06
  -1.86500009E-02     4.64412096E-06
  -1.86000001E-02     4.71572639E-06
  -1.85499992E-02     4.78836046E-06
  -1.85000002E-02     4.86204499E-06
  -1.84499994E-02     4.93674952E-06
  -1.84000004E-02     5.01240811E-06
  -1.83499996E-02     5.08895437E-06
  -1.83000006E-02     5.16635691E-06
  -1.82499997E-02     5.24464031E-06
  -1.82000007E-02     5.32388094E-06
  -1.81499999E-02     5.40417932E-06
  -1.81000009E-02     5.48562002E-06
  -1.80500001E-02     5.56823898E-06
  -1.79999992E-02     5.65201344E-06
  -1.79500002E-02     5.73687475E-06
  -1.78999994E-02     5.82274743E-06
  -1.78500004E-02     5.90958734E-06
  -1.77999996E-02     5.99741179E-06
  -1.77500006E-02     6.08629762E-06
  -1.76999997E-02     6.17635442E-06
  -1.76500008E-02     6.26768406E-06
  -1.75999999E-02     6.36033974E-06
  -1.75500009E-02     6.45430964E-06
  -1.75000001E-02     6.54952601E-06
  -1.74499992E-02     6.64590289E-06
  -1.74000002E-02     6.74338526E-06
  -1.73499994E-02     6.84197767E-06
  -1.73000004E-02     6.94175424E-06
  -1.72499996E-02     7.04283411E-06
  -1.72000006E-02     7.14533780E-06
  -1.71499997E-02     7.24933898E-06
  -1.71000008E-02     7.35483991E-06
  -1.70499999E-02     7.46177739E-06
  -1.70000009E-02     7.57005955E-06
  -1.69500001E-02     7.67961410E-06
  -1.68999992E-02     7.79043057E-06
  -1.68500002E-02     7.90257855E-06
  -1.67999994E-02     8.01618353E-06
  -1.67500004E-02     8.13138467E-06
  -1.66999996E-02     8.24827839E-06
  -1.66500006E-02     8.36688650E-06
  -1.65999997E-02     8.48715536E-06
  -1.65500008E-02     8.60898581E-06
  -1.64999999E-02     8.73229146E-06
  -1.64500009E-02     8.85704685E-06
  -1.64000001E-02     8.98331018E-06
  -1.63499992E-02     9.11121333E-06
  -1.63000003E-02     9.24090909E-06
  -1.62499994E-02     9.37252298E-06
  -1.62000004E-02     9.50610047E-06
  -1.61499996E-02     9.64160245E-06
  -1.61000006E-02     9.77893069E-06
  -1.60499997E-02     9.91798515E-06
  -1.60000008E-02     1.00587204E-05
  -1.59499999E-02     1.02011818E-05
  -1.59000009E-02     1.03454977E-05
  -1.58500001E-02     1.04918399E-05
  -1.57999992E-02     1.06403577E-05
  -1.57500003E-02     1.07911283E-05
  -1.56999994E-02     1.09441335E-05
  -1.56500004E-02     1.10992805E-05
  -1.55999996E-02     1.12564576E-05
  -1.55499997E-02     1.14156028E-05
  -1.54999997E-02     1.15767425E-05
  -1.54499998E-02     1.17399995E-05
  -1.53999999E-02     1.19055621E-05
  -1.53500000E-02     1.20736058E-05
  -1.53000001E-02     1.22442425E-05
  -1.52500002E-02     1.24174794E-05
  -1.52000003E-02     1.25932365E-05
  -1.51500003E-02     1.27713984E-05
  -1.51000004E-02     1.29518839E-05
  -1.50499996E-02     1.31347015E-05
  -1.49999997E-02     1.33199683E-05
  -1.49499997E-02     1.35078753E-05
  -1.48999998E-02     1.36986282E-05
  -1.48499999E-02     1.38923742E-05
  -1.48000000E-02     1.40891552E-05
  -1.47500001E-02     1.42889121E-05
  -1.47000002E-02     1.44915302E-05
  -1.46500003E-02     1.46969141E-05
  -1.46000003E-02     1.49050511E-05
  -1.45500004E-02     1.51160430E-05
  -1.44999996E-02     1.53300880E-05
  -1.44499997E-02     1.55474172E-05
  -1.43999998E-02     1.57682152E-05
  -1.43499998E-02     1.59925639E-05
  -1.42999999E-02     1.62204360E-05
  -1.42500000E-02     1.64517242E-05
  -1.42000001E-02     1.66863192E-05
  -1.41500002E-02     1.69241903E-05
  -1.41000003E-02     1.71654228E-05
  -1.40500003E-02     1.74102152E-05
  -1.40000004E-02     1.76588219E-05
  -1.39499996E-02     1.79114668E-05
  -1.38999997E-02     1.81682790E-05
  -1.38499998E-02     1.84292639E-05
  -1.37999998E-02     1.86943289E-05
  -1.37499999E-02     1.89633647E-05
  -1.37000000E-02     1.92363168E-05
  -1.36500001E-02     1.95132561E-05
  -1.36000002E-02     1.97943773E-05
  -1.35500003E-02     2.00799477E-05
  -1.35000004E-02     2.03702330E-05
  -1.34500004E-02     2.06654095E-05
  -1.33999996E-02     2.09655209E-05
  -1.33499997E-02     2.12705072E-05
  -1.32999998E-02     2.15802593E-05
  -1.32499998E-02     2.18947116E-05
  -1.31999999E-02     2.22139133E-05
  -1.31500000E-02     2.25380500E-05
  -1.31000001E-02     2.28673998E-05
  -1.30500002E-02     2.32022667E-05
  -1.30000003E-02     2.35428743E-05
  -1.29500004E-02     2.38893208E-05
  -1.29000004E-02     2.42415772E-05
  -1.28499996E-02     2.45995470E-05
  -1.27999997E-02     2.49631557E-05
  -1.27499998E-02     2.53324324E-05
  -1.26999998E-02     2.57075462E-05
  -1.26499999E-02     2.60887828E-05
  -1.26000000E-02     2.64764749E-05
  -1.25500001E-02     2.68708955E-05
  -1.25000002E-02     2.72722009E-05
  -1.24500003E-02     2.76804094E-05
  -1.24000004E-02     2.80954428E-05
  -1.23500004E-02     2.85172227E-05
  -1.22999996E-02     2.89457603E-05
  -1.22499997E-02     2.93812136E-05
  -1.21999998E-02     2.98238720E-05
  -1.21499998E-02     3.02740864E-05
  -1.20999999E-02     3.07321825E-05
  -1.20500000E-02     3.11983786E-05
  -1.20000001E-02     3.16727383E-05
  -1.19500002E-02     3.21552179E-05
  -1.19000003E-02     3.26457412E-05
  -1.18500004E-02     3.31443152E-05
  -1.18000004E-02     3.36510639E-05
  -1.17499996E-02     3.41662781E-05
  -1.16999997E-02     3.46903253E-05
  -1.16499998E-02     3.52235802E-05
  -1.15999999E-02     3.57663230E-05
  -1.15499999E-02     3.63186773E-05
  -1.15000000E-02     3.68806432E-05
  -1.14500001E-02     3.74521587E-05
  -1.14000002E-02     3.80332167E-05
  -1.13500003E-02     3.86239335E-05
  -1.13000004E-02     3.92245747E-05
  -1.12500004E-02     3.98355332E-05
  -1.11999996E-02     4.04572165E-05
  -1.11499997E-02     4.10899665E-05
  -1.10999998E-02     4.17339761E-05
  -1.10499999E-02     4.23892961E-05
  -1.09999999E-02     4.30558903E-05
  -1.09500000E-02     4.37337440E-05
  -1.09000001E-02     4.44229590E-05
  -1.08500002E-02     4.51237902E-05
  -1.08000003E-02     4.58366303E-05
  -1.07500004E-02     4.65619232E-05
  -1.07000005E-02     4.73000691E-05
  -1.06499996E-02     4.80513227E-05
  -1.05999997E-02     4.88157930E-05
  -1.05499998E-02     4.95934873E-05
  -1.04999999E-02     5.03843985E-05
  -1.04499999E-02     5.11886101E-05
  -1.04000000E-02     5.20063622E-05
  -1.03500001E-02     5.28380478E-05
  -1.03000002E-02     5.36841326E-05
  -1.02500003E-02     5.45450639E-05
  -1.02000004E-02     5.54211729E-05
  -1.01500005E-02     5.63126305E-05
  -1.00999996E-02     5.72194840E-05
  -1.00499997E-02     5.81417480E-05
  -9.99999978E-03     5.90794916E-05
  -9.94999986E-03     6.00329367E-05
  -9.89999995E-03     6.10024690E-05
  -9.85000003E-03     6.19885686E-05
  -9.80000012E-03     6.29917340E-05
  -9.75000020E-03     6.40123617E-05
  -9.70000029E-03     6.50506772E-05
  -9.65000037E-03     6.61067897E-05
  -9.60000046E-03     6.71807211E-05
  -9.54999961E-03     6.82725295E-05
  -9.49999969E-03     6.93824331E-05
  -9.44999978E-03     7.05108032E-05
  -9.39999986E-03     7.16581271E-05
  -9.34999995E-03     7.28249433E-05
  -9.30000003E-03     7.40116957E-05
  -9.25000012E-03     7.52186970E-05
  -9.20000020E-03     7.64460929E-05
  -9.15000029E-03     7.76939414E-05
  -9.10000037E-03     7.89623009E-05
  -9.05000046E-03     8.02513678E-05
  -8.99999961E-03     8.15614694E-05
  -8.94999970E-03     8.28931225E-05
  -8.89999978E-03     8.42468726E-05
  -8.84999987E-03     8.56232291E-05
  -8.79999995E-03     8.70225267E-05
  -8.75000004E-03     8.84449910E-05
  -8.70000012E-03     8.98907092E-05
  -8.65000021E-03     9.13597542E-05
  -8.60000029E-03     9.28523004E-05
  -8.55000038E-03     9.43686682E-05
  -8.50000046E-03     9.59093304E-05
  -8.44999962E-03     9.74748327E-05
  -8.39999970E-03     9.90657136E-05
  -8.34999979E-03     1.00682388E-04
  -8.29999987E-03     1.02325124E-04
  -8.24999996E-03     1.03994054E-04
  -8.20000004E-03     1.05689280E-04
  -8.15000013E-03     1.07410939E-04
  -8.10000021E-03     1.09159322E-04
  -8.05000030E-03     1.10934867E-04
  -8.00000038E-03     1.12738118E-04
  -7.95000046E-03     1.14569622E-04
  -7.89999962E-03     1.16429837E-04
  -7.84999970E-03     1.18319091E-04
  -7.79999979E-03     1.20237550E-04
  -7.74999987E-03     1.22185316E-04
  -7.69999996E-03     1.24162500E-04
  -7.65000004E-03     1.26169369E-04
  -7.60000013E-03     1.28206317E-04
  -7.55000021E-03     1.30273853E-04
  -7.49999983E-03     1.32372545E-04
  -7.44999992E-03     1.34502887E-04
  -7.40000000E-03     1.36665214E-04
  -7.35000009E-03     1.38859730E-04
  -7.30000017E-03     1.41086566E-04
  -7.24999979E-03     1.43345838E-04
  -7.19999988E-03     1.45637721E-04
  -7.14999996E-03     1.47962564E-04
  -7.10000005E-03     1.50320848E-04
  -7.05000013E-03     1.52713110E-04
  -7.00000022E-03     1.55139845E-04
  -6.94999984E-03     1.57601462E-04
  -6.89999992E-03     1.60098163E-04
  -6.85000001E-03     1.62630051E-04
  -6.80000009E-03     1.65197212E-04
  -6.75000018E-03     1.67799779E-04
  -6.69999979E-03     1.70438070E-04
  -6.64999988E-03     1.73112494E-04
  -6.59999996E-03     1.75823530E-04
  -6.55000005E-03     1.78571674E-04
  -6.50000013E-03     1.81357318E-04
  -6.45000022E-03     1.84180710E-04
  -6.39999984E-03     1.87041936E-04
  -6.34999992E-03     1.89941056E-04
  -6.30000001E-03     1.92878128E-04
  -6.25000009E-03     1.95853368E-04
  -6.20000018E-03     1.98867143E-04
  -6.14999980E-03     2.01919873E-04
  -6.09999988E-03     2.05012024E-04
  -6.04999997E-03     2.08143945E-04
  -6.00000005E-03     2.11315870E-04
  -5.95000014E-03     2.14527870E-04
  -5.90000022E-03     2.17779947E-04
  -5.84999984E-03     2.21072114E-04
  -5.79999993E-03     2.24404503E-04
  -5.75000001E-03     2.27777346E-04
  -5.70000010E-03     2.31191021E-04
  -5.65000018E-03     2.34645922E-04
  -5.59999980E-03     2.38142369E-04
  -5.54999989E-03     2.41680507E-04
  -5.49999997E-03     2.45260395E-04
  -5.45000006E-03     2.48881988E-04
  -5.40000014E-03     2.52545200E-04
  -5.35000023E-03     2.56250059E-04
  -5.29999984E-03     2.59996712E-04
  -5.24999993E-03     2.63785390E-04
  -5.20000001E-03     2.67616357E-04
  -5.15000010E-03     2.71489902E-04
  -5.10000018E-03     2.75406113E-04
  -5.04999980E-03     2.79364991E-04
  -4.99999989E-03     2.83366389E-04
  -4.94999997E-03     2.87410163E-04
  -4.90000006E-03     2.91496195E-04
  -4.85000014E-03     2.95624486E-04
  -4.80000023E-03     2.99795152E-04
  -4.74999985E-03     3.04008339E-04
  -4.69999993E-03     3.08264192E-04
  -4.65000002E-03     3.12562741E-04
  -4.60000010E-03     3.16903868E-04
  -4.55000019E-03     3.21287342E-04
  -4.49999981E-03     3.25712928E-04
  -4.44999989E-03     3.30180279E-04
  -4.39999998E-03     3.34689335E-04
  -4.35000006E-03     3.39239923E-04
  -4.30000015E-03     3.43832158E-04
  -4.25000023E-03     3.48465954E-04
  -4.19999985E-03     3.53141251E-04
  -4.14999994E-03     3.57857789E-04
  -4.10000002E-03     3.62615247E-04
  -4.05000011E-03     3.67413188E-04
  -4.00000019E-03     3.72251205E-04
  -3.94999981E-03     3.77128978E-04
  -3.89999989E-03     3.82046273E-04
  -3.84999998E-03     3.87002859E-04
  -3.80000006E-03     3.91998561E-04
  -3.74999992E-03     3.97033116E-04
  -3.70000000E-03     4.02106176E-04
  -3.65000009E-03     4.07217158E-04
  -3.59999994E-03     4.12365509E-04
  -3.55000002E-03     4.17550647E-04
  -3.50000011E-03     4.22772020E-04
  -3.44999996E-03     4.28029191E-04
  -3.40000005E-03     4.33321693E-04
  -3.34999990E-03     4.38649178E-04
  -3.29999998E-03     4.44011152E-04
  -3.25000007E-03     4.49407060E-04
  -3.19999992E-03     4.54836263E-04
  -3.15000000E-03     4.60297917E-04
  -3.10000009E-03     4.65791207E-04
  -3.04999994E-03     4.71315405E-04
  -3.00000003E-03     4.76869754E-04
  -2.95000011E-03     4.82453615E-04
  -2.89999996E-03     4.88066435E-04
  -2.85000005E-03     4.93707485E-04
  -2.79999990E-03     4.99375921E-04
  -2.74999999E-03     5.05070784E-04
  -2.70000007E-03     5.10791200E-04
  -2.64999992E-03     5.16536064E-04
  -2.60000001E-03     5.22304326E-04
  -2.55000009E-03     5.28095057E-04
  -2.49999994E-03     5.33907267E-04
  -2.45000003E-03     5.39740082E-04
  -2.40000011E-03     5.45592571E-04
  -2.34999997E-03     5.51463629E-04
  -2.30000005E-03     5.57352207E-04
  -2.24999990E-03     5.63256966E-04
  -2.19999999E-03     5.69176627E-04
  -2.15000007E-03     5.75109851E-04
  -2.09999993E-03     5.81055356E-04
  -2.05000001E-03     5.87012095E-04
  -2.00000009E-03     5.92978671E-04
  -1.94999995E-03     5.98953979E-04
  -1.90000003E-03     6.04936562E-04
  -1.85000000E-03     6.10925083E-04
  -1.79999997E-03     6.16917969E-04
  -1.75000005E-03     6.22913532E-04
  -1.70000002E-03     6.28910318E-04
  -1.64999999E-03     6.34906639E-04
  -1.59999996E-03     6.40901097E-04
  -1.55000004E-03     6.46892062E-04
  -1.50000001E-03     6.52878080E-04
  -1.44999998E-03     6.58857462E-04
  -1.39999995E-03     6.64828462E-04
  -1.35000004E-03     6.70789334E-04
  -1.30000000E-03     6.76738098E-04
  -1.24999997E-03     6.82672777E-04
  -1.20000006E-03     6.88591448E-04
  -1.15000003E-03     6.94492250E-04
  -1.09999999E-03     7.00373435E-04
  -1.04999996E-03     7.06233084E-04
  -1.00000005E-03     7.12069334E-04
  -9.50000016E-04     7.17880263E-04
  -8.99999985E-04     7.23663485E-04
  -8.50000011E-04     7.29416846E-04
  -7.99999980E-04     7.35137961E-04
  -7.50000007E-04     7.40824558E-04
  -6.99999975E-04     7.46474543E-04
  -6.50000002E-04     7.52085645E-04
  -6.00000028E-04     7.57655886E-04
  -5.49999997E-04     7.63182994E-04
  -5.00000024E-04     7.68664526E-04
  -4.49999992E-04     7.74098036E-04
  -3.99999990E-04     7.79480906E-04
  -3.49999988E-04     7.84810341E-04
  -3.00000014E-04     7.90083956E-04
  -2.50000012E-04     7.95299071E-04
  -1.99999995E-04     8.00453243E-04
  -1.50000007E-04     8.05544085E-04
  -9.99999975E-05     8.10568978E-04
  -4.99999987E-05     8.15525127E-04
   0.00000000         8.20409914E-04
   4.99999987E-05     8.25220195E-04
   9.99999975E-05     8.29953060E-04
   1.50000007E-04     8.34605482E-04
   1.99999995E-04     8.39174667E-04
   2.50000012E-04     8.43657821E-04
   3.00000014E-04     8.48052150E-04
   3.49999988E-04     8.52354802E-04
   3.99999990E-04     8.56562692E-04
   4.49999992E-04     8.60672793E-04