  -3.99999991E-02     1.00000012E-24
  -3.99499983E-02     1.00000012E-24
  -3.99000011E-02     1.00000022E-24
  -3.98500003E-02     1.00000032E-24
  -3.97999994E-02    -2.36614307E-21
  -3.97499986E-02    -1.91518145E-20
  -3.97000015E-02    -8.29995805E-20
  -3.96500006E-02    -2.52748112E-19
  -3.95999998E-02    -5.99473972E-19
  -3.95499989E-02    -1.16455791E-18
  -3.95000018E-02    -1.90186090E-18
  -3.94500010E-02    -2.64039443E-18
  -3.94000001E-02    -3.10973423E-18
  -3.93499993E-02    -3.04227806E-18
  -3.92999984E-02    -2.31500639E-18
  -3.92500013E-02    -1.05311952E-18
  -3.92000005E-02     3.78012338E-19
  -3.91499996E-02     1.51555380E-18
  -3.90999988E-02     2.03250622E-18
  -3.90500017E-02     1.96919072E-18
  -3.90000008E-02     1.85808506E-18
  -3.89500000E-02     2.65976989E-18
  -3.88999991E-02     5.48702442E-18
  -3.88499983E-02     1.11902267E-17
  -3.88000011E-02     1.99816197E-17
  -3.87500003E-02     3.13186793E-17
  -3.86999995E-02     4.41800308E-17
  -3.86499986E-02     5.76650700E-17
  -3.86000015E-02     7.16382284E-17
  -3.85500006E-02     8.70720091E-17
  -3.84999998E-02     1.05869378E-16
  -3.84499989E-02     1.30200028E-16
  -3.84000018E-02     1.61611306E-16
  -3.83500010E-02     2.00284051E-16
  -3.83000001E-02     2.44776163E-16
  -3.82499993E-02     2.92455780E-16
  -3.81999984E-02     3.40575643E-16
  -3.81500013E-02     3.87622711E-16
  -3.81000005E-02     4.34325302E-16
  -3.80499996E-02     4.83720664E-16
  -3.79999988E-02     5.40071384E-16
  -3.79500017E-02     6.07001968E-16
  -3.79000008E-02     6.85704617E-16
  -3.78500000E-02     7.74060424E-16
  -3.77999991E-02     8.67120439E-16
  -3.77499983E-02     9.58787933E-16
  -3.77000012E-02     1.04404487E-15
  -3.76500003E-02     1.12084789E-15
  -3.75999995E-02     1.19086098E-15
  -3.75499986E-02     1.25853775E-15
  -3.75000015E-02     1.32870268E-15
  -3.74500006E-02     1.40357584E-15
  -3.73999998E-02     1.48060396E-15
  -3.73499990E-02     1.55228708E-15
  -3.73000018E-02     1.60829428E-15
  -3.72500010E-02     1.63892606E-15
  -3.72000001E-02     1.63837485E-15
  -3.71499993E-02     1.60622678E-15
  -3.70999984E-02     1.54655945E-15
  -3.70500013E-02     1.46492929E-15
  -3.70000005E-02     1.36440342E-15
  -3.69499996E-02     1.24221511E-15
  -3.68999988E-02     1.08856026E-15
  -3.68500017E-02     8.88408177E-16
  -3.68000008E-02     6.25836805E-16
  -3.67500000E-02     2.89089883E-16
  -3.66999991E-02    -1.26044114E-16
  -3.66499983E-02    -6.16384446E-16
  -3.66000012E-02    -1.17515096E-15
  -3.65500003E-02    -1.79769296E-15
  -3.64999995E-02    -2.48649635E-15
  -3.64499986E-02    -3.25329283E-15
  -3.64000015E-02    -4.11733483E-15
  -3.63500006E-02    -5.10033647E-15
  -3.62999998E-02    -6.21996325E-15
  -3.62499990E-02    -7.48445343E-15
  -3.62000018E-02    -8.89099653E-15
  -3.61500010E-02    -1.04290449E-14
  -3.61000001E-02    -1.20875303E-14
  -3.60499993E-02    -1.38628758E-14
  -3.59999985E-02    -1.57639489E-14
  -3.59500013E-02    -1.78113834E-14
  -3.59000005E-02    -2.00315584E-14
  -3.58499996E-02    -2.24477588E-14
  -3.57999988E-02    -2.50725107E-14
  -3.57500017E-02    -2.79039487E-14
  -3.57000008E-02    -3.09279173E-14
  -3.56500000E-02    -3.41250364E-14
  -3.55999991E-02    -3.74805201E-14
  -3.55499983E-02    -4.09923628E-14
  -3.55000012E-02    -4.46740050E-14
  -3.54500003E-02    -4.85497195E-14
  -3.53999995E-02    -5.26444461E-14
  -3.53499986E-02    -5.69726151E-14
  -3.53000015E-02    -6.15308653E-14
  -3.52500007E-02    -6.62984343E-14
  -3.51999998E-02    -7.12442868E-14
  -3.51499990E-02    -7.63382413E-14
  -3.51000018E-02    -8.15610939E-14
  -3.50500010E-02    -8.69101679E-14
  -3.50000001E-02    -9.23974710E-14
  -3.49499993E-02    -9.80408314E-14
  -3.48999985E-02    -1.03851565E-13
  -3.48500013E-02    -1.09823683E-13
  -3.48000005E-02    -1.15929903E-13
  -3.47499996E-02    -1.22126674E-13
  -3.46999988E-02    -1.28366407E-13
  -3.46500017E-02    -1.34610937E-13
  -3.46000008E-02    -1.40839854E-13
  -3.45500000E-02    -1.47050354E-13
  -3.44999991E-02    -1.53249009E-13
  -3.44499983E-02    -1.59438950E-13
  -3.44000012E-02    -1.65607410E-13
  -3.43500003E-02    -1.71718312E-13
  -3.42999995E-02    -1.77713719E-13
  -3.42499986E-02    -1.83524216E-13
  -3.42000015E-02    -1.89084452E-13
  -3.41500007E-02    -1.94347373E-13
  -3.40999998E-02    -1.99289844E-13
  -3.40499990E-02    -2.03906567E-13
  -3.40000018E-02    -2.08196416E-13
  -3.39500010E-02    -2.12146422E-13
  -3.39000002E-02    -2.15720698E-13
  -3.38499993E-02    -2.18858311E-13
  -3.37999985E-02    -2.21480467E-13
  -3.37500013E-02    -2.23505012E-13
  -3.37000005E-02    -2.24862189E-13
  -3.36499996E-02    -2.25506828E-13
  -3.35999988E-02    -2.25420119E-13
  -3.35500017E-02    -2.24599419E-13
  -3.35000008E-02    -2.23040336E-13
  -3.34500000E-02    -2.20719330E-13
  -3.33999991E-02    -2.17584821E-13
  -3.33499983E-02    -2.13560059E-13
  -3.33000012E-02    -2.08556249E-13
  -3.32500003E-02    -2.02490206E-13
  -3.31999995E-02    -1.95300278E-13
  -3.31499986E-02    -1.86954781E-13
  -3.31000015E-02    -1.77449255E-13
  -3.30500007E-02    -1.66794259E-13
  -3.29999998E-02    -1.54996323E-13
  -3.29499990E-02    -1.42041923E-13
  -3.29000019E-02    -1.27889900E-13
  -3.28500010E-02    -1.12478278E-13
  -3.28000002E-02    -9.57415841E-14
  -3.27499993E-02    -7.76305425E-14
  -3.26999985E-02    -5.81270871E-14
  -3.26500013E-02    -3.72456142E-14
  -3.26000005E-02    -1.50233846E-14
  -3.25499997E-02     8.49799611E-15
  -3.24999988E-02     3.32942698E-14
  -3.24500017E-02     5.93743804E-14
  -3.24000008E-02     8.67840549E-14
  -3.23500000E-02     1.15594234E-13
  -3.22999991E-02     1.45876827E-13
  -3.22499983E-02     1.77677521E-13
  -3.22000012E-02     2.10997018E-13
  -3.21500003E-02     2.45788307E-13
  -3.20999995E-02     2.81968784E-13
  -3.20499986E-02     3.19442335E-13
  -3.20000015E-02     3.58120028E-13
  -3.19500007E-02     3.97930712E-13
  -3.18999998E-02     4.38816626E-13
  -3.18499990E-02     4.80714318E-13
  -3.18000019E-02     5.23525884E-13
  -3.17500010E-02     5.67091946E-13
  -3.17000002E-02     6.11178263E-13
  -3.16499993E-02     6.55485757E-13
  -3.15999985E-02     6.99681524E-13
  -3.15500014E-02     7.43440032E-13
  -3.15000005E-02     7.86477220E-13
  -3.14499997E-02     8.28563455E-13
  -3.13999988E-02     8.69513175E-13
  -3.13500017E-02     9.09157081E-13
  -3.13000008E-02     9.47307011E-13
  -3.12500000E-02     9.83729699E-13
  -3.11999992E-02     1.01814206E-12
  -3.11500002E-02     1.05023520E-12
  -3.10999993E-02     1.07972279E-12
  -3.10500003E-02     1.10639557E-12
  -3.09999995E-02     1.13016139E-12
  -3.09500005E-02     1.15105158E-12
  -3.08999997E-02     1.16919321E-12
  -3.08500007E-02     1.18475986E-12
  -3.07999998E-02     1.19792511E-12
  -3.07500008E-02     1.20883631E-12
  -3.07000000E-02     1.21762268E-12
  -3.06499992E-02     1.22443527E-12
  -3.06000002E-02     1.22950413E-12
  -3.05499993E-02     1.23319107E-12
  -3.05000003E-02     1.23601075E-12
  -3.04499995E-02     1.23860796E-12
  -3.04000005E-02     1.24168915E-12
  -3.03499997E-02     1.24593879E-12
  -3.03000007E-02     1.25194950E-12
  -3.02499998E-02     1.26019572E-12
  -3.02000009E-02     1.27105141E-12
  -3.01500000E-02     1.28484213E-12
  -3.00999992E-02     1.30189848E-12
  -3.00500002E-02     1.32258278E-12
  -2.99999993E-02     1.34726692E-12
  -2.99500003E-02     1.37626011E-12
  -2.98999995E-02     1.40969886E-12
  -2.98500005E-02     1.44744232E-12
  -2.97999997E-02     1.48901399E-12
  -2.97500007E-02     1.53361102E-12
  -2.96999998E-02     1.58017685E-12
  -2.96500009E-02     1.62750477E-12
  -2.96000000E-02     1.67432496E-12
  -2.95499992E-02     1.71933594E-12
  -2.95000002E-02     1.76117432E-12
  -2.94499993E-02     1.79832852E-12
  -2.94000003E-02     1.82904776E-12
  -2.93499995E-02     1.85128844E-12
  -2.93000005E-02     1.86273219E-12
  -2.92499997E-02     1.86089468E-12
  -2.92000007E-02     1.84328833E-12
  -2.91499998E-02     1.80759281E-12
  -2.91000009E-02     1.75177256E-12
  -2.90500000E-02     1.67409836E-12
  -2.89999992E-02     1.57308314E-12
  -2.89500002E-02     1.44737770E-12
  -2.88999993E-02     1.29569109E-12
  -2.88500004E-02     1.11677800E-12
  -2.87999995E-02     9.09524951E-13
  -2.87500005E-02     6.73118137E-13
  -2.86999997E-02     4.07231106E-13
  -2.86500007E-02     1.12169903E-13
  -2.85999998E-02    -2.11086804E-13
  -2.85500009E-02    -5.60967017E-13
  -2.85000000E-02    -9.35470885E-13
  -2.84499992E-02    -1.33235241E-12
  -2.84000002E-02    -1.74923227E-12
  -2.83499993E-02    -2.18359337E-12
  -2.83000004E-02    -2.63266991E-12
  -2.82499995E-02    -3.09327433E-12
  -2.82000005E-02    -3.56166247E-12
  -2.81499997E-02    -4.03349880E-12
  -2.81000007E-02    -4.50396101E-12
  -2.80499998E-02    -4.96796354E-12
  -2.80000009E-02    -5.42042322E-12
  -2.79500000E-02    -5.85648500E-12
  -2.78999992E-02    -6.27161170E-12
  -2.78500002E-02    -6.66152333E-12
  -2.77999993E-02    -7.02204744E-12
  -2.77500004E-02    -7.34894610E-12
  -2.76999995E-02    -7.63783915E-12
  -2.76500005E-02    -7.88428697E-12
  -2.75999997E-02    -8.08402737E-12
  -2.75500007E-02    -8.23329425E-12
  -2.74999999E-02    -8.32910650E-12
  -2.74500009E-02    -8.36939545E-12
  -2.74000000E-02    -8.35296589E-12
  -2.73499992E-02    -8.27929305E-12
  -2.73000002E-02    -8.14825984E-12
  -2.72499993E-02    -7.95994434E-12
  -2.72000004E-02    -7.71457551E-12
  -2.71499995E-02    -7.41266597E-12
  -2.71000005E-02    -7.05527824E-12
  -2.70499997E-02    -6.64431574E-12
  -2.70000007E-02    -6.18267069E-12
  -2.69499999E-02    -5.67416426E-12
  -2.69000009E-02    -5.12328287E-12
  -2.68500000E-02    -4.53479572E-12
  -2.67999992E-02    -3.91341343E-12
  -2.67500002E-02    -3.26361334E-12
  -2.66999993E-02    -2.58968021E-12
  -2.66500004E-02    -1.89594239E-12
  -2.65999995E-02    -1.18707659E-12
  -2.65500005E-02    -4.68330127E-13
  -2.64999997E-02     2.54456070E-13
  -2.64500007E-02     9.75084488E-13
  -2.63999999E-02     1.68740824E-12
  -2.63500009E-02     2.38575782E-12
  -2.63000000E-02     3.06521041E-12
  -2.62499992E-02     3.72160592E-12
  -2.62000002E-02     4.35131532E-12
  -2.61499994E-02     4.95088909E-12
  -2.61000004E-02     5.51674808E-12
  -2.60499995E-02     6.04506809E-12
  -2.60000005E-02     6.53193255E-12
  -2.59499997E-02     6.97371067E-12
  -2.59000007E-02     7.36752066E-12
  -2.58499999E-02     7.71157790E-12
  -2.58000009E-02     8.00527700E-12
  -2.57500000E-02     8.24895707E-12
  -2.56999992E-02     8.44346554E-12
  -2.56500002E-02     8.58971227E-12
  -2.55999994E-02     8.68840503E-12
  -2.55500004E-02     8.74009285E-12
  -2.54999995E-02     8.74547310E-12
  -2.54500005E-02     8.70584074E-12
  -2.53999997E-02     8.62346652E-12
  -2.53500007E-02     8.50174098E-12
  -2.52999999E-02     8.34497055E-12
  -2.52500009E-02     8.15790577E-12
  -2.52000000E-02     7.94516362E-12
  -2.51499992E-02     7.71080335E-12
  -2.51000002E-02     7.45821460E-12
  -2.50499994E-02     7.19036896E-12
  -2.50000004E-02     6.91028571E-12
  -2.49499995E-02     6.62149198E-12
  -2.49000005E-02     6.32826387E-12
  -2.48499997E-02     6.03552191E-12
  -2.48000007E-02     5.74840913E-12
  -2.47499999E-02     5.47171596E-12
  -2.47000009E-02     5.20937677E-12
  -2.46500000E-02     4.96425904E-12
  -2.45999992E-02     4.73833993E-12
  -2.45500002E-02     4.53319804E-12
  -2.44999994E-02     4.35058586E-12
  -2.44500004E-02     4.19282014E-12
  -2.43999995E-02     4.06281129E-12
  -2.43500005E-02     3.96372605E-12
  -2.42999997E-02     3.89842108E-12
  -2.42500007E-02     3.86890043E-12
  -2.41999999E-02     3.87603187E-12
  -2.41500009E-02     3.91964629E-12
  -2.41000000E-02     3.99900252E-12
  -2.40499992E-02     4.11340796E-12
  -2.40000002E-02     4.26272689E-12
  -2.39499994E-02     4.44757035E-12
  -2.39000004E-02     4.66905724E-12
  -2.38499995E-02     4.92827914E-12
  -2.38000005E-02     5.22568924E-12
  -2.37499997E-02     5.56071508E-12
  -2.37000007E-02     5.93176593E-12
  -2.36499999E-02     6.33663608E-12
  -2.36000009E-02     6.77312546E-12
  -2.35500000E-02     7.23961342E-12
  -2.34999992E-02     7.73532367E-12
  -2.34500002E-02     8.26018420E-12
  -2.33999994E-02     8.81432861E-12
  -2.33500004E-02     9.39744550E-12
  -2.32999995E-02     1.00082659E-11
  -2.32500006E-02     1.06444272E-11
  -2.31999997E-02     1.13027625E-11
  -2.31500007E-02     1.19798928E-11
  -2.30999999E-02     1.26728645E-11
  -2.30500009E-02     1.33795214E-11
  -2.30000000E-02     1.40984750E-11
  -2.29499992E-02     1.48286730E-11
  -2.29000002E-02     1.55687616E-11
  -2.28499994E-02     1.63165332E-11
  -2.28000004E-02     1.70686781E-11
  -2.27499995E-02     1.78209600E-11
  -2.27000006E-02     1.85687420E-11
  -2.26499997E-02     1.93076232E-11
  -2.26000007E-02     2.00339363E-11
  -2.25499999E-02     2.07448624E-11
  -2.25000009E-02     2.14381377E-11
  -2.24500000E-02     2.21114915E-11
  -2.23999992E-02     2.27620943E-11
  -2.23500002E-02     2.33862686E-11
  -2.22999994E-02     2.39795944E-11
  -2.22500004E-02     2.45373635E-11
  -2.21999995E-02     2.50552044E-11
  -2.21500006E-02     2.55295923E-11
  -2.20999997E-02     2.59580604E-11
  -2.20500007E-02     2.63390369E-11
  -2.19999999E-02     2.66713648E-11
  -2.19500009E-02     2.69537569E-11
  -2.19000001E-02     2.71844318E-11
  -2.18499992E-02     2.73610960E-11
  -2.18000002E-02     2.74813089E-11
  -2.17499994E-02     2.75430199E-11
  -2.17000004E-02     2.75450739E-11
  -2.16499995E-02     2.74874429E-11
  -2.16000006E-02     2.73710950E-11
  -2.15499997E-02     2.71975862E-11
  -2.15000007E-02     2.69685368E-11
  -2.14499999E-02     2.66852165E-11
  -2.14000009E-02     2.63484182E-11
  -2.13500001E-02     2.59586588E-11
  -2.12999992E-02     2.55165906E-11
  -2.12500002E-02     2.50234330E-11
  -2.11999994E-02     2.44812313E-11
  -2.11500004E-02     2.38928131E-11
  -2.10999995E-02     2.32614657E-11
  -2.10500006E-02     2.25904608E-11
  -2.09999997E-02     2.18826936E-11
  -2.09500007E-02     2.11405251E-11
  -2.08999999E-02     2.03659051E-11
  -2.08500009E-02     1.95606951E-11
  -2.08000001E-02     1.87269974E-11
  -2.07499992E-02     1.78674089E-11
  -2.07000002E-02     1.69850644E-11
  -2.06499994E-02     1.60834245E-11
  -2.06000004E-02     1.51659657E-11
  -2.05499995E-02     1.42358764E-11
  -2.05000006E-02     1.32959069E-11
  -2.04499997E-02     1.23484261E-11
  -2.04000007E-02     1.13956466E-11
  -2.03499999E-02     1.04398764E-11
  -2.03000009E-02     9.48367686E-12
  -2.02500001E-02     8.52985738E-12
  -2.01999992E-02     7.58135828E-12
  -2.01500002E-02     6.64106097E-12
  -2.00999994E-02     5.71164470E-12
  -2.00500004E-02     4.79551598E-12
  -1.99999996E-02     3.89488398E-12
  -1.99500006E-02     3.01189564E-12
  -1.98999997E-02     2.14878831E-12
  -1.98500007E-02     1.30799581E-12
  -1.97999999E-02     4.92151079E-13
  -1.97500009E-02    -2.96080841E-13
  -1.97000001E-02    -1.05412293E-12
  -1.96499992E-02    -1.77955220E-12
  -1.96000002E-02    -2.47003958E-12
  -1.95499994E-02    -3.12324450E-12
  -1.95000004E-02    -3.73671840E-12
  -1.94499996E-02    -4.30788565E-12
  -1.94000006E-02    -4.83411098E-12
  -1.93499997E-02    -5.31277149E-12
  -1.93000007E-02    -5.74134967E-12
  -1.92499999E-02    -6.11747892E-12
  -1.92000009E-02    -6.43897262E-12
  -1.91500001E-02    -6.70374823E-12
  -1.90999992E-02    -6.90964517E-12
  -1.90500002E-02    -7.05429465E-12
  -1.89999994E-02    -7.13516095E-12
  -1.89500004E-02    -7.14975214E-12
  -1.88999996E-02    -7.09588378E-12
  -1.88500006E-02    -6.97187056E-12
  -1.87999997E-02    -6.77654547E-12
  -1.87500007E-02    -6.50911009E-12
  -1.86999999E-02    -6.16889395E-12
  -1.86500009E-02    -5.75519190E-12
  -1.86000001E-02    -5.26719683E-12
  -1.85499992E-02    -4.70403577E-12
  -1.85000002E-02    -4.06496885E-12
  -1.84499994E-02    -3.34974886E-12
  -1.84000004E-02    -2.55896736E-12
  -1.83499996E-02    -1.69416423E-12
  -1.83000006E-02    -7.57647905E-13
  -1.82499997E-02     2.47897785E-13
  -1.82000007E-02     1.31983519E-12
  -1.81499999E-02     2.45572356E-12
  -1.81000009E-02     3.65323613E-12
  -1.80500001E-02     4.90986071E-12
  -1.79999992E-02     6.22255546E-12
  -1.79500002E-02     7.58744630E-12
  -1.78999994E-02     8.99972284E-12
  -1.78500004E-02     1.04537629E-11
  -1.77999996E-02     1.19435312E-11
  -1.77500006E-02     1.34630796E-11
  -1.76999997E-02     1.50069835E-11
  -1.76500008E-02     1.65704082E-11
  -1.75999999E-02     1.81489060E-11
  -1.75500009E-02     1.97379578E-11
  -1.75000001E-02     2.13326370E-11
  -1.74499992E-02     2.29275054E-11
  -1.74000002E-02     2.45168365E-11
  -1.73499994E-02     2.60950046E-11
  -1.73000004E-02     2.76568594E-11
  -1.72499996E-02     2.91980572E-11
  -1.72000006E-02     3.07151839E-11
  -1.71499997E-02     3.22056444E-11
  -1.71000008E-02     3.36673120E-11
  -1.70499999E-02     3.50981640E-11
  -1.70000009E-02     3.64959903E-11
  -1.69500001E-02     3.78585670E-11
  -1.68999992E-02     3.91840518E-11
  -1.68500002E-02     4.04713867E-11
  -1.67999994E-02     4.17205680E-11
  -1.67500004E-02     4.29326331E-11
  -1.66999996E-02     4.41094626E-11
  -1.66500006E-02     4.52534954E-11
  -1.65999997E-02     4.63674585E-11
  -1.65500008E-02     4.74542280E-11
  -1.64999999E-02     4.85167913E-11
  -1.64500009E-02     4.95583401E-11
  -1.64000001E-02     5.05825173E-11
  -1.63499992E-02     5.15935732E-11
  -1.63000003E-02     5.25963266E-11
  -1.62499994E-02     5.35959298E-11
  -1.62000004E-02     5.45975869E-11
  -1.61499996E-02     5.56063980E-11
  -1.61000006E-02     5.66273660E-11
  -1.60499997E-02     5.76655702E-11
  -1.60000008E-02     5.87262461E-11
  -1.59499999E-02     5.98146532E-11
  -1.59000009E-02     6.09359022E-11
  -1.58500001E-02     6.20945934E-11
  -1.57999992E-02     6.32946820E-11
  -1.57500003E-02     6.45393877E-11
  -1.56999994E-02     6.58313820E-11
  -1.56500004E-02     6.71730727E-11
  -1.55999996E-02     6.85669438E-11
  -1.55499997E-02     7.00157640E-11
  -1.54999997E-02     7.15223922E-11
  -1.54499998E-02     7.30891875E-11
  -1.53999999E-02     7.47172810E-11
  -1.53500000E-02     7.64059788E-11
  -1.53000001E-02     7.81527898E-11
  -1.52500002E-02     7.99540711E-11
  -1.52000003E-02     8.18060411E-11
  -1.51500003E-02     8.37056674E-11
  -1.51000004E-02     8.56510904E-11
  -1.50499996E-02     8.76412554E-11
  -1.49999997E-02     8.96749341E-11
  -1.49499997E-02     9.17494622E-11
  -1.48999998E-02     9.38596284E-11
  -1.48499999E-02     9.59974947E-11
  -1.48000000E-02     9.81531315E-11
  -1.47500001E-02     1.00316276E-10
  -1.47000002E-02     1.02478206E-10
  -1.46500003E-02     1.04632726E-10
  -1.46000003E-02     1.06775928E-10
  -1.45500004E-02     1.08904663E-10
  -1.44999996E-02     1.11014427E-10
  -1.44499997E-02     1.13097524E-10
  -1.43999998E-02     1.15142521E-10
  -1.43499998E-02     1.17135163E-10
  -1.42999999E-02     1.19060692E-10
  -1.42500000E-02     1.20906576E-10
  -1.42000001E-02     1.22664545E-10
  -1.41500002E-02     1.24330699E-10
  -1.41000003E-02     1.25903787E-10
  -1.40500003E-02     1.27382063E-10
  -1.40000004E-02     1.28760183E-10
  -1.39499996E-02     1.30027655E-10
  -1.38999997E-02     1.31169686E-10
  -1.38499998E-02     1.32170233E-10
  -1.37999998E-02     1.33016043E-10
  -1.37499999E-02     1.33699898E-10
  -1.37000000E-02     1.34221578E-10
  -1.36500001E-02     1.34585926E-10
  -1.36000002E-02     1.34798783E-10
  -1.35500003E-02     1.34862246E-10
  -1.35000004E-02     1.34771513E-10
  -1.34500004E-02     1.34514871E-10
  -1.33999996E-02     1.34077138E-10
  -1.33499997E-02     1.33444963E-10
  -1.32999998E-02     1.32612088E-10
  -1.32499998E-02     1.31581690E-10
  -1.31999999E-02     1.30364886E-10
  -1.31500000E-02     1.28975788E-10
  -1.31000001E-02     1.27425057E-10
  -1.30500002E-02     1.25714703E-10
  -1.30000003E-02     1.23836677E-10
  -1.29500004E-02     1.21776075E-10
  -1.29000004E-02     1.19517674E-10
  -1.28499996E-02     1.17053353E-10
  -1.27999997E-02     1.14386743E-10
  -1.27499998E-02     1.11533033E-10
  -1.26999998E-02     1.08513649E-10
  -1.26499999E-02     1.05347987E-10
  -1.26000000E-02     1.02045858E-10
  -1.25500001E-02     9.86039514E-11
  -1.25000002E-02     9.50080778E-11
  -1.24500003E-02     9.12405845E-11
  -1.24000004E-02     8.72897726E-11
  -1.23500004E-02     8.31571478E-11
  -1.22999996E-02     7.88591067E-11
  -1.22499997E-02     7.44219061E-11
  -1.21999998E-02     6.98716363E-11
  -1.21499998E-02     6.52236529E-11
  -1.20999999E-02     6.04761866E-11
  -1.20500000E-02     5.56113870E-11
  -1.20000001E-02     5.06034728E-11
  -1.19500002E-02     4.54309819E-11
  -1.19000003E-02     4.00879469E-11
  -1.18500004E-02     3.45890851E-11
  -1.18000004E-02     2.89661958E-11
  -1.17499996E-02     2.32572381E-11
  -1.16999997E-02     1.74924415E-11
  -1.16499998E-02     1.16835161E-11
  -1.15999999E-02     5.82099169E-12
  -1.15499999E-02    -1.18980753E-13
  -1.15000000E-02    -6.16104997E-12
  -1.14500001E-02    -1.23161915E-11
  -1.14000002E-02    -1.85727822E-11
  -1.13500003E-02    -2.48974487E-11
  -1.13000004E-02    -3.12458739E-11
  -1.12500004E-02    -3.75788532E-11
  -1.11999996E-02    -4.38767078E-11
  -1.11499997E-02    -5.01452387E-11
  -1.10999998E-02    -5.64100364E-11
  -1.10499999E-02    -6.27011637E-11
  -1.09999999E-02    -6.90345350E-11
  -1.09500000E-02    -7.53980697E-11
  -1.09000001E-02    -8.17490381E-11
  -1.08500002E-02    -8.80243864E-11
  -1.08000003E-02    -9.41602213E-11
  -1.07500004E-02    -1.00112203E-10
  -1.07000005E-02    -1.05868057E-10
  -1.06499996E-02    -1.11446276E-10
  -1.05999997E-02    -1.16881269E-10
  -1.05499998E-02    -1.22201235E-10
  -1.04999999E-02    -1.27408278E-10
  -1.04499999E-02    -1.32469785E-10
  -1.04000000E-02    -1.37325193E-10
  -1.03500001E-02    -1.41905571E-10
  -1.03000002E-02    -1.46157933E-10
  -1.02500003E-02    -1.50063739E-10
  -1.02000004E-02    -1.53642835E-10
  -1.01500005E-02    -1.56940738E-10
  -1.00999996E-02    -1.60004066E-10
  -1.00499997E-02    -1.62854827E-10
  -9.99999978E-03    -1.65475258E-10
  -9.94999986E-03    -1.67810127E-10
  -9.89999995E-03    -1.69786407E-10
  -9.85000003E-03    -1.71341663E-10
  -9.80000012E-03    -1.72449027E-10
  -9.75000020E-03    -1.73127762E-10
  -9.70000029E-03    -1.73434267E-10
  -9.65000037E-03    -1.73436335E-10
  -9.60000046E-03    -1.73182024E-10
  -9.54999961E-03    -1.72676165E-10
  -9.49999969E-03    -1.71876041E-10
  -9.44999978E-03    -1.70708517E-10
  -9.39999986E-03    -1.69102121E-10
  -9.34999995E-03    -1.67020051E-10
  -9.30000003E-03    -1.64479652E-10
  -9.25000012E-03    -1.61549024E-10
  -9.20000020E-03    -1.58322258E-10
  -9.15000029E-03    -1.54882954E-10
  -9.10000037E-03    -1.51272050E-10
  -9.05000046E-03    -1.47473797E-10
  -8.99999961E-03    -1.43426965E-10
  -8.94999970E-03    -1.39056780E-10
  -8.89999978E-03    -1.34314268E-10
  -8.84999987E-03    -1.29205660E-10
  -8.79999995E-03    -1.23798097E-10
  -8.75000004E-03    -1.18198507E-10
  -8.70000012E-03    -1.12513984E-10
  -8.65000021E-03    -1.06811192E-10
  -8.60000029E-03    -1.01092502E-10
  -8.55000038E-03    -9.52998097E-11
  -8.50000046E-03    -8.93450869E-11
  -8.44999962E-03    -8.31550384E-11
  -8.39999970E-03    -7.67105823E-11
  -8.34999979E-03    -7.00636979E-11
  -8.29999987E-03    -6.33235270E-11
  -8.24999996E-03    -5.66166836E-11
  -8.20000004E-03    -5.00387926E-11
  -8.15000013E-03    -4.36186226E-11
  -8.10000021E-03    -3.73112999E-11
  -8.05000030E-03    -3.10241728E-11
  -8.00000038E-03    -2.46646904E-11
  -7.95000046E-03    -1.81894742E-11
  -7.89999962E-03    -1.16328388E-11
  -7.84999970E-03    -5.10193580E-12
  -7.79999979E-03     1.26049247E-12
  -7.74999987E-03     7.33056931E-12
  -7.69999996E-03     1.30512901E-11
  -7.65000004E-03     1.84526196E-11
  -7.60000013E-03     2.36341068E-11
  -7.55000021E-03     2.87163106E-11
  -7.49999983E-03     3.37819633E-11
  -7.44999992E-03     3.88328814E-11
  -7.40000000E-03     4.37817421E-11
  -7.35000009E-03     4.84832660E-11
  -7.30000017E-03     5.27917987E-11
  -7.24999979E-03     5.66205000E-11
  -7.19999988E-03     5.99762393E-11
  -7.14999996E-03     6.29543154E-11
  -7.10000005E-03     6.56944499E-11
  -7.05000013E-03     6.83159987E-11
  -7.00000022E-03     7.08605535E-11
  -6.94999984E-03     7.32677391E-11
  -6.89999992E-03     7.53957521E-11
  -6.85000001E-03     7.70787531E-11
  -6.80000009E-03     7.81961787E-11
  -6.75000018E-03     7.87235624E-11
  -6.69999979E-03     7.87423599E-11
  -6.64999988E-03     7.84035684E-11
  -6.59999996E-03     7.78606069E-11
  -6.55000005E-03     7.71999686E-11
  -6.50000013E-03     7.64000599E-11
  -6.45000022E-03     7.53372018E-11
  -6.39999984E-03     7.38374639E-11
  -6.34999992E-03     7.17526247E-11
  -6.30000001E-03     6.90269161E-11
  -6.25000009E-03     6.57250365E-11
  -6.20000018E-03     6.20076351E-11
  -6.14999980E-03     5.80646503E-11
  -6.09999988E-03     5.40348981E-11
  -6.04999997E-03     4.99470187E-11
  -6.00000005E-03     4.57081144E-11
  -5.95000014E-03     4.11457431E-11
  -5.90000022E-03     3.60861480E-11
  -5.84999984E-03     3.04349254E-11
  -5.79999993E-03     2.42244679E-11
  -5.75000001E-03     1.76068309E-11
  -5.70000010E-03     1.07934651E-11
  -5.65000018E-03     3.96728570E-12
  -5.59999980E-03    -2.79451354E-12
  -5.54999989E-03    -9.55269110E-12
  -5.49999997E-03    -1.64778521E-11
  -5.45000006E-03    -2.37737434E-11
  -5.40000014E-03    -3.15844156E-11
  -5.35000023E-03    -3.99259584E-11
  -5.29999984E-03    -4.86729476E-11
  -5.24999993E-03    -5.76061455E-11
  -5.20000001E-03    -6.65022412E-11
  -5.15000010E-03    -7.52264986E-11
  -5.10000018E-03    -8.37881292E-11
  -5.04999980E-03    -9.23328566E-11
  -4.99999989E-03    -1.01075086E-10
  -4.94999997E-03    -1.10198600E-10
  -4.90000006E-03    -1.19768806E-10
  -4.85000014E-03    -1.29696268E-10
  -4.80000023E-03    -1.39767822E-10
  -4.74999985E-03    -1.49733073E-10
  -4.69999993E-03    -1.59408903E-10
  -4.65000002E-03    -1.68756426E-10
  -4.60000010E-03    -1.77896531E-10
  -4.55000019E-03    -1.87056287E-10
  -4.49999981E-03    -1.96467717E-10
  -4.44999989E-03    -2.06263243E-10
  -4.39999998E-03    -2.16413359E-10
  -4.35000006E-03    -2.26734700E-10
  -4.30000015E-03    -2.36966752E-10
  -4.25000023E-03    -2.46883208E-10
  -4.19999985E-03    -2.56389993E-10
  -4.14999994E-03    -2.65566569E-10
  -4.10000002E-03    -2.74631318E-10
  -4.05000011E-03    -2.83845392E-10
  -4.00000019E-03    -2.93395919E-10
  -3.94999981E-03    -3.03309766E-10
  -3.89999989E-03    -3.13435833E-10
  -3.84999998E-03    -3.23504779E-10
  -3.80000006E-03    -3.33242295E-10
  -3.74999992E-03    -3.42485790E-10
  -3.70000000E-03    -3.51253915E-10
  -3.65000009E-03    -3.59737379E-10
  -3.59999994E-03    -3.68214292E-10
  -3.55000002E-03    -3.76926629E-10
  -3.50000011E-03    -3.85970672E-10
  -3.44999996E-03    -3.95249777E-10
  -3.40000005E-03    -4.04511480E-10
  -3.34999990E-03    -4.13453077E-10
  -3.29999998E-03    -4.21851054E-10
  -3.25000007E-03    -4.29656172E-10
  -3.19999992E-03    -4.37014452E-10
  -3.15000000E-03    -4.44201731E-10
  -3.10000009E-03    -4.51499976E-10
  -3.04999994E-03    -4.59068894E-10
  -3.00000003E-03    -4.66870209E-10
  -2.95000011E-03    -4.74676465E-10
  -2.89999996E-03    -4.82163809E-10
  -2.85000005E-03    -4.89046414E-10
  -2.79999990E-03    -4.95196717E-10
  -2.74999999E-03    -5.00696928E-10
  -2.70000007E-03    -5.05798625E-10
  -2.64999992E-03    -5.10807618E-10
  -2.60000001E-03    -5.15943399E-10
  -2.55000009E-03    -5.21234222E-10
  -2.49999994E-03    -5.26494237E-10
  -2.45000003E-03    -5.31394373E-10
  -2.40000011E-03    -5.35596123E-10
  -2.34999997E-03    -5.38891043E-10
  -2.30000005E-03    -5.41284462E-10
  -2.24999990E-03    -5.42986545E-10
  -2.19999999E-03    -5.44313816E-10
  -2.15000007E-03    -5.45542889E-10
  -2.09999993E-03    -5.46780510E-10
  -2.05000001E-03    -5.47907664E-10
  -2.00000009E-03    -5.48621759E-10
  -1.94999995E-03    -5.48560919E-10
  -1.90000003E-03    -5.47454360E-10
  -1.85000000E-03    -5.45235967E-10
  -1.79999997E-03    -5.42068279E-10
  -1.75000005E-03    -5.38266876E-10
  -1.70000002E-03    -5.34157607E-10
  -1.64999999E-03    -5.29925659E-10
  -1.59999996E-03    -5.25526955E-10
  -1.55000004E-03    -5.20696042E-10
  -1.50000001E-03    -5.15052778E-10
  -1.44999998E-03    -5.08259657E-10
  -1.39999995E-03    -5.00161579E-10
  -1.35000004E-03    -4.90847807E-10
  -1.30000000E-03    -4.80608831E-10
  -1.24999997E-03    -4.69804862E-10
  -1.20000006E-03    -4.58703880E-10
  -1.15000003E-03    -4.47361453E-10
  -1.09999999E-03    -4.35594338E-10
  -1.04999996E-03    -4.23056340E-10
  -1.00000005E-03    -4.09390161E-10
  -9.50000016E-04    -3.94384331E-10
  -8.99999985E-04    -3.78071574E-10
  -8.50000011E-04    -3.60719177E-10
  -7.99999980E-04    -3.42719492E-10
  -7.50000007E-04    -3.24424737E-10
  -6.99999975E-04    -3.05998948E-10
  -6.50000002E-04    -2.87353197E-10
  -6.00000028E-04    -2.68192052E-10
  -5.49999997E-04    -2.48151139E-10
  -5.00000024E-04    -2.26966126E-10
  -4.49999992E-04    -2.04600434E-10
  -3.99999990E-04    -1.81275647E-10
  -3.49999988E-04    -1.57392779E-10
  -3.00000014E-04    -1.33374242E-10
  -2.50000012E-04    -1.09498577E-10
  -1.99999995E-04    -8.57957108E-11
  -1.50000007E-04    -6.20571511E-11
  -9.99999975E-05    -3.79508473E-11
  -4.99999987E-05    -1.31912111E-11
   0.00000000         1.23077173E-11
   4.99999987E-05     3.83660499E-11
   9.99999975E-05     6.45836717E-11
   1.50000007E-04     9.04783401E-11
   1.99999995E-04     1.15659989E-10
   2.50000012E-04     1.39966483E-10
   3.00000014E-04     1.63500546E-10
   3.49999988E-04     1.86547611E-10
   3.99999990E-04     2.09407894E-10
   4.49999992E-04     2.32223255E-10