  -3.99999991E-02     1.00000002E-24
  -3.99499983E-02     1.00000002E-24
  -3.99000011E-02     1.00000012E-24
  -3.98500003E-02     9.87035042E-15
  -3.97999994E-02     4.85285809E-14
  -3.97499986E-02     1.27368832E-13
  -3.97000015E-02     2.42807049E-13
  -3.96500006E-02     3.96260417E-13
  -3.95999998E-02     6.17112156E-13
  -3.95499989E-02     9.46816735E-13
  -3.95000018E-02     1.38791962E-12
  -3.94500010E-02     1.87903729E-12
  -3.94000001E-02     2.34264387E-12
  -3.93499993E-02     2.76796164E-12
  -3.92999984E-02     3.23768659E-12
  -3.92500013E-02     3.86252705E-12
  -3.92000005E-02     4.69516570E-12
  -3.91499996E-02     5.72147277E-12
  -3.90999988E-02     6.93009669E-12
  -3.90500017E-02     8.35853695E-12
  -3.90000008E-02     1.00411320E-11
  -3.89500000E-02     1.19187854E-11
  -3.88999991E-02     1.38420369E-11
  -3.88499983E-02     1.57016136E-11
  -3.88000011E-02     1.75580106E-11
  -3.87500003E-02     1.96167180E-11
  -3.86999995E-02     2.20570662E-11
  -3.86499986E-02     2.48888757E-11
  -3.86000015E-02     2.79806699E-11
  -3.85500006E-02     3.12065547E-11
  -3.84999998E-02     3.45312320E-11
  -3.84499989E-02     3.79498759E-11
  -3.84000018E-02     4.13987976E-11
  -3.83500010E-02     4.47977835E-11
  -3.83000001E-02     4.82072680E-11
  -3.82499993E-02     5.19011258E-11
  -3.81999984E-02     5.62118616E-11
  -3.81500013E-02     6.12588452E-11
  -3.81000005E-02     6.68263361E-11
  -3.80499996E-02     7.25192753E-11
  -3.79999988E-02     7.80388879E-11
  -3.79500017E-02     8.33145289E-11
  -3.79000008E-02     8.84172249E-11
  -3.78500000E-02     9.34291117E-11
  -3.77999991E-02     9.84495332E-11
  -3.77499983E-02     1.03689710E-10
  -3.77000012E-02     1.09447035E-10
  -3.76500003E-02     1.15880493E-10
  -3.75999995E-02     1.22785823E-10
  -3.75499986E-02     1.29642713E-10
  -3.75000015E-02     1.35953929E-10
  -3.74500006E-02     1.41587062E-10
  -3.73999998E-02     1.46817947E-10
  -3.73499990E-02     1.52077503E-10
  -3.73000018E-02     1.57678065E-10
  -3.72500010E-02     1.63743921E-10
  -3.72000001E-02     1.70288741E-10
  -3.71499993E-02     1.77230536E-10
  -3.70999984E-02     1.84289306E-10
  -3.70500013E-02     1.90956251E-10
  -3.70000005E-02     1.96714700E-10
  -3.69499996E-02     2.01407044E-10
  -3.68999988E-02     2.05410966E-10
  -3.68500017E-02     2.09413459E-10
  -3.68000008E-02     2.13945084E-10
  -3.67500000E-02     2.19060312E-10
  -3.66999991E-02     2.24384261E-10
  -3.66499983E-02     2.29392894E-10
  -3.66000012E-02     2.33640496E-10
  -3.65500003E-02     2.36824255E-10
  -3.64999995E-02     2.38812831E-10
  -3.64499986E-02     2.39761294E-10
  -3.64000015E-02     2.40206910E-10
  -3.63500006E-02     2.40919867E-10
  -3.62999998E-02     2.42472570E-10
  -3.62499990E-02     2.44815140E-10
  -3.62000018E-02     2.47222215E-10
  -3.61500010E-02     2.48688820E-10
  -3.61000001E-02     2.48476489E-10
  -3.60499993E-02     2.46425297E-10
  -3.59999985E-02     2.42903503E-10
  -3.59500013E-02     2.38566167E-10
  -3.59000005E-02     2.34131964E-10
  -3.58499996E-02     2.30206451E-10
  -3.57999988E-02     2.27065922E-10
  -3.57500017E-02     2.24429780E-10
  -3.57000008E-02     2.21431831E-10
  -3.56500000E-02     2.16963461E-10
  -3.55999991E-02     2.10267151E-10
  -3.55499983E-02     2.01390543E-10
  -3.55000012E-02     1.91168054E-10
  -3.54500003E-02     1.80751164E-10
  -3.53999995E-02     1.71030023E-10
  -3.53499986E-02     1.62295261E-10
  -3.53000015E-02     1.54230989E-10
  -3.52500007E-02     1.46102699E-10
  -3.51999998E-02     1.37004103E-10
  -3.51499990E-02     1.26149965E-10
  -3.51000018E-02     1.13222424E-10
  -3.50500010E-02     9.86358356E-11
  -3.50000001E-02     8.34788419E-11
  -3.49499993E-02     6.90314403E-11
  -3.48999985E-02     5.60807269E-11
  -3.48500013E-02     4.44724257E-11
  -3.48000005E-02     3.32041790E-11
  -3.47499996E-02     2.09831996E-11
  -3.46999988E-02     6.87174536E-12
  -3.46500017E-02    -9.33293980E-12
  -3.46000008E-02    -2.70779735E-11
  -3.45500000E-02    -4.52744404E-11
  -3.44999991E-02    -6.26343838E-11
  -3.44499983E-02    -7.80939341E-11
  -3.44000012E-02    -9.12698458E-11
  -3.43500003E-02    -1.02744105E-10
  -3.42999995E-02    -1.13906447E-10
  -3.42499986E-02    -1.26296154E-10
  -3.42000015E-02    -1.40764511E-10
  -3.41500007E-02    -1.56980054E-10
  -3.40999998E-02    -1.73595180E-10
  -3.40499990E-02    -1.88933147E-10
  -3.40000018E-02    -2.01740902E-10
  -3.39500010E-02    -2.11623732E-10
  -3.39000002E-02    -2.19086430E-10
  -3.38499993E-02    -2.25313698E-10
  -3.37999985E-02    -2.31784661E-10
  -3.37500013E-02    -2.39725489E-10
  -3.37000005E-02    -2.49494370E-10
  -3.36499996E-02    -2.60216265E-10
  -3.35999988E-02    -2.70022421E-10
  -3.35500017E-02    -2.76909523E-10
  -3.35000008E-02    -2.79747753E-10
  -3.34500000E-02    -2.78797346E-10
  -3.33999991E-02    -2.75440254E-10
  -3.33499983E-02    -2.71389800E-10
  -3.33000012E-02    -2.67912942E-10
  -3.32500003E-02    -2.65405975E-10
  -3.31999995E-02    -2.63317590E-10
  -3.31499986E-02    -2.60297894E-10
  -3.31000015E-02    -2.54588711E-10
  -3.30500007E-02    -2.44713638E-10
  -3.29999998E-02    -2.30277949E-10
  -3.29499990E-02    -2.12375798E-10
  -3.29000019E-02    -1.93182526E-10
  -3.28500010E-02    -1.74854714E-10
  -3.28000002E-02    -1.58418528E-10
  -3.27499993E-02    -1.43346793E-10
  -3.26999985E-02    -1.27982014E-10
  -3.26500013E-02    -1.10381537E-10
  -3.26000005E-02    -8.90550619E-11
  -3.25499997E-02    -6.33905775E-11
  -3.24999988E-02    -3.38400939E-11
  -3.24500017E-02    -1.86536680E-12
  -3.24000008E-02     3.05361188E-11
  -3.23500000E-02     6.17719001E-11
  -3.22999991E-02     9.16467874E-11
  -3.22499983E-02     1.21705299E-10
  -3.22000012E-02     1.54548985E-10
  -3.21500003E-02     1.92505928E-10
  -3.20999995E-02     2.36514530E-10
  -3.20499986E-02     2.85852536E-10
  -3.20000015E-02     3.38661738E-10
  -3.19500007E-02     3.92769289E-10
  -3.18999998E-02     4.46412185E-10
  -3.18499990E-02     4.98803665E-10
  -3.18000019E-02     5.50538837E-10
  -3.17500010E-02     6.03599282E-10
  -3.17000002E-02     6.60650756E-10
  -3.16499993E-02     7.23754168E-10
  -3.15999985E-02     7.93200339E-10
  -3.15500014E-02     8.67280192E-10
  -3.15000005E-02     9.43180645E-10
  -3.14499997E-02     1.01838360E-09
  -3.13999988E-02     1.09167952E-09
  -3.13500017E-02     1.16336352E-09
  -3.13000008E-02     1.23481192E-09
  -3.12500000E-02     1.30783850E-09
  -3.11999992E-02     1.38399914E-09
  -3.11500002E-02     1.46385049E-09
  -3.10999993E-02     1.54636737E-09
  -3.10500003E-02     1.62898739E-09
  -3.09999995E-02     1.70856196E-09
  -3.09500005E-02     1.78282744E-09
  -3.08999997E-02     1.85147941E-09
  -3.08500007E-02     1.91612837E-09
  -3.07999998E-02     1.97922345E-09
  -3.07500008E-02     2.04270845E-09
  -3.07000000E-02     2.10716844E-09
  -3.06499992E-02     2.17169216E-09
  -3.06000002E-02     2.23422125E-09
  -3.05499993E-02     2.29217378E-09
  -3.05000003E-02     2.34330488E-09
  -3.04499995E-02     2.38668418E-09
  -3.04000005E-02     2.42332909E-09
  -3.03499997E-02     2.45593279E-09
  -3.03000007E-02     2.48760079E-09
  -3.02499998E-02     2.52025623E-09
  -3.02000009E-02     2.55370103E-09
  -3.01500000E-02     2.58587107E-09
  -3.00999992E-02     2.61398725E-09
  -3.00500002E-02     2.63584510E-09
  -2.99999993E-02     2.65065192E-09
  -2.99500003E-02     2.65927458E-09
  -2.98999995E-02     2.66401212E-09
  -2.98500005E-02     2.66792810E-09
  -2.97999997E-02     2.67377409E-09
  -2.97500007E-02     2.68281908E-09
  -2.96999998E-02     2.69422662E-09
  -2.96500009E-02     2.70550404E-09
  -2.96000000E-02     2.71390133E-09
  -2.95499992E-02     2.71794920E-09
  -2.95000002E-02     2.71821854E-09
  -2.94499993E-02     2.71695533E-09
  -2.94000003E-02     2.71697442E-09
  -2.93499995E-02     2.72048650E-09
  -2.93000005E-02     2.72832201E-09
  -2.92499997E-02     2.73966183E-09
  -2.92000007E-02     2.75227530E-09
  -2.91499998E-02     2.76328826E-09
  -2.91000009E-02     2.77037659E-09
  -2.90500000E-02     2.77292100E-09
  -2.89999992E-02     2.77243184E-09
  -2.89500002E-02     2.77184675E-09
  -2.88999993E-02     2.77400325E-09
  -2.88500004E-02     2.78017587E-09
  -2.87999995E-02     2.78949885E-09
  -2.87500005E-02     2.79947709E-09
  -2.86999997E-02     2.80714074E-09
  -2.86500007E-02     2.81020185E-09
  -2.85999998E-02     2.80781154E-09
  -2.85500009E-02     2.80079115E-09
  -2.85000000E-02     2.79130230E-09
  -2.84499992E-02     2.78193091E-09
  -2.84000002E-02     2.77438938E-09
  -2.83499993E-02     2.76840173E-09
  -2.83000004E-02     2.76147305E-09
  -2.82499995E-02     2.74983503E-09
  -2.82000005E-02     2.73011125E-09
  -2.81499997E-02     2.70075073E-09
  -2.81000007E-02     2.66245959E-09
  -2.80499998E-02     2.61754840E-09
  -2.80000009E-02     2.56872346E-09
  -2.79500000E-02     2.51795229E-09
  -2.78999992E-02     2.46575094E-09
  -2.78500002E-02     2.41098119E-09
  -2.77999993E-02     2.35122366E-09
  -2.77500004E-02     2.28376074E-09
  -2.76999995E-02     2.20694374E-09
  -2.76500005E-02     2.12126738E-09
  -2.75999997E-02     2.02943573E-09
  -2.75500007E-02     1.93521732E-09
  -2.74999999E-02     1.84172355E-09
  -2.74500009E-02     1.75013837E-09
  -2.74000000E-02     1.65957792E-09
  -2.73499992E-02     1.56794389E-09
  -2.73000002E-02     1.47312063E-09
  -2.72499993E-02     1.37396083E-09
  -2.72000004E-02     1.27083621E-09
  -2.71499995E-02     1.16574639E-09
  -2.71000005E-02     1.06184617E-09
  -2.70499997E-02     9.62318558E-10
  -2.70000007E-02     8.68930317E-10
  -2.69499999E-02     7.81082143E-10
  -2.69000009E-02     6.96088964E-10
  -2.68500000E-02     6.10673068E-10
  -2.67999992E-02     5.22769605E-10
  -2.67500002E-02     4.32543001E-10
  -2.66999993E-02     3.42168016E-10
  -2.66500004E-02     2.54757798E-10
  -2.65999995E-02     1.73166412E-10
  -2.65500005E-02     9.90755464E-11
  -2.64999997E-02     3.24441966E-11
  -2.64500007E-02    -2.86029481E-11
  -2.63999999E-02    -8.71582251E-11
  -2.63500009E-02    -1.46145832E-10
  -2.63000000E-02    -2.06710662E-10
  -2.62499992E-02    -2.67425970E-10
  -2.62000002E-02    -3.24966831E-10
  -2.61499994E-02    -3.75888792E-10
  -2.61000004E-02    -4.18364093E-10
  -2.60499995E-02    -4.52874044E-10
  -2.60000005E-02    -4.81725215E-10
  -2.59499997E-02    -5.07979492E-10
  -2.59000007E-02    -5.34383759E-10
  -2.58499999E-02    -5.62492497E-10
  -2.58000009E-02    -5.92032534E-10
  -2.57500000E-02    -6.20797025E-10
  -2.56999992E-02    -6.45475839E-10
  -2.56500002E-02    -6.63307187E-10
  -2.55999994E-02    -6.73669731E-10
  -2.55500004E-02    -6.78512746E-10
  -2.54999995E-02    -6.81258050E-10
  -2.54500005E-02    -6.84917012E-10
  -2.53999997E-02    -6.90664526E-10
  -2.53500007E-02    -6.97552405E-10
  -2.52999999E-02    -7.03173297E-10
  -2.52500009E-02    -7.04669711E-10
  -2.52000000E-02    -6.99727443E-10
  -2.51499992E-02    -6.87473523E-10
  -2.51000002E-02    -6.69106104E-10
  -2.50499994E-02    -6.47749743E-10
  -2.50000004E-02    -6.27197350E-10
  -2.49499995E-02    -6.10010265E-10
  -2.49000005E-02    -5.96124317E-10
  -2.48499997E-02    -5.82925930E-10
  -2.48000007E-02    -5.66760638E-10
  -2.47499999E-02    -5.44822465E-10
  -2.47000009E-02    -5.16318432E-10
  -2.46500000E-02    -4.82536455E-10
  -2.45999992E-02    -4.46152865E-10
  -2.45500002E-02    -4.10264128E-10
  -2.44999994E-02    -3.77303272E-10
  -2.44500004E-02    -3.47970486E-10
  -2.43999995E-02    -3.20655835E-10
  -2.43500005E-02    -2.91922958E-10
  -2.42999997E-02    -2.58139676E-10
  -2.42500007E-02    -2.17445076E-10
  -2.41999999E-02    -1.70813641E-10
  -2.41500009E-02    -1.21531868E-10
  -2.41000000E-02    -7.35177197E-11
  -2.40499992E-02    -2.95883734E-11
  -2.40000002E-02     9.46261732E-12
  -2.39499994E-02     4.48240368E-11
  -2.39000004E-02     7.90113738E-11
  -2.38499995E-02     1.14859906E-10
  -2.38000005E-02     1.54320334E-10
  -2.37499997E-02     1.97355646E-10
  -2.37000007E-02     2.41578563E-10
  -2.36499999E-02     2.83116253E-10
  -2.36000009E-02     3.18458621E-10
  -2.35500000E-02     3.46240148E-10
  -2.34999992E-02     3.67843672E-10
  -2.34500002E-02     3.86490284E-10
  -2.33999994E-02     4.05489337E-10
  -2.33500004E-02     4.26677305E-10
  -2.32999995E-02     4.49727866E-10
  -2.32500006E-02     4.72360151E-10
  -2.31999997E-02     4.91119700E-10
  -2.31500007E-02     5.02575093E-10
  -2.30999999E-02     5.04639386E-10
  -2.30500009E-02     4.97564712E-10
  -2.30000000E-02     4.83931450E-10
  -2.29499992E-02     4.67389405E-10
  -2.29000002E-02     4.50634446E-10
  -2.28499994E-02     4.33816483E-10
  -2.28000004E-02     4.14320883E-10
  -2.27499995E-02     3.88011151E-10
  -2.27000006E-02     3.51071699E-10
  -2.26499997E-02     3.01494968E-10
  -2.26000007E-02     2.39607889E-10
  -2.25499999E-02     1.67737518E-10
  -2.25000009E-02     8.92346821E-11
  -2.24500000E-02     7.09647705E-12
  -2.23999992E-02    -7.74398809E-11
  -2.23500002E-02    -1.65752218E-10
  -2.22999994E-02    -2.61524968E-10
  -2.22500004E-02    -3.69187181E-10
  -2.21999995E-02    -4.91845342E-10
  -2.21500006E-02    -6.29871266E-10
  -2.20999997E-02    -7.81048337E-10
  -2.20500007E-02    -9.41983935E-10
  -2.19999999E-02    -1.10995124E-09
  -2.19500009E-02    -1.28416100E-09
  -2.19000001E-02    -1.46608448E-09
  -2.18499992E-02    -1.65888014E-09
  -2.18000002E-02    -1.86628912E-09
  -2.17499994E-02    -2.09121942E-09
  -2.17000004E-02    -2.33445752E-09
  -2.16499995E-02    -2.59410848E-09
  -2.16000006E-02    -2.86632851E-09
  -2.15499997E-02    -3.14719162E-09
  -2.15000007E-02    -3.43476647E-09
  -2.14499999E-02    -3.73016906E-09
  -2.14000009E-02    -4.03696321E-09
  -2.13500001E-02    -4.35936931E-09
  -2.12999992E-02    -4.70032591E-09
  -2.12500002E-02    -5.06039566E-09
  -2.11999994E-02    -5.43772893E-09
  -2.11500004E-02    -5.82888982E-09
  -2.10999995E-02    -6.23017238E-09
  -2.10500006E-02    -6.63911637E-09
  -2.09999997E-02    -7.05579106E-09
  -2.09500007E-02    -7.48308615E-09
  -2.08999999E-02    -7.92555710E-09
  -2.08500009E-02    -8.38721004E-09
  -2.08000001E-02    -8.86941454E-09
  -2.07499992E-02    -9.37015532E-09
  -2.07000002E-02    -9.88513449E-09
  -2.06499994E-02    -1.04098579E-08
  -2.06000004E-02    -1.09415579E-08
  -2.05499995E-02    -1.14800516E-08
  -2.05000006E-02    -1.20275692E-08
  -2.04499997E-02    -1.25877886E-08
  -2.04000007E-02    -1.31643541E-08
  -2.03499999E-02    -1.37592773E-08
  -2.03000009E-02    -1.43716878E-08
  -2.02500001E-02    -1.49978181E-08
  -2.01999992E-02    -1.56326152E-08
  -2.01500002E-02    -1.62722227E-08
  -2.00999994E-02    -1.69159691E-08
  -2.00500004E-02    -1.75665722E-08
  -1.99999996E-02    -1.82285067E-08
  -1.99500006E-02    -1.89057268E-08
  -1.98999997E-02    -1.95999554E-08
  -1.98500007E-02    -2.03101109E-08
  -1.97999999E-02    -2.10328199E-08
  -1.97500009E-02    -2.17635421E-08
  -1.97000001E-02    -2.24982077E-08
  -1.96499992E-02    -2.32350796E-08
  -1.96000002E-02    -2.39757476E-08
  -1.95499994E-02    -2.47246312E-08
  -1.95000004E-02    -2.54867452E-08
  -1.94499996E-02    -2.62648783E-08
  -1.94000006E-02    -2.70579061E-08
  -1.93499997E-02    -2.78613044E-08
  -1.93000007E-02    -2.86692519E-08
  -1.92499999E-02    -2.94771336E-08
  -1.92000009E-02    -3.02831147E-08
  -1.91500001E-02    -3.10885149E-08
  -1.90999992E-02    -3.18972084E-08
  -1.90500002E-02    -3.27140945E-08
  -1.89999994E-02    -3.35430030E-08
  -1.89500004E-02    -3.43846658E-08
  -1.88999996E-02    -3.52357610E-08
  -1.88500006E-02    -3.60900678E-08
  -1.87999997E-02    -3.69413442E-08
  -1.87500007E-02    -3.77862825E-08
  -1.86999999E-02    -3.86258705E-08
  -1.86500009E-02    -3.94644175E-08
  -1.86000001E-02    -4.03070146E-08
  -1.85499992E-02    -4.11571541E-08
  -1.85000002E-02    -4.20151913E-08
  -1.84499994E-02    -4.28780993E-08
  -1.84000004E-02    -4.37403145E-08
  -1.83499996E-02    -4.45955699E-08
  -1.83000006E-02    -4.54393394E-08
  -1.82499997E-02    -4.62710261E-08
  -1.82000007E-02    -4.70944492E-08
  -1.81499999E-02    -4.79159787E-08
  -1.81000009E-02    -4.87411143E-08
  -1.80500001E-02    -4.95715611E-08
  -1.79999992E-02    -5.04043420E-08
  -1.79500002E-02    -5.12333038E-08
  -1.78999994E-02    -5.20519308E-08
  -1.78500004E-02    -5.28559703E-08
  -1.77999996E-02    -5.36448326E-08
  -1.77500006E-02    -5.44216334E-08
  -1.76999997E-02    -5.51920678E-08
  -1.76500008E-02    -5.59620901E-08
  -1.75999999E-02    -5.67349865E-08
  -1.75500009E-02    -5.75092756E-08
  -1.75000001E-02    -5.82786974E-08
  -1.74499992E-02    -5.90349138E-08
  -1.74000002E-02    -5.97714731E-08
  -1.73499994E-02    -6.04868049E-08
  -1.73000004E-02    -6.11846431E-08
  -1.72499996E-02    -6.18719014E-08
  -1.72000006E-02    -6.25554222E-08
  -1.71499997E-02    -6.32393053E-08
  -1.71000008E-02    -6.39234585E-08
  -1.70499999E-02    -6.46034550E-08
  -1.70000009E-02    -6.52720331E-08
  -1.69500001E-02    -6.59219239E-08
  -1.68999992E-02    -6.65493189E-08
  -1.68500002E-02    -6.71561580E-08
  -1.67999994E-02    -6.77495322E-08
  -1.67500004E-02    -6.83382879E-08
  -1.66999996E-02    -6.89285429E-08
  -1.66500006E-02    -6.95209792E-08
  -1.65999997E-02    -7.01108362E-08
  -1.65500008E-02    -7.06905752E-08
  -1.64999999E-02    -7.12530479E-08
  -1.64500009E-02    -7.17942896E-08
  -1.64000001E-02    -7.23150464E-08
  -1.63499992E-02    -7.28207894E-08
  -1.63000003E-02    -7.33199172E-08
  -1.62499994E-02    -7.38203880E-08
  -1.62000004E-02    -7.43256621E-08
  -1.61499996E-02    -7.48327054E-08
  -1.61000006E-02    -7.53332472E-08
  -1.60499997E-02    -7.58181358E-08
  -1.60000008E-02    -7.62820491E-08
  -1.59499999E-02    -7.67258115E-08
  -1.59000009E-02    -7.71556969E-08
  -1.58500001E-02    -7.75806086E-08
  -1.57999992E-02    -7.80086538E-08
  -1.57500003E-02    -7.84443017E-08
  -1.56999994E-02    -7.88865293E-08
  -1.56500004E-02    -7.93288848E-08
  -1.55999996E-02    -7.97617332E-08
  -1.55499997E-02    -8.01767754E-08
  -1.54999997E-02    -8.05714748E-08
  -1.54499998E-02    -8.09507910E-08
  -1.53999999E-02    -8.13248064E-08
  -1.53500000E-02    -8.17037389E-08
  -1.53000001E-02    -8.20932158E-08
  -1.52500002E-02    -8.24923490E-08
  -1.52000003E-02    -8.28946725E-08
  -1.51500003E-02    -8.32910914E-08
  -1.51000004E-02    -8.36733136E-08
  -1.50499996E-02    -8.40370760E-08
  -1.49999997E-02    -8.43843964E-08
  -1.49499997E-02    -8.47235810E-08
  -1.48999998E-02    -8.50659561E-08
  -1.48499999E-02    -8.54206164E-08
  -1.48000000E-02    -8.57896438E-08
  -1.47500001E-02    -8.61671126E-08
  -1.47000002E-02    -8.65421796E-08
  -1.46500003E-02    -8.69045991E-08
  -1.46000003E-02    -8.72490560E-08
  -1.45500004E-02    -8.75767583E-08
  -1.44999996E-02    -8.78944491E-08
  -1.44499997E-02    -8.82117703E-08
  -1.43999998E-02    -8.85375115E-08
  -1.43499998E-02    -8.88758223E-08
  -1.42999999E-02    -8.92235832E-08
  -1.42500000E-02    -8.95710031E-08
  -1.42000001E-02    -8.99058747E-08
  -1.41500002E-02    -9.02196220E-08
  -1.41000003E-02    -9.05115272E-08
  -1.40500003E-02    -9.07888875E-08
  -1.40000004E-02    -9.10630220E-08
  -1.39499996E-02    -9.13439635E-08
  -1.38999997E-02    -9.16363163E-08
  -1.38499998E-02    -9.19378138E-08
  -1.37999998E-02    -9.22401924E-08
  -1.37499999E-02    -9.25317991E-08
  -1.37000000E-02    -9.28022246E-08
  -1.36500001E-02    -9.30468573E-08
  -1.36000002E-02    -9.32697617E-08
  -1.35500003E-02    -9.34820079E-08
  -1.35000004E-02    -9.36964355E-08
  -1.34500004E-02    -9.39210523E-08
  -1.33999996E-02    -9.41552045E-08
  -1.33499997E-02    -9.43903586E-08
  -1.32999998E-02    -9.46142791E-08
  -1.32499998E-02    -9.48161301E-08
  -1.31999999E-02    -9.49904262E-08
  -1.31500000E-02    -9.51388870E-08
  -1.31000001E-02    -9.52700887E-08
  -1.30500002E-02    -9.53964161E-08
  -1.30000003E-02    -9.55287192E-08
  -1.29500004E-02    -9.56709627E-08
  -1.29000004E-02    -9.58178106E-08
  -1.28499996E-02    -9.59571054E-08
  -1.27999997E-02    -9.60758939E-08
  -1.27499998E-02    -9.61668363E-08
  -1.26999998E-02    -9.62310551E-08
  -1.26499999E-02    -9.62768638E-08
  -1.26000000E-02    -9.63158016E-08
  -1.25500001E-02    -9.63578159E-08
  -1.25000002E-02    -9.64073763E-08
  -1.24500003E-02    -9.64611928E-08
  -1.24000004E-02    -9.65088276E-08
  -1.23500004E-02    -9.65366738E-08
  -1.22999996E-02    -9.65342508E-08
  -1.22499997E-02    -9.64997184E-08
  -1.21999998E-02    -9.64413829E-08
  -1.21499998E-02    -9.63738316E-08
  -1.20999999E-02    -9.63111191E-08
  -1.20500000E-02    -9.62607061E-08
  -1.20000001E-02    -9.62210223E-08
  -1.19500002E-02    -9.61827240E-08
  -1.19000003E-02    -9.61323465E-08
  -1.18500004E-02    -9.60574340E-08
  -1.18000004E-02    -9.59514210E-08
  -1.17499996E-02    -9.58167092E-08
  -1.16999997E-02    -9.56638431E-08
  -1.16499998E-02    -9.55068700E-08
  -1.15999999E-02    -9.53564054E-08
  -1.15499999E-02    -9.52144532E-08
  -1.15000000E-02    -9.50739363E-08
  -1.14500001E-02    -9.49228607E-08
  -1.14000002E-02    -9.47505967E-08
  -1.13500003E-02    -9.45528313E-08
  -1.13000004E-02    -9.43336786E-08
  -1.12500004E-02    -9.41043510E-08
  -1.11999996E-02    -9.38792013E-08
  -1.11499997E-02    -9.36701241E-08
  -1.10999998E-02    -9.34813613E-08
  -1.10499999E-02    -9.33067739E-08
  -1.09999999E-02    -9.31322290E-08
  -1.09500000E-02    -9.29416260E-08
  -1.09000001E-02    -9.27246120E-08
  -1.08500002E-02    -9.24810379E-08
  -1.08000003E-02    -9.22208798E-08
  -1.07500004E-02    -9.19597483E-08
  -1.07000005E-02    -9.17125931E-08
  -1.06499996E-02    -9.14881610E-08
  -1.05999997E-02    -9.12862816E-08
  -1.05499998E-02    -9.10985705E-08
  -1.04999999E-02    -9.09124935E-08
  -1.04499999E-02    -9.07173927E-08
  -1.04000000E-02    -9.05101842E-08
  -1.03500001E-02    -9.02977106E-08
  -1.03000002E-02    -9.00942041E-08
  -1.02500003E-02    -8.99149128E-08
  -1.02000004E-02    -8.97695926E-08
  -1.01500005E-02    -8.96587480E-08
  -1.00999996E-02    -8.95743923E-08
  -1.00499997E-02    -8.95045034E-08
  -9.99999978E-03    -8.94387711E-08
  -9.94999986E-03    -8.93737493E-08
  -9.89999995E-03    -8.93154208E-08
  -9.85000003E-03    -8.92775915E-08
  -9.80000012E-03    -8.92768242E-08
  -9.75000020E-03    -8.93258019E-08
  -9.70000029E-03    -8.94281342E-08
  -9.65000037E-03    -8.95772700E-08
  -9.60000046E-03    -8.97601140E-08
  -9.54999961E-03    -8.99638266E-08
  -9.49999969E-03    -9.01823896E-08
  -9.44999978E-03    -9.04199950E-08
  -9.39999986E-03    -9.06901789E-08
  -9.34999995E-03    -9.10109250E-08
  -9.30000003E-03    -9.13981424E-08
  -9.25000012E-03    -9.18600236E-08
  -9.20000020E-03    -9.23946288E-08
  -9.15000029E-03    -9.29918755E-08
  -9.10000037E-03    -9.36389881E-08
  -9.05000046E-03    -9.43277598E-08
  -8.99999961E-03    -9.50594341E-08
  -8.94999970E-03    -9.58455857E-08
  -8.89999978E-03    -9.67039639E-08
  -8.84999987E-03    -9.76518493E-08
  -8.79999995E-03    -9.86997932E-08
  -8.75000004E-03    -9.98486840E-08
  -8.70000012E-03    -1.01090670E-07
  -8.65000021E-03    -1.02413956E-07
  -8.60000029E-03    -1.03809562E-07
  -8.55000038E-03    -1.05276854E-07
  -8.50000046E-03    -1.06825432E-07
  -8.44999962E-03    -1.08472506E-07
  -8.39999970E-03    -1.10236556E-07
  -8.34999979E-03    -1.12130621E-07
  -8.29999987E-03    -1.14158105E-07
  -8.24999996E-03    -1.16313167E-07
  -8.20000004E-03    -1.18584957E-07
  -8.15000013E-03    -1.20964316E-07
  -8.10000021E-03    -1.23450207E-07
  -8.05000030E-03    -1.26052385E-07
  -8.00000038E-03    -1.28789480E-07
  -7.95000046E-03    -1.31683365E-07
  -7.89999962E-03    -1.34751602E-07
  -7.84999970E-03    -1.38002093E-07
  -7.79999979E-03    -1.41431812E-07
  -7.74999987E-03    -1.45030612E-07
  -7.69999996E-03    -1.48787777E-07
  -7.65000004E-03    -1.52698931E-07
  -7.60000013E-03    -1.56770511E-07
  -7.55000021E-03    -1.61019386E-07
  -7.49999983E-03    -1.65467924E-07
  -7.44999992E-03    -1.70136744E-07
  -7.40000000E-03    -1.75038409E-07
  -7.35000009E-03    -1.80174467E-07
  -7.30000017E-03    -1.85537374E-07
  -7.24999979E-03    -1.91116740E-07
  -7.19999988E-03    -1.96906825E-07
  -7.14999996E-03    -2.02912275E-07
  -7.10000005E-03    -2.09148581E-07
  -7.05000013E-03    -2.15638210E-07
  -7.00000022E-03    -2.22403827E-07
  -6.94999984E-03    -2.29461975E-07
  -6.89999992E-03    -2.36819631E-07
  -6.85000001E-03    -2.44474506E-07
  -6.80000009E-03    -2.52419284E-07
  -6.75000018E-03    -2.60648960E-07
  -6.69999979E-03    -2.69167401E-07
  -6.64999988E-03    -2.77989500E-07
  -6.59999996E-03    -2.87138590E-07
  -6.55000005E-03    -2.96639598E-07
  -6.50000013E-03    -3.06511225E-07
  -6.45000022E-03    -3.16762225E-07
  -6.39999984E-03    -3.27391774E-07
  -6.34999992E-03    -3.38393818E-07
  -6.30000001E-03    -3.49763553E-07
  -6.25000009E-03    -3.61503766E-07
  -6.20000018E-03    -3.73628211E-07
  -6.14999980E-03    -3.86160337E-07
  -6.09999988E-03    -3.99128709E-07
  -6.04999997E-03    -4.12557995E-07
  -6.00000005E-03    -4.26462776E-07
  -5.95000014E-03    -4.40845611E-07
  -5.90000022E-03    -4.55702178E-07
  -5.84999984E-03    -4.71028187E-07
  -5.79999993E-03    -4.86826480E-07
  -5.75000001E-03    -5.03109959E-07
  -5.70000010E-03    -5.19901789E-07
  -5.65000018E-03    -5.37231301E-07
  -5.59999980E-03    -5.55127428E-07
  -5.54999989E-03    -5.73611942E-07
  -5.49999997E-03    -5.92694676E-07
  -5.45000006E-03    -6.12375516E-07
  -5.40000014E-03    -6.32650881E-07
  -5.35000023E-03    -6.53522136E-07
  -5.29999984E-03    -6.75001615E-07
  -5.24999993E-03    -6.97112512E-07
  -5.20000001E-03    -7.19884554E-07
  -5.15000010E-03    -7.43347982E-07
  -5.10000018E-03    -7.67526217E-07
  -5.04999980E-03    -7.92433525E-07
  -4.99999989E-03    -8.18075534E-07
  -4.94999997E-03    -8.44452984E-07
  -4.90000006E-03    -8.71568659E-07
  -4.85000014E-03    -8.99433246E-07
  -4.80000023E-03    -9.28069539E-07
  -4.74999985E-03    -9.57509428E-07
  -4.69999993E-03    -9.87787530E-07
  -4.65000002E-03    -1.01893272E-06
  -4.60000010E-03    -1.05096331E-06
  -4.55000019E-03    -1.08388690E-06
  -4.49999981E-03    -1.11770657E-06
  -4.44999989E-03    -1.15242744E-06
  -4.39999998E-03    -1.18806327E-06
  -4.35000006E-03    -1.22463905E-06
  -4.30000015E-03    -1.26218777E-06
  -4.25000023E-03    -1.30074659E-06
  -4.19999985E-03    -1.34034963E-06
  -4.14999994E-03    -1.38102166E-06
  -4.10000002E-03    -1.42277634E-06
  -4.05000011E-03    -1.46561797E-06
  -4.00000019E-03    -1.50954941E-06
  -3.94999981E-03    -1.55458019E-06
  -3.89999989E-03    -1.60073262E-06
  -3.84999998E-03    -1.64804010E-06
  -3.80000006E-03    -1.69654197E-06
  -3.74999992E-03    -1.74627587E-06
  -3.70000000E-03    -1.79727169E-06
  -3.65000009E-03    -1.84954968E-06
  -3.59999994E-03    -1.90312278E-06
  -3.55000002E-03    -1.95800135E-06
  -3.50000011E-03    -2.01419948E-06
  -3.44999996E-03    -2.07173707E-06
  -3.40000005E-03    -2.13064618E-06
  -3.34999990E-03    -2.19096819E-06
  -3.29999998E-03    -2.25274675E-06
  -3.25000007E-03    -2.31601598E-06
  -3.19999992E-03    -2.38079679E-06
  -3.15000000E-03    -2.44710122E-06
  -3.10000009E-03    -2.51493975E-06
  -3.04999994E-03    -2.58432851E-06
  -3.00000003E-03    -2.65529275E-06
  -2.95000011E-03    -2.72786474E-06
  -2.89999996E-03    -2.80208451E-06
  -2.85000005E-03    -2.87799571E-06
  -2.79999990E-03    -2.95564109E-06
  -2.74999999E-03    -3.03505408E-06
  -2.70000007E-03    -3.11625354E-06
  -2.64999992E-03    -3.19925016E-06
  -2.60000001E-03    -3.28405781E-06
  -2.55000009E-03    -3.37070105E-06
  -2.49999994E-03    -3.45921694E-06
  -2.45000003E-03    -3.54964868E-06
  -2.40000011E-03    -3.64204175E-06
  -2.34999997E-03    -3.73643616E-06
  -2.30000005E-03    -3.83286442E-06
  -2.24999990E-03    -3.93135497E-06
  -2.19999999E-03    -4.03192780E-06
  -2.15000007E-03    -4.13459748E-06
  -2.09999993E-03    -4.23938354E-06
  -2.05000001E-03    -4.34631966E-06
  -2.00000009E-03    -4.45545220E-06
  -1.94999995E-03    -4.56683347E-06
  -1.90000003E-03    -4.68051485E-06
  -1.85000000E-03    -4.79653545E-06
  -1.79999997E-03    -4.91492028E-06
  -1.75000005E-03    -5.03569072E-06
  -1.70000002E-03    -5.15886632E-06
  -1.64999999E-03    -5.28447208E-06
  -1.59999996E-03    -5.41253985E-06
  -1.55000004E-03    -5.54310736E-06
  -1.50000001E-03    -5.67622328E-06
  -1.44999998E-03    -5.81193854E-06
  -1.39999995E-03    -5.95030178E-06
  -1.35000004E-03    -6.09134941E-06
  -1.30000000E-03    -6.23510141E-06
  -1.24999997E-03    -6.38157326E-06
  -1.20000006E-03    -6.53078769E-06
  -1.15000003E-03    -6.68278290E-06
  -1.09999999E-03    -6.83760300E-06
  -1.04999996E-03    -6.99529437E-06
  -1.00000005E-03    -7.15590249E-06
  -9.50000016E-04    -7.31947375E-06
  -8.99999985E-04    -7.48604907E-06
  -8.50000011E-04    -7.65566074E-06
  -7.99999980E-04    -7.82832831E-06
  -7.50000007E-04    -8.00406906E-06
  -6.99999975E-04    -8.18290664E-06
  -6.50000002E-04    -8.36488289E-06
  -6.00000028E-04    -8.55004964E-06
  -5.49999997E-04    -8.73846056E-06
  -5.00000024E-04    -8.93016295E-06
  -4.49999992E-04    -9.12518681E-06
  -3.99999990E-04    -9.32355852E-06
  -3.49999988E-04    -9.52530445E-06
  -3.00000014E-04    -9.73044462E-06
  -2.50000012E-04    -9.93900267E-06
  -1.99999995E-04    -1.01510050E-05
  -1.50000007E-04    -1.03664952E-05
  -9.99999975E-05    -1.05855233E-05
  -4.99999987E-05    -1.08081404E-05
   0.00000000        -1.10343944E-05
   4.99999987E-05    -1.12643111E-05
   9.99999975E-05    -1.14979066E-05
   1.50000007E-04    -1.17351974E-05
   1.99999995E-04    -1.19762026E-05
   2.50000012E-04    -1.22209540E-05
   3.00000014E-04    -1.24694943E-05
   3.49999988E-04    -1.27218536E-05
   3.99999990E-04    -1.29780756E-05
   4.49999992E-04    -1.32381992E-05