  -3.99999991E-02     1.00000002E-24
  -3.99499983E-02     1.00000002E-24
  -3.99000011E-02     1.00000002E-24
  -3.98500003E-02    -1.12064285E-16
  -3.97999994E-02    -6.62149795E-16
  -3.97499986E-02    -2.07339372E-15
  -3.97000015E-02    -4.39025266E-15
  -3.96500006E-02    -6.59216605E-15
  -3.95999998E-02    -6.19852189E-15
  -3.95499989E-02     2.54878222E-16
  -3.95000018E-02     1.56912667E-14
  -3.94500010E-02     4.04481102E-14
  -3.94000001E-02     7.07784322E-14
  -3.93499993E-02     9.89578767E-14
  -3.92999984E-02     1.15468006E-13
  -3.92500013E-02     1.12800950E-13
  -3.92000005E-02     8.95071032E-14
  -3.91499996E-02     5.25512014E-14
  -3.90999988E-02     1.62477741E-14
  -3.90500017E-02    -2.74091476E-15
  -3.90000008E-02     7.08367259E-15
  -3.89500000E-02     4.52166855E-14
  -3.88999991E-02     9.65888272E-14
  -3.88499983E-02     1.35435608E-13
  -3.88000011E-02     1.34918295E-13
  -3.87500003E-02     7.89108362E-14
  -3.86999995E-02    -2.92463502E-14
  -3.86499986E-02    -1.65708267E-13
  -3.86000015E-02    -2.94761204E-13
  -3.85500006E-02    -3.84895268E-13
  -3.84999998E-02    -4.25976799E-13
  -3.84499989E-02    -4.39270799E-13
  -3.84000018E-02    -4.73951173E-13
  -3.83500010E-02    -5.89340696E-13
  -3.83000001E-02    -8.29151092E-13
  -3.82499993E-02    -1.19893440E-12
  -3.81999984E-02    -1.65801292E-12
  -3.81500013E-02    -2.13182857E-12
  -3.81000005E-02    -2.54193953E-12
  -3.80499996E-02    -2.84234680E-12
  -3.79999988E-02    -3.04620717E-12
  -3.79500017E-02    -3.22890976E-12
  -3.79000008E-02    -3.50234230E-12
  -3.78500000E-02    -3.96809018E-12
  -3.77999991E-02    -4.66870900E-12
  -3.77499983E-02    -5.55999777E-12
  -3.77000012E-02    -6.52020668E-12
  -3.76500003E-02    -7.39644544E-12
  -3.75999995E-02    -8.07108547E-12
  -3.75499986E-02    -8.51974220E-12
  -3.75000015E-02    -8.83325184E-12
  -3.74500006E-02    -9.18938797E-12
  -3.73999998E-02    -9.78126607E-12
  -3.73499990E-02    -1.07300531E-11
  -3.73000018E-02    -1.20202884E-11
  -3.72500010E-02    -1.34904839E-11
  -3.72000001E-02    -1.48897353E-11
  -3.71499993E-02    -1.59812580E-11
  -3.70999984E-02    -1.66496209E-11
  -3.70500013E-02    -1.69624505E-11
  -3.70000005E-02    -1.71539918E-11
  -3.69499996E-02    -1.75310686E-11
  -3.68999988E-02    -1.83374392E-11
  -3.68500017E-02    -1.96345301E-11
  -3.68000008E-02    -2.12544010E-11
  -3.67500000E-02    -2.28532696E-11
  -3.66999991E-02    -2.40507753E-11
  -3.66499983E-02    -2.45991769E-11
  -3.66000012E-02    -2.45071671E-11
  -3.65500003E-02    -2.40568312E-11
  -3.64999995E-02    -2.36963799E-11
  -3.64499986E-02    -2.38476253E-11
  -3.64000015E-02    -2.47096996E-11
  -3.63500006E-02    -2.61484931E-11
  -3.62999998E-02    -2.77289077E-11
  -3.62499990E-02    -2.88864540E-11
  -3.62000018E-02    -2.91715332E-11
  -3.61500010E-02    -2.84614901E-11
  -3.61000001E-02    -2.70413275E-11
  -3.60499993E-02    -2.55054831E-11
  -3.59999985E-02    -2.45108499E-11
  -3.59500013E-02    -2.44822721E-11
  -3.59000005E-02    -2.54017224E-11
  -3.58499996E-02    -2.67838772E-11
  -3.57999988E-02    -2.78626722E-11
  -3.57500017E-02    -2.79187524E-11
  -3.57000008E-02    -2.66091437E-11
  -3.56500000E-02    -2.41504160E-11
  -3.55999991E-02    -2.12626566E-11
  -3.55499983E-02    -1.88829612E-11
  -3.55000012E-02    -1.77614295E-11
  -3.54500003E-02    -1.81138611E-11
  -3.53999995E-02    -1.94922429E-11
  -3.53499986E-02    -2.09466507E-11
  -3.53000015E-02    -2.14246086E-11
  -3.52500007E-02    -2.02421187E-11
  -3.51999998E-02    -1.74175622E-11
  -3.51499990E-02    -1.37093609E-11
  -3.51000018E-02    -1.03231000E-11
  -3.50500010E-02    -8.40059706E-12
  -3.50000001E-02    -8.50777521E-12
  -3.49499993E-02    -1.03511982E-11
  -3.48999985E-02    -1.28639712E-11
  -3.48500013E-02    -1.46445096E-11
  -3.48000005E-02    -1.45715107E-11
  -3.47499996E-02    -1.23282582E-11
  -3.46999988E-02    -8.59429802E-12
  -3.46500017E-02    -4.79908387E-12
  -3.46000008E-02    -2.52461767E-12
  -3.45500000E-02    -2.80759747E-12
  -3.44999991E-02    -5.64973415E-12
  -3.44499983E-02    -9.96704195E-12
  -3.44000012E-02    -1.40234577E-11
  -3.43500003E-02    -1.61792177E-11
  -3.42999995E-02    -1.56347678E-11
  -3.42499986E-02    -1.28361462E-11
  -3.42000015E-02    -9.34154230E-12
  -3.41500007E-02    -7.18055173E-12
  -3.40999998E-02    -7.96759186E-12
  -3.40499990E-02    -1.21557174E-11
  -3.40000018E-02    -1.87736666E-11
  -3.39500010E-02    -2.57882448E-11
  -3.39000002E-02    -3.09599915E-11
  -3.38499993E-02    -3.28322473E-11
  -3.37999985E-02    -3.14172577E-11
  -3.37500013E-02    -2.82583835E-11
  -3.37000005E-02    -2.58112594E-11
  -3.36499996E-02    -2.63882839E-11
  -3.35999988E-02    -3.11177195E-11
  -3.35500017E-02    -3.93834236E-11
  -3.35000008E-02    -4.90182825E-11
  -3.34500000E-02    -5.71992835E-11
  -3.33999991E-02    -6.16751719E-11
  -3.33499983E-02    -6.17920368E-11
  -3.33000012E-02    -5.88492033E-11
  -3.32500003E-02    -5.55975856E-11
  -3.31999995E-02    -5.50682382E-11
  -3.31499986E-02    -5.92257632E-11
  -3.31000015E-02    -6.80400805E-11
  -3.30500007E-02    -7.94085145E-11
  -3.29999998E-02    -8.99989527E-11
  -3.29499990E-02    -9.66768540E-11
  -3.29000019E-02    -9.79044970E-11
  -3.28500010E-02    -9.44867240E-11
  -3.28000002E-02    -8.93043764E-11
  -3.27499993E-02    -8.61131652E-11
  -3.26999985E-02    -8.79067513E-11
  -3.26500013E-02    -9.55565835E-11
  -3.26000005E-02    -1.07344980E-10
  -3.25499997E-02    -1.19633331E-10
  -3.24999988E-02    -1.28410560E-10
  -3.24500017E-02    -1.31065117E-10
  -3.24000008E-02    -1.27599722E-10
  -3.23500000E-02    -1.20726693E-10
  -3.22999991E-02    -1.14759154E-10
  -3.22499983E-02    -1.13747047E-10
  -3.22000012E-02    -1.19659893E-10
  -3.21500003E-02    -1.31427702E-10
  -3.20999995E-02    -1.45298565E-10
  -3.20499986E-02    -1.56402072E-10
  -3.20000015E-02    -1.60866057E-10
  -3.19500007E-02    -1.57565100E-10
  -3.18999998E-02    -1.48710155E-10
  -3.18499990E-02    -1.38976511E-10
  -3.18000019E-02    -1.33507358E-10
  -3.17500010E-02    -1.35641137E-10
  -3.17000002E-02    -1.45363208E-10
  -3.16499993E-02    -1.59194796E-10
  -3.15999985E-02    -1.71617054E-10
  -3.15500014E-02    -1.77450443E-10
  -3.15000005E-02    -1.74164572E-10
  -3.14499997E-02    -1.63091457E-10
  -3.13999988E-02    -1.48967214E-10
  -3.13500017E-02    -1.37951706E-10
  -3.13000008E-02    -1.34955630E-10
  -3.12500000E-02    -1.41439221E-10
  -3.11999992E-02    -1.54673760E-10
  -3.11500002E-02    -1.68838998E-10
  -3.10999993E-02    -1.77525966E-10
  -3.10500003E-02    -1.76579015E-10
  -3.09999995E-02    -1.66027095E-10
  -3.09500005E-02    -1.50221460E-10
  -3.08999997E-02    -1.36064729E-10
  -3.08500007E-02    -1.30059172E-10
  -3.07999998E-02    -1.35447209E-10
  -3.07500008E-02    -1.50714136E-10
  -3.07000000E-02    -1.70156153E-10
  -3.06499992E-02    -1.86320903E-10
  -3.06000002E-02    -1.93291619E-10
  -3.05499993E-02    -1.89382079E-10
  -3.05000003E-02    -1.78030465E-10
  -3.04499995E-02    -1.66445968E-10
  -3.04000005E-02    -1.62544006E-10
  -3.03499997E-02    -1.71480288E-10
  -3.03000007E-02    -1.93306413E-10
  -3.02499998E-02    -2.22815988E-10
  -3.02000009E-02    -2.51708571E-10
  -3.01500000E-02    -2.72177059E-10
  -3.00999992E-02    -2.80368645E-10
  -3.00500002E-02    -2.78183448E-10
  -2.99999993E-02    -2.72570772E-10
  -2.99500003E-02    -2.72570411E-10
  -2.98999995E-02    -2.85350049E-10
  -2.98500005E-02    -3.12968818E-10
  -2.97999997E-02    -3.51317003E-10
  -2.97500007E-02    -3.91755184E-10
  -2.96999998E-02    -4.24796365E-10
  -2.96500009E-02    -4.44253800E-10
  -2.96000000E-02    -4.50032289E-10
  -2.95499992E-02    -4.48295318E-10
  -2.95000002E-02    -4.48869969E-10
  -2.94499993E-02    -4.60968097E-10
  -2.94000003E-02    -4.89077390E-10
  -2.93499995E-02    -5.30841371E-10
  -2.93000005E-02    -5.77913328E-10
  -2.92499997E-02    -6.19473639E-10
  -2.92000007E-02    -6.46918241E-10
  -2.91499998E-02    -6.57671473E-10
  -2.91000009E-02    -6.56422083E-10
  -2.90500000E-02    -6.53178900E-10
  -2.89999992E-02    -6.58936461E-10
  -2.89500002E-02    -6.80812573E-10
  -2.88999993E-02    -7.18795301E-10
  -2.88500004E-02    -7.65572994E-10
  -2.87999995E-02    -8.09589007E-10
  -2.87500005E-02    -8.40041037E-10
  -2.86999997E-02    -8.51655690E-10
  -2.86500007E-02    -8.47123149E-10
  -2.85999998E-02    -8.36068381E-10
  -2.85500009E-02    -8.30941316E-10
  -2.85000000E-02    -8.41579473E-10
  -2.84499992E-02    -8.70815864E-10
  -2.84000002E-02    -9.13092935E-10
  -2.83499993E-02    -9.56753343E-10
  -2.83000004E-02    -9.89070048E-10
  -2.82499995E-02    -1.00184794E-09
  -2.82000005E-02    -9.95136529E-10
  -2.81499997E-02    -9.77373293E-10
  -2.81000007E-02    -9.61827173E-10
  -2.80499998E-02    -9.60844182E-10
  -2.80000009E-02    -9.80391879E-10
  -2.79500000E-02    -1.01731978E-09
  -2.78999992E-02    -1.06059550E-09
  -2.78500002E-02    -1.09604081E-09
  -2.77999993E-02    -1.11254428E-09
  -2.77500004E-02    -1.10703635E-09
  -2.76999995E-02    -1.08600762E-09
  -2.76500005E-02    -1.06284137E-09
  -2.75999997E-02    -1.05206044E-09
  -2.75500007E-02    -1.06297426E-09
  -2.74999999E-02    -1.09551657E-09
  -2.74500009E-02    -1.14015120E-09
  -2.74000000E-02    -1.18195076E-09
  -2.73499992E-02    -1.20712285E-09
  -2.73000002E-02    -1.20913990E-09
  -2.72499993E-02    -1.19176458E-09
  -2.72000004E-02    -1.16758814E-09
  -2.71499995E-02    -1.15265175E-09
  -2.71000005E-02    -1.15946186E-09
  -2.70499997E-02    -1.19145560E-09
  -2.70000007E-02    -1.24137634E-09
  -2.69499999E-02    -1.29433964E-09
  -2.69000009E-02    -1.33430755E-09
  -2.68500000E-02    -1.35116995E-09
  -2.67999992E-02    -1.34531442E-09
  -2.67500002E-02    -1.32763656E-09
  -2.66999993E-02    -1.31491384E-09
  -2.66500004E-02    -1.32251976E-09
  -2.65999995E-02    -1.35765188E-09
  -2.65500005E-02    -1.41606271E-09
  -2.64999997E-02    -1.48378876E-09
  -2.64500007E-02    -1.54318092E-09
  -2.63999999E-02    -1.58064051E-09
  -2.63500009E-02    -1.59267299E-09
  -2.63000000E-02    -1.58756708E-09
  -2.62499992E-02    -1.58189972E-09
  -2.62000002E-02    -1.59333813E-09
  -2.61499994E-02    -1.63286107E-09
  -2.61000004E-02    -1.69982417E-09
  -2.60499995E-02    -1.78207882E-09
  -2.60000005E-02    -1.86115967E-09
  -2.59499997E-02    -1.92031924E-09
  -2.59000007E-02    -1.95190819E-09
  -2.58499999E-02    -1.96083905E-09
  -2.58000009E-02    -1.96256278E-09
  -2.57500000E-02    -1.97638061E-09
  -2.56999992E-02    -2.01698125E-09
  -2.56500002E-02    -2.08790607E-09
  -2.55999994E-02    -2.17984408E-09
  -2.55500004E-02    -2.27455987E-09
  -2.54999995E-02    -2.35279152E-09
  -2.54500005E-02    -2.40267939E-09
  -2.53999997E-02    -2.42502640E-09
  -2.53500007E-02    -2.43303644E-09
  -2.52999999E-02    -2.44658183E-09
  -2.52500009E-02    -2.48347654E-09
  -2.52000000E-02    -2.55155763E-09
  -2.51499992E-02    -2.64507083E-09
  -2.51000002E-02    -2.74699996E-09
  -2.50499994E-02    -2.83637114E-09
  -2.50000004E-02    -2.89737323E-09
  -2.49499995E-02    -2.92629965E-09
  -2.49000005E-02    -2.93323721E-09
  -2.48499997E-02    -2.93771274E-09
  -2.48000007E-02    -2.96015523E-09
  -2.47499999E-02    -3.01289371E-09
  -2.47000009E-02    -3.09464587E-09
  -2.46500000E-02    -3.19095528E-09
  -2.45999992E-02    -3.28043259E-09
  -2.45500002E-02    -3.34410699E-09
  -2.44999994E-02    -3.37379835E-09
  -2.44500004E-02    -3.37582118E-09
  -2.43999995E-02    -3.36835515E-09
  -2.43500005E-02    -3.37357764E-09
  -2.42999997E-02    -3.40798789E-09
  -2.42500007E-02    -3.47514972E-09
  -2.41999999E-02    -3.56406571E-09
  -2.41500009E-02    -3.65394448E-09
  -2.41000000E-02    -3.72330367E-09
  -2.40499992E-02    -3.75945008E-09
  -2.40000002E-02    -3.76416498E-09
  -2.39499994E-02    -3.75307474E-09
  -2.39000004E-02    -3.74894471E-09
  -2.38499995E-02    -3.77179710E-09
  -2.38000005E-02    -3.83018062E-09
  -2.37499997E-02    -3.91742239E-09
  -2.37000007E-02    -4.01454292E-09
  -2.36499999E-02    -4.09859702E-09
  -2.36000009E-02    -4.15279455E-09
  -2.35500000E-02    -4.17398427E-09
  -2.34999992E-02    -4.17419121E-09
  -2.34500002E-02    -4.17549506E-09
  -2.33999994E-02    -4.20047774E-09
  -2.33500004E-02    -4.26240154E-09
  -2.32999995E-02    -4.35941638E-09
  -2.32500006E-02    -4.47538007E-09
  -2.31999997E-02    -4.58692861E-09
  -2.31500007E-02    -4.67373784E-09
  -2.30999999E-02    -4.72748729E-09
  -2.30500009E-02    -4.75558037E-09
  -2.30000000E-02    -4.77798690E-09
  -2.29499992E-02    -4.81856244E-09
  -2.29000002E-02    -4.89463226E-09
  -2.28499994E-02    -5.00940267E-09
  -2.28000004E-02    -5.15054310E-09
  -2.27499995E-02    -5.29557065E-09
  -2.27000006E-02    -5.42168666E-09
  -2.26499997E-02    -5.51578561E-09
  -2.26000007E-02    -5.58021807E-09
  -2.25499999E-02    -5.63180524E-09
  -2.25000009E-02    -5.69450620E-09
  -2.24500000E-02    -5.78894976E-09
  -2.23999992E-02    -5.92340266E-09
  -2.23500002E-02    -6.09014039E-09
  -2.22999994E-02    -6.26880237E-09
  -2.22500004E-02    -6.43527631E-09
  -2.21999995E-02    -6.57222277E-09
  -2.21500006E-02    -6.67662770E-09
  -2.20999997E-02    -6.76108947E-09
  -2.20500007E-02    -6.84826285E-09
  -2.19999999E-02    -6.96090607E-09
  -2.19500009E-02    -7.11188752E-09
  -2.19000001E-02    -7.29852800E-09
  -2.18499992E-02    -7.50372831E-09
  -2.18000002E-02    -7.70341302E-09
  -2.17499994E-02    -7.87700394E-09
  -2.17000004E-02    -8.01633959E-09
  -2.16499995E-02    -8.12917644E-09
  -2.16000006E-02    -8.23570456E-09
  -2.15499997E-02    -8.35966052E-09
  -2.15000007E-02    -8.51791260E-09
  -2.14499999E-02    -8.71308625E-09
  -2.14000009E-02    -8.93242191E-09
  -2.13500001E-02    -9.15336162E-09
  -2.12999992E-02    -9.35337585E-09
  -2.12500002E-02    -9.51974410E-09
  -2.11999994E-02    -9.65499858E-09
  -2.11500004E-02    -9.77569670E-09
  -2.10999995E-02    -9.90508031E-09
  -2.10500006E-02    -1.00628581E-08
  -2.09999997E-02    -1.02565965E-08
  -2.09500007E-02    -1.04784483E-08
  -2.08999999E-02    -1.07086402E-08
  -2.08500009E-02    -1.09241212E-08
  -2.08000001E-02    -1.11086038E-08
  -2.07499992E-02    -1.12595711E-08
  -2.07000002E-02    -1.13892531E-08
  -2.06499994E-02    -1.15191776E-08
  -2.06000004E-02    -1.16707284E-08
  -2.05499995E-02    -1.18558514E-08
  -2.05000006E-02    -1.20719479E-08
  -2.04499997E-02    -1.23031665E-08
  -2.04000007E-02    -1.25274360E-08
  -2.03499999E-02    -1.27261339E-08
  -2.03000009E-02    -1.28921815E-08
  -2.02500001E-02    -1.30329960E-08
  -2.01999992E-02    -1.31671465E-08
  -2.01500002E-02    -1.33161810E-08
  -2.00999994E-02    -1.34952582E-08
  -2.00500004E-02    -1.37066785E-08
  -1.99999996E-02    -1.39390739E-08
  -1.99500006E-02    -1.41725414E-08
  -1.98999997E-02    -1.43874059E-08
  -1.98500007E-02    -1.45727723E-08
  -1.97999999E-02    -1.47311319E-08
  -1.97500009E-02    -1.48771182E-08
  -1.97000001E-02    -1.50310093E-08
  -1.96499992E-02    -1.52099169E-08
  -1.96000002E-02    -1.54204738E-08
  -1.95499994E-02    -1.56562070E-08
  -1.95000004E-02    -1.59006124E-08
  -1.94499996E-02    -1.61345302E-08
  -1.94000006E-02    -1.63445151E-08
  -1.93499997E-02    -1.65285527E-08
  -1.93000007E-02    -1.66967347E-08
  -1.92499999E-02    -1.68666787E-08
  -1.92000009E-02    -1.70557808E-08
  -1.91500001E-02    -1.72737593E-08
  -1.90999992E-02    -1.75186550E-08
  -1.90500002E-02    -1.77779462E-08
  -1.89999994E-02    -1.80341928E-08
  -1.89500004E-02    -1.82726669E-08
  -1.88999996E-02    -1.84875617E-08
  -1.88500006E-02    -1.86842399E-08
  -1.87999997E-02    -1.88765625E-08
  -1.87500007E-02    -1.90806624E-08
  -1.86999999E-02    -1.93079241E-08
  -1.86500009E-02    -1.95602059E-08
  -1.86000001E-02    -1.98293169E-08
  -1.85499992E-02    -2.01007975E-08
  -1.85000002E-02    -2.03602735E-08
  -1.84499994E-02    -2.05995594E-08
  -1.84000004E-02    -2.08198365E-08
  -1.83499996E-02    -2.10307576E-08
  -1.83000006E-02    -2.12459366E-08
  -1.82499997E-02    -2.14769269E-08
  -1.82000007E-02    -2.17283276E-08
  -1.81499999E-02    -2.19960548E-08
  -1.81000009E-02    -2.22693775E-08
  -1.80500001E-02    -2.25356871E-08
  -1.79999992E-02    -2.27858248E-08
  -1.79500002E-02    -2.30176642E-08
  -1.78999994E-02    -2.32365416E-08
  -1.78500004E-02    -2.34525128E-08
  -1.77999996E-02    -2.36757618E-08
  -1.77500006E-02    -2.39122482E-08
  -1.76999997E-02    -2.41613893E-08
  -1.76500008E-02    -2.44166376E-08
  -1.75999999E-02    -2.46685410E-08
  -1.75500009E-02    -2.49087595E-08
  -1.75000001E-02    -2.51333532E-08
  -1.74499992E-02    -2.53439651E-08
  -1.74000002E-02    -2.55466066E-08
  -1.73499994E-02    -2.57487383E-08
  -1.73000004E-02    -2.59560462E-08
  -1.72499996E-02    -2.61702429E-08
  -1.72000006E-02    -2.63887330E-08
  -1.71499997E-02    -2.66060294E-08
  -1.71000008E-02    -2.68161884E-08
  -1.70499999E-02    -2.70150817E-08
  -1.70000009E-02    -2.72016809E-08
  -1.69500001E-02    -2.73779133E-08
  -1.68999992E-02    -2.75474292E-08
  -1.68500002E-02    -2.77139520E-08
  -1.67999994E-02    -2.78799330E-08
  -1.67500004E-02    -2.80459549E-08
  -1.66999996E-02    -2.82109482E-08
  -1.66500006E-02    -2.83728738E-08
  -1.65999997E-02    -2.85294828E-08
  -1.65500008E-02    -2.86788708E-08
  -1.64999999E-02    -2.88197590E-08
  -1.64500009E-02    -2.89516660E-08
  -1.64000001E-02    -2.90750108E-08
  -1.63499992E-02    -2.91912432E-08
  -1.63000003E-02    -2.93027700E-08
  -1.62499994E-02    -2.94125595E-08
  -1.62000004E-02    -2.95232372E-08
  -1.61499996E-02    -2.96360074E-08
  -1.61000006E-02    -2.97497831E-08
  -1.60499997E-02    -2.98611482E-08
  -1.60000008E-02    -2.99653706E-08
  -1.59499999E-02    -3.00582848E-08
  -1.59000009E-02    -3.01383594E-08
  -1.58500001E-02    -3.02079428E-08
  -1.57999992E-02    -3.02729681E-08
  -1.57500003E-02    -3.03410062E-08
  -1.56999994E-02    -3.04181533E-08
  -1.56500004E-02    -3.05062251E-08
  -1.55999996E-02    -3.06014627E-08
  -1.55499997E-02    -3.06956878E-08
  -1.54999997E-02    -3.07795816E-08
  -1.54499998E-02    -3.08469126E-08
  -1.53999999E-02    -3.08978478E-08
  -1.53500000E-02    -3.09396846E-08
  -1.53000001E-02    -3.09843848E-08
  -1.52500002E-02    -3.10438111E-08
  -1.52000003E-02    -3.11244648E-08
  -1.51500003E-02    -3.12242108E-08
  -1.51000004E-02    -3.13326431E-08
  -1.50499996E-02    -3.14351389E-08
  -1.49999997E-02    -3.15192636E-08
  -1.49499997E-02    -3.15805906E-08
  -1.48999998E-02    -3.16254081E-08
  -1.48499999E-02    -3.16687796E-08
  -1.48000000E-02    -3.17284794E-08
  -1.47500001E-02    -3.18173541E-08
  -1.47000002E-02    -3.19372511E-08
  -1.46500003E-02    -3.20776401E-08
  -1.46000003E-02    -3.22195852E-08
  -1.45500004E-02    -3.23438165E-08
  -1.44999996E-02    -3.24394307E-08
  -1.44499997E-02    -3.25093055E-08
  -1.43999998E-02    -3.25697158E-08
  -1.43499998E-02    -3.26438752E-08
  -1.42999999E-02    -3.27519913E-08
  -1.42500000E-02    -3.29021468E-08
  -1.42000001E-02    -3.30860814E-08
  -1.41500002E-02    -3.32820989E-08
  -1.41000003E-02    -3.34640795E-08
  -1.40500003E-02    -3.36129204E-08
  -1.40000004E-02    -3.37254313E-08
  -1.39499996E-02    -3.38164696E-08
  -1.38999997E-02    -3.39131816E-08
  -1.38499998E-02    -3.40434241E-08
  -1.37999998E-02    -3.42233726E-08
  -1.37499999E-02    -3.44497835E-08
  -1.37000000E-02    -3.47005518E-08
  -1.36500001E-02    -3.49437492E-08
  -1.36000002E-02    -3.51513485E-08
  -1.35500003E-02    -3.53118743E-08
  -1.35000004E-02    -3.54361411E-08
  -1.34500004E-02    -3.55532777E-08
  -1.33999996E-02    -3.56984913E-08
  -1.33499997E-02    -3.58975889E-08
  -1.32999998E-02    -3.61550860E-08
  -1.32499998E-02    -3.64513539E-08
  -1.31999999E-02    -3.67503183E-08
  -1.31500000E-02    -3.70148143E-08
  -1.31000001E-02    -3.72229003E-08
  -1.30500002E-02    -3.73780082E-08
  -1.30000003E-02    -3.75081939E-08
  -1.29500004E-02    -3.76543561E-08
  -1.29000004E-02    -3.78524199E-08
  -1.28499996E-02    -3.81171006E-08
  -1.27999997E-02    -3.84345036E-08
  -1.27499998E-02    -3.87672401E-08
  -1.26999998E-02    -3.90701125E-08
  -1.26499999E-02    -3.93097110E-08
  -1.26000000E-02    -3.94794384E-08
  -1.25500001E-02    -3.96030870E-08
  -1.25000002E-02    -3.97250339E-08
  -1.24500003E-02    -3.98910416E-08
  -1.24000004E-02    -4.01278442E-08
  -1.23500004E-02    -4.04305496E-08
  -1.22999996E-02    -4.07637586E-08
  -1.22499997E-02    -4.10761700E-08
  -1.21999998E-02    -4.13226395E-08
  -1.21499998E-02    -4.14841281E-08
  -1.20999999E-02    -4.15766657E-08
  -1.20500000E-02    -4.16449737E-08
  -1.20000001E-02    -4.17432489E-08
  -1.19500002E-02    -4.19111856E-08
  -1.19000003E-02    -4.21558290E-08
  -1.18500004E-02    -4.24473647E-08
  -1.18000004E-02    -4.27311022E-08
  -1.17499996E-02    -4.29507665E-08
  -1.16999997E-02    -4.30730616E-08
  -1.16499998E-02    -4.31026841E-08
  -1.15999999E-02    -4.30809308E-08
  -1.15499999E-02    -4.30680629E-08
  -1.15000000E-02    -4.31169269E-08
  -1.14500001E-02    -4.32492300E-08
  -1.14000002E-02    -4.34450556E-08
  -1.13500003E-02    -4.36505161E-08
  -1.13000004E-02    -4.38006360E-08
  -1.12500004E-02    -4.38476171E-08
  -1.11999996E-02    -4.37821512E-08
  -1.11499997E-02    -4.36382095E-08
  -1.10999998E-02    -4.34787886E-08
  -1.10499999E-02    -4.33685585E-08
  -1.09999999E-02    -4.33451781E-08
  -1.09500000E-02    -4.34018936E-08
  -1.09000001E-02    -4.34894574E-08
  -1.08500002E-02    -4.35367724E-08
  -1.08000003E-02    -4.34816627E-08
  -1.07500004E-02    -4.32982930E-08
  -1.07000005E-02    -4.30091518E-08
  -1.06499996E-02    -4.26759463E-08
  -1.05999997E-02    -4.23730562E-08
  -1.05499998E-02    -4.21548627E-08
  -1.04999999E-02    -4.20313846E-08
  -1.04499999E-02    -4.19629416E-08
  -1.04000000E-02    -4.18767456E-08
  -1.03500001E-02    -4.16983141E-08
  -1.03000002E-02    -4.13842933E-08
  -1.02500003E-02    -4.09420799E-08
  -1.02000004E-02    -4.04275013E-08
  -1.01500005E-02    -3.99210798E-08
  -1.00999996E-02    -3.94930595E-08
  -1.00499997E-02    -3.91723027E-08
  -9.99999978E-03    -3.89329884E-08
  -9.94999986E-03    -3.87051315E-08
  -9.89999995E-03    -3.84047318E-08
  -9.85000003E-03    -3.79706009E-08
  -9.80000012E-03    -3.73917324E-08
  -9.75000020E-03    -3.67129687E-08
  -9.70000029E-03    -3.60161962E-08
  -9.65000037E-03    -3.53849501E-08
  -9.60000046E-03    -3.48677354E-08
  -9.54999961E-03    -3.44562991E-08
  -9.49999969E-03    -3.40884974E-08
  -9.44999978E-03    -3.36750432E-08
  -9.39999986E-03    -3.31385444E-08
  -9.34999995E-03    -3.24479252E-08
  -9.30000003E-03    -3.16329540E-08
  -9.25000012E-03    -3.07721812E-08
  -9.20000020E-03    -2.99592422E-08
  -9.15000029E-03    -2.92620719E-08
  -9.10000037E-03    -2.86928579E-08
  -9.05000046E-03    -2.82021020E-08
  -8.99999961E-03    -2.76997696E-08
  -8.94999970E-03    -2.70945328E-08
  -8.89999978E-03    -2.63340976E-08
  -8.84999987E-03    -2.54288661E-08
  -8.79999995E-03    -2.44483580E-08
  -8.75000004E-03    -2.34915429E-08
  -8.70000012E-03    -2.26438512E-08
  -8.65000021E-03    -2.19396199E-08
  -8.60000029E-03    -2.13465370E-08
  -8.55000038E-03    -2.07791899E-08
  -8.50000046E-03    -2.01361132E-08
  -8.44999962E-03    -1.93443483E-08
  -8.39999970E-03    -1.83919422E-08
  -8.34999979E-03    -1.73340329E-08
  -8.29999987E-03    -1.62694835E-08
  -8.24999996E-03    -1.52980686E-08
  -8.20000004E-03    -1.44767585E-08
  -8.15000013E-03    -1.37943950E-08
  -8.10000021E-03    -1.31759785E-08
  -8.05000030E-03    -1.25151454E-08
  -8.00000038E-03    -1.17206920E-08
  -7.95000046E-03    -1.07569704E-08
  -7.89999962E-03    -9.66022462E-09
  -7.84999970E-03    -8.52351612E-09
  -7.79999979E-03    -7.45651718E-09
  -7.74999987E-03    -6.53757226E-09
  -7.69999996E-03    -5.77907411E-09
  -7.65000004E-03    -5.12144593E-09
  -7.60000013E-03    -4.45870318E-09
  -7.55000021E-03    -3.68464792E-09
  -7.49999983E-03    -2.73960055E-09
  -7.44999992E-03    -1.63705960E-09
  -7.40000000E-03    -4.58574817E-10
  -7.35000009E-03     6.81399714E-10
  -7.30000017E-03     1.68539982E-09
  -7.24999979E-03     2.51580334E-09
  -7.19999988E-03     3.21180149E-09
  -7.14999996E-03     3.87279941E-09
  -7.10000005E-03     4.61524685E-09
  -7.05000013E-03     5.52156409E-09
  -7.00000022E-03     6.60367316E-09
  -6.94999984E-03     7.79713361E-09
  -6.89999992E-03     8.98874752E-09
  -6.85000001E-03     1.00657713E-08
  -6.80000009E-03     1.09653060E-08
  -6.75000018E-03     1.17022028E-08
  -6.69999979E-03     1.23630430E-08
  -6.64999988E-03     1.30685702E-08
  -6.59999996E-03     1.39208725E-08
  -6.55000005E-03     1.49584682E-08
  -6.50000013E-03     1.61388876E-08
  -6.45000022E-03     1.73566868E-08
  -6.39999984E-03     1.84892350E-08
  -6.34999992E-03     1.94502796E-08
  -6.30000001E-03     2.02279775E-08
  -6.25000009E-03     2.08905124E-08
  -6.20000018E-03     2.15565823E-08
  -6.14999980E-03     2.23435652E-08
  -6.09999988E-03     2.33161082E-08
  -6.04999997E-03     2.44573197E-08
  -6.00000005E-03     2.56757069E-08
  -5.95000014E-03     2.68448961E-08
  -5.90000022E-03     2.78587766E-08
  -5.84999984E-03     2.86781283E-08
  -5.79999993E-03     2.93482181E-08
  -5.75000001E-03     2.99793115E-08
  -5.70000010E-03     3.06987609E-08
  -5.65000018E-03     3.15952526E-08
  -5.59999980E-03     3.26796830E-08
  -5.54999989E-03     3.38801200E-08
  -5.49999997E-03     3.50729223E-08
  -5.45000006E-03     3.61367292E-08
  -5.40000014E-03     3.70057087E-08
  -5.35000023E-03     3.76987508E-08
  -5.29999984E-03     3.83115903E-08
  -5.24999993E-03     3.89754504E-08
  -5.20000001E-03     3.97997368E-08
  -5.15000010E-03     4.08241938E-08
  -5.10000018E-03     4.20015134E-08
  -5.04999980E-03     4.32178311E-08
  -4.99999989E-03     4.43426806E-08
  -4.94999997E-03     4.52862068E-08
  -4.90000006E-03     4.60391334E-08
  -4.85000014E-03     4.66772860E-08
  -4.80000023E-03     4.73290740E-08
  -4.74999985E-03     4.81199436E-08
  -4.69999993E-03     4.91176770E-08
  -4.65000002E-03     5.03031110E-08
  -4.60000010E-03     5.15787271E-08
  -4.55000019E-03     5.28116786E-08
  -4.49999981E-03     5.38921689E-08
  -4.44999989E-03     5.47823547E-08
  -4.39999998E-03     5.55332988E-08
  -4.35000006E-03     5.62636870E-08
  -4.30000015E-03     5.71083625E-08
  -4.25000023E-03     5.81600901E-08
  -4.19999985E-03     5.94294356E-08
  -4.14999994E-03     6.08406054E-08
  -4.10000002E-03     6.22653076E-08
  -4.05000011E-03     6.35794706E-08
  -4.00000019E-03     6.47185558E-08
  -3.94999981E-03     6.57065939E-08
  -3.89999989E-03     6.66470044E-08
  -3.84999998E-03     6.76780942E-08
  -3.80000006E-03     6.89139554E-08
  -3.74999992E-03     7.03953944E-08
  -3.70000000E-03     7.20728863E-08
  -3.65000009E-03     7.38295327E-08
  -3.59999994E-03     7.55328529E-08
  -3.55000002E-03     7.70940431E-08
  -3.50000011E-03     7.85078456E-08
  -3.44999996E-03     7.98562780E-08
  -3.40000005E-03     8.12735976E-08
  -3.34999990E-03     8.28890236E-08
  -3.29999998E-03     8.47713579E-08
  -3.25000007E-03     8.69003856E-08
  -3.19999992E-03     8.91764245E-08
  -3.15000000E-03     9.14658003E-08
  -3.10000009E-03     9.36602262E-08
  -3.04999994E-03     9.57257882E-08
  -3.00000003E-03     9.77190311E-08
  -2.95000011E-03     9.97636747E-08
  -2.89999996E-03     1.01998090E-07
  -2.85000005E-03     1.04516353E-07
  -2.79999990E-03     1.07328731E-07
  -2.74999999E-03     1.10358762E-07
  -2.70000007E-03     1.13478450E-07
  -2.64999992E-03     1.16565886E-07
  -2.60000001E-03     1.19560184E-07
  -2.55000009E-03     1.22489865E-07
  -2.49999994E-03     1.25461469E-07
  -2.45000003E-03     1.28615468E-07
  -2.40000011E-03     1.32065736E-07
  -2.34999997E-03     1.35852162E-07
  -2.30000005E-03     1.39924808E-07
  -2.24999990E-03     1.44168098E-07
  -2.19999999E-03     1.48453040E-07
  -2.15000007E-03     1.52695591E-07
  -2.09999993E-03     1.56895098E-07
  -2.05000001E-03     1.61136541E-07
  -2.00000009E-03     1.65555193E-07
  -1.94999995E-03     1.70279762E-07
  -1.90000003E-03     1.75378219E-07
  -1.85000000E-03     1.80830170E-07
  -1.79999997E-03     1.86538813E-07
  -1.75000005E-03     1.92375481E-07
  -1.70000002E-03     1.98238226E-07
  -1.64999999E-03     2.04099138E-07
  -1.59999996E-03     2.10018470E-07
  -1.55000004E-03     2.16120398E-07
  -1.50000001E-03     2.22542411E-07
  -1.44999998E-03     2.29377122E-07
  -1.39999995E-03     2.36634662E-07
  -1.35000004E-03     2.44241448E-07
  -1.30000000E-03     2.52075779E-07
  -1.24999997E-03     2.60023683E-07
  -1.20000006E-03     2.68031897E-07
  -1.15000003E-03     2.76133505E-07
  -1.09999999E-03     2.84436680E-07
  -1.04999996E-03     2.93080745E-07
  -1.00000005E-03     3.02177966E-07
  -9.50000016E-04     3.11768503E-07
  -8.99999985E-04     3.21807306E-07
  -8.50000011E-04     3.32186829E-07
  -7.99999980E-04     3.42788326E-07
  -7.50000007E-04     3.53538383E-07
  -6.99999975E-04     3.64444190E-07
  -6.50000002E-04     3.75593828E-07
  -6.00000028E-04     3.87122640E-07
  -5.49999997E-04     3.99157955E-07
  -5.00000024E-04     4.11768099E-07
  -4.49999992E-04     4.24937213E-07
  -3.99999990E-04     4.38577928E-07
  -3.49999988E-04     4.52574227E-07
  -3.00000014E-04     4.66837122E-07
  -2.50000012E-04     4.81348877E-07
  -1.99999995E-04     4.96174096E-07
  -1.50000007E-04     5.11438543E-07
  -9.99999975E-05     5.27278360E-07
  -4.99999987E-05     5.43785575E-07
   0.00000000         5.60974854E-07
   4.99999987E-05     5.78783443E-07
   9.99999975E-05     5.97104531E-07
   1.50000007E-04     6.15840349E-07
   1.99999995E-04     6.34951391E-07
   2.50000012E-04     6.54478583E-07
   3.00000014E-04     6.74532828E-07
   3.49999988E-04     6.95252140E-07
   3.99999990E-04     7.16748445E-07
   4.49999992E-04     7.39066365E-07