  -3.99999991E-02     1.00000002E-24
  -3.99499983E-02     1.00000002E-24
  -3.99000011E-02     1.00000012E-24
  -3.98500003E-02     1.53061056E-15
  -3.97999994E-02     7.60248577E-15
  -3.97499986E-02     2.01486217E-14
  -3.97000015E-02     3.84937511E-14
  -3.96500006E-02     6.17439652E-14
  -3.95999998E-02     9.20276767E-14
  -3.95499989E-02     1.32855573E-13
  -3.95000018E-02     1.82979608E-13
  -3.94500010E-02     2.33975382E-13
  -3.94000001E-02     2.77654148E-13
  -3.93499993E-02     3.17456781E-13
  -3.92999984E-02     3.70591876E-13
  -3.92500013E-02     4.56101194E-13
  -3.92000005E-02     5.80180489E-13
  -3.91499996E-02     7.34353225E-13
  -3.90999988E-02     9.07748757E-13
  -3.90500017E-02     1.09829875E-12
  -3.90000008E-02     1.30977672E-12
  -3.89500000E-02     1.54050015E-12
  -3.88999991E-02     1.78145335E-12
  -3.88499983E-02     2.03000312E-12
  -3.88000011E-02     2.30330663E-12
  -3.87500003E-02     2.63148487E-12
  -3.86999995E-02     3.03270885E-12
  -3.86499986E-02     3.49559487E-12
  -3.86000015E-02     3.98937914E-12
  -3.85500006E-02     4.49262502E-12
  -3.84999998E-02     5.01071580E-12
  -3.84499989E-02     5.56593140E-12
  -3.84000018E-02     6.17576736E-12
  -3.83500010E-02     6.84678529E-12
  -3.83000001E-02     7.58884275E-12
  -3.82499993E-02     8.42605326E-12
  -3.81999984E-02     9.38329015E-12
  -3.81500013E-02     1.04590477E-11
  -3.81000005E-02     1.16177163E-11
  -3.80499996E-02     1.28166887E-11
  -3.79999988E-02     1.40442250E-11
  -3.79500017E-02     1.53294634E-11
  -3.79000008E-02     1.67148882E-11
  -3.78500000E-02     1.82219899E-11
  -3.77999991E-02     1.98452331E-11
  -3.77499983E-02     2.15740880E-11
  -3.77000012E-02     2.34104992E-11
  -3.76500003E-02     2.53590950E-11
  -3.75999995E-02     2.74058606E-11
  -3.75499986E-02     2.95194251E-11
  -3.75000015E-02     3.16822506E-11
  -3.74500006E-02     3.39189891E-11
  -3.73999998E-02     3.62859673E-11
  -3.73499990E-02     3.88265531E-11
  -3.73000018E-02     4.15361287E-11
  -3.72500010E-02     4.43707709E-11
  -3.72000001E-02     4.72868550E-11
  -3.71499993E-02     5.02679808E-11
  -3.70999984E-02     5.33158483E-11
  -3.70500013E-02     5.64260375E-11
  -3.70000005E-02     5.95845040E-11
  -3.69499996E-02     6.27892530E-11
  -3.68999988E-02     6.60644039E-11
  -3.68500017E-02     6.94392113E-11
  -3.68000008E-02     7.29075550E-11
  -3.67500000E-02     7.64123070E-11
  -3.66999991E-02     7.98765012E-11
  -3.66499983E-02     8.32539732E-11
  -3.66000012E-02     8.65505514E-11
  -3.65500003E-02     8.97993693E-11
  -3.64999995E-02     9.30211463E-11
  -3.64499986E-02     9.62103869E-11
  -3.64000015E-02     9.93514229E-11
  -3.63500006E-02     1.02433284E-10
  -3.62999998E-02     1.05437922E-10
  -3.62499990E-02     1.08317584E-10
  -3.62000018E-02     1.10996448E-10
  -3.61500010E-02     1.13407325E-10
  -3.61000001E-02     1.15530641E-10
  -3.60499993E-02     1.17394691E-10
  -3.59999985E-02     1.19033866E-10
  -3.59500013E-02     1.20444973E-10
  -3.59000005E-02     1.21581009E-10
  -3.58499996E-02     1.22381633E-10
  -3.57999988E-02     1.22803018E-10
  -3.57500017E-02     1.22818658E-10
  -3.57000008E-02     1.22401034E-10
  -3.56500000E-02     1.21515659E-10
  -3.55999991E-02     1.20138649E-10
  -3.55499983E-02     1.18273960E-10
  -3.55000012E-02     1.15942020E-10
  -3.54500003E-02     1.13142995E-10
  -3.53999995E-02     1.09831040E-10
  -3.53499986E-02     1.05929661E-10
  -3.53000015E-02     1.01377289E-10
  -3.52500007E-02     9.61606975E-11
  -3.51999998E-02     9.03075115E-11
  -3.51499990E-02     8.38498229E-11
  -3.51000018E-02     7.67966316E-11
  -3.50500010E-02     6.91362662E-11
  -3.50000001E-02     6.08536069E-11
  -3.49499993E-02     5.19342208E-11
  -3.48999985E-02     4.23507236E-11
  -3.48500013E-02     3.20552612E-11
  -3.48000005E-02     2.10001686E-11
  -3.47499996E-02     9.17551105E-12
  -3.46999988E-02    -3.37334024E-12
  -3.46500017E-02    -1.65708836E-11
  -3.46000008E-02    -3.03605543E-11
  -3.45500000E-02    -4.47337341E-11
  -3.44999991E-02    -5.97143307E-11
  -3.44499983E-02    -7.53186472E-11
  -3.44000012E-02    -9.15310397E-11
  -3.43500003E-02    -1.08313011E-10
  -3.42999995E-02    -1.25625094E-10
  -3.42499986E-02    -1.43430670E-10
  -3.42000015E-02    -1.61679989E-10
  -3.41500007E-02    -1.80301996E-10
  -3.40999998E-02    -1.99226718E-10
  -3.40499990E-02    -2.18421184E-10
  -3.40000018E-02    -2.37897924E-10
  -3.39500010E-02    -2.57677713E-10
  -3.39000002E-02    -2.77736362E-10
  -3.38499993E-02    -2.97987079E-10
  -3.37999985E-02    -3.18314902E-10
  -3.37500013E-02    -3.38628292E-10
  -3.37000005E-02    -3.58877872E-10
  -3.36499996E-02    -3.79032111E-10
  -3.35999988E-02    -3.99045297E-10
  -3.35500017E-02    -4.18855534E-10
  -3.35000008E-02    -4.38405312E-10
  -3.34500000E-02    -4.57646532E-10
  -3.33999991E-02    -4.76511941E-10
  -3.33499983E-02    -4.94882302E-10
  -3.33000012E-02    -5.12598408E-10
  -3.32500003E-02    -5.29521760E-10
  -3.31999995E-02    -5.45591849E-10
  -3.31499986E-02    -5.60822777E-10
  -3.31000015E-02    -5.75241521E-10
  -3.30500007E-02    -5.88827098E-10
  -3.29999998E-02    -6.01504901E-10
  -3.29499990E-02    -6.13187057E-10
  -3.29000019E-02    -6.23804675E-10
  -3.28500010E-02    -6.33300301E-10
  -3.28000002E-02    -6.41606379E-10
  -3.27499993E-02    -6.48656184E-10
  -3.26999985E-02    -6.54427734E-10
  -3.26500013E-02    -6.58967769E-10
  -3.26000005E-02    -6.62349786E-10
  -3.25499997E-02    -6.64591104E-10
  -3.24999988E-02    -6.65604738E-10
  -3.24500017E-02    -6.65235755E-10
  -3.24000008E-02    -6.63344990E-10
  -3.23500000E-02    -6.59863220E-10
  -3.22999991E-02    -6.54774013E-10
  -3.22499983E-02    -6.48064491E-10
  -3.22000012E-02    -6.39706954E-10
  -3.21500003E-02    -6.29680363E-10
  -3.20999995E-02    -6.17983553E-10
  -3.20499986E-02    -6.04601758E-10
  -3.20000015E-02    -5.89456151E-10
  -3.19500007E-02    -5.72406511E-10
  -3.18999998E-02    -5.53327162E-10
  -3.18499990E-02    -5.32194844E-10
  -3.18000019E-02    -5.09101372E-10
  -3.17500010E-02    -4.84175144E-10
  -3.17000002E-02    -4.57484634E-10
  -3.16499993E-02    -4.29006192E-10
  -3.15999985E-02    -3.98666211E-10
  -3.15500014E-02    -3.66394359E-10
  -3.15000005E-02    -3.32137373E-10
  -3.14499997E-02    -2.95852509E-10
  -3.13999988E-02    -2.57533606E-10
  -3.13500017E-02    -2.17275281E-10
  -3.13000008E-02    -1.75310627E-10
  -3.12500000E-02    -1.31960637E-10
  -3.11999992E-02    -8.75159181E-11
  -3.11500002E-02    -4.21476846E-11
  -3.10999993E-02     4.07585857E-12
  -3.10500003E-02     5.10911140E-11
  -3.09999995E-02     9.87510906E-11
  -3.09500005E-02     1.46809856E-10
  -3.08999997E-02     1.94959146E-10
  -3.08500007E-02     2.42852877E-10
  -3.07999998E-02     2.90104024E-10
  -3.07500008E-02     3.36295103E-10
  -3.07000000E-02     3.81040616E-10
  -3.06499992E-02     4.24065588E-10
  -3.06000002E-02     4.65219696E-10
  -3.05499993E-02     5.04391473E-10
  -3.05000003E-02     5.41383660E-10
  -3.04499995E-02     5.75857306E-10
  -3.04000005E-02     6.07383088E-10
  -3.03499997E-02     6.35550224E-10
  -3.03000007E-02     6.60039801E-10
  -3.02499998E-02     6.80631218E-10
  -3.02000009E-02     6.97178926E-10
  -3.01500000E-02     7.09605985E-10
  -3.00999992E-02     7.17901127E-10
  -3.00500002E-02     7.22078397E-10
  -2.99999993E-02     7.22093996E-10
  -2.99500003E-02     7.17784832E-10
  -2.98999995E-02     7.08904047E-10
  -2.98500005E-02     6.95249525E-10
  -2.97999997E-02     6.76798340E-10
  -2.97500007E-02     6.53745835E-10
  -2.96999998E-02     6.26434626E-10
  -2.96500009E-02     5.95243743E-10
  -2.96000000E-02     5.60509861E-10
  -2.95499992E-02     5.22501820E-10
  -2.95000002E-02     4.81408635E-10
  -2.94499993E-02     4.37328868E-10
  -2.94000003E-02     3.90289107E-10
  -2.93499995E-02     3.40322492E-10
  -2.93000005E-02     2.87580737E-10
  -2.92499997E-02     2.32391842E-10
  -2.92000007E-02     1.75205336E-10
  -2.91499998E-02     1.16451418E-10
  -2.91000009E-02     5.64142379E-11
  -2.90500000E-02    -4.80148430E-12
  -2.89999992E-02    -6.72073924E-11
  -2.89500002E-02    -1.30839437E-10
  -2.88999993E-02    -1.95694377E-10
  -2.88500004E-02    -2.61701161E-10
  -2.87999995E-02    -3.28701566E-10
  -2.87500005E-02    -3.96443156E-10
  -2.86999997E-02    -4.64619787E-10
  -2.86500007E-02    -5.32978994E-10
  -2.85999998E-02    -6.01446171E-10
  -2.85500009E-02    -6.70178080E-10
  -2.85000000E-02    -7.39495298E-10
  -2.84499992E-02    -8.09736278E-10
  -2.84000002E-02    -8.81135997E-10
  -2.83499993E-02    -9.53804591E-10
  -2.83000004E-02    -1.02779318E-09
  -2.82499995E-02    -1.10318132E-09
  -2.82000005E-02    -1.18013499E-09
  -2.81499997E-02    -1.25893673E-09
  -2.81000007E-02    -1.34000944E-09
  -2.80499998E-02    -1.42391809E-09
  -2.80000009E-02    -1.51130619E-09
  -2.79500000E-02    -1.60276104E-09
  -2.78999992E-02    -1.69866965E-09
  -2.78500002E-02    -1.79916881E-09
  -2.77999993E-02    -1.90423410E-09
  -2.77500004E-02    -2.01384420E-09
  -2.76999995E-02    -2.12810547E-09
  -2.76500005E-02    -2.24726637E-09
  -2.75999997E-02    -2.37164444E-09
  -2.75500007E-02    -2.50154253E-09
  -2.74999999E-02    -2.63718447E-09
  -2.74500009E-02    -2.77866063E-09
  -2.74000000E-02    -2.92586444E-09
  -2.73499992E-02    -3.07846260E-09
  -2.73000002E-02    -3.23595750E-09
  -2.72499993E-02    -3.39784800E-09
  -2.72000004E-02    -3.56379526E-09
  -2.71499995E-02    -3.73367071E-09
  -2.71000005E-02    -3.90745480E-09
  -2.70499997E-02    -4.08506962E-09
  -2.70000007E-02    -4.26627533E-09
  -2.69499999E-02    -4.45066739E-09
  -2.69000009E-02    -4.63773997E-09
  -2.68500000E-02    -4.82693396E-09
  -2.67999992E-02    -5.01767516E-09
  -2.67500002E-02    -5.20943688E-09
  -2.66999993E-02    -5.40183009E-09
  -2.66500004E-02    -5.59466162E-09
  -2.65999995E-02    -5.78785286E-09
  -2.65500005E-02    -5.98125771E-09
  -2.64999997E-02    -6.17450580E-09
  -2.64500007E-02    -6.36700470E-09
  -2.63999999E-02    -6.55808341E-09
  -2.63500009E-02    -6.74717038E-09
  -2.63000000E-02    -6.93386637E-09
  -2.62499992E-02    -7.11793380E-09
  -2.62000002E-02    -7.29926031E-09
  -2.61499994E-02    -7.47784057E-09
  -2.61000004E-02    -7.65374875E-09
  -2.60499995E-02    -7.82702525E-09
  -2.60000005E-02    -7.99755462E-09
  -2.59499997E-02    -8.16502066E-09
  -2.59000007E-02    -8.32904590E-09
  -2.58499999E-02    -8.48941184E-09
  -2.58000009E-02    -8.64620020E-09
  -2.57500000E-02    -8.79976447E-09
  -2.56999992E-02    -8.95056473E-09
  -2.56500002E-02    -9.09902287E-09
  -2.55999994E-02    -9.24546306E-09
  -2.55500004E-02    -9.39011002E-09
  -2.54999995E-02    -9.53306856E-09
  -2.54500005E-02    -9.67430580E-09
  -2.53999997E-02    -9.81372850E-09
  -2.53500007E-02    -9.95135441E-09
  -2.52999999E-02    -1.00874775E-08
  -2.52500009E-02    -1.02226867E-08
  -2.52000000E-02    -1.03577040E-08
  -2.51499992E-02    -1.04931441E-08
  -2.51000002E-02    -1.06294040E-08
  -2.50499994E-02    -1.07667066E-08
  -2.50000004E-02    -1.09052145E-08
  -2.49499995E-02    -1.10451213E-08
  -2.49000005E-02    -1.11866791E-08
  -2.48499997E-02    -1.13302434E-08
  -2.48000007E-02    -1.14763186E-08
  -2.47499999E-02    -1.16255823E-08
  -2.47000009E-02    -1.17787780E-08
  -2.46500000E-02    -1.19365016E-08
  -2.45999992E-02    -1.20990382E-08
  -2.45500002E-02    -1.22663932E-08
  -2.44999994E-02    -1.24384849E-08
  -2.44500004E-02    -1.26153505E-08
  -2.43999995E-02    -1.27972317E-08
  -2.43500005E-02    -1.29845192E-08
  -2.42999997E-02    -1.31776714E-08
  -2.42500007E-02    -1.33771403E-08
  -2.41999999E-02    -1.35833291E-08
  -2.41500009E-02    -1.37964955E-08
  -2.41000000E-02    -1.40166581E-08
  -2.40499992E-02    -1.42436081E-08
  -2.40000002E-02    -1.44770764E-08
  -2.39499994E-02    -1.47169672E-08
  -2.39000004E-02    -1.49634971E-08
  -2.38499995E-02    -1.52171253E-08
  -2.38000005E-02    -1.54783617E-08
  -2.37499997E-02    -1.57475490E-08
  -2.37000007E-02    -1.60247922E-08
  -2.36499999E-02    -1.63099632E-08
  -2.36000009E-02    -1.66027512E-08
  -2.35500000E-02    -1.69027317E-08
  -2.34999992E-02    -1.72094694E-08
  -2.34500002E-02    -1.75226837E-08
  -2.33999994E-02    -1.78423729E-08
  -2.33500004E-02    -1.81687945E-08
  -2.32999995E-02    -1.85022646E-08
  -2.32500006E-02    -1.88428917E-08
  -2.31999997E-02    -1.91904537E-08
  -2.31500007E-02    -1.95444549E-08
  -2.30999999E-02    -1.99043217E-08
  -2.30500009E-02    -2.02695620E-08
  -2.30000000E-02    -2.06398845E-08
  -2.29499992E-02    -2.10151967E-08
  -2.29000002E-02    -2.13956390E-08
  -2.28499994E-02    -2.17815046E-08
  -2.28000004E-02    -2.21731060E-08
  -2.27499995E-02    -2.25705730E-08
  -2.27000006E-02    -2.29737065E-08
  -2.26499997E-02    -2.33820252E-08
  -2.26000007E-02    -2.37950015E-08
  -2.25499999E-02    -2.42123033E-08
  -2.25000009E-02    -2.46339340E-08
  -2.24500000E-02    -2.50601886E-08
  -2.23999992E-02    -2.54914720E-08
  -2.23500002E-02    -2.59281432E-08
  -2.22999994E-02    -2.63704010E-08
  -2.22500004E-02    -2.68182578E-08
  -2.21999995E-02    -2.72715166E-08
  -2.21500006E-02    -2.77298327E-08
  -2.20999997E-02    -2.81929466E-08
  -2.20500007E-02    -2.86609065E-08
  -2.19999999E-02    -2.91342062E-08
  -2.19500009E-02    -2.96136893E-08
  -2.19000001E-02    -3.01002743E-08
  -2.18499992E-02    -3.05946344E-08
  -2.18000002E-02    -3.10970663E-08
  -2.17499994E-02    -3.16075095E-08
  -2.17000004E-02    -3.21257048E-08
  -2.16499995E-02    -3.26513856E-08
  -2.16000006E-02    -3.31844419E-08
  -2.15499997E-02    -3.37250619E-08
  -2.15000007E-02    -3.42737785E-08
  -2.14499999E-02    -3.48313769E-08
  -2.14000009E-02    -3.53986422E-08
  -2.13500001E-02    -3.59760648E-08
  -2.12999992E-02    -3.65636410E-08
  -2.12500002E-02    -3.71609623E-08
  -2.11999994E-02    -3.77674851E-08
  -2.11500004E-02    -3.83828862E-08
  -2.10999995E-02    -3.90072366E-08
  -2.10500006E-02    -3.96409519E-08
  -2.09999997E-02    -4.02846680E-08
  -2.09500007E-02    -4.09390459E-08
  -2.08999999E-02    -4.16045616E-08
  -2.08500009E-02    -4.22813535E-08
  -2.08000001E-02    -4.29691234E-08
  -2.07499992E-02    -4.36671961E-08
  -2.07000002E-02    -4.43748434E-08
  -2.06499994E-02    -4.50916460E-08
  -2.06000004E-02    -4.58177176E-08
  -2.05499995E-02    -4.65536054E-08
  -2.05000006E-02    -4.72999453E-08
  -2.04499997E-02    -4.80571067E-08
  -2.04000007E-02    -4.88250045E-08
  -2.03499999E-02    -4.96031447E-08
  -2.03000009E-02    -5.03908062E-08
  -2.02500001E-02    -5.11871967E-08
  -2.01999992E-02    -5.19916910E-08
  -2.01500002E-02    -5.28040651E-08
  -2.00999994E-02    -5.36246780E-08
  -2.00500004E-02    -5.44543646E-08
  -1.99999996E-02    -5.52939987E-08
  -1.99500006E-02    -5.61439570E-08
  -1.98999997E-02    -5.70039411E-08
  -1.98500007E-02    -5.78731338E-08
  -1.97999999E-02    -5.87506683E-08
  -1.97500009E-02    -5.96359797E-08
  -1.97000001E-02    -6.05289472E-08
  -1.96499992E-02    -6.14299793E-08
  -1.96000002E-02    -6.23398648E-08
  -1.95499994E-02    -6.32595700E-08
  -1.95000004E-02    -6.41899476E-08
  -1.94499996E-02    -6.51312888E-08
  -1.94000006E-02    -6.60830395E-08
  -1.93499997E-02    -6.70440912E-08
  -1.93000007E-02    -6.80133141E-08
  -1.92499999E-02    -6.89901469E-08
  -1.92000009E-02    -6.99748099E-08
  -1.91500001E-02    -7.09680350E-08
  -1.90999992E-02    -7.19707529E-08
  -1.90500002E-02    -7.29836884E-08
  -1.89999994E-02    -7.40071329E-08
  -1.89500004E-02    -7.50408446E-08
  -1.88999996E-02    -7.60840280E-08
  -1.88500006E-02    -7.71355104E-08
  -1.87999997E-02    -7.81942617E-08
  -1.87500007E-02    -7.92599053E-08
  -1.86999999E-02    -8.03329314E-08
  -1.86500009E-02    -8.14144059E-08
  -1.86000001E-02    -8.25052027E-08
  -1.85499992E-02    -8.36054994E-08
  -1.85000002E-02    -8.47145714E-08
  -1.84499994E-02    -8.58311111E-08
  -1.84000004E-02    -8.69535839E-08
  -1.83499996E-02    -8.80806468E-08
  -1.83000006E-02    -8.92113619E-08
  -1.82499997E-02    -9.03455160E-08
  -1.82000007E-02    -9.14836420E-08
  -1.81499999E-02    -9.26266850E-08
  -1.81000009E-02    -9.37753128E-08
  -1.80500001E-02    -9.49293479E-08
  -1.79999992E-02    -9.60874544E-08
  -1.79500002E-02    -9.72476784E-08
  -1.78999994E-02    -9.84081936E-08
  -1.78500004E-02    -9.95680480E-08
  -1.77999996E-02    -1.00727199E-07
  -1.77500006E-02    -1.01886236E-07
  -1.76999997E-02    -1.03045977E-07
  -1.76500008E-02    -1.04207146E-07
  -1.75999999E-02    -1.05369871E-07
  -1.75500009E-02    -1.06533378E-07
  -1.75000001E-02    -1.07695804E-07
  -1.74499992E-02    -1.08854742E-07
  -1.74000002E-02    -1.10008123E-07
  -1.73499994E-02    -1.11155110E-07
  -1.73000004E-02    -1.12296185E-07
  -1.72499996E-02    -1.13432570E-07
  -1.72000006E-02    -1.14565239E-07
  -1.71499997E-02    -1.15694363E-07
  -1.71000008E-02    -1.16819251E-07
  -1.70499999E-02    -1.17938491E-07
  -1.70000009E-02    -1.19050227E-07
  -1.69500001E-02    -1.20152535E-07
  -1.68999992E-02    -1.21244042E-07
  -1.68500002E-02    -1.22324579E-07
  -1.67999994E-02    -1.23395239E-07
  -1.67500004E-02    -1.24457699E-07
  -1.66999996E-02    -1.25512955E-07
  -1.66500006E-02    -1.26560636E-07
  -1.65999997E-02    -1.27598938E-07
  -1.65500008E-02    -1.28625530E-07
  -1.64999999E-02    -1.29638366E-07
  -1.64500009E-02    -1.30636181E-07
  -1.64000001E-02    -1.31618677E-07
  -1.63499992E-02    -1.32586393E-07
  -1.63000003E-02    -1.33540468E-07
  -1.62499994E-02    -1.34482249E-07
  -1.62000004E-02    -1.35412179E-07
  -1.61499996E-02    -1.36329206E-07
  -1.61000006E-02    -1.37230714E-07
  -1.60499997E-02    -1.38113677E-07
  -1.60000008E-02    -1.38976105E-07
  -1.59499999E-02    -1.39817573E-07
  -1.59000009E-02    -1.40639074E-07
  -1.58500001E-02    -1.41442214E-07
  -1.57999992E-02    -1.42228402E-07
  -1.57500003E-02    -1.42998317E-07
  -1.56999994E-02    -1.43751578E-07
  -1.56500004E-02    -1.44486549E-07
  -1.55999996E-02    -1.45200630E-07
  -1.55499997E-02    -1.45891050E-07
  -1.54999997E-02    -1.46556317E-07
  -1.54499998E-02    -1.47196857E-07
  -1.53999999E-02    -1.47814688E-07
  -1.53500000E-02    -1.48412141E-07
  -1.53000001E-02    -1.48990509E-07
  -1.52500002E-02    -1.49549422E-07
  -1.52000003E-02    -1.50087203E-07
  -1.51500003E-02    -1.50601537E-07
  -1.51000004E-02    -1.51090177E-07
  -1.50499996E-02    -1.51551575E-07
  -1.49999997E-02    -1.51985475E-07
  -1.49499997E-02    -1.52393312E-07
  -1.48999998E-02    -1.52777801E-07
  -1.48499999E-02    -1.53141627E-07
  -1.48000000E-02    -1.53485956E-07
  -1.47500001E-02    -1.53809864E-07
  -1.47000002E-02    -1.54110779E-07
  -1.46500003E-02    -1.54386157E-07
  -1.46000003E-02    -1.54634506E-07
  -1.45500004E-02    -1.54855911E-07
  -1.44999996E-02    -1.55051822E-07
  -1.44499997E-02    -1.55224612E-07
  -1.43999998E-02    -1.55376810E-07
  -1.43499998E-02    -1.55510122E-07
  -1.42999999E-02    -1.55624505E-07
  -1.42500000E-02    -1.55718070E-07
  -1.42000001E-02    -1.55787774E-07
  -1.41500002E-02    -1.55831174E-07
  -1.41000003E-02    -1.55847630E-07
  -1.40500003E-02    -1.55838904E-07
  -1.40000004E-02    -1.55808166E-07
  -1.39499996E-02    -1.55758784E-07
  -1.38999997E-02    -1.55693073E-07
  -1.38499998E-02    -1.55611616E-07
  -1.37999998E-02    -1.55513320E-07
  -1.37499999E-02    -1.55395711E-07
  -1.37000000E-02    -1.55256075E-07
  -1.36500001E-02    -1.55092764E-07
  -1.36000002E-02    -1.54906374E-07
  -1.35500003E-02    -1.54699663E-07
  -1.35000004E-02    -1.54476623E-07
  -1.34500004E-02    -1.54240624E-07
  -1.33999996E-02    -1.53992943E-07
  -1.33499997E-02    -1.53732614E-07
  -1.32999998E-02    -1.53457094E-07
  -1.32499998E-02    -1.53163583E-07
  -1.31999999E-02    -1.52850177E-07
  -1.31500000E-02    -1.52516691E-07
  -1.31000001E-02    -1.52164972E-07
  -1.30500002E-02    -1.51798446E-07
  -1.30000003E-02    -1.51420863E-07
  -1.29500004E-02    -1.51034683E-07
  -1.29000004E-02    -1.50639977E-07
  -1.28499996E-02    -1.50234541E-07
  -1.27999997E-02    -1.49815094E-07
  -1.27499998E-02    -1.49379233E-07
  -1.26999998E-02    -1.48926631E-07
  -1.26499999E-02    -1.48459122E-07
  -1.26000000E-02    -1.47980074E-07
  -1.25500001E-02    -1.47493012E-07
  -1.25000002E-02    -1.47000264E-07
  -1.24500003E-02    -1.46502003E-07
  -1.24000004E-02    -1.45995926E-07
  -1.23500004E-02    -1.45477955E-07
  -1.22999996E-02    -1.44944011E-07
  -1.22499997E-02    -1.44391834E-07
  -1.21999998E-02    -1.43822277E-07
  -1.21499998E-02    -1.43238950E-07
  -1.20999999E-02    -1.42646655E-07
  -1.20500000E-02    -1.42049359E-07
  -1.20000001E-02    -1.41448893E-07
  -1.19500002E-02    -1.40844463E-07
  -1.19000003E-02    -1.40233055E-07
  -1.18500004E-02    -1.39610719E-07
  -1.18000004E-02    -1.38974116E-07
  -1.17499996E-02    -1.38321965E-07
  -1.16999997E-02    -1.37655391E-07
  -1.16499998E-02    -1.36977405E-07
  -1.15999999E-02    -1.36291121E-07
  -1.15499999E-02    -1.35597986E-07
  -1.15000000E-02    -1.34896780E-07
  -1.14500001E-02    -1.34184191E-07
  -1.14000002E-02    -1.33456425E-07
  -1.13500003E-02    -1.32710980E-07
  -1.13000004E-02    -1.31948070E-07
  -1.12500004E-02    -1.31170822E-07
  -1.11999996E-02    -1.30384578E-07
  -1.11499997E-02    -1.29595179E-07
  -1.10999998E-02    -1.28806960E-07
  -1.10499999E-02    -1.28020986E-07
  -1.09999999E-02    -1.27234799E-07
  -1.09500000E-02    -1.26443382E-07
  -1.09000001E-02    -1.25641591E-07
  -1.08500002E-02    -1.24826187E-07
  -1.08000003E-02    -1.23997182E-07
  -1.07500004E-02    -1.23157690E-07
  -1.07000005E-02    -1.22312414E-07
  -1.06499996E-02    -1.21465717E-07
  -1.05999997E-02    -1.20620072E-07
  -1.05499998E-02    -1.19775336E-07
  -1.04999999E-02    -1.18929165E-07
  -1.04499999E-02    -1.18078354E-07
  -1.04000000E-02    -1.17220964E-07
  -1.03500001E-02    -1.16357946E-07
  -1.03000002E-02    -1.15493428E-07
  -1.02500003E-02    -1.14633337E-07
  -1.02000004E-02    -1.13783386E-07
  -1.01500005E-02    -1.12946957E-07
  -1.00999996E-02    -1.12124305E-07
  -1.00499997E-02    -1.11313092E-07
  -9.99999978E-03    -1.10509831E-07
  -9.94999986E-03    -1.09712126E-07
  -9.89999995E-03    -1.08920496E-07
  -9.85000003E-03    -1.08138963E-07
  -9.80000012E-03    -1.07374177E-07
  -9.75000020E-03    -1.06633372E-07
  -9.70000029E-03    -1.05922041E-07
  -9.65000037E-03    -1.05242208E-07
  -9.60000046E-03    -1.04592097E-07
  -9.54999961E-03    -1.03967665E-07
  -9.49999969E-03    -1.03365103E-07
  -9.44999978E-03    -1.02783311E-07
  -9.39999986E-03    -1.02225208E-07
  -9.34999995E-03    -1.01697289E-07
  -9.30000003E-03    -1.01207924E-07
  -9.25000012E-03    -1.00764915E-07
  -9.20000020E-03    -1.00373335E-07
  -9.15000029E-03    -1.00034690E-07
  -9.10000037E-03    -9.97473748E-08
  -9.05000046E-03    -9.95092364E-08
  -8.99999961E-03    -9.93199905E-08
  -8.94999970E-03    -9.91829623E-08
  -8.89999978E-03    -9.91053781E-08
  -8.84999987E-03    -9.90967521E-08
  -8.79999995E-03    -9.91664137E-08
  -8.75000004E-03    -9.93214968E-08
  -8.70000012E-03    -9.95652627E-08
  -8.65000021E-03    -9.98973420E-08
  -8.60000029E-03    -1.00315724E-07
  -8.55000038E-03    -1.00819463E-07
  -8.50000046E-03    -1.01411096E-07
  -8.44999962E-03    -1.02097488E-07
  -8.39999970E-03    -1.02888521E-07
  -8.34999979E-03    -1.03794513E-07
  -8.29999987E-03    -1.04823663E-07
  -8.24999996E-03    -1.05980547E-07
  -8.20000004E-03    -1.07266004E-07
  -8.15000013E-03    -1.08678641E-07
  -8.10000021E-03    -1.10217805E-07
  -8.05000030E-03    -1.11886230E-07
  -8.00000038E-03    -1.13691392E-07
  -7.95000046E-03    -1.15645406E-07
  -7.89999962E-03    -1.17762383E-07
  -7.84999970E-03    -1.20055063E-07
  -7.79999979E-03    -1.22531986E-07
  -7.74999987E-03    -1.25196891E-07
  -7.69999996E-03    -1.28049948E-07
  -7.65000004E-03    -1.31090673E-07
  -7.60000013E-03    -1.34320757E-07
  -7.55000021E-03    -1.37746298E-07
  -7.49999983E-03    -1.41378095E-07
  -7.44999992E-03    -1.45230160E-07
  -7.40000000E-03    -1.49316534E-07
  -7.35000009E-03    -1.53648330E-07
  -7.30000017E-03    -1.58231444E-07
  -7.24999979E-03    -1.63067199E-07
  -7.19999988E-03    -1.68154997E-07
  -7.14999996E-03    -1.73496090E-07
  -7.10000005E-03    -1.79096233E-07
  -7.05000013E-03    -1.84966282E-07
  -7.00000022E-03    -1.91120407E-07
  -6.94999984E-03    -1.97573996E-07
  -6.89999992E-03    -2.04341063E-07
  -6.85000001E-03    -2.11431640E-07
  -6.80000009E-03    -2.18850900E-07
  -6.75000018E-03    -2.26600775E-07
  -6.69999979E-03    -2.34683938E-07
  -6.64999988E-03    -2.43106882E-07
  -6.59999996E-03    -2.51882341E-07
  -6.55000005E-03    -2.61027367E-07
  -6.50000013E-03    -2.70559923E-07
  -6.45000022E-03    -2.80495726E-07
  -6.39999984E-03    -2.90846344E-07
  -6.34999992E-03    -3.01618172E-07
  -6.30000001E-03    -3.12814450E-07
  -6.25000009E-03    -3.24437394E-07
  -6.20000018E-03    -3.36492093E-07
  -6.14999980E-03    -3.48989118E-07
  -6.09999988E-03    -3.61945894E-07
  -6.04999997E-03    -3.75383024E-07
  -6.00000005E-03    -3.89319951E-07
  -5.95000014E-03    -4.03771196E-07
  -5.90000022E-03    -4.18745969E-07
  -5.84999984E-03    -4.34249330E-07
  -5.79999993E-03    -4.50285398E-07
  -5.75000001E-03    -4.66860001E-07
  -5.70000010E-03    -4.83983683E-07
  -5.65000018E-03    -5.01672901E-07
  -5.59999980E-03    -5.19949310E-07
  -5.54999989E-03    -5.38837071E-07
  -5.49999997E-03    -5.58357044E-07
  -5.45000006E-03    -5.78523782E-07
  -5.40000014E-03    -5.99345697E-07
  -5.35000023E-03    -6.20828303E-07
  -5.29999984E-03    -6.42979330E-07
  -5.24999993E-03    -6.65811172E-07
  -5.20000001E-03    -6.89341789E-07
  -5.15000010E-03    -7.13592840E-07
  -5.10000018E-03    -7.38587573E-07
  -5.04999980E-03    -7.64348158E-07
  -4.99999989E-03    -7.90892784E-07
  -4.94999997E-03    -8.18234753E-07
  -4.90000006E-03    -8.46382704E-07
  -4.85000014E-03    -8.75343289E-07
  -4.80000023E-03    -9.05127251E-07
  -4.74999985E-03    -9.35753178E-07
  -4.69999993E-03    -9.67246365E-07
  -4.65000002E-03    -9.99634153E-07
  -4.60000010E-03    -1.03294167E-06
  -4.55000019E-03    -1.06718926E-06
  -4.49999981E-03    -1.10239273E-06
  -4.44999989E-03    -1.13856481E-06
  -4.39999998E-03    -1.17571881E-06
  -4.35000006E-03    -1.21386904E-06
  -4.30000015E-03    -1.25303529E-06
  -4.25000023E-03    -1.29324337E-06
  -4.19999985E-03    -1.33452590E-06
  -4.14999994E-03    -1.37691586E-06
  -4.10000002E-03    -1.42044155E-06
  -4.05000011E-03    -1.46512298E-06
  -4.00000019E-03    -1.51097322E-06
  -3.94999981E-03    -1.55800433E-06
  -3.89999989E-03    -1.60623119E-06
  -3.84999998E-03    -1.65567371E-06
  -3.80000006E-03    -1.70635667E-06
  -3.74999992E-03    -1.75830928E-06
  -3.70000000E-03    -1.81156486E-06
  -3.65000009E-03    -1.86615500E-06
  -3.59999994E-03    -1.92210769E-06
  -3.55000002E-03    -1.97944587E-06
  -3.50000011E-03    -2.03818627E-06
  -3.44999996E-03    -2.09834366E-06
  -3.40000005E-03    -2.15993919E-06
  -3.34999990E-03    -2.22300378E-06
  -3.29999998E-03    -2.28757563E-06
  -3.25000007E-03    -2.35369339E-06
  -3.19999992E-03    -2.42139004E-06
  -3.15000000E-03    -2.49069330E-06
  -3.10000009E-03    -2.56162821E-06
  -3.04999994E-03    -2.63421794E-06
  -3.00000003E-03    -2.70848432E-06
  -2.95000011E-03    -2.78444600E-06
  -2.89999996E-03    -2.86212799E-06
  -2.85000005E-03    -2.94156553E-06
  -2.79999990E-03    -3.02280318E-06
  -2.74999999E-03    -3.10588507E-06
  -2.70000007E-03    -3.19084666E-06
  -2.64999992E-03    -3.27771295E-06
  -2.60000001E-03    -3.36650669E-06
  -2.55000009E-03    -3.45725152E-06
  -2.49999994E-03    -3.54997542E-06
  -2.45000003E-03    -3.64470770E-06
  -2.40000011E-03    -3.74148226E-06
  -2.34999997E-03    -3.84033820E-06
  -2.30000005E-03    -3.94131803E-06
  -2.24999990E-03    -4.04446700E-06
  -2.19999999E-03    -4.14982151E-06
  -2.15000007E-03    -4.25740609E-06
  -2.09999993E-03    -4.36724213E-06
  -2.05000001E-03    -4.47935236E-06
  -2.00000009E-03    -4.59376815E-06
  -1.94999995E-03    -4.71052999E-06
  -1.90000003E-03    -4.82968289E-06
  -1.85000000E-03    -4.95127551E-06
  -1.79999997E-03    -5.07535060E-06
  -1.75000005E-03    -5.20194862E-06
  -1.70000002E-03    -5.33110187E-06
  -1.64999999E-03    -5.46284036E-06
  -1.59999996E-03    -5.59718865E-06
  -1.55000004E-03    -5.73417401E-06
  -1.50000001E-03    -5.87382738E-06
  -1.44999998E-03    -6.01619058E-06
  -1.39999995E-03    -6.16131410E-06
  -1.35000004E-03    -6.30924842E-06
  -1.30000000E-03    -6.46003173E-06
  -1.24999997E-03    -6.61369631E-06
  -1.20000006E-03    -6.77026856E-06
  -1.15000003E-03    -6.92978119E-06
  -1.09999999E-03    -7.09226515E-06
  -1.04999996E-03    -7.25775271E-06
  -1.00000005E-03    -7.42627981E-06
  -9.50000016E-04    -7.59789600E-06
  -8.99999985E-04    -7.77265359E-06
  -8.50000011E-04    -7.95060441E-06
  -7.99999980E-04    -8.13178758E-06
  -7.50000007E-04    -8.31623311E-06
  -6.99999975E-04    -8.50396464E-06
  -6.50000002E-04    -8.69500673E-06
  -6.00000028E-04    -8.88939576E-06
  -5.49999997E-04    -9.08717175E-06
  -5.00000024E-04    -9.28838290E-06
  -4.49999992E-04    -9.49307650E-06
  -3.99999990E-04    -9.70129440E-06
  -3.49999988E-04    -9.91308025E-06
  -3.00000014E-04    -1.01284659E-05
  -2.50000012E-04    -1.03474767E-05
  -1.99999995E-04    -1.05701320E-05
  -1.50000007E-04    -1.07964561E-05
  -9.99999975E-05    -1.10264818E-05
  -4.99999987E-05    -1.12602538E-05
   0.00000000        -1.14978275E-05
   4.99999987E-05    -1.17392519E-05
   9.99999975E-05    -1.19845681E-05
   1.50000007E-04    -1.22338033E-05
   1.99999995E-04    -1.24869821E-05
   2.50000012E-04    -1.27441290E-05
   3.00000014E-04    -1.30052749E-05
   3.49999988E-04    -1.32704408E-05
   3.99999990E-04    -1.35396622E-05
   4.49999992E-04    -1.38129808E-05