  -3.99999991E-02     1.00000002E-24
  -3.99499983E-02    -2.21919596E-12
  -3.99000011E-02    -5.67487897E-12
  -3.98500003E-02    -8.57485090E-12
  -3.97999994E-02    -9.00901923E-12
  -3.97499986E-02    -5.97700665E-12
  -3.97000015E-02    -1.43652288E-13
  -3.96500006E-02     6.34433088E-12
  -3.95999998E-02     1.10144689E-11
  -3.95499989E-02     1.24605239E-11
  -3.95000018E-02     1.10887150E-11
  -3.94500010E-02     8.91406220E-12
  -3.94000001E-02     8.75148391E-12
  -3.93499993E-02     1.32693292E-11
  -3.92999984E-02     2.40967246E-11
  -3.92500013E-02     4.10689260E-11
  -3.92000005E-02     6.19409732E-11
  -3.91499996E-02     8.30320396E-11
  -3.90999988E-02     1.00811949E-10
  -3.90500017E-02     1.13661421E-10
  -3.90000008E-02     1.22723040E-10
  -3.89500000E-02     1.31327546E-10
  -3.88999991E-02     1.43435597E-10
  -3.88499983E-02     1.62018357E-10
  -3.88000011E-02     1.88025359E-10
  -3.87500003E-02     2.20077831E-10
  -3.86999995E-02     2.54855914E-10
  -3.86499986E-02     2.88235880E-10
  -3.86000015E-02     3.17056131E-10
  -3.85500006E-02     3.40819900E-10
  -3.84999998E-02     3.62279262E-10
  -3.84499989E-02     3.86312260E-10
  -3.84000018E-02     4.17610918E-10
  -3.83500010E-02     4.58496713E-10
  -3.83000001E-02     5.07986653E-10
  -3.82499993E-02     5.62332125E-10
  -3.81999984E-02     6.16523166E-10
  -3.81500013E-02     6.66140254E-10
  -3.81000005E-02     7.09102610E-10
  -3.80499996E-02     7.46792406E-10
  -3.79999988E-02     7.83873411E-10
  -3.79500017E-02     8.26448798E-10
  -3.79000008E-02     8.79179229E-10
  -3.78500000E-02     9.42879663E-10
  -3.77999991E-02     1.01401498E-09
  -3.77499983E-02     1.08635556E-09
  -3.77000012E-02     1.15378629E-09
  -3.76500003E-02     1.21284982E-09
  -3.75999995E-02     1.26410060E-09
  -3.75499986E-02     1.31200306E-09
  -3.75000015E-02     1.36343081E-09
  -3.74500006E-02     1.42503376E-09
  -3.73999998E-02     1.50025170E-09
  -3.73499990E-02     1.58735913E-09
  -3.73000018E-02     1.67983227E-09
  -3.72500010E-02     1.76916359E-09
  -3.72000001E-02     1.84873528E-09
  -3.71499993E-02     1.91671057E-09
  -3.70999984E-02     1.97660532E-09
  -3.70500013E-02     2.03558548E-09
  -3.70000005E-02     2.10147988E-09
  -3.69499996E-02     2.17965845E-09
  -3.68999988E-02     2.27074071E-09
  -3.68500017E-02     2.36998443E-09
  -3.68000008E-02     2.46894460E-09
  -3.67500000E-02     2.55909871E-09
  -3.66999991E-02     2.63589883E-09
  -3.66499983E-02     2.70109624E-09
  -3.66000012E-02     2.76198175E-09
  -3.65500003E-02     2.82796342E-09
  -3.64999995E-02     2.90633562E-09
  -3.64499986E-02     2.99923264E-09
  -3.64000015E-02     3.10284598E-09
  -3.63500006E-02     3.20893445E-09
  -3.62999998E-02     3.30804384E-09
  -3.62499990E-02     3.39342043E-09
  -3.62000018E-02     3.46416051E-09
  -3.61500010E-02     3.52599683E-09
  -3.61000001E-02     3.58892116E-09
  -3.60499993E-02     3.66253272E-09
  -3.59999985E-02     3.75144760E-09
  -3.59500013E-02     3.85315468E-09
  -3.59000005E-02     3.95927069E-09
  -3.58499996E-02     4.05933109E-09
  -3.57999988E-02     4.14525392E-09
  -3.57500017E-02     4.21472057E-09
  -3.57000008E-02     4.27231761E-09
  -3.56500000E-02     4.32795844E-09
  -3.55999991E-02     4.39290249E-09
  -3.55499983E-02     4.47477566E-09
  -3.55000012E-02     4.57386884E-09
  -3.54500003E-02     4.68275374E-09
  -3.53999995E-02     4.78963980E-09
  -3.53499986E-02     4.88383289E-09
  -3.53000015E-02     4.96054975E-09
  -3.52500007E-02     5.02290654E-09
  -3.51999998E-02     5.08046583E-09
  -3.51499990E-02     5.14521448E-09
  -3.51000018E-02     5.22659738E-09
  -3.50500010E-02     5.32745270E-09
  -3.50000001E-02     5.44250733E-09
  -3.49499993E-02     5.56037971E-09
  -3.48999985E-02     5.66857405E-09
  -3.48500013E-02     5.75931747E-09
  -3.48000005E-02     5.83333870E-09
  -3.47499996E-02     5.89966920E-09
  -3.46999988E-02     5.97161920E-09
  -3.46500017E-02     6.06099348E-09
  -3.46000008E-02     6.17320817E-09
  -3.45500000E-02     6.30523722E-09
  -3.44999991E-02     6.44705178E-09
  -3.44499983E-02     6.58595267E-09
  -3.44000012E-02     6.71218592E-09
  -3.43500003E-02     6.82354795E-09
  -3.42999995E-02     6.92676982E-09
  -3.42499986E-02     7.03474745E-09
  -3.42000015E-02     7.16074400E-09
  -3.41500007E-02     7.31235428E-09
  -3.40999998E-02     7.48816742E-09
  -3.40499990E-02     7.67860797E-09
  -3.40000018E-02     7.87036392E-09
  -3.39500010E-02     8.05232059E-09
  -3.39000002E-02     8.22053181E-09
  -3.38499993E-02     8.38022896E-09
  -3.37999985E-02     8.54398241E-09
  -3.37500013E-02     8.72656081E-09
  -3.37000005E-02     8.93857077E-09
  -3.36499996E-02     9.18175758E-09
  -3.35999988E-02     9.44831680E-09
  -3.35500017E-02     9.72465042E-09
  -3.35000008E-02     9.99777772E-09
  -3.34500000E-02     1.02613518E-08
  -3.33999991E-02     1.05185949E-08
  -3.33499983E-02     1.07810214E-08
  -3.33000012E-02     1.10636078E-08
  -3.32500003E-02     1.13784422E-08
  -3.31999995E-02     1.17294903E-08
  -3.31499986E-02     1.21107773E-08
  -3.31000015E-02     1.25090045E-08
  -3.30500007E-02     1.29096120E-08
  -3.29999998E-02     1.33035938E-08
  -3.29499990E-02     1.36918343E-08
  -3.29000019E-02     1.40849412E-08
  -3.28500010E-02     1.44987178E-08
  -3.28000002E-02     1.49474282E-08
  -3.27499993E-02     1.54378306E-08
  -3.26999985E-02     1.59664832E-08
  -3.26500013E-02     1.65214651E-08
  -3.26000005E-02     1.70878049E-08
  -3.25499997E-02     1.76544042E-08
  -3.24999988E-02     1.82193478E-08
  -3.24500017E-02     1.87911304E-08
  -3.24000008E-02     1.93850695E-08
  -3.23500000E-02     2.00165644E-08
  -3.22999991E-02     2.06943351E-08
  -3.22499983E-02     2.14167066E-08
  -3.22000012E-02     2.21725731E-08
  -3.21500003E-02     2.29464625E-08
  -3.20999995E-02     2.37255353E-08
  -3.20499986E-02     2.45054927E-08
  -3.20000015E-02     2.52928345E-08
  -3.19500007E-02     2.61023221E-08
  -3.18999998E-02     2.69506018E-08
  -3.18499990E-02     2.78488699E-08
  -3.18000019E-02     2.87979560E-08
  -3.17500010E-02     2.97881488E-08
  -3.17000002E-02     3.08038253E-08
  -3.16499993E-02     3.18306874E-08
  -3.15999985E-02     3.28623244E-08
  -3.15500014E-02     3.39033228E-08
  -3.15000005E-02     3.49675595E-08
  -3.14499997E-02     3.60723931E-08
  -3.13999988E-02     3.72311106E-08
  -3.13500017E-02     3.84470376E-08
  -3.13000008E-02     3.97119813E-08
  -3.12500000E-02     4.10099616E-08
  -3.11999992E-02     4.23245581E-08
  -3.11500002E-02     4.36464234E-08
  -3.10999993E-02     4.49775577E-08
  -3.10500003E-02     4.63304382E-08
  -3.09999995E-02     4.77225797E-08
  -3.09500005E-02     4.91689818E-08
  -3.08999997E-02     5.06755882E-08
  -3.08500007E-02     5.22366754E-08
  -3.07999998E-02     5.38373826E-08
  -3.07500008E-02     5.54604505E-08
  -3.07000000E-02     5.70942760E-08
  -3.06499992E-02     5.87385109E-08
  -3.06000002E-02     6.04044956E-08
  -3.05499993E-02     6.21102743E-08
  -3.05000003E-02     6.38726192E-08
  -3.04499995E-02     6.56996946E-08
  -3.04000005E-02     6.75876208E-08
  -3.03499997E-02     6.95222511E-08
  -3.03000007E-02     7.14854309E-08
  -3.02499998E-02     7.34630348E-08
  -3.02000009E-02     7.54514389E-08
  -3.01500000E-02     7.74594682E-08
  -3.00999992E-02     7.95046446E-08
  -3.00500002E-02     8.16053003E-08
  -2.99999993E-02     8.37722851E-08
  -2.99500003E-02     8.60040643E-08
  -2.98999995E-02     8.82875639E-08
  -2.98500005E-02     9.06043169E-08
  -2.97999997E-02     9.29388335E-08
  -2.97500007E-02     9.52856496E-08
  -2.96999998E-02     9.76520624E-08
  -2.96500009E-02     1.00055338E-07
  -2.96000000E-02     1.02515450E-07
  -2.95499992E-02     1.05046354E-07
  -2.95000002E-02     1.07649697E-07
  -2.94499993E-02     1.10314019E-07
  -2.94000003E-02     1.13020015E-07
  -2.93499995E-02     1.15749486E-07
  -2.93000005E-02     1.18493723E-07
  -2.92499997E-02     1.21257500E-07
  -2.92000007E-02     1.24057067E-07
  -2.91499998E-02     1.26913108E-07
  -2.91000009E-02     1.29841851E-07
  -2.90500000E-02     1.32848157E-07
  -2.89999992E-02     1.35923372E-07
  -2.89500002E-02     1.39049192E-07
  -2.88999993E-02     1.42206162E-07
  -2.88500004E-02     1.45382870E-07
  -2.87999995E-02     1.48581677E-07
  -2.87500005E-02     1.51818128E-07
  -2.86999997E-02     1.55114350E-07
  -2.86500007E-02     1.58489442E-07
  -2.85999998E-02     1.61951363E-07
  -2.85500009E-02     1.65493972E-07
  -2.85000000E-02     1.69100034E-07
  -2.84499992E-02     1.72749310E-07
  -2.84000002E-02     1.76427832E-07
  -2.83499993E-02     1.80134776E-07
  -2.83000004E-02     1.83883600E-07
  -2.82499995E-02     1.87696614E-07
  -2.82000005E-02     1.91595362E-07
  -2.81499997E-02     1.95591269E-07
  -2.81000007E-02     1.99680869E-07
  -2.80499998E-02     2.03847932E-07
  -2.80000009E-02     2.08071285E-07
  -2.79500000E-02     2.12334896E-07
  -2.78999992E-02     2.16635584E-07
  -2.78500002E-02     2.20985100E-07
  -2.77999993E-02     2.25405813E-07
  -2.77500004E-02     2.29921568E-07
  -2.76999995E-02     2.34547670E-07
  -2.76500005E-02     2.39284617E-07
  -2.75999997E-02     2.44118212E-07
  -2.75500007E-02     2.49026897E-07
  -2.74999999E-02     2.53992084E-07
  -2.74500009E-02     2.59007436E-07
  -2.74000000E-02     2.64082473E-07
  -2.73499992E-02     2.69239166E-07
  -2.73000002E-02     2.74502781E-07
  -2.72499993E-02     2.79891481E-07
  -2.72000004E-02     2.85409072E-07
  -2.71499995E-02     2.91043733E-07
  -2.71000005E-02     2.96773976E-07
  -2.70499997E-02     3.02578826E-07
  -2.70000007E-02     3.08448307E-07
  -2.69499999E-02     3.14388757E-07
  -2.69000009E-02     3.20420952E-07
  -2.68500000E-02     3.26571495E-07
  -2.67999992E-02     3.32861788E-07
  -2.67500002E-02     3.39299277E-07
  -2.66999993E-02     3.45875065E-07
  -2.66500004E-02     3.52568804E-07
  -2.65999995E-02     3.59358665E-07
  -2.65500005E-02     3.66231973E-07
  -2.64999997E-02     3.73192165E-07
  -2.64500007E-02     3.80258058E-07
  -2.63999999E-02     3.87456708E-07
  -2.63500009E-02     3.94811650E-07
  -2.63000000E-02     4.02333427E-07
  -2.62499992E-02     4.10015105E-07
  -2.62000002E-02     4.17836560E-07
  -2.61499994E-02     4.25774061E-07
  -2.61000004E-02     4.33811806E-07
  -2.60499995E-02     4.41949823E-07
  -2.60000005E-02     4.50204794E-07
  -2.59499997E-02     4.58603608E-07
  -2.59000007E-02     4.67172157E-07
  -2.58499999E-02     4.75924423E-07
  -2.58000009E-02     4.84856855E-07
  -2.57500000E-02     4.93950779E-07
  -2.56999992E-02     5.03181695E-07
  -2.56500002E-02     5.12531187E-07
  -2.55999994E-02     5.21996355E-07
  -2.55500004E-02     5.31591922E-07
  -2.54999995E-02     5.41344320E-07
  -2.54500005E-02     5.51281119E-07
  -2.53999997E-02     5.61418972E-07
  -2.53500007E-02     5.71756914E-07
  -2.52999999E-02     5.82277437E-07
  -2.52500009E-02     5.92954905E-07
  -2.52000000E-02     6.03767774E-07
  -2.51499992E-02     6.14709506E-07
  -2.51000002E-02     6.25791927E-07
  -2.50499994E-02     6.37040728E-07
  -2.50000004E-02     6.48484672E-07
  -2.49499995E-02     6.60142973E-07
  -2.49000005E-02     6.72017620E-07
  -2.48499997E-02     6.84093152E-07
  -2.48000007E-02     6.96343932E-07
  -2.47499999E-02     7.08746938E-07
  -2.47000009E-02     7.21292622E-07
  -2.46500000E-02     7.33990476E-07
  -2.45999992E-02     7.46865624E-07
  -2.45500002E-02     7.59948023E-07
  -2.44999994E-02     7.73259217E-07
  -2.44500004E-02     7.86803525E-07
  -2.43999995E-02     8.00566283E-07
  -2.43500005E-02     8.14521457E-07
  -2.42999997E-02     8.28643863E-07
  -2.42500007E-02     8.42921224E-07
  -2.41999999E-02     8.57360646E-07
  -2.41500009E-02     8.71986060E-07
  -2.41000000E-02     8.86828275E-07
  -2.40499992E-02     9.01911108E-07
  -2.40000002E-02     9.17241266E-07
  -2.39499994E-02     9.32805051E-07
  -2.39000004E-02     9.48575348E-07
  -2.38499995E-02     9.64524361E-07
  -2.38000005E-02     9.80637083E-07
  -2.37499997E-02     9.96918516E-07
  -2.37000007E-02     1.01339231E-06
  -2.36499999E-02     1.03009040E-06
  -2.36000009E-02     1.04703929E-06
  -2.35500000E-02     1.06424807E-06
  -2.34999992E-02     1.08170434E-06
  -2.34500002E-02     1.09938003E-06
  -2.33999994E-02     1.11724466E-06
  -2.33500004E-02     1.13527926E-06
  -2.32999995E-02     1.15348621E-06
  -2.32500006E-02     1.17188824E-06
  -2.31999997E-02     1.19051822E-06
  -2.31500007E-02     1.20940422E-06
  -2.30999999E-02     1.22855693E-06
  -2.30500009E-02     1.24796361E-06
  -2.30000000E-02     1.26759426E-06
  -2.29499992E-02     1.28741453E-06
  -2.29000002E-02     1.30740148E-06
  -2.28499994E-02     1.32755383E-06
  -2.28000004E-02     1.34789354E-06
  -2.27499995E-02     1.36845540E-06
  -2.27000006E-02     1.38927055E-06
  -2.26499997E-02     1.41035184E-06
  -2.26000007E-02     1.43168700E-06
  -2.25499999E-02     1.45324361E-06
  -2.25000009E-02     1.47498281E-06
  -2.24500000E-02     1.49687685E-06
  -2.23999992E-02     1.51892118E-06
  -2.23500002E-02     1.54113604E-06
  -2.22999994E-02     1.56355691E-06
  -2.22500004E-02     1.58621742E-06
  -2.21999995E-02     1.60913260E-06
  -2.21500006E-02     1.63228947E-06
  -2.20999997E-02     1.65565166E-06
  -2.20500007E-02     1.67917335E-06
  -2.19999999E-02     1.70281930E-06
  -2.19500009E-02     1.72657951E-06
  -2.19000001E-02     1.75047251E-06
  -2.18499992E-02     1.77453569E-06
  -2.18000002E-02     1.79880658E-06
  -2.17499994E-02     1.82330393E-06
  -2.17000004E-02     1.84801581E-06
  -2.16499995E-02     1.87290277E-06
  -2.16000006E-02     1.89791240E-06
  -2.15499997E-02     1.92300081E-06
  -2.15000007E-02     1.94815038E-06
  -2.14499999E-02     1.97337613E-06
  -2.14000009E-02     1.99871670E-06
  -2.13500001E-02     2.02421393E-06
  -2.12999992E-02     2.04989010E-06
  -2.12500002E-02     2.07573407E-06
  -2.11999994E-02     2.10170219E-06
  -2.11500004E-02     2.12773330E-06
  -2.10999995E-02     2.15377281E-06
  -2.10500006E-02     2.17979323E-06
  -2.09999997E-02     2.20580455E-06
  -2.09500007E-02     2.23184588E-06
  -2.08999999E-02     2.25796384E-06
  -2.08500009E-02     2.28418708E-06
  -2.08000001E-02     2.31050694E-06
  -2.07499992E-02     2.33687706E-06
  -2.07000002E-02     2.36322694E-06
  -2.06499994E-02     2.38948928E-06
  -2.06000004E-02     2.41562566E-06
  -2.05499995E-02     2.44163812E-06
  -2.05000006E-02     2.46756554E-06
  -2.04499997E-02     2.49345999E-06
  -2.04000007E-02     2.51935649E-06
  -2.03499999E-02     2.54525207E-06
  -2.03000009E-02     2.57109764E-06
  -2.02500001E-02     2.59681315E-06
  -2.01999992E-02     2.62231652E-06
  -2.01500002E-02     2.64755317E-06
  -2.00999994E-02     2.67251448E-06
  -2.00500004E-02     2.69723660E-06
  -1.99999996E-02     2.72177545E-06
  -1.99500006E-02     2.74617469E-06
  -1.98999997E-02     2.77043819E-06
  -1.98500007E-02     2.79451706E-06
  -1.97999999E-02     2.81832308E-06
  -1.97500009E-02     2.84175690E-06
  -1.97000001E-02     2.86474619E-06
  -1.96499992E-02     2.88726824E-06
  -1.96000002E-02     2.90935191E-06
  -1.95499994E-02     2.93105836E-06
  -1.95000004E-02     2.95244104E-06
  -1.94499996E-02     2.97351289E-06
  -1.94000006E-02     2.99422800E-06
  -1.93499997E-02     3.01449018E-06
  -1.93000007E-02     3.03418415E-06
  -1.92499999E-02     3.05321555E-06
  -1.92000009E-02     3.07154164E-06
  -1.91500001E-02     3.08918129E-06
  -1.90999992E-02     3.10619407E-06
  -1.90500002E-02     3.12264342E-06
  -1.89999994E-02     3.13855253E-06
  -1.89500004E-02     3.15388115E-06
  -1.88999996E-02     3.16852720E-06
  -1.88500006E-02     3.18235789E-06
  -1.87999997E-02     3.19525452E-06
  -1.87500007E-02     3.20715208E-06
  -1.86999999E-02     3.21805373E-06
  -1.86500009E-02     3.22801770E-06
  -1.86000001E-02     3.23711538E-06
  -1.85499992E-02     3.24538428E-06
  -1.85000002E-02     3.25279279E-06
  -1.84499994E-02     3.25923679E-06
  -1.84000004E-02     3.26456757E-06
  -1.83499996E-02     3.26863892E-06
  -1.83000006E-02     3.27135626E-06
  -1.82499997E-02     3.27270118E-06
  -1.82000007E-02     3.27272255E-06
  -1.81499999E-02     3.27149769E-06
  -1.81000009E-02     3.26907661E-06
  -1.80500001E-02     3.26544045E-06
  -1.79999992E-02     3.26048621E-06
  -1.79500002E-02     3.25405017E-06
  -1.78999994E-02     3.24595794E-06
  -1.78500004E-02     3.23608151E-06
  -1.77999996E-02     3.22437472E-06
  -1.77500006E-02     3.21087282E-06
  -1.76999997E-02     3.19565538E-06
  -1.76500008E-02     3.17878653E-06
  -1.75999999E-02     3.16026194E-06
  -1.75500009E-02     3.13998476E-06
  -1.75000001E-02     3.11778103E-06
  -1.74499992E-02     3.09344978E-06
  -1.74000002E-02     3.06682477E-06
  -1.73499994E-02     3.03782508E-06
  -1.73000004E-02     3.00646298E-06
  -1.72499996E-02     2.97281235E-06
  -1.72000006E-02     2.93694961E-06
  -1.71499997E-02     2.89888681E-06
  -1.71000008E-02     2.85853662E-06
  -1.70499999E-02     2.81571761E-06
  -1.70000009E-02     2.77020195E-06
  -1.69500001E-02     2.72178568E-06
  -1.68999992E-02     2.67034648E-06
  -1.68500002E-02     2.61586638E-06
  -1.67999994E-02     2.55840905E-06
  -1.67500004E-02     2.49805885E-06
  -1.66999996E-02     2.43484601E-06
  -1.66500006E-02     2.36869846E-06
  -1.65999997E-02     2.29943134E-06
  -1.65500008E-02     2.22679569E-06
  -1.64999999E-02     2.15054638E-06
  -1.64500009E-02     2.07051426E-06
  -1.64000001E-02     1.98664384E-06
  -1.63499992E-02     1.89898003E-06
  -1.63000003E-02     1.80760787E-06
  -1.62499994E-02     1.71257534E-06
  -1.62000004E-02     1.61382752E-06
  -1.61499996E-02     1.51118627E-06
  -1.61000006E-02     1.40438237E-06
  -1.60499997E-02     1.29313048E-06
  -1.60000008E-02     1.17720936E-06
  -1.59499999E-02     1.05651668E-06
  -1.59000009E-02     9.31067746E-07
  -1.58500001E-02     8.00943610E-07
  -1.57999992E-02     6.66207598E-07
  -1.57500003E-02     5.26825374E-07
  -1.56999994E-02     3.82628514E-07
  -1.56500004E-02     2.33336891E-07
  -1.55999996E-02     7.86293626E-08
  -1.55499997E-02    -8.17696630E-08
  -1.54999997E-02    -2.48016335E-07
  -1.54499998E-02    -4.20132523E-07
  -1.53999999E-02    -5.98049837E-07
  -1.53500000E-02    -7.81696144E-07
  -1.53000001E-02    -9.71083523E-07
  -1.52500002E-02    -1.16636500E-06
  -1.52000003E-02    -1.36782626E-06
  -1.51500003E-02    -1.57582258E-06
  -1.51000004E-02    -1.79068184E-06
  -1.50499996E-02    -2.01262219E-06
  -1.49999997E-02    -2.24171345E-06
  -1.49499997E-02    -2.47791331E-06
  -1.48999998E-02    -2.72114448E-06
  -1.48499999E-02    -2.97139923E-06
  -1.48000000E-02    -3.22880919E-06
  -1.47500001E-02    -3.49365723E-06
  -1.47000002E-02    -3.76632420E-06
  -1.46500003E-02    -4.04718958E-06
  -1.46000003E-02    -4.33653258E-06
  -1.45500004E-02    -4.63448305E-06
  -1.44999996E-02    -4.94103233E-06
  -1.44499997E-02    -5.25610858E-06
  -1.43999998E-02    -5.57968497E-06
  -1.43499998E-02    -5.91186927E-06
  -1.42999999E-02    -6.25293342E-06
  -1.42500000E-02    -6.60327578E-06
  -1.42000001E-02    -6.96332199E-06
  -1.41500002E-02    -7.33342495E-06
  -1.41000003E-02    -7.71378018E-06
  -1.40500003E-02    -8.10442543E-06
  -1.40000004E-02    -8.50530068E-06
  -1.39499996E-02    -8.91636864E-06
  -1.38999997E-02    -9.33770843E-06
  -1.38499998E-02    -9.76957563E-06
  -1.37999998E-02    -1.02123749E-05
  -1.37499999E-02    -1.06665766E-05
  -1.37000000E-02    -1.11325962E-05
  -1.36500001E-02    -1.16106994E-05
  -1.36000002E-02    -1.21009816E-05
  -1.35500003E-02    -1.26034138E-05
  -1.35000004E-02    -1.31179459E-05
  -1.34500004E-02    -1.36446342E-05
  -1.33999996E-02    -1.41837081E-05
  -1.33499997E-02    -1.47355740E-05
  -1.32999998E-02    -1.53007350E-05
  -1.32499998E-02    -1.58796629E-05
  -1.31999999E-02    -1.64727062E-05
  -1.31500000E-02    -1.70800213E-05
  -1.31000001E-02    -1.77016209E-05
  -1.30500002E-02    -1.83374650E-05
  -1.30000003E-02    -1.89875846E-05
  -1.29500004E-02    -1.96521760E-05
  -1.29000004E-02    -2.03316322E-05
  -1.28499996E-02    -2.10264789E-05
  -1.27999997E-02    -2.17372435E-05
  -1.27499998E-02    -2.24643500E-05
  -1.26999998E-02    -2.32080365E-05
  -1.26499999E-02    -2.39683668E-05
  -1.26000000E-02    -2.47453045E-05
  -1.25500001E-02    -2.55388622E-05
  -1.25000002E-02    -2.63492057E-05
  -1.24500003E-02    -2.71767040E-05
  -1.24000004E-02    -2.80218883E-05
  -1.23500004E-02    -2.88853389E-05
  -1.22999996E-02    -2.97675597E-05
  -1.22499997E-02    -3.06688671E-05
  -1.21999998E-02    -3.15893776E-05
  -1.21499998E-02    -3.25290966E-05
  -1.20999999E-02    -3.34880169E-05
  -1.20500000E-02    -3.44662658E-05
  -1.20000001E-02    -3.54641925E-05
  -1.19500002E-02    -3.64823245E-05
  -1.19000003E-02    -3.75212730E-05
  -1.18500004E-02    -3.85816056E-05
  -1.18000004E-02    -3.96637261E-05
  -1.17499996E-02    -4.07678162E-05
  -1.16999997E-02    -4.18939089E-05
  -1.16499998E-02    -4.30420041E-05
  -1.15999999E-02    -4.42122036E-05
  -1.15499999E-02    -4.54048131E-05
  -1.15000000E-02    -4.66203383E-05
  -1.14500001E-02    -4.78594193E-05
  -1.14000002E-02    -4.91226820E-05
  -1.13500003E-02    -5.04106138E-05
  -1.13000004E-02    -5.17234803E-05
  -1.12500004E-02    -5.30613615E-05
  -1.11999996E-02    -5.44242648E-05
  -1.11499997E-02    -5.58122592E-05
  -1.10999998E-02    -5.72256031E-05
  -1.10499999E-02    -5.86647693E-05
  -1.09999999E-02    -6.01304127E-05
  -1.09500000E-02    -6.16232064E-05
  -1.09000001E-02    -6.31437069E-05
  -1.08500002E-02    -6.46922708E-05
  -1.08000003E-02    -6.62690290E-05
  -1.07500004E-02    -6.78739962E-05
  -1.07000005E-02    -6.95072304E-05
  -1.06499996E-02    -7.11689354E-05
  -1.05999997E-02    -7.28595696E-05
  -1.05499998E-02    -7.45797515E-05
  -1.04999999E-02    -7.63301941E-05
  -1.04499999E-02    -7.81115377E-05
  -1.04000000E-02    -7.99242116E-05
  -1.03500001E-02    -8.17684122E-05
  -1.03000002E-02    -8.36441759E-05
  -1.02500003E-02    -8.55515318E-05
  -1.02000004E-02    -8.74906473E-05
  -1.01500005E-02    -8.94619152E-05
  -1.00999996E-02    -9.14659613E-05
  -1.00499997E-02    -9.35035059E-05
  -9.99999978E-03    -9.55752475E-05
  -9.94999986E-03    -9.76816809E-05
  -9.89999995E-03    -9.98230971E-05
  -9.85000003E-03    -1.01999554E-04
  -9.80000012E-03    -1.04211060E-04
  -9.75000020E-03    -1.06457752E-04
  -9.70000029E-03    -1.08739943E-04
  -9.65000037E-03    -1.11058223E-04
  -9.60000046E-03    -1.13413313E-04
  -9.54999961E-03    -1.15805953E-04
  -9.49999969E-03    -1.18236698E-04
  -9.44999978E-03    -1.20705918E-04
  -9.39999986E-03    -1.23213715E-04
  -9.34999995E-03    -1.25760111E-04
  -9.30000003E-03    -1.28345186E-04
  -9.25000012E-03    -1.30969202E-04
  -9.20000020E-03    -1.33632682E-04
  -9.15000029E-03    -1.36336326E-04
  -9.10000037E-03    -1.39080861E-04
  -9.05000046E-03    -1.41866956E-04
  -8.99999961E-03    -1.44695005E-04
  -8.94999970E-03    -1.47565210E-04
  -8.89999978E-03    -1.50477557E-04
  -8.84999987E-03    -1.53432135E-04
  -8.79999995E-03    -1.56429116E-04
  -8.75000004E-03    -1.59468924E-04
  -8.70000012E-03    -1.62552242E-04
  -8.65000021E-03    -1.65679798E-04
  -8.60000029E-03    -1.68852304E-04
  -8.55000038E-03    -1.72070213E-04
  -8.50000046E-03    -1.75333756E-04
  -8.44999962E-03    -1.78642964E-04
  -8.39999970E-03    -1.81997850E-04
  -8.34999979E-03    -1.85398560E-04
  -8.29999987E-03    -1.88845472E-04
  -8.24999996E-03    -1.92339139E-04
  -8.20000004E-03    -1.95880304E-04
  -8.15000013E-03    -1.99469650E-04
  -8.10000021E-03    -2.03107746E-04
  -8.05000030E-03    -2.06794837E-04
  -8.00000038E-03    -2.10530983E-04
  -7.95000046E-03    -2.14316213E-04
  -7.89999962E-03    -2.18150570E-04
  -7.84999970E-03    -2.22034330E-04
  -7.79999979E-03    -2.25967990E-04
  -7.74999987E-03    -2.29952231E-04
  -7.69999996E-03    -2.33987783E-04
  -7.65000004E-03    -2.38075183E-04
  -7.60000013E-03    -2.42214766E-04
  -7.55000021E-03    -2.46406620E-04
  -7.49999983E-03    -2.50650715E-04
  -7.44999992E-03    -2.54947081E-04
  -7.40000000E-03    -2.59295863E-04
  -7.35000009E-03    -2.63697468E-04
  -7.30000017E-03    -2.68152507E-04
  -7.24999979E-03    -2.72661680E-04
  -7.19999988E-03    -2.77225598E-04
  -7.14999996E-03    -2.81844579E-04
  -7.10000005E-03    -2.86518742E-04
  -7.05000013E-03    -2.91248085E-04
  -7.00000022E-03    -2.96032493E-04
  -6.94999984E-03    -3.00872081E-04
  -6.89999992E-03    -3.05767200E-04
  -6.85000001E-03    -3.10718257E-04
  -6.80000009E-03    -3.15726007E-04
  -6.75000018E-03    -3.20790976E-04
  -6.69999979E-03    -3.25913599E-04
  -6.64999988E-03    -3.31093994E-04
  -6.59999996E-03    -3.36332130E-04
  -6.55000005E-03    -3.41627834E-04
  -6.50000013E-03    -3.46981105E-04
  -6.45000022E-03    -3.52392177E-04
  -6.39999984E-03    -3.57861456E-04
  -6.34999992E-03    -3.63389554E-04
  -6.30000001E-03    -3.68976936E-04
  -6.25000009E-03    -3.74624098E-04
  -6.20000018E-03    -3.80331127E-04
  -6.14999980E-03    -3.86098021E-04
  -6.09999988E-03    -3.91924579E-04
  -6.04999997E-03    -3.97810742E-04
  -6.00000005E-03    -4.03756538E-04
  -5.95000014E-03    -4.09762288E-04
  -5.90000022E-03    -4.15828486E-04
  -5.84999984E-03    -4.21955629E-04
  -5.79999993E-03    -4.28144151E-04
  -5.75000001E-03    -4.34394169E-04
  -5.70000010E-03    -4.40705655E-04
  -5.65000018E-03    -4.47078346E-04
  -5.59999980E-03    -4.53512126E-04
  -5.54999989E-03    -4.60006850E-04
  -5.49999997E-03    -4.66562837E-04
  -5.45000006E-03    -4.73180407E-04
  -5.40000014E-03    -4.79859998E-04
  -5.35000023E-03    -4.86602017E-04
  -5.29999984E-03    -4.93406609E-04
  -5.24999993E-03    -5.00273716E-04
  -5.20000001E-03    -5.07202989E-04
  -5.15000010E-03    -5.14194311E-04
  -5.10000018E-03    -5.21247392E-04
  -5.04999980E-03    -5.28362405E-04
  -4.99999989E-03    -5.35539468E-04
  -4.94999997E-03    -5.42779104E-04
  -4.90000006E-03    -5.50081604E-04
  -4.85000014E-03    -5.57447085E-04
  -4.80000023E-03    -5.64875489E-04
  -4.74999985E-03    -5.72366524E-04
  -4.69999993E-03    -5.79919782E-04
  -4.65000002E-03    -5.87535033E-04
  -4.60000010E-03    -5.95212216E-04
  -4.55000019E-03    -6.02951448E-04
  -4.49999981E-03    -6.10753021E-04
  -4.44999989E-03    -6.18617225E-04
  -4.39999998E-03    -6.26544177E-04
  -4.35000006E-03    -6.34533877E-04
  -4.30000015E-03    -6.42585859E-04
  -4.25000023E-03    -6.50699716E-04
  -4.19999985E-03    -6.58875157E-04
  -4.14999994E-03    -6.67111832E-04
  -4.10000002E-03    -6.75409916E-04
  -4.05000011E-03    -6.83769467E-04
  -4.00000019E-03    -6.92190777E-04
  -3.94999981E-03    -7.00673903E-04
  -3.89999989E-03    -7.09218788E-04
  -3.84999998E-03    -7.17825023E-04
  -3.80000006E-03    -7.26492202E-04
  -3.74999992E-03    -7.35219743E-04
  -3.70000000E-03    -7.44007295E-04
  -3.65000009E-03    -7.52854859E-04
  -3.59999994E-03    -7.61762436E-04
  -3.55000002E-03    -7.70730257E-04
  -3.50000011E-03    -7.79758324E-04
  -3.44999996E-03    -7.88846519E-04
  -3.40000005E-03    -7.97994435E-04
  -3.34999990E-03    -8.07201373E-04
  -3.29999998E-03    -8.16466869E-04
  -3.25000007E-03    -8.25790630E-04
  -3.19999992E-03    -8.35172308E-04
  -3.15000000E-03    -8.44611903E-04
  -3.10000009E-03    -8.54109472E-04
  -3.04999994E-03    -8.63665133E-04
  -3.00000003E-03    -8.73278594E-04
  -2.95000011E-03    -8.82949331E-04
  -2.89999996E-03    -8.92676879E-04
  -2.85000005E-03    -9.02460597E-04
  -2.79999990E-03    -9.12299904E-04
  -2.74999999E-03    -9.22194566E-04
  -2.70000007E-03    -9.32144409E-04
  -2.64999992E-03    -9.42149549E-04
  -2.60000001E-03    -9.52209870E-04
  -2.55000009E-03    -9.62325197E-04
  -2.49999994E-03    -9.72494949E-04
  -2.45000003E-03    -9.82718542E-04
  -2.40000011E-03    -9.92995338E-04
  -2.34999997E-03    -1.00332464E-03
  -2.30000005E-03    -1.01370609E-03
  -2.24999990E-03    -1.02413958E-03
  -2.19999999E-03    -1.03462487E-03
  -2.15000007E-03    -1.04516197E-03
  -2.09999993E-03    -1.05575065E-03
  -2.05000001E-03    -1.06639031E-03
  -2.00000009E-03    -1.07708038E-03
  -1.94999995E-03    -1.08782016E-03
  -1.90000003E-03    -1.09860883E-03
  -1.85000000E-03    -1.10944593E-03
  -1.79999997E-03    -1.12033123E-03
  -1.75000005E-03    -1.13126461E-03
  -1.70000002E-03    -1.14224607E-03
  -1.64999999E-03    -1.15327514E-03
  -1.59999996E-03    -1.16435136E-03
  -1.55000004E-03    -1.17547414E-03
  -1.50000001E-03    -1.18664280E-03
  -1.44999998E-03    -1.19785639E-03
  -1.39999995E-03    -1.20911456E-03
  -1.35000004E-03    -1.22041698E-03
  -1.30000000E-03    -1.23176316E-03
  -1.24999997E-03    -1.24315289E-03
  -1.20000006E-03    -1.25458650E-03
  -1.15000003E-03    -1.26606307E-03
  -1.09999999E-03    -1.27758214E-03
  -1.04999996E-03    -1.28914276E-03
  -1.00000005E-03    -1.30074425E-03
  -9.50000016E-04    -1.31238613E-03
  -8.99999985E-04    -1.32406771E-03
  -8.50000011E-04    -1.33578875E-03
  -7.99999980E-04    -1.34754938E-03
  -7.50000007E-04    -1.35934900E-03
  -6.99999975E-04    -1.37118762E-03
  -6.50000002E-04    -1.38306420E-03
  -6.00000028E-04    -1.39497814E-03
  -5.49999997E-04    -1.40692864E-03
  -5.00000024E-04    -1.41891523E-03
  -4.49999992E-04    -1.43093744E-03
  -3.99999990E-04    -1.44299469E-03
  -3.49999988E-04    -1.45508687E-03
  -3.00000014E-04    -1.46721373E-03
  -2.50000012E-04    -1.47937494E-03
  -1.99999995E-04    -1.49157015E-03
  -1.50000007E-04    -1.50379853E-03
  -9.99999975E-05    -1.51605916E-03
  -4.99999987E-05    -1.52835168E-03
   0.00000000        -1.54067506E-03
   4.99999987E-05    -1.55302929E-03
   9.99999975E-05    -1.56541413E-03
   1.50000007E-04    -1.57782936E-03
   1.99999995E-04    -1.59027474E-03
   2.50000012E-04    -1.60275004E-03
   3.00000014E-04    -1.61525432E-03
   3.49999988E-04    -1.62778678E-03
   3.99999990E-04    -1.64034695E-03
   4.49999992E-04    -1.65293412E-03