  -3.99999991E-02   1.00000012E-24
  -3.99499983E-02   1.00000012E-24
  -3.99000011E-02   1.00000012E-24
  -3.98500003E-02   1.00000022E-24
  -3.97999994E-02  -5.16335495E-23
  -3.97499986E-02  -5.11638724E-22
  -3.97000015E-02  -2.58058884E-21
  -3.96500006E-02  -8.80306126E-21
  -3.95999998E-02  -2.23896224E-20
  -3.95499989E-02  -4.37289871E-20
  -3.95000018E-02  -6.30942223E-20
  -3.94500010E-02  -5.08395253E-20
  -3.94000001E-02   5.02601273E-20
  -3.93499993E-02   3.23369691E-19
  -3.92999984E-02   8.60529847E-19
  -3.92500013E-02   1.73047601E-18
  -3.92000005E-02   2.94240820E-18
  -3.91499996E-02   4.42661403E-18
  -3.90999988E-02   6.05387930E-18
  -3.90500017E-02   7.70223437E-18
  -3.90000008E-02   9.35397592E-18
  -3.89500000E-02   1.11800582E-17
  -3.88999991E-02   1.35597915E-17
  -3.88499983E-02   1.70030135E-17
  -3.88000011E-02   2.19868660E-17
  -3.87500003E-02   2.87709497E-17
  -3.86999995E-02   3.72852455E-17
  -3.86499986E-02   4.71719464E-17
  -3.86000015E-02   5.80011833E-17
  -3.85500006E-02   6.95914990E-17
  -3.84999998E-02   8.22902699E-17
  -3.84499989E-02   9.70517315E-17
  -3.84000018E-02   1.15216849E-16
  -3.83500010E-02   1.38035639E-16
  -3.83000001E-02   1.66121332E-16
  -3.82499993E-02   1.99107588E-16
  -3.81999984E-02   2.35734537E-16
  -3.81500013E-02   2.74414296E-16
  -3.81000005E-02   3.14089796E-16
  -3.80499996E-02   3.55012419E-16
  -3.79999988E-02   3.99033675E-16
  -3.79500017E-02   4.49171408E-16
  -3.79000008E-02   5.08528512E-16
  -3.78500000E-02   5.78976136E-16
  -3.77999991E-02   6.60204372E-16
  -3.77499983E-02   7.49666881E-16
  -3.77000012E-02   8.43591505E-16
  -3.76500003E-02   9.38734852E-16
  -3.75999995E-02   1.03413554E-15
  -3.75499986E-02   1.13201634E-15
  -3.75000015E-02   1.23727384E-15
  -3.74500006E-02   1.35560910E-15
  -3.73999998E-02   1.49101325E-15
  -3.73499990E-02   1.64372471E-15
  -3.73000018E-02   1.80968970E-15
  -3.72500010E-02   1.98196413E-15
  -3.72000001E-02   2.15362108E-15
  -3.71499993E-02   2.32095985E-15
  -3.70999984E-02   2.48551718E-15
  -3.70500013E-02   2.65378556E-15
  -3.70000005E-02   2.83451487E-15
  -3.69499996E-02   3.03462534E-15
  -3.68999988E-02   3.25553619E-15
  -3.68500017E-02   3.49170740E-15
  -3.68000008E-02   3.73231050E-15
  -3.67500000E-02   3.96555118E-15
  -3.66999991E-02   4.18385106E-15
  -3.66499983E-02   4.38752352E-15
  -3.66000012E-02   4.58505160E-15
  -3.65500003E-02   4.78949825E-15
  -3.64999995E-02   5.01235601E-15
  -3.64499986E-02   5.25747929E-15
  -3.64000015E-02   5.51795929E-15
  -3.63500006E-02   5.77768161E-15
  -3.62999998E-02   6.01727039E-15
  -3.62499990E-02   6.22201731E-15
  -3.62000018E-02   6.38827971E-15
  -3.61500010E-02   6.52524113E-15
  -3.61000001E-02   6.65086713E-15
  -3.60499993E-02   6.78346293E-15
  -3.59999985E-02   6.93240817E-15
  -3.59500013E-02   7.09226277E-15
  -3.59000005E-02   7.24321675E-15
  -3.58499996E-02   7.35813879E-15
  -3.57999988E-02   7.41346190E-15
  -3.57500017E-02   7.39916144E-15
  -3.57000008E-02   7.32318936E-15
  -3.56500000E-02   7.20794968E-15
  -3.55999991E-02   7.07992997E-15
  -3.55499983E-02   6.95682983E-15
  -3.55000012E-02   6.83791275E-15
  -3.54500003E-02   6.70218504E-15
  -3.53999995E-02   6.51566246E-15
  -3.53499986E-02   6.24492447E-15
  -3.53000015E-02   5.87112841E-15
  -3.52500007E-02   5.39815834E-15
  -3.51999998E-02   4.85088273E-15
  -3.51499990E-02   4.26381647E-15
  -3.51000018E-02   3.66487185E-15
  -3.50500010E-02   3.06136363E-15
  -3.50000001E-02   2.43477588E-15
  -3.49499993E-02   1.74708571E-15
  -3.48999985E-02   9.56295645E-16
  -3.48500013E-02   3.45216583E-17
  -3.48000005E-02  -1.01944873E-15
  -3.47499996E-02  -2.17908141E-15
  -3.46999988E-02  -3.40142830E-15
  -3.46500017E-02  -4.64628954E-15
  -3.46000008E-02  -5.89486905E-15
  -3.45500000E-02  -7.15946382E-15
  -3.44999991E-02  -8.47943169E-15
  -3.44499983E-02  -9.90471963E-15
  -3.44000012E-02  -1.14738583E-14
  -3.43500003E-02  -1.31961812E-14
  -3.42999995E-02  -1.50464002E-14
  -3.42499986E-02  -1.69744098E-14
  -3.42000015E-02  -1.89264108E-14
  -3.41500007E-02  -2.08682609E-14
  -3.40999998E-02  -2.28006870E-14
  -3.40499990E-02  -2.47593507E-14
  -3.40000018E-02  -2.67992602E-14
  -3.39500010E-02  -2.89700515E-14
  -3.39000002E-02  -3.12928564E-14
  -3.38499993E-02  -3.37490283E-14
  -3.37999985E-02  -3.62860241E-14
  -3.37500013E-02  -3.88382868E-14
  -3.37000005E-02  -4.13540526E-14
  -3.36499996E-02  -4.38164181E-14
  -3.35999988E-02  -4.62492186E-14
  -3.35500017E-02  -4.87049467E-14
  -3.35000008E-02  -5.12397301E-14
  -3.34500000E-02  -5.38864302E-14
  -3.33999991E-02  -5.66374848E-14
  -3.33499983E-02  -5.94453279E-14
  -3.33000012E-02  -6.22402859E-14
  -3.32500003E-02  -6.49582791E-14
  -3.31999995E-02  -6.75662258E-14
  -3.31499986E-02  -7.00739109E-14
  -3.31000015E-02  -7.25269793E-14
  -3.30500007E-02  -7.49840321E-14
  -3.29999998E-02  -7.74877666E-14
  -3.29499990E-02  -8.00428449E-14
  -3.29000019E-02  -8.26101476E-14
  -3.28500010E-02  -8.51200417E-14
  -3.28000002E-02  -8.74987677E-14
  -3.27499993E-02  -8.96966691E-14
  -3.26999985E-02  -9.17060752E-14
  -3.26500013E-02  -9.35612400E-14
  -3.26000005E-02  -9.53206156E-14
  -3.25499997E-02  -9.70393132E-14
  -3.24999988E-02  -9.87438010E-14
  -3.24500017E-02  -1.00419720E-13
  -3.24000008E-02  -1.02017929E-13
  -3.23500000E-02  -1.03475693E-13
  -3.22999991E-02  -1.04743579E-13
  -3.22499983E-02  -1.05806138E-13
  -3.22000012E-02  -1.06687479E-13
  -3.21500003E-02  -1.07439407E-13
  -3.20999995E-02  -1.08117311E-13
  -3.20499986E-02  -1.08753914E-13
  -3.20000015E-02  -1.09341809E-13
  -3.19500007E-02  -1.09831544E-13
  -3.18999998E-02  -1.10145596E-13
  -3.18499990E-02  -1.10201629E-13
  -3.18000019E-02  -1.09935430E-13
  -3.17500010E-02  -1.09314067E-13
  -3.17000002E-02  -1.08334728E-13
  -3.16499993E-02  -1.07010748E-13
  -3.15999985E-02  -1.05351668E-13
  -3.15500014E-02  -1.03345968E-13
  -3.15000005E-02  -1.00953466E-13
  -3.14499997E-02  -9.81103152E-14
  -3.13999988E-02  -9.47439555E-14
  -3.13500017E-02  -9.07920996E-14
  -3.13000008E-02  -8.62188603E-14
  -3.12500000E-02  -8.10225300E-14
  -3.11999992E-02  -7.52335816E-14
  -3.11500002E-02  -6.89047953E-14
  -3.10999993E-02  -6.20982215E-14
  -3.10500003E-02  -5.48738911E-14
  -3.09999995E-02  -4.72839880E-14
  -3.09500005E-02  -3.93738827E-14
  -3.08999997E-02  -3.11891558E-14
  -3.08500007E-02  -2.27861451E-14
  -3.07999998E-02  -1.42429607E-14
  -3.07500008E-02  -5.66789852E-15
  -3.07000000E-02   2.79745336E-15
  -3.06499992E-02   1.09817568E-14
  -3.06000002E-02   1.86941290E-14
  -3.05499993E-02   2.57390494E-14
  -3.05000003E-02   3.19320173E-14
  -3.04499995E-02   3.71112680E-14
  -3.04000005E-02   4.11412508E-14
  -3.03499997E-02   4.39058918E-14
  -3.03000007E-02   4.52938265E-14
  -3.02499998E-02   4.51811643E-14
  -3.02000009E-02   4.34204098E-14
  -3.01500000E-02   3.98427730E-14
  -3.00999992E-02   3.42768924E-14
  -3.00500002E-02   2.65802463E-14
  -2.99999993E-02   1.66729118E-14
  -2.99500003E-02   4.56089126E-15
  -2.98999995E-02  -9.66182361E-15
  -2.98500005E-02  -2.58350521E-14
  -2.97999997E-02  -4.37710611E-14
  -2.97500007E-02  -6.32944421E-14
  -2.96999998E-02  -8.42657785E-14
  -2.96500009E-02  -1.06576477E-13
  -2.96000000E-02  -1.30114113E-13
  -2.95499992E-02  -1.54711516E-13
  -2.95000002E-02  -1.80101173E-13
  -2.94499993E-02  -2.05898043E-13
  -2.94000003E-02  -2.31623260E-13
  -2.93499995E-02  -2.56764526E-13
  -2.93000005E-02  -2.80852083E-13
  -2.92499997E-02  -3.03520555E-13
  -2.92000007E-02  -3.24529520E-13
  -2.91499998E-02  -3.43732746E-13
  -2.91000009E-02  -3.61006960E-13
  -2.90500000E-02  -3.76170639E-13
  -2.89999992E-02  -3.88930479E-13
  -2.89500002E-02  -3.98883563E-13
  -2.88999993E-02  -4.05581384E-13
  -2.88500004E-02  -4.08633766E-13
  -2.87999995E-02  -4.07810884E-13
  -2.87500005E-02  -4.03099483E-13
  -2.86999997E-02  -3.94685559E-13
  -2.86500007E-02  -3.82866346E-13
  -2.85999998E-02  -3.67926664E-13
  -2.85500009E-02  -3.50032774E-13
  -2.85000000E-02  -3.29192348E-13
  -2.84499992E-02  -3.05303526E-13
  -2.84000002E-02  -2.78277076E-13
  -2.83499993E-02  -2.48181277E-13
  -2.83000004E-02  -2.15345957E-13
  -2.82499995E-02  -1.80374473E-13
  -2.82000005E-02  -1.44050611E-13
  -2.81499997E-02  -1.07173066E-13
  -2.81000007E-02  -7.03845077E-14
  -2.80499998E-02  -3.40697827E-14
  -2.80000009E-02   1.62934019E-15
  -2.79500000E-02   3.66846886E-14
  -2.78999992E-02   7.09901159E-14
  -2.78500002E-02   1.04191829E-13
  -2.77999993E-02   1.35621413E-13
  -2.77500004E-02   1.64369617E-13
  -2.76999995E-02   1.89478844E-13
  -2.76500005E-02   2.10178148E-13
  -2.75999997E-02   2.26060083E-13
  -2.75500007E-02   2.37117970E-13
  -2.74999999E-02   2.43620120E-13
  -2.74500009E-02   2.45868565E-13
  -2.74000000E-02   2.43944486E-13
  -2.73499992E-02   2.37552843E-13
  -2.73000002E-02   2.26043861E-13
  -2.72499993E-02   2.08609117E-13
  -2.72000004E-02   1.84576245E-13
  -2.71499995E-02   1.53675344E-13
  -2.71000005E-02   1.16155566E-13
  -2.70499997E-02   7.26917916E-14
  -2.70000007E-02   2.41104523E-14
  -2.69499999E-02  -2.89535885E-14
  -2.69000009E-02  -8.63193862E-14
  -2.68500000E-02  -1.48322489E-13
  -2.67999992E-02  -2.15638325E-13
  -2.67500002E-02  -2.88935081E-13
  -2.66999993E-02  -3.68503269E-13
  -2.66500004E-02  -4.54027332E-13
  -2.65999995E-02  -5.44609117E-13
  -2.65500005E-02  -6.39045728E-13
  -2.64999997E-02  -7.36252205E-13
  -2.64500007E-02  -8.35647469E-13
  -2.63999999E-02  -9.37328665E-13
  -2.63500009E-02  -1.04194919E-12
  -2.63000000E-02  -1.15033905E-12
  -2.62499992E-02  -1.26302853E-12
  -2.62000002E-02  -1.37988091E-12
  -2.61499994E-02  -1.50000964E-12
  -2.61000004E-02  -1.62202543E-12
  -2.60499995E-02  -1.74452239E-12
  -2.60000005E-02  -1.86659520E-12
  -2.59499997E-02  -1.98815595E-12
  -2.59000007E-02  -2.10990123E-12
  -2.58499999E-02  -2.23292782E-12
  -2.58000009E-02  -2.35815209E-12
  -2.57500000E-02  -2.48578610E-12
  -2.56999992E-02  -2.61510388E-12
  -2.56500002E-02  -2.74462094E-12
  -2.55999994E-02  -2.87261773E-12
  -2.55500004E-02  -2.99779385E-12
  -2.54999995E-02  -3.11975988E-12
  -2.54500005E-02  -3.23914224E-12
  -2.53999997E-02  -3.35723506E-12
  -2.53500007E-02  -3.47533525E-12
  -2.52999999E-02  -3.59404607E-12
  -2.52500009E-02  -3.71285901E-12
  -2.52000000E-02  -3.83021045E-12
  -2.51499992E-02  -3.94400831E-12
  -2.51000002E-02  -4.05241465E-12
  -2.50499994E-02  -4.15453609E-12
  -2.50000004E-02  -4.25071783E-12
  -2.49499995E-02  -4.34228565E-12
  -2.49000005E-02  -4.43083374E-12
  -2.48499997E-02  -4.51735914E-12
  -2.48000007E-02  -4.60162377E-12
  -2.47499999E-02  -4.68204251E-12
  -2.47000009E-02  -4.75616465E-12
  -2.46500000E-02  -4.82156112E-12
  -2.45999992E-02  -4.87673443E-12
  -2.45500002E-02  -4.92164426E-12
  -2.44999994E-02  -4.95760290E-12
  -2.44500004E-02  -4.98656151E-12
  -2.43999995E-02  -5.01009173E-12
  -2.43500005E-02  -5.02850149E-12
  -2.42999997E-02  -5.04049710E-12
  -2.42500007E-02  -5.04355932E-12
  -2.41999999E-02  -5.03489568E-12
  -2.41500009E-02  -5.01256111E-12
  -2.41000000E-02  -4.97625639E-12
  -2.40499992E-02  -4.92743043E-12
  -2.40000002E-02  -4.86862460E-12
  -2.39499994E-02  -4.80231436E-12
  -2.39000004E-02  -4.72976779E-12
  -2.38499995E-02  -4.65042371E-12
  -2.38000005E-02  -4.56208986E-12
  -2.37499997E-02  -4.46190654E-12
  -2.37000007E-02  -4.34766806E-12
  -2.36499999E-02  -4.21891862E-12
  -2.36000009E-02  -4.07733396E-12
  -2.35500000E-02  -3.92617926E-12
  -2.34999992E-02  -3.76906666E-12
  -2.34500002E-02  -3.60853773E-12
  -2.33999994E-02  -3.44510466E-12
  -2.33500004E-02  -3.27719340E-12
  -2.32999995E-02  -3.10204271E-12
  -2.32500006E-02  -2.91719036E-12
  -2.31999997E-02  -2.72189714E-12
  -2.31500007E-02  -2.51786439E-12
  -2.30999999E-02  -2.30890459E-12
  -2.30500009E-02  -2.09967157E-12
  -2.30000000E-02  -1.89398822E-12
  -2.29499992E-02  -1.69350861E-12
  -2.29000002E-02  -1.49732061E-12
  -2.28499994E-02  -1.30269634E-12
  -2.28000004E-02  -1.10668842E-12
  -2.27499995E-02  -9.07882168E-13
  -2.27000006E-02  -7.07522365E-13
  -2.26499997E-02  -5.09488285E-13
  -2.26000007E-02  -3.19091568E-13
  -2.25499999E-02  -1.41197207E-13
  -2.25000009E-02   2.15129970E-14
  -2.24500000E-02   1.69353179E-13
  -2.23999992E-02   3.05133658E-13
  -2.23500002E-02   4.32531913E-13
  -2.22999994E-02   5.54029750E-13
  -2.22500004E-02   6.69332536E-13
  -2.21999995E-02   7.74989448E-13
  -2.21500006E-02   8.65423456E-13
  -2.20999997E-02   9.34956865E-13
  -2.20500007E-02   9.79951580E-13
  -2.19999999E-02   1.00011676E-12
  -2.19500009E-02   9.98374235E-13
  -2.19000001E-02   9.79301167E-13
  -2.18499992E-02   9.46807520E-13
  -2.18000002E-02   9.02065857E-13
  -2.17499994E-02   8.42626533E-13
  -2.17000004E-02   7.63151586E-13
  -2.16499995E-02   6.57486327E-13
  -2.16000006E-02   5.21179996E-13
  -2.15499997E-02   3.53350324E-13
  -2.15000007E-02   1.57036656E-13
  -2.14499999E-02  -6.21551083E-14
  -2.14000009E-02  -2.98558866E-13
  -2.13500001E-02  -5.49015423E-13
  -2.12999992E-02  -8.14363442E-13
  -2.12500002E-02  -1.09915018E-12
  -2.11999994E-02  -1.40965234E-12
  -2.11500004E-02  -1.75103205E-12
  -2.10999995E-02  -2.12488230E-12
  -2.10500006E-02  -2.52825560E-12
  -2.09999997E-02  -2.95465692E-12
  -2.09500007E-02  -3.39660700E-12
  -2.08999999E-02  -3.84867615E-12
  -2.08500009E-02  -4.30965420E-12
  -2.08000001E-02  -4.78286985E-12
  -2.07499992E-02  -5.27446619E-12
  -2.07000002E-02  -5.79035691E-12
  -2.06499994E-02  -6.33317791E-12
  -2.06000004E-02  -6.90059338E-12
  -2.05499995E-02  -7.48575073E-12
  -2.05000006E-02  -8.07972873E-12
  -2.04499997E-02  -8.67495572E-12
  -2.04000007E-02  -9.26809584E-12
  -2.03499999E-02  -9.86111626E-12
  -2.03000009E-02  -1.04600139E-11
  -2.02500001E-02  -1.10717139E-11
  -2.01999992E-02  -1.17004774E-11
  -2.01500002E-02  -1.23453929E-11
  -2.00999994E-02  -1.30001001E-11
  -2.00500004E-02  -1.36549244E-11
  -1.99999996E-02  -1.43005321E-11
  -1.99500006E-02  -1.49315282E-11
  -1.98999997E-02  -1.55483959E-11
  -1.98500007E-02  -1.61568901E-11
  -1.97999999E-02  -1.67650824E-11
  -1.97500009E-02  -1.73793289E-11
  -1.97000001E-02  -1.80008976E-11
  -1.96499992E-02  -1.86247892E-11
  -1.96000002E-02  -1.92413117E-11
  -1.95499994E-02  -1.98397878E-11
  -1.95000004E-02  -2.04127895E-11
  -1.94499996E-02  -2.09590626E-11
  -1.94000006E-02  -2.14838113E-11
  -1.93499997E-02  -2.19961514E-11
  -1.93000007E-02  -2.25047949E-11
  -1.92499999E-02  -2.30138564E-11
  -1.92000009E-02  -2.35205969E-11
  -1.91500001E-02  -2.40161727E-11
  -1.90999992E-02  -2.44891295E-11
  -1.90500002E-02  -2.49301274E-11
  -1.89999994E-02  -2.53358966E-11
  -1.89500004E-02  -2.57105934E-11
  -1.88999996E-02  -2.60639704E-11
  -1.88500006E-02  -2.64070432E-11
  -1.87999997E-02  -2.67471462E-11
  -1.87500007E-02  -2.70845135E-11
  -1.86999999E-02  -2.74119460E-11
  -1.86500009E-02  -2.77177552E-11
  -1.86000001E-02  -2.79907798E-11
  -1.85499992E-02  -2.82252745E-11
  -1.85000002E-02  -2.84235708E-11
  -1.84499994E-02  -2.85952234E-11
  -1.84000004E-02  -2.87530069E-11
  -1.83499996E-02  -2.89074095E-11
  -1.83000006E-02  -2.90620410E-11
  -1.82499997E-02  -2.92119696E-11
  -1.82000007E-02  -2.93458105E-11
  -1.81499999E-02  -2.94506711E-11
  -1.81000009E-02  -2.95179090E-11
  -1.80500001E-02  -2.95471286E-11
  -1.79999992E-02  -2.95466429E-11
  -1.79500002E-02  -2.95301492E-11
  -1.78999994E-02  -2.95109631E-11
  -1.78500004E-02  -2.94963151E-11
  -1.77999996E-02  -2.94842033E-11
  -1.77500006E-02  -2.94642262E-11
  -1.76999997E-02  -2.94221487E-11
  -1.76500008E-02  -2.93462303E-11
  -1.75999999E-02  -2.92325816E-11
  -1.75500009E-02  -2.90872413E-11
  -1.75000001E-02  -2.89239067E-11
  -1.74499992E-02  -2.87583100E-11
  -1.74000002E-02  -2.86015760E-11
  -1.73499994E-02  -2.84555018E-11
  -1.73000004E-02  -2.83118130E-11
  -1.72499996E-02  -2.81558544E-11
  -1.72000006E-02  -2.79731377E-11
  -1.71499997E-02  -2.77559677E-11
  -1.71000008E-02  -2.75072500E-11
  -1.70499999E-02  -2.72397244E-11
  -1.70000009E-02  -2.69709238E-11
  -1.69500001E-02  -2.67159316E-11
  -1.68999992E-02  -2.64810777E-11
  -1.68500002E-02  -2.62613698E-11
  -1.67999994E-02  -2.60428103E-11
  -1.67500004E-02  -2.58087215E-11
  -1.66999996E-02  -2.55473507E-11
  -1.66500006E-02  -2.52574888E-11
  -1.65999997E-02  -2.49495806E-11
  -1.65500008E-02  -2.46417782E-11
  -1.64999999E-02  -2.43525443E-11
  -1.64500009E-02  -2.40929915E-11
  -1.64000001E-02  -2.38622733E-11
  -1.63499992E-02  -2.36481303E-11
  -1.63000003E-02  -2.34324227E-11
  -1.62499994E-02  -2.31993365E-11
  -1.62000004E-02  -2.29427293E-11
  -1.61499996E-02  -2.26693820E-11
  -1.61000006E-02  -2.23966696E-11
  -1.60499997E-02  -2.21455684E-11
  -1.60000008E-02  -2.19319268E-11
  -1.59499999E-02  -2.17598370E-11
  -1.59000009E-02  -2.16199853E-11
  -1.58500001E-02  -2.14938345E-11
  -1.57999992E-02  -2.13618810E-11
  -1.57500003E-02  -2.12125040E-11
  -1.56999994E-02  -2.10474936E-11
  -1.56500004E-02  -2.08818570E-11
  -1.55999996E-02  -2.07377934E-11
  -1.55499997E-02  -2.06354499E-11
  -1.54999997E-02  -2.05843589E-11
  -1.54499998E-02  -2.05793455E-11
  -1.53999999E-02  -2.06027712E-11
  -1.53500000E-02  -2.06322251E-11
  -1.53000001E-02  -2.06504293E-11
  -1.52500002E-02  -2.06530643E-11
  -1.52000003E-02  -2.06510763E-11
  -1.51500003E-02  -2.06663332E-11
  -1.51000004E-02  -2.07224394E-11
  -1.50499996E-02  -2.08346118E-11
  -1.49999997E-02  -2.10030153E-11
  -1.49499997E-02  -2.12125283E-11
  -1.48999998E-02  -2.14391595E-11
  -1.48499999E-02  -2.16604130E-11
  -1.48000000E-02  -2.18651850E-11
  -1.47500001E-02  -2.20588062E-11
  -1.47000002E-02  -2.22610125E-11
  -1.46500003E-02  -2.24975663E-11
  -1.46000003E-02  -2.27890675E-11
  -1.45500004E-02  -2.31418322E-11
  -1.44999996E-02  -2.35447894E-11
  -1.44499997E-02  -2.39739201E-11
  -1.43999998E-02  -2.44023690E-11
  -1.43499998E-02  -2.48119737E-11
  -1.42999999E-02  -2.52011363E-11
  -1.42500000E-02  -2.55856083E-11
  -1.42000001E-02  -2.59916793E-11
  -1.41500002E-02  -2.64446486E-11
  -1.41000003E-02  -2.69575352E-11
  -1.40500003E-02  -2.75249164E-11
  -1.40000004E-02  -2.81247248E-11
  -1.39499996E-02  -2.87273174E-11
  -1.38999997E-02  -2.93079831E-11
  -1.38499998E-02  -2.98574915E-11
  -1.37999998E-02  -3.03860374E-11
  -1.37499999E-02  -3.09187537E-11
  -1.37000000E-02  -3.14846656E-11
  -1.36500001E-02  -3.21037120E-11
  -1.36000002E-02  -3.27775515E-11
  -1.35500003E-02  -3.34881775E-11
  -1.35000004E-02  -3.42051040E-11
  -1.34500004E-02  -3.48980844E-11
  -1.33999996E-02  -3.55499311E-11
  -1.33499997E-02  -3.61638081E-11
  -1.32999998E-02  -3.67617811E-11
  -1.32499998E-02  -3.73750718E-11
  -1.31999999E-02  -3.80301970E-11
  -1.31500000E-02  -3.87369338E-11
  -1.31000001E-02  -3.94834478E-11
  -1.30500002E-02  -4.02407691E-11
  -1.30000003E-02  -4.09747999E-11
  -1.29500004E-02  -4.16607408E-11
  -1.29000004E-02  -4.22936790E-11
  -1.28499996E-02  -4.28906320E-11
  -1.27999997E-02  -4.34830540E-11
  -1.27499998E-02  -4.41029574E-11
  -1.26999998E-02  -4.47685951E-11
  -1.26499999E-02  -4.54759772E-11
  -1.26000000E-02  -4.62000022E-11
  -1.25500001E-02  -4.69047821E-11
  -1.25000002E-02  -4.75588770E-11
  -1.24500003E-02  -4.81487350E-11
  -1.24000004E-02  -4.86845252E-11
  -1.23500004E-02  -4.91956649E-11
  -1.22999996E-02  -4.97178687E-11
  -1.22499997E-02  -5.02772893E-11
  -1.21999998E-02  -5.08786034E-11
  -1.21499998E-02  -5.15023441E-11
  -1.20999999E-02  -5.21126996E-11
  -1.20500000E-02  -5.26725816E-11
  -1.20000001E-02  -5.31594144E-11
  -1.19500002E-02  -5.35748147E-11
  -1.19000003E-02  -5.39437973E-11
  -1.18500004E-02  -5.43038080E-11
  -1.18000004E-02  -5.46882019E-11
  -1.17499996E-02  -5.51113322E-11
  -1.16999997E-02  -5.55617635E-11
  -1.16499998E-02  -5.60066785E-11
  -1.15999999E-02  -5.64056822E-11
  -1.15499999E-02  -5.67279904E-11
  -1.15000000E-02  -5.69656509E-11
  -1.14500001E-02  -5.71368682E-11
  -1.14000002E-02  -5.72779116E-11
  -1.13500003E-02  -5.74270666E-11
  -1.13000004E-02  -5.76074778E-11
  -1.12500004E-02  -5.78164669E-11
  -1.11999996E-02  -5.80260145E-11
  -1.11499997E-02  -5.81943209E-11
  -1.10999998E-02  -5.82835516E-11
  -1.10499999E-02  -5.82760160E-11
  -1.09999999E-02  -5.81817441E-11
  -1.09500000E-02  -5.80340706E-11
  -1.09000001E-02  -5.78749618E-11
  -1.08500002E-02  -5.77365343E-11
  -1.08000003E-02  -5.76266534E-11
  -1.07500004E-02  -5.75250785E-11
  -1.07000005E-02  -5.73917962E-11
  -1.06499996E-02  -5.71841290E-11
  -1.05999997E-02  -5.68751261E-11
  -1.05499998E-02  -5.64652561E-11
  -1.04999999E-02  -5.59822258E-11
  -1.04499999E-02  -5.54688934E-11
  -1.04000000E-02  -5.49644878E-11
  -1.03500001E-02  -5.44872480E-11
  -1.03000002E-02  -5.40261516E-11
  -1.02500003E-02  -5.35453383E-11
  -1.02000004E-02  -5.29994486E-11
  -1.01500005E-02  -5.23532467E-11
  -1.00999996E-02  -5.15969663E-11
  -1.00499997E-02  -5.07506398E-11
  -9.99999978E-03  -4.98554913E-11
  -9.94999986E-03  -4.89560406E-11
  -9.89999995E-03  -4.80806679E-11
  -9.85000003E-03  -4.72292032E-11
  -9.80000012E-03  -4.63729610E-11
  -9.75000020E-03  -4.54672792E-11
  -9.70000029E-03  -4.44712357E-11
  -9.65000037E-03  -4.33658318E-11
  -9.60000046E-03  -4.21627872E-11
  -9.54999961E-03  -4.08999362E-11
  -9.49999969E-03  -3.96252267E-11
  -9.44999978E-03  -3.83761703E-11
  -9.39999986E-03  -3.71638068E-11
  -9.34999995E-03  -3.59681070E-11
  -9.30000003E-03  -3.47469900E-11
  -9.25000012E-03  -3.34550304E-11
  -9.20000020E-03  -3.20637059E-11
  -9.15000029E-03  -3.05743902E-11
  -9.10000037E-03  -2.90183311E-11
  -9.05000046E-03  -2.74435596E-11
  -8.99999961E-03  -2.58944307E-11
  -8.94999970E-03  -2.43926962E-11
  -8.89999978E-03  -2.29284352E-11
  -8.84999987E-03  -2.14648299E-11
  -8.79999995E-03  -1.99547826E-11
  -8.75000004E-03  -1.83621347E-11
  -8.70000012E-03  -1.66782317E-11
  -8.65000021E-03  -1.49265236E-11
  -8.60000029E-03  -1.31531903E-11
  -8.55000038E-03  -1.14078105E-11
  -8.50000046E-03  -9.72249798E-12
  -8.44999962E-03  -8.09866670E-12
  -8.39999970E-03  -6.50721187E-12
  -8.34999979E-03  -4.90206096E-12
  -8.29999987E-03  -3.24120093E-12
  -8.24999996E-03  -1.50594749E-12
  -8.20000004E-03   2.89990200E-13
  -8.15000013E-03   2.10567393E-12
  -8.10000021E-03   3.89007316E-12
  -8.05000030E-03   5.60371541E-12
  -8.00000038E-03   7.23533820E-12
  -7.95000046E-03   8.80621964E-12
  -7.89999962E-03   1.03602535E-11
  -7.84999970E-03   1.19440707E-11
  -7.79999979E-03   1.35859483E-11
  -7.74999987E-03   1.52827161E-11
  -7.69999996E-03   1.70004549E-11
  -7.65000004E-03   1.86886930E-11
  -7.60000013E-03   2.03019389E-11
  -7.55000021E-03   2.18190223E-11
  -7.49999983E-03   2.32518310E-11
  -7.44999992E-03   2.46395109E-11
  -7.40000000E-03   2.60307522E-11
  -7.35000009E-03   2.74618210E-11
  -7.30000017E-03   2.89400743E-11
  -7.24999979E-03   3.04402267E-11
  -7.19999988E-03   3.19149186E-11
  -7.14999996E-03   3.33151388E-11
  -7.10000005E-03   3.46113381E-11
  -7.05000013E-03   3.58060942E-11
  -7.00000022E-03   3.69326791E-11
  -6.94999984E-03   3.80402237E-11
  -6.89999992E-03   3.91719018E-11
  -6.85000001E-03   4.03458447E-11
  -6.80000009E-03   4.15471164E-11
  -6.75000018E-03   4.27343300E-11
  -6.69999979E-03   4.38579242E-11
  -6.64999988E-03   4.48821293E-11
  -6.59999996E-03   4.58008180E-11
  -6.55000005E-03   4.66403131E-11
  -6.50000013E-03   4.74479206E-11
  -6.45000022E-03   4.82711753E-11
  -6.39999984E-03   4.91370451E-11
  -6.34999992E-03   5.00402324E-11
  -6.30000001E-03   5.09457303E-11
  -6.25000009E-03   5.18045710E-11
  -6.20000018E-03   5.25757146E-11
  -6.14999980E-03   5.32444887E-11
  -6.09999988E-03   5.38294201E-11
  -6.04999997E-03   5.43743522E-11
  -6.00000005E-03   5.49294325E-11
  -5.95000014E-03   5.55294075E-11
  -5.90000022E-03   5.61787318E-11
  -5.84999984E-03   5.68501496E-11
  -5.79999993E-03   5.74973957E-11
  -5.75000001E-03   5.80763979E-11
  -5.70000010E-03   5.85654511E-11
  -5.65000018E-03   5.89756230E-11
  -5.59999980E-03   5.93466179E-11
  -5.54999989E-03   5.97299293E-11
  -5.49999997E-03   6.01668854E-11
  -5.45000006E-03   6.06711209E-11
  -5.40000014E-03   6.12234222E-11
  -5.35000023E-03   6.17812398E-11
  -5.29999984E-03   6.22984164E-11
  -5.24999993E-03   6.27466759E-11
  -5.20000001E-03   6.31291616E-11
  -5.15000010E-03   6.34799782E-11
  -5.10000018E-03   6.38500086E-11
  -5.04999980E-03   6.42852438E-11
  -4.99999989E-03   6.48073747E-11
  -4.94999997E-03   6.54050702E-11
  -4.90000006E-03   6.60401525E-11
  -4.85000014E-03   6.66656313E-11
  -4.80000023E-03   6.72477560E-11
  -4.74999985E-03   6.77822312E-11
  -4.69999993E-03   6.82972845E-11
  -4.65000002E-03   6.88422444E-11
  -4.60000010E-03   6.94668004E-11
  -4.55000019E-03   7.02000194E-11
  -4.49999981E-03   7.10386056E-11
  -4.44999989E-03   7.19497170E-11
  -4.39999998E-03   7.28869187E-11
  -4.35000006E-03   7.38124700E-11
  -4.30000015E-03   7.47156573E-11
  -4.25000023E-03   7.56191498E-11
  -4.19999985E-03   7.65703473E-11
  -4.14999994E-03   7.76217354E-11
  -4.10000002E-03   7.88086749E-11
  -4.05000011E-03   8.01348016E-11
  -4.00000019E-03   8.15716036E-11
  -3.94999981E-03   8.30722088E-11
  -3.89999989E-03   8.45936238E-11
  -3.84999998E-03   8.61170996E-11
  -3.80000006E-03   8.76578185E-11
  -3.74999992E-03   8.92593013E-11
  -3.70000000E-03   9.09750747E-11
  -3.65000009E-03   9.28455854E-11
  -3.59999994E-03   9.48809989E-11
  -3.55000002E-03   9.70572928E-11
  -3.50000011E-03   9.93277821E-11
  -3.44999996E-03   1.01644845E-10
  -3.40000005E-03   1.03982080E-10
  -3.34999990E-03   1.06347257E-10
  -3.29999998E-03   1.08779742E-10
  -3.25000007E-03   1.11333692E-10
  -3.19999992E-03   1.14054391E-10
  -3.15000000E-03   1.16958249E-10
  -3.10000009E-03   1.20025420E-10
  -3.04999994E-03   1.23208860E-10
  -3.00000003E-03   1.26455194E-10
  -2.95000011E-03   1.29728922E-10
  -2.89999996E-03   1.33028463E-10
  -2.85000005E-03   1.36387082E-10
  -2.79999990E-03   1.39857861E-10
  -2.74999999E-03   1.43489692E-10
  -2.70000007E-03   1.47304405E-10
  -2.64999992E-03   1.51285984E-10
  -2.60000001E-03   1.55386440E-10
  -2.55000009E-03   1.59545960E-10
  -2.49999994E-03   1.63718664E-10
  -2.45000003E-03   1.67892270E-10
  -2.40000011E-03   1.72092771E-10
  -2.34999997E-03   1.76371806E-10
  -2.30000005E-03   1.80782334E-10
  -2.24999990E-03   1.85353080E-10
  -2.19999999E-03   1.90073610E-10
  -2.15000007E-03   1.94896793E-10
  -2.09999993E-03   1.99757544E-10
  -2.05000001E-03   2.04600045E-10
  -2.00000009E-03   2.09401052E-10
  -1.94999995E-03   2.14178994E-10
  -1.90000003E-03   2.18984067E-10
  -1.85000000E-03   2.23874141E-10
  -1.79999997E-03   2.28886451E-10
  -1.75000005E-03   2.34018138E-10
  -1.70000002E-03   2.39224196E-10
  -1.64999999E-03   2.44434500E-10
  -1.59999996E-03   2.49581911E-10
  -1.55000004E-03   2.54629845E-10
  -1.50000001E-03   2.59586130E-10
  -1.44999998E-03   2.64497535E-10
  -1.39999995E-03   2.69426342E-10
  -1.35000004E-03   2.74419848E-10
  -1.30000000E-03   2.79485851E-10
  -1.24999997E-03   2.84585633E-10
  -1.20000006E-03   2.89647722E-10
  -1.15000003E-03   2.94596431E-10
  -1.09999999E-03   2.99383185E-10
  -1.04999996E-03   3.04006154E-10
  -1.00000005E-03   3.08509301E-10
  -9.50000016E-04   3.12961240E-10
  -8.99999985E-04   3.17422394E-10
  -8.50000011E-04   3.21915467E-10
  -7.99999980E-04   3.26412175E-10
  -7.50000007E-04   3.30842659E-10
  -6.99999975E-04   3.35123762E-10
  -6.50000002E-04   3.39193729E-10
  -6.00000028E-04   3.43038098E-10
  -5.49999997E-04   3.46694923E-10
  -5.00000024E-04   3.50236867E-10
  -4.49999992E-04   3.53737373E-10
  -3.99999990E-04   3.57236046E-10
  -3.49999988E-04   3.60718705E-10
  -3.00000014E-04   3.64120928E-10
  -2.50000012E-04   3.67354591E-10
  -1.99999995E-04   3.70345282E-10
  -1.50000007E-04   3.73064829E-10
  -9.99999975E-05   3.75543652E-10
  -4.99999987E-05   3.77857662E-10
   0.00000000       3.80094400E-10
   4.99999987E-05   3.82314097E-10
   9.99999975E-05   3.84521415E-10
   1.50000007E-04   3.86662397E-10
   1.99999995E-04   3.88646865E-10
   2.50000012E-04   3.90388055E-10
   3.00000014E-04   3.91840949E-10
   3.49999988E-04   3.93023641E-10
   3.99999990E-04   3.94009991E-10
   4.49999992E-04   3.94898475E-10
   5.00000024E-04   3.95768862E-10
   5.49999997E-04   3.96646577E-10
   6.00000028E-04   3.97490846E-10
   6.50000002E-04   3.98211769E-10
   6.99999975E-04   3.98709926E-10
   7.50000007E-04   3.98920730E-10
   7.99999980E-04   3.98843875E-10
   8.50000011E-04   3.98545280E-10
   8.99999985E-04   3.98129057E-10
   9.50000016E-04   3.97692296E-10
   1.00000005E-03   3.97281957E-10
   1.04999996E-03   3.96873201E-10
   1.09999999E-03   3.96379068E-10
   1.15000003E-03   3.95688149E-10
   1.20000006E-03   3.94713623E-10
   1.24999997E-03   3.93431676E-10
   1.30000000E-03   3.91893240E-10
   1.35000004E-03   3.90202010E-10
   1.39999995E-03   3.88468979E-10
   1.44999998E-03   3.86762067E-10
   1.50000001E-03   3.85074639E-10
   1.55000004E-03   3.83325954E-10
   1.59999996E-03   3.81394000E-10
   1.64999999E-03   3.79167919E-10
   1.70000002E-03   3.76595061E-10
   1.75000005E-03   3.73703707E-10
   1.79999997E-03   3.70589448E-10
   1.85000000E-03   3.67371661E-10
   1.90000003E-03   3.64137276E-10
   1.94999995E-03   3.60899782E-10
   2.00000009E-03   3.57587432E-10
   2.05000001E-03   3.54070495E-10
   2.09999993E-03   3.50213525E-10
   2.15000007E-03   3.45931395E-10
   2.19999999E-03   3.41222522E-10
   2.24999990E-03   3.36166484E-10
   2.30000005E-03   3.30884764E-10
   2.34999997E-03   3.25481475E-10
   2.40000011E-03   3.19991283E-10
   2.45000003E-03   3.14356430E-10
   2.49999994E-03   3.08444659E-10
   2.55000009E-03   3.02099179E-10
   2.60000001E-03   2.95201058E-10
   2.64999992E-03   2.87714907E-10
   2.70000007E-03   2.79697737E-10
   2.74999999E-03   2.71266981E-10
   2.79999990E-03   2.62540600E-10