  -10.0000000         3.34942040E-32
  -9.97000027         1.00482609E-31
  -9.93999958         1.67471011E-31
  -9.90999985         2.34459401E-31
  -9.88000011         3.01443442E-31
  -9.85000038         3.65658395E-31
  -9.81999969         3.90077809E-31
  -9.78999996         3.62621858E-31
  -9.76000023         3.07339440E-31
  -9.72999954         2.24159579E-31
  -9.69999981         1.22224952E-31
  -9.67000008         1.46963389E-32
  -9.64000034        -8.09772433E-32
  -9.60999966        -1.50806333E-31
  -9.57999992        -1.78861763E-31
  -9.55000019        -1.48641272E-31
  -9.52000046        -6.86928982E-32
  -9.48999977         2.13467658E-32
  -9.46000004         1.08682564E-31
  -9.43000031         2.32438327E-31
  -9.39999962         3.63902465E-31
  -9.36999989         4.89611171E-31
  -9.34000015         5.80376262E-31
  -9.31000042         5.74380488E-31
  -9.27999973         5.17035548E-31
  -9.25000000         3.91792291E-31
  -9.22000027         2.02810391E-31
  -9.18999958         1.98271955E-32
  -9.15999985        -1.32107686E-31
  -9.13000011        -1.82494193E-31
  -9.10000038        -1.00487793E-31
  -9.06999969         1.16920287E-31
  -9.03999996         4.15056523E-31
  -9.01000023         7.09143439E-31
  -8.97999954         9.37858670E-31
  -8.94999981         1.02278306E-30
  -8.92000008         9.50087855E-31
  -8.89000034         6.93736987E-31
  -8.85999966         3.21281955E-31
  -8.82999992        -1.09080516E-31
  -8.80000019        -5.73453822E-31
  -8.77000046        -9.56135914E-31
  -8.73999977        -1.19468773E-30
  -8.71000004        -1.26788172E-30
  -8.68000031        -1.18656516E-30
  -8.64999962        -9.66270933E-31
  -8.61999989        -6.07208284E-31
  -8.59000015        -1.20526998E-31
  -8.56000042         4.48153131E-31
  -8.52999973         9.32872505E-31
  -8.50000000         1.15619555E-30
  -8.47000027         1.12125629E-30
  -8.43999958         9.01446839E-31
  -8.40999985         5.38913614E-31
  -8.38000011         1.39475461E-31
  -8.35000038        -2.00125656E-31
  -8.31999969        -4.69117085E-31
  -8.28999996        -6.11132366E-31
  -8.26000023        -5.26717342E-31
  -8.22999954        -1.64489840E-31
  -8.19999981         4.45342335E-31
  -8.17000008         1.12359693E-30
  -8.14000034         1.75453328E-30
  -8.10999966         2.28969523E-30
  -8.07999992         2.68545258E-30
  -8.05000019         2.81652810E-30
  -8.02000046         2.53595697E-30
  -7.98999977         1.93734992E-30
  -7.96000004         1.15264989E-30
  -7.92999983         3.08159088E-31
  -7.90000010        -5.09666750E-31
  -7.86999989        -1.28377967E-30
  -7.84000015        -1.86370811E-30
  -7.80999994        -2.08987661E-30
  -7.78000021        -1.91241759E-30
  -7.75000000        -1.34912963E-30
  -7.71999979        -5.54021631E-31
  -7.69000006         2.80447844E-31
  -7.65999985         9.56760431E-31
  -7.63000011         1.33267111E-30
  -7.59999990         1.36931334E-30
  -7.57000017         1.03767582E-30
  -7.53999996         3.41249160E-31
  -7.51000023        -5.85960236E-31
  -7.48000002        -1.54929422E-30
  -7.44999981        -2.44763954E-30
  -7.42000008        -3.15547973E-30
  -7.38999987        -3.56445509E-30
  -7.36000013        -3.70299867E-30
  -7.32999992        -3.44762826E-30
  -7.30000019        -2.79116112E-30
  -7.26999998        -1.88466276E-30
  -7.23999977        -7.68570039E-31
  -7.21000004         5.06766946E-31
  -7.17999983         1.77871160E-30
  -7.15000010         2.85465549E-30
  -7.11999989         3.61307091E-30
  -7.09000015         3.93163740E-30
  -7.05999994         3.84853615E-30
  -7.03000021         3.47272440E-30
  -7.00000000         2.87674764E-30
  -6.96999979         2.13646512E-30
  -6.94000006         1.32573758E-30
  -6.90999985         5.95635495E-31
  -6.88000011         1.03063571E-31
  -6.84999990        -1.52059469E-31
  -6.82000017        -2.15911629E-31
  -6.78999996        -7.98058396E-32
  -6.76000023         1.81025484E-31
  -6.73000002         4.26474617E-31
  -6.69999981         6.78446063E-31
  -6.67000008         9.87019348E-31
  -6.63999987         1.26614283E-30
  -6.61000013         1.48251363E-30
  -6.57999992         1.68837758E-30
  -6.55000019         1.87145208E-30
  -6.51999998         1.97283875E-30
  -6.48999977         1.95896209E-30
  -6.46000004         1.76156574E-30
  -6.42999983         1.36279941E-30
  -6.40000010         6.99176094E-31
  -6.36999989        -2.46707700E-31
  -6.34000015        -1.33342531E-30
  -6.30999994        -2.43640915E-30
  -6.28000021        -3.35278787E-30
  -6.25000000        -3.92551166E-30
  -6.21999979        -4.13845632E-30
  -6.19000006        -3.85525321E-30
  -6.15999985        -2.98570675E-30
  -6.13000011        -1.60248167E-30
  -6.09999990         1.56295175E-31
  -6.07000017         2.07267151E-30
  -6.03999996         3.88167456E-30
  -6.01000023         5.27579093E-30
  -5.98000002         5.99361285E-30
  -5.94999981         5.80863180E-30
  -5.92000008         4.61972741E-30
  -5.88999987         2.60044214E-30
  -5.86000013        -1.95634924E-32
  -5.82999992        -2.98259573E-30
  -5.80000019        -5.82259742E-30
  -5.76999998        -8.01281348E-30
  -5.73999977        -9.26856795E-30
  -5.71000004        -9.45126347E-30
  -5.67999983        -8.42375126E-30
  -5.65000010        -6.31158389E-30
  -5.61999989        -3.40377837E-30
  -5.59000015        -1.33719994E-31
  -5.55999994         2.90582109E-30
  -5.53000021         5.31721271E-30
  -5.50000000         6.84295247E-30
  -5.46999979         7.29300995E-30
  -5.44000006         6.63777097E-30
  -5.40999985         5.01256257E-30
  -5.38000011         2.71118763E-30
  -5.34999990         1.26461081E-31
  -5.32000017        -2.33439749E-30
  -5.28999996        -4.18073913E-30
  -5.26000023        -5.02350388E-30
  -5.23000002        -4.72594808E-30
  -5.19999981        -3.40556399E-30
  -5.17000008        -1.33501091E-30
  -5.13999987         1.12406986E-30
  -5.11000013         3.47672146E-30
  -5.07999992         5.39139036E-30
  -5.05000019         6.61089070E-30
  -5.01999998         6.91538324E-30
  -4.98999977         6.31474888E-30
  -4.96000004         4.99513328E-30
  -4.92999983         3.28839485E-30
  -4.90000010         1.48889215E-30
  -4.86999989        -1.40807578E-31
  -4.84000015        -1.29166865E-30
  -4.80999994        -1.75460418E-30
  -4.78000021        -1.45757698E-30
  -4.75000000        -5.93894023E-31
  -4.71999979         4.52549526E-31
  -4.69000006         1.30045213E-30
  -4.65999985         1.69995780E-30
  -4.63000011         1.52094148E-30
  -4.59999990         7.57702453E-31
  -4.57000017        -4.67640053E-31
  -4.53999996        -1.96048196E-30
  -4.51000023        -3.41790499E-30
  -4.48000002        -4.56865791E-30
  -4.44999981        -5.11598313E-30
  -4.42000008        -4.72936398E-30
  -4.38999987        -3.39583128E-30
  -4.36000013        -1.40626364E-30
  -4.32999992         8.47972284E-31
  -4.30000019         2.88730414E-30
  -4.26999998         4.37077914E-30
  -4.23999977         5.10195356E-30
  -4.21000004         4.83594313E-30
  -4.17999983         3.63618771E-30
  -4.15000010         1.83077584E-30
  -4.11999989        -1.57175914E-31
  -4.09000015        -1.90444454E-30
  -4.05999994        -2.96895831E-30
  -4.03000021        -2.93631248E-30
  -4.00000000        -1.89507256E-30
  -3.97000003        -2.17130475E-31
  -3.94000006         1.71132116E-30
  -3.91000009         3.40155941E-30
  -3.88000011         4.33031430E-30
  -3.84999990         4.07157878E-30
  -3.81999993         2.36679449E-30
  -3.78999996        -6.27844557E-31
  -3.75999999        -4.51738868E-30
  -3.73000002        -8.80724905E-30
  -3.70000005        -1.28140064E-29
  -3.67000008        -1.58036425E-29
  -3.64000010        -1.71835367E-29
  -3.60999990        -1.66737204E-29
  -3.57999992        -1.41324529E-29
  -3.54999995        -9.70217829E-30
  -3.51999998        -3.98833610E-30
  -3.49000001         2.26378846E-30
  -3.46000004         8.37911783E-30
  -3.43000007         1.36695436E-29
  -3.40000010         1.73906855E-29
  -3.36999989         1.92099490E-29
  -3.33999991         1.91586395E-29
  -3.30999994         1.73808677E-29
  -3.27999997         1.43603807E-29
  -3.25000000         1.06913427E-29
  -3.22000003         7.04260897E-30
  -3.19000006         3.95240396E-30
  -3.16000009         1.74549269E-30
  -3.13000011         5.64373082E-31
  -3.09999990         2.79381764E-31
  -3.06999993         5.15531103E-31
  -3.03999996         7.95811744E-31
  -3.00999999         8.35062159E-31
  -2.98000002         2.64025200E-31
  -2.95000005        -1.41334896E-30
  -2.92000008        -4.43049162E-30
  -2.89000010        -8.81613992E-30
  -2.85999990        -1.44741399E-29
  -2.82999992        -2.10718764E-29
  -2.79999995        -2.81646430E-29
  -2.76999998        -3.50610461E-29
  -2.74000001        -4.07897789E-29
  -2.71000004        -4.43677835E-29
  -2.68000007        -4.47279716E-29
  -2.65000010        -4.05951606E-29
  -2.61999989        -3.07528040E-29
  -2.58999991        -1.42602489E-29
  -2.55999994         9.46290632E-30
  -2.52999997         4.04932398E-29
  -2.50000000         7.82898467E-29
  -2.47000003         1.21419435E-28
  -2.44000006         1.67489316E-28
  -2.41000009         2.13054628E-28
  -2.38000011         2.53517838E-28
  -2.34999990         2.83414530E-28
  -2.31999993         2.96759034E-28
  -2.28999996         2.87406477E-28
  -2.25999999         2.49436552E-28
  -2.23000002         1.77690534E-28
  -2.20000005         6.83953395E-29
  -2.17000008        -8.00636282E-29
  -2.14000010        -2.66461508E-28
  -2.10999990        -4.86222970E-28
  -2.07999992        -7.30901729E-28
  -2.04999995        -9.87922617E-28
  -2.01999998        -1.24045691E-27
  -1.99000001        -1.46747320E-27
  -1.96000004        -1.64439288E-27
  -1.92999995        -1.74402374E-27
  -1.89999998        -1.73791835E-27
  -1.87000000        -1.59817817E-27
  -1.84000003        -1.29942272E-27
  -1.80999994        -8.21349225E-28
  -1.77999997        -1.51553534E-28
  -1.75000000         7.11677674E-28
  -1.72000003         1.75663088E-27
  -1.69000006         2.95549049E-27
  -1.65999997         4.26237032E-27
  -1.63000000         5.61227618E-27
  -1.60000002         6.92061509E-27
  -1.57000005         8.08395690E-27
  -1.53999996         8.98242325E-27
  -1.50999999         9.48390536E-27
  -1.48000002         9.44979945E-27
  -1.45000005         8.74235993E-27
  -1.41999996         7.23441456E-27
  -1.38999999         4.82089616E-27
  -1.36000001         1.43181355E-27
  -1.33000004        -2.95376890E-27
  -1.29999995        -8.29292030E-27
  -1.26999998        -1.44641992E-26
  -1.24000001        -2.12546199E-26
  -1.21000004        -2.83492574E-26
  -1.17999995        -3.53253793E-26
  -1.14999998        -4.16528388E-26
  -1.12000000        -4.67027565E-26
  -1.09000003        -4.97661869E-26
  -1.05999994        -5.00844584E-26
  -1.02999997        -4.68928997E-26
  -1.00000000        -3.94781311E-26
 -0.970000029        -2.72477764E-26
 -0.939999998        -9.81094906E-27
 -0.910000026         1.29337859E-26
 -0.879999995         4.07086801E-26
 -0.850000024         7.27721535E-26
 -0.819999993         1.07848231E-25
 -0.790000021         1.44080576E-25
 -0.759999990         1.79021284E-25
 -0.730000019         2.09666138E-25
 -0.699999988         2.32546235E-25
 -0.670000017         2.43883301E-25
 -0.639999986         2.39813025E-25
 -0.610000014         2.16676178E-25
 -0.579999983         1.71370208E-25
 -0.550000012         1.01747162E-25
 -0.519999981         7.03657687E-27
 -0.490000010        -1.11736613E-25
 -0.460000008        -2.51376518E-25
 -0.430000007        -4.06224959E-25
 -0.400000006        -5.68000904E-25
 -0.370000005        -7.25816374E-25
 -0.340000004        -8.66410863E-25
 -0.310000002        -9.74638240E-25
 -0.280000001        -1.03422613E-24
 -0.250000000        -1.02880902E-24
 -0.219999999        -9.43216628E-25
 -0.189999998        -7.64967640E-25
 -0.159999996        -4.85897050E-25
 -0.129999995        -1.03814933E-25
 -0.100000001         3.75930703E-25
  -7.00000003E-02     9.39132991E-25
  -3.99999991E-02     1.56180477E-24
  -9.99999978E-03     2.20981673E-24
   1.99999996E-02     2.83924569E-24
   5.00000007E-02     3.39755450E-24
   7.99999982E-02     3.82569061E-24
  0.109999999         4.06113443E-24
  0.140000001         4.04186453E-24
  0.170000002         3.71113065E-24
  0.200000003         3.02284419E-24
  0.230000004         1.94732089E-24
  0.259999990         4.77023894E-25
  0.289999992        -1.36809751E-24
  0.319999993        -3.53613172E-24
  0.349999994        -5.94007923E-24
  0.379999995        -8.45655104E-24
  0.409999996        -1.09267388E-23
  0.439999998        -1.31600387E-23
  0.469999999        -1.49406043E-23
  0.500000000        -1.60369663E-23
  0.529999971        -1.62147156E-23
  0.560000002        -1.52520150E-23
  0.589999974        -1.29575255E-23
  0.620000005        -9.19006941E-24
  0.649999976        -3.87916473E-24
  0.680000007         2.95471244E-24
  0.709999979         1.11814817E-23
  0.740000010         2.05459517E-23
  0.769999981         3.06571227E-23
  0.800000012         4.09840440E-23
  0.829999983         5.08599704E-23
  0.860000014         5.94964448E-23
  0.889999986         6.60086052E-23
  0.920000017         6.94527467E-23
  0.949999988         6.88764112E-23
  0.980000019         6.33806697E-23
   1.00999999         5.21932968E-23
   1.03999996         3.47503200E-23
   1.07000005         1.07823970E-23
   1.10000002        -1.95987522E-23
   1.13000000        -5.58200059E-23
   1.15999997        -9.67796079E-23
   1.19000006        -1.40800855E-22
   1.22000003        -1.85614818E-22
   1.25000000        -2.28380230E-22
   1.27999997        -2.65747347E-22
   1.30999994        -2.93971680E-22
   1.34000003        -3.09080095E-22
   1.37000000        -3.07089540E-22
   1.39999998        -2.84274244E-22
   1.42999995        -2.37473007E-22
   1.46000004        -1.64423301E-22
   1.49000001        -6.41049324E-23
   1.51999998         6.29291005E-23
   1.54999995         2.14259570E-22
   1.58000004         3.85372941E-22
   1.61000001         5.69527079E-22
   1.63999999         7.57735912E-22
   1.66999996         9.38897958E-22
   1.70000005         1.10008448E-21
   1.73000002         1.22699945E-21
   1.75999999         1.30460903E-21
   1.78999996         1.31793399E-21
   1.82000005         1.25298042E-21
   1.85000002         1.09777752E-21
   1.88000000         8.43476333E-22
   1.90999997         4.85456267E-22
   1.94000006         2.43764709E-23
   1.97000003        -5.32895661E-22
   2.00000000        -1.17255083E-21
   2.02999997        -1.87336800E-21
   2.05999994        -2.60657415E-21
   2.08999991        -3.33609655E-21
   2.11999989        -4.01925282E-21
   2.15000010        -4.60791542E-21
   2.18000007        -5.05017230E-21
   2.21000004        -5.29247887E-21
   2.24000001        -5.28227846E-21
   2.26999998        -4.97104731E-21
   2.29999995        -4.31768045E-21
   2.32999992        -3.29211623E-21
   2.35999990        -1.87905708E-21
   2.39000010        -8.16131006E-23
   2.42000008         2.07533901E-21
   2.45000005         4.54231330E-21
   2.48000002         7.24315534E-21
   2.50999999         1.00740404E-20
   2.53999996         1.29038011E-20
   2.56999993         1.55758481E-20
   2.59999990         1.79119257E-20
   2.63000011         1.97178322E-20
   2.66000009         2.07912299E-20
   2.69000006         2.09314500E-20
   2.72000003         1.99511892E-20
   2.75000000         1.76897081E-20
   2.77999997         1.40270752E-20
   2.80999994         8.89876702E-21
   2.83999991         2.30982976E-21
   2.86999989        -5.65236100E-21
   2.90000010        -1.48077915E-20
   2.93000007        -2.48769997E-20
   2.96000004        -3.54788234E-20
   2.99000001        -4.61336141E-20
   3.01999998        -5.62727093E-20
   3.04999995        -6.52545789E-20
   3.07999992        -7.23878679E-20
   3.10999990        -7.69610005E-20
   3.14000010        -7.82777751E-20
   3.17000008        -7.56977794E-20
   3.20000005        -6.86800696E-20
   3.23000002        -5.68283227E-20
   3.25999999        -3.99350521E-20
   3.28999996        -1.80225320E-20
   3.31999993         8.62214781E-21
   3.34999990         3.94205296E-20
   3.38000011         7.34871844E-20
   3.41000009         1.09627229E-19
   3.44000006         1.46348826E-19
   3.47000003         1.81891950E-19
   3.50000000         2.14274391E-19
   3.52999997         2.41354888E-19
   3.55999994         2.60913083E-19
   3.58999991         2.70744745E-19
   3.61999989         2.68770497E-19
   3.65000010         2.53154904E-19
   3.68000007         2.22432331E-19
   3.71000004         1.75635079E-19
   3.74000001         1.12418498E-19
   3.76999998         3.31772289E-20
   3.79999995        -6.08542883E-20
   3.82999992        -1.67523978E-19
   3.85999990        -2.83714730E-19
   3.89000010        -4.05334656E-19
   3.92000008        -5.27352042E-19
   3.95000005        -6.43882248E-19
   3.98000002        -7.48330655E-19
   4.01000023        -8.33595812E-19
   4.03999996        -8.92333597E-19
   4.07000017        -9.17279710E-19
   4.09999990        -9.01625420E-19
   4.13000011        -8.39436069E-19
   4.15999985        -7.26098780E-19
   4.19000006        -5.58780356E-19
   4.21999979        -3.36872406E-19
   4.25000000        -6.23971610E-20
   4.28000021         2.59654502E-19
   4.30999994         6.21084375E-19
   4.34000015         1.01037785E-18
   4.36999989         1.41275211E-18
   4.40000010         1.81038672E-18
   4.42999983         2.18285292E-18
   4.46000004         2.50775168E-18
   4.48999977         2.76155674E-18
   4.51999998         2.92065232E-18
   4.55000019         2.96253247E-18
   4.57999992         2.86712815E-18
   4.61000013         2.61820200E-18
   4.63999987         2.20474921E-18
   4.67000008         1.62232948E-18
   4.69999981         8.74246983E-19
   4.73000002        -2.75005080E-20
   4.76000023        -1.06158840E-18
   4.78999996        -2.19712013E-18
   4.82000017        -3.39383189E-18
   4.84999990        -4.60279523E-18
   4.88000011        -5.76764338E-18
   4.90999985        -6.82632496E-18
   4.94000006        -7.71336243E-18
   4.96999979        -8.36257100E-18
   5.00000000        -8.71015229E-18
   5.03000021        -8.69807463E-18
   5.05999994        -8.27760053E-18
   5.09000015        -7.41282786E-18
   5.11999989        -6.08407346E-18
   5.15000010        -4.29091795E-18
   5.17999983        -2.05474187E-18
   5.21000004         5.79442035E-19
   5.23999977         3.54203081E-18
   5.26999998         6.73891058E-18
   5.30000019         1.00527070E-17
   5.32999992         1.33453044E-17
   5.36000013         1.64616866E-17
   5.38999987         1.92350975E-17
   5.42000008         2.14934412E-17
   5.44999981         2.30667817E-17
   5.48000002         2.37957032E-17
   5.51000023         2.35402334E-17
   5.53999996         2.21889429E-17
   5.57000017         1.96677493E-17
   5.59999990         1.59479711E-17
   5.63000011         1.10530719E-17
   5.65999985         5.06361507E-18
   5.69000006        -1.88004960E-18
   5.71999979        -9.57774978E-18
   5.75000000        -1.77723791E-17
   5.78000021        -2.61558497E-17
   5.80999994        -3.43780531E-17
   5.84000015        -4.20586567E-17
   5.86999989        -4.88013500E-17
   5.90000010        -5.42099796E-17
   5.92999983        -5.79060045E-17
   5.96000004        -5.95464294E-17
   5.98999977        -5.88415392E-17
   6.01999998        -5.55716214E-17
   6.05000019        -4.96019516E-17
   6.07999992        -4.08954852E-17
   6.11000013        -2.95226915E-17
   6.13999987        -1.56681475E-17
   6.17000008         3.66400893E-19
   6.19999981         1.81626760E-17
   6.23000002         3.71904076E-17
   6.26000023         5.68158334E-17
   6.28999996         7.63143400E-17
   6.32000017         9.48873704E-17
   6.34999990         1.11683690E-16
   6.38000011         1.25825183E-16
   6.40999985         1.36437076E-16
   6.44000006         1.42682488E-16
   6.46999979         1.43800717E-16
   6.50000000         1.39148548E-16
   6.53000021         1.28242972E-16
   6.55999994         1.10803900E-16
   6.59000015         8.67942022E-17
   6.61999989         5.64545474E-17
   6.65000010         2.03300497E-17
   6.67999983        -2.07144025E-17
   6.71000004        -6.54927860E-17
   6.73999977        -1.12513054E-16
   6.76999998        -1.60010215E-16
   6.80000019        -2.05997764E-16
   6.82999992        -2.48336958E-16
   6.86000013        -2.84821764E-16
   6.88999987        -3.13276088E-16
   6.92000008        -3.31659033E-16
   6.94999981        -3.38172769E-16
   6.98000002        -3.31366992E-16
   7.01000023        -3.10234684E-16
   7.03999996        -2.74292879E-16
   7.07000017        -2.23644385E-16
   7.09999990        -1.59016830E-16
   7.13000011        -8.17765378E-17
   7.15999985         6.08345184E-18
   7.19000006         1.01980636E-16
   7.21999979         2.02804291E-16
   7.25000000         3.04998194E-16
   7.28000021         4.04662288E-16
   7.30999994         4.97670608E-16
   7.34000015         5.79802523E-16
   7.36999989         6.46885891E-16
   7.40000010         6.94948817E-16
   7.42999983         7.20378864E-16
   7.46000004         7.20087061E-16
   7.48999977         6.91672758E-16
   7.51999998         6.33584986E-16
   7.55000019         5.45274442E-16
   7.57999992         4.27326878E-16
   7.61000013         2.81568998E-16
   7.63999987         1.11136215E-16
   7.67000008        -7.95096725E-17
   7.69999981        -2.84621996E-16
   7.73000002        -4.97278538E-16
   7.76000023        -7.09562835E-16
   7.78999996        -9.12817761E-16
   7.82000017        -1.09796476E-15
   7.84999990        -1.25587934E-15
   7.88000011        -1.37780317E-15
   7.90999985        -1.45577456E-15
   7.94000006        -1.48305019E-15
   7.96999979        -1.45449448E-15
   8.00000000        -1.36691244E-15
   8.02999973        -1.21930297E-15
   8.06000042        -1.01302102E-15
   8.09000015        -7.51835867E-16
   8.11999989        -4.41887109E-16
   8.14999962        -9.15424174E-17
   8.18000031         2.88831803E-16
   8.21000004         6.87169719E-16
   8.23999977         1.09006068E-15
   8.27000046         1.48314093E-15
   8.30000019         1.85150941E-15
   8.32999992         2.18015904E-15
   8.35999966         2.45441857E-15
   8.39000034         2.66040407E-15
   8.42000008         2.78548521E-15
   8.44999981         2.81876556E-15
   8.47999954         2.75157869E-15
   8.51000023         2.57799496E-15
   8.53999996         2.29531783E-15
   8.56999969         1.90455422E-15
   8.60000038         1.41081437E-15
   8.63000011         8.23608780E-16
   8.65999985         1.56986612E-16
   8.68999958        -5.70522112E-16
   8.72000027        -1.33620040E-15
   8.75000000        -2.11369766E-15
   8.77999973        -2.87384536E-15
   8.81000042        -3.58571662E-15
   8.84000015        -4.21788526E-15
   8.86999989        -4.73981511E-15
   8.89999962        -5.12330419E-15
   8.93000031        -5.34387835E-15
   8.96000004        -5.38204523E-15
   8.98999977        -5.22432515E-15
   9.02000046        -4.86399141E-15
   9.05000019        -4.30148022E-15
   9.07999992        -3.54446760E-15
   9.10999966        -2.60764090E-15
   9.14000034        -1.51221872E-15
   9.17000008        -2.85291258E-16
   9.19999981         1.04092980E-15
   9.22999954         2.42987960E-15
   9.26000023         3.84136599E-15
   9.28999996         5.23222755E-15
   9.31999969         6.55693117E-15
   9.35000038         7.76815610E-15
   9.38000011         8.81745035E-15
   9.40999985         9.65605363E-15
   9.43999958         1.02359959E-14
   9.47000027         1.05115620E-14
   9.50000000         1.04411668E-14
   9.52999973         9.98964654E-15
   9.56000042         9.13087795E-15
   9.59000015         7.85060629E-15
   9.61999989         6.14923939E-15
   9.64999962         4.04437268E-15
   9.68000031         1.57275394E-15
   9.71000004        -1.20860220E-15
   9.73999977        -4.22237454E-15
   9.77000046        -7.37214702E-15
   9.80000019        -1.05449275E-14
   9.82999992        -1.36149425E-14
   9.85999966        -1.64485176E-14
   9.89000034        -1.89097954E-14
   9.92000008        -2.08669175E-14
   9.94999981        -2.21983009E-14
   9.97999954        -2.27985796E-14
   10.0100002        -2.25838720E-14
   10.0400000        -2.14961055E-14
   10.0699997        -1.95062065E-14
   10.1000004        -1.66161217E-14
   10.1300001        -1.28597347E-14
   10.1599998        -8.30279483E-15
   10.1899996        -3.04210634E-15
   10.2200003         2.79585861E-15
   10.2500000         9.05674817E-15
   10.2799997         1.55604509E-14
   10.3100004         2.21035840E-14
   10.3400002         2.84625093E-14
   10.3699999         3.43971474E-14
   10.3999996         3.96559006E-14
   10.4300003         4.39819994E-14
   10.4600000         4.71215609E-14
   10.4899998         4.88334145E-14
   10.5200005         4.89006181E-14
   10.5500002         4.71432856E-14
   10.5799999         4.34321124E-14
   10.6099997         3.77016906E-14
   10.6400003         2.99625708E-14
   10.6700001         2.03109387E-14
   10.6999998         8.93476865E-15
   10.7299995        -3.88449352E-15
   10.7600002        -1.77753913E-14
   10.7900000        -3.22853452E-14
   10.8199997        -4.68947899E-14
   10.8500004        -6.10360151E-14
   10.8800001        -7.41156065E-14
   10.9099998        -8.55392010E-14
   10.9399996        -9.47370573E-14
   10.9700003        -1.01188873E-13
   11.0000000        -1.04446460E-13
   11.0299997        -1.04153252E-13
   11.0600004        -1.00059819E-13
   11.0900002        -9.20352526E-14
   11.1199999        -8.00745443E-14
   11.1499996        -6.43023639E-14
   11.1800003        -4.49739902E-14
   11.2100000        -2.24740745E-14
   11.2399998         2.68626377E-15
   11.2700005         2.98738153E-14
   11.3000002         5.83393536E-14
   11.3299999         8.72261248E-14
   11.3599997         1.15581847E-13
   11.3900003         1.42375559E-13
   11.4200001         1.66520647E-13
   11.4499998         1.86905274E-13
   11.4799995         2.02430588E-13
   11.5100002         2.12056691E-13
   11.5400000         2.14854745E-13
   11.5699997         2.10063344E-13
   11.6000004         1.97145455E-13
   11.6300001         1.75841980E-13
   11.6599998         1.46217267E-13
   11.6899996         1.08692183E-13
   11.7200003         6.40605190E-14
   11.7500000         1.34856895E-14
   11.7799997        -4.15238861E-14
   11.8100004        -9.91606496E-14
   11.8400002        -1.57383262E-13
   11.8699999        -2.13997778E-13
   11.8999996        -2.66749784E-13
   11.9300003        -3.13421571E-13
   11.9600000        -3.51928176E-13
   11.9899998        -3.80406264E-13
   12.0200005        -3.97291222E-13
   12.0500002        -4.01378664E-13
   12.0799999        -3.91868612E-13
   12.1099997        -3.68392383E-13
   12.1400003        -3.31023837E-13
   12.1700001        -2.80277619E-13
   12.1999998        -2.17097933E-13
   12.2299995        -1.42840831E-13
   12.2600002        -5.92527668E-14
   12.2900000         3.15534172E-14
   12.3199997         1.27125564E-13
   12.3500004         2.24704329E-13
   12.3800001         3.21264147E-13
   12.4099998         4.13566805E-13
   12.4399996         4.98232477E-13
   12.4700003         5.71831536E-13
   12.5000000         6.30998183E-13
   12.5299997         6.72565953E-13
   12.5600004         6.93719767E-13
   12.5900002         6.92157757E-13
   12.6199999         6.66252752E-13
   12.6499996         6.15200436E-13
   12.6800003         5.39141485E-13
   12.7100000         4.39244425E-13
   12.7399998         3.17738728E-13
   12.7700005         1.77890431E-13
   12.8000002         2.39173813E-14
   12.8299999        -1.39153690E-13
   12.8599997        -3.05680936E-13
   12.8900003        -4.69640440E-13
   12.9200001        -6.24883012E-13
   12.9499998        -7.65397836E-13
   12.9799995        -8.85565709E-13
   13.0100002        -9.80386562E-13
   13.0400000        -1.04566995E-12
   13.0699997        -1.07818041E-12
   13.1000004        -1.07573542E-12
   13.1300001        -1.03726012E-12
   13.1599998        -9.62803079E-13
   13.1899996        -8.53522981E-13
   13.2200003        -7.11656428E-13
   13.2500000        -5.40473482E-13
   13.2799997        -3.44226817E-13
   13.3100004        -1.28095519E-13
   13.3400002         1.01881191E-13
   13.3699999         3.38887420E-13
   13.3999996         5.75442688E-13
   13.4300003         8.03554489E-13
   13.4600000         1.01492111E-12
   13.4899998         1.20119149E-12
   13.5200005         1.35428051E-12
   13.5500002         1.46673320E-12
   13.5799999         1.53211829E-12
   13.6099997         1.54542937E-12
   13.6400003         1.50345979E-12
   13.6700001         1.40512038E-12
   13.6999998         1.25166316E-12
   13.7299995         1.04678657E-12
   13.7600002         7.96599115E-13
   13.7900000         5.09434400E-13
   13.8199997         1.95523353E-13
   13.8500004        -1.33459812E-13
   13.8800001        -4.64944381E-13
   13.9099998        -7.86065657E-13
   13.9399996        -1.08427601E-12
   13.9700003        -1.34792167E-12
   14.0000000        -1.56674521E-12
   14.0299997        -1.73228380E-12
   14.0600004        -1.83814791E-12
   14.0900002        -1.88017549E-12
   14.1199999        -1.85647439E-12
   14.1499996        -1.76737325E-12
   14.1800003        -1.61530923E-12
   14.2100000        -1.40468117E-12
   14.2399998        -1.14169568E-12
   14.2700005        -8.34221147E-13