  -10.0000000         2.42787638E-31
  -9.97000027         2.42787638E-31
  -9.93999958         2.42787638E-31
  -9.90999985         2.42787638E-31
  -9.88000011         2.57365719E-31
  -9.85000038         7.06620781E-31
  -9.81999969         2.66508343E-30
  -9.78999996         2.83627904E-30
  -9.76000023         3.62581251E-30
  -9.72999954         4.33277475E-30
  -9.69999981         4.44565870E-30
  -9.67000008         5.24626100E-30
  -9.64000034         3.67272546E-30
  -9.60999966         1.33608729E-30
  -9.57999992        -3.45265862E-30
  -9.55000019        -3.95338047E-30
  -9.52000046        -3.27423137E-30
  -9.48999977        -4.97033656E-30
  -9.46000004        -4.97488694E-30
  -9.43000031        -5.26552971E-30
  -9.39999962        -2.45176806E-30
  -9.36999989        -8.88848455E-31
  -9.34000015         2.24312233E-30
  -9.31000042         3.31853265E-30
  -9.27999973         5.03496881E-30
  -9.25000000         6.13465299E-30
  -9.22000027         3.52272598E-30
  -9.18999958         1.48386216E-30
  -9.15999985        -5.63967677E-31
  -9.13000011        -2.38878489E-30
  -9.10000038        -3.79346434E-30
  -9.06999969        -4.19064714E-30
  -9.03999996        -3.32607349E-30
  -9.01000023        -2.64574889E-30
  -8.97999954        -2.30061548E-30
  -8.94999981        -4.37565942E-30
  -8.92000008        -2.54635267E-30
  -8.89000034        -4.27498670E-30
  -8.85999966        -5.00257143E-30
  -8.82999992        -5.34729145E-30
  -8.80000019        -6.54201162E-30
  -8.77000046        -8.85512195E-30
  -8.73999977        -7.15152557E-30
  -8.71000004        -6.15925787E-30
  -8.68000031        -1.41286249E-30
  -8.64999962         4.55429064E-31
  -8.61999989         8.84557430E-30
  -8.59000015         1.43020491E-29
  -8.56000042         1.91965924E-29
  -8.52999973         2.10055898E-29
  -8.50000000         2.46979375E-29
  -8.47000027         2.43219373E-29
  -8.43999958         2.23543877E-29
  -8.40999985         1.96197222E-29
  -8.38000011         1.11564495E-29
  -8.35000038         2.62816124E-30
  -8.31999969        -4.11450031E-30
  -8.28999996        -1.37793517E-29
  -8.26000023        -2.27557756E-29
  -8.22999954        -3.45195348E-29
  -8.19999981        -4.10743982E-29
  -8.17000008        -3.74780280E-29
  -8.14000034        -3.45622633E-29
  -8.10999966        -2.40941525E-29
  -8.07999992        -1.50423750E-29
  -8.05000019        -3.76802739E-30
  -8.02000046         8.68489081E-30
  -7.98999977         1.77735017E-29
  -7.96000004         2.16288493E-29
  -7.92999983         2.23150596E-29
  -7.90000010         2.68000946E-29
  -7.86999989         2.16569919E-29
  -7.84000015         1.76183755E-29
  -7.80999994         1.33588805E-29
  -7.78000021         1.04226213E-29
  -7.75000000         7.66083248E-30
  -7.71999979         8.10561923E-30
  -7.69000006         2.74915046E-30
  -7.65999985        -4.69817303E-31
  -7.63000011        -3.94492218E-30
  -7.59999990        -6.37305566E-30
  -7.57000017        -1.04117706E-29
  -7.53999996        -1.33522887E-29
  -7.51000023        -1.55213493E-29
  -7.48000002        -1.69042753E-29
  -7.44999981        -1.44912100E-29
  -7.42000008        -1.13311404E-29
  -7.38999987        -2.77037744E-30
  -7.36000013         5.21413634E-30
  -7.32999992         1.43131848E-29
  -7.30000019         2.11379207E-29
  -7.26999998         2.22235855E-29
  -7.23999977         1.84829119E-29
  -7.21000004         1.08132646E-29
  -7.17999983        -1.35610353E-31
  -7.15000010        -1.14700255E-29
  -7.11999989        -2.40307683E-29
  -7.09000015        -3.02366969E-29
  -7.05999994        -2.93340045E-29
  -7.03000021        -2.49084958E-29
  -7.00000000        -1.64230005E-29
  -6.96999979        -3.40708781E-30
  -6.94000006         1.10206902E-29
  -6.90999985         2.49507926E-29
  -6.88000011         3.15359202E-29
  -6.84999990         3.43365142E-29
  -6.82000017         2.88225557E-29
  -6.78999996         1.52258936E-29
  -6.76000023        -1.41155101E-30
  -6.73000002        -1.54945774E-29
  -6.69999981        -3.25791272E-29
  -6.67000008        -4.26396677E-29
  -6.63999987        -4.56623606E-29
  -6.61000013        -3.96697092E-29
  -6.57999992        -2.53556923E-29
  -6.55000019        -8.22189875E-30
  -6.51999998         9.89376017E-30
  -6.48999977         2.42419947E-29
  -6.46000004         3.06954534E-29
  -6.42999983         3.44807935E-29
  -6.40000010         3.35667080E-29
  -6.36999989         2.83840606E-29
  -6.34000015         1.98528003E-29
  -6.30999994         1.04762449E-29
  -6.28000021         7.04165127E-30
  -6.25000000        -8.19610615E-31
  -6.21999979        -6.24943804E-30
  -6.19000006        -1.31596762E-29
  -6.15999985        -1.59102246E-29
  -6.13000011        -1.86900292E-29
  -6.09999990        -2.23289925E-29
  -6.07000017        -2.52370354E-29
  -6.03999996        -2.46156732E-29
  -6.01000023        -1.88180192E-29
  -5.98000002        -7.81343083E-30
  -5.94999981         5.07871751E-30
  -5.92000008         1.51093387E-29
  -5.88999987         2.37569086E-29
  -5.86000013         2.91785488E-29
  -5.82999992         3.40661859E-29
  -5.80000019         3.29981735E-29
  -5.76999998         2.60342666E-29
  -5.73999977         1.72615368E-29
  -5.71000004         8.89462006E-30
  -5.67999983         2.37923837E-30
  -5.65000010        -3.20720224E-30
  -5.61999989        -6.98508610E-30
  -5.59000015        -7.68322743E-30
  -5.55999994        -4.60735519E-30
  -5.53000021        -3.39925732E-30
  -5.50000000         5.37573691E-31
  -5.46999979         1.82037318E-30
  -5.44000006        -2.12762032E-30
  -5.40999985        -1.39674247E-29
  -5.38000011        -3.44320404E-29
  -5.34999990        -5.42066344E-29
  -5.32000017        -6.69984444E-29
  -5.28999996        -8.22918148E-29
  -5.26000023        -8.56059309E-29
  -5.23000002        -8.23306102E-29
  -5.19999981        -6.74817866E-29
  -5.17000008        -3.97306287E-29
  -5.13999987        -5.07457375E-30
  -5.11000013         2.89767415E-29
  -5.07999992         6.57112792E-29
  -5.05000019         1.03116913E-28
  -5.01999998         1.39154529E-28
  -4.98999977         1.75206204E-28
  -4.96000004         2.20743735E-28
  -4.92999983         2.86070484E-28
  -4.90000010         3.67296050E-28
  -4.86999989         4.60863817E-28
  -4.84000015         5.71234914E-28
  -4.80999994         6.76233485E-28
  -4.78000021         7.44023619E-28
  -4.75000000         7.55906703E-28
  -4.71999979         6.64783350E-28
  -4.69000006         4.31972749E-28
  -4.65999985         2.11615089E-29
  -4.63000011        -5.92702822E-28
  -4.59999990        -1.43271286E-27
  -4.57000017        -2.48133598E-27
  -4.53999996        -3.71778743E-27
  -4.51000023        -5.05601639E-27
  -4.48000002        -6.39861797E-27
  -4.44999981        -7.57051476E-27
  -4.42000008        -8.37544562E-27
  -4.38999987        -8.56264062E-27
  -4.36000013        -7.85377206E-27
  -4.32999992        -5.98308742E-27
  -4.30000019        -2.69936588E-27
  -4.26999998         2.17366174E-27
  -4.23999977         8.69455681E-27
  -4.21000004         1.67553178E-26
  -4.17999983         2.60194276E-26
  -4.15000010         3.59089515E-26
  -4.11999989         4.55614658E-26
  -4.09000015         5.38465361E-26
  -4.05999994         5.94037838E-26
  -4.03000021         6.07226421E-26
  -4.00000000         5.62704283E-26
  -3.97000003         4.46432811E-26
  -3.94000006         2.47784122E-26
  -3.91000009        -3.83398610E-27
  -3.88000011        -4.09537570E-26
  -3.84999990        -8.53606787E-26
  -3.81999993        -1.34745220E-25
  -3.78999996        -1.85639913E-25
  -3.75999999        -2.33457049E-25
  -3.73000002        -2.72678203E-25
  -3.70000005        -2.97196789E-25
  -3.67000008        -3.00785194E-25
  -3.64000010        -2.77722303E-25
  -3.60999990        -2.23496867E-25
  -3.57999992        -1.35559842E-25
  -3.54999995        -1.41026744E-26
  -3.51999998         1.37333966E-25
  -3.49000001         3.11431784E-25
  -3.46000004         4.96959493E-25
  -3.43000007         6.79058025E-25
  -3.40000010         8.39924858E-25
  -3.36999989         9.60073797E-25
  -3.33999991         1.02000218E-24
  -3.30999994         1.00231020E-24
  -3.27999997         8.94085286E-25
  -3.25000000         6.89350589E-25
  -3.22000003         3.91311765E-25
  -3.19000006         1.41155874E-26
  -3.16000009        -4.16277709E-25
  -3.13000011        -8.62379685E-25
  -3.09999990        -1.27696672E-24
  -3.06999993        -1.60652026E-24
  -3.03999996        -1.79641220E-24
  -3.00999999        -1.79762862E-24
  -2.98000002        -1.57470629E-24
  -2.95000005        -1.11419750E-24
  -2.92000008        -4.32797787E-25
  -2.89000010         4.16006883E-25
  -2.85999990         1.33805374E-24
  -2.82999992         2.19866539E-24
  -2.79999995         2.82807956E-24
  -2.76999998         3.03312443E-24
  -2.74000001         2.61554958E-24
  -2.71000004         1.39685020E-24
  -2.68000007        -7.51499565E-25
  -2.65000010        -3.87437043E-24
  -2.61999989        -7.89892972E-24
  -2.58999991        -1.26040275E-23
  -2.55999994        -1.75978649E-23
  -2.52999997        -2.23089359E-23
  -2.50000000        -2.59952545E-23
  -2.47000003        -2.77764330E-23
  -2.44000006        -2.66914464E-23
  -2.41000009        -2.17834331E-23
  -2.38000011        -1.22097982E-23
  -2.34999990         2.62708470E-24
  -2.31999993         2.29371563E-23
  -2.28999996         4.83992356E-23
  -2.25999999         7.80328207E-23
  -2.23000002         1.10101708E-22
  -2.20000005         1.42069482E-22
  -2.17000008         1.70623773E-22
  -2.14000010         1.91786803E-22
  -2.10999990         2.01122524E-22
  -2.07999992         1.94045406E-22
  -2.04999995         1.66226170E-22
  -2.01999998         1.14079864E-22
  -1.99000001         3.53076565E-23
  -1.96000004        -7.05438612E-23
  -1.92999995        -2.01556587E-22
  -1.89999998        -3.53005864E-22
  -1.87000000        -5.17077800E-22
  -1.84000003        -6.82799882E-22
  -1.80999994        -8.36243552E-22
  -1.77999997        -9.61034632E-22
  -1.75000000        -1.03920169E-21
  -1.72000003        -1.05235186E-21
  -1.69000006        -9.83144851E-22
  -1.65999997        -8.16994689E-22
  -1.63000000        -5.43897355E-22
  -1.60000002        -1.60252461E-22
  -1.57000005         3.29477186E-22
  -1.53999996         9.11442165E-22
  -1.50999999         1.56158866E-21
  -1.48000002         2.24551425E-21
  -1.45000005         2.91911412E-21
  -1.41999996         3.53011161E-21
  -1.38999999         4.02049117E-21
  -1.36000001         4.32978644E-21
  -1.33000004         4.39910240E-21
  -1.29999995         4.17565095E-21
  -1.26999998         3.61756051E-21
  -1.24000001         2.69859052E-21
  -1.21000004         1.41244816E-21
  -1.17999995        -2.23721331E-22
  -1.14999998        -2.16695087E-21
  -1.12000000        -4.34749489E-21
  -1.09000003        -6.66950235E-21
  -1.05999994        -9.01341717E-21
  -1.02999997        -1.12400420E-20
  -1.00000000        -1.31962054E-20
 -0.970000029        -1.47217259E-20
 -0.939999998        -1.56572931E-20
 -0.910000026        -1.58529811E-20
 -0.879999995        -1.51767851E-20
 -0.850000024        -1.35229449E-20
 -0.819999993        -1.08195975E-20
 -0.790000021        -7.03557824E-21
 -0.759999990        -2.18610366E-21
 -0.730000019         3.66247222E-21
 -0.699999988         1.03889935E-20
 -0.670000017         1.78146221E-20
 -0.639999986         2.57007989E-20
 -0.610000014         3.37477896E-20
 -0.579999983         4.15943054E-20
 -0.550000012         4.88182934E-20
 -0.519999981         5.49398499E-20
 -0.490000010         5.94272014E-20
 -0.460000008         6.17071890E-20
 -0.430000007         6.11818906E-20
 -0.400000006         5.72527116E-20
 -0.370000005         4.93539510E-20
 -0.340000004         3.69961343E-20
 -0.310000002         1.98196627E-20
 -0.280000001        -2.34230690E-21
 -0.250000000        -2.93946999E-20
 -0.219999999        -6.09085203E-20
 -0.189999998        -9.60527168E-20
 -0.159999996        -1.33537337E-19
 -0.129999995        -1.71576724E-19
 -0.100000001        -2.07882728E-19
  -7.00000003E-02    -2.39697865E-19
  -3.99999991E-02    -2.63876457E-19
  -9.99999978E-03    -2.77020383E-19
   1.99999996E-02    -2.75672208E-19
   5.00000007E-02    -2.56563302E-19
   7.99999982E-02    -2.16910150E-19
  0.109999999        -1.54743482E-19
  0.140000001        -6.92509793E-20
  0.170000002         3.88938967E-20
  0.200000003         1.67247028E-19
  0.230000004         3.11388342E-19
  0.259999990         4.64829182E-19
  0.289999992         6.19064504E-19
  0.319999993         7.63795830E-19
  0.349999994         8.87340114E-19
  0.379999995         9.77227970E-19
  0.409999996         1.02097890E-18
  0.439999998         1.00702219E-18
  0.469999999         9.25720054E-19
  0.500000000         7.70424028E-19
  0.529999971         5.38492407E-19
  0.560000002         2.32177475E-19
  0.589999974        -1.40709057E-19
  0.620000005        -5.66435137E-19
  0.649999976        -1.02537629E-18
  0.680000007        -1.49248891E-18
  0.709999979        -1.93825768E-18
  0.740000010        -2.33012581E-18
  0.769999981        -2.63436015E-18
  0.800000012        -2.81828417E-18
  0.829999983        -2.85275589E-18
  0.860000014        -2.71474246E-18
  0.889999986        -2.38980110E-18
  0.920000017        -1.87428125E-18
  0.949999988        -1.17702642E-18
  0.980000019        -3.20383827E-19
   1.00999999         6.59643400E-19
   1.03999996         1.71424000E-18
   1.07000005         2.78368196E-18
   1.10000002         3.80029273E-18
   1.13000000         4.69237145E-18
   1.15999997         5.38891046E-18
   1.19000006         5.82484623E-18
   1.22000003         5.94650382E-18
   1.25000000         5.71681975E-18
   1.27999997         5.11991960E-18
   1.30999994         4.16458720E-18
   1.34000003         2.88621638E-18
   1.37000000         1.34687141E-18
   1.39999998        -3.66768808E-19
   1.42999995        -2.14770663E-18
   1.46000004        -3.87507606E-18
   1.49000001        -5.42250640E-18
   1.51999998        -6.66791450E-18
   1.54999995        -7.50409814E-18
   1.58000004        -7.84928475E-18
   1.61000001        -7.65676591E-18
   1.63999999        -6.92257239E-18
   1.66999996        -5.69031688E-18
   1.70000005        -4.05234210E-18
   1.73000002        -2.14659097E-18
   1.75999999        -1.48871559E-19
   1.78999996         1.73936851E-18
   1.82000005         3.30732865E-18
   1.85000002         4.35419892E-18
   1.88000000         4.71025923E-18
   1.90999997         4.25794612E-18
   1.94000006         2.95103218E-18
   1.97000003         8.29739082E-19
   2.00000000        -1.97023420E-18
   2.02999997        -5.21632626E-18
   2.05999994        -8.58688170E-18
   2.08999991        -1.16884426E-17
   2.11999989        -1.40825349E-17
   2.15000010        -1.53207250E-17
   2.18000007        -1.49859832E-17
   2.21000004        -1.27374192E-17
   2.24000001        -8.35482197E-18
   2.26999998        -1.77889885E-18
   2.29999995         6.85706175E-18
   2.32999992         1.72079739E-17
   2.35999990         2.87137519E-17
   2.39000010         4.06144126E-17
   2.42000008         5.19845693E-17
   2.45000005         6.17867786E-17
   2.48000002         6.89414277E-17
   2.50999999         7.24092402E-17
   2.53999996         7.12807607E-17
   2.56999993         6.48661404E-17
   2.59999990         5.27778123E-17
   2.63000011         3.49981937E-17
   2.66000009         1.19257094E-17
   2.69000006        -1.56071197E-17
   2.72000003        -4.63472738E-17
   2.75000000        -7.86684431E-17
   2.77999997        -1.10651203E-16
   2.80999994        -1.40191642E-16
   2.83999991        -1.65133560E-16
   2.86999989        -1.83414278E-16
   2.90000010        -1.93214846E-16
   2.93000007        -1.93103130E-16
   2.96000004        -1.82158644E-16
   2.99000001        -1.60068898E-16
   3.01999998        -1.27188482E-16
   3.04999995        -8.45554345E-17
   3.07999992        -3.38606946E-17
   3.10999990         2.26278201E-17
   3.14000010         8.21837688E-17
   3.17000008         1.41776481E-16
   3.20000005         1.98250655E-16
   3.23000002         2.48520790E-16
   3.25999999         2.89767033E-16
   3.28999996         3.19618459E-16
   3.31999993         3.36312526E-16
   3.34999990         3.38817255E-16
   3.38000011         3.26906966E-16
   3.41000009         3.01185117E-16
   3.44000006         2.63048861E-16
   3.47000003         2.14594672E-16
   3.50000000         1.58469594E-16
   3.52999997         9.76722162E-17
   3.55999994         3.53164002E-17
   3.58999991        -2.56278437E-17
   3.61999989        -8.26000722E-17
   3.65000010        -1.33697533E-16
   3.68000007        -1.77884913E-16
   3.71000004        -2.15140188E-16
   3.74000001        -2.46513587E-16
   3.76999998        -2.74081174E-16
   3.79999995        -3.00776741E-16
   3.82999992        -3.30099089E-16
   3.85999990        -3.65696866E-16
   3.89000010        -4.10852537E-16
   3.92000008        -4.67894700E-16
   3.95000005        -5.37588624E-16
   3.98000002        -6.18561215E-16
   4.01000023        -7.06829883E-16
   4.03999996        -7.95508462E-16
   4.07000017        -8.74758453E-16
   4.09999990        -9.32045197E-16
   4.13000011        -9.52735565E-16
   4.15999985        -9.21053886E-16
   4.19000006        -8.21371925E-16
   4.21999979        -6.39772138E-16
   4.25000000        -3.65783952E-16
   4.28000021         5.83228589E-18
   4.30999994         4.73430325E-16
   4.34000015         1.02712168E-15
   4.36999989         1.64789371E-15
   4.40000010         2.30737598E-15
   4.42999983         2.96836809E-15
   4.46000004         3.58620579E-15
   4.48999977         4.11097277E-15
   4.51999998         4.49047571E-15
   4.55000019         4.67384395E-15
   4.57999992         4.61551726E-15
   4.61000013         4.27934428E-15
   4.63999987         3.64246825E-15
   4.67000008         2.69867132E-15
   4.69999981         1.46084151E-15
   4.73000002        -3.76686702E-17
   4.76000023        -1.74302863E-15
   4.78999996        -3.58232172E-15
   4.82000017        -5.46635127E-15
   4.84999990        -7.29373803E-15
   4.88000011        -8.95608423E-15
   4.90999985        -1.03438842E-14
   4.94000006        -1.13528520E-14
   4.96999979        -1.18902513E-14
   5.00000000        -1.18808339E-14
   5.03000021        -1.12720985E-14
   5.05999994        -1.00385009E-14
   5.09000015        -8.18447957E-15
   5.11999989        -5.74610719E-15
   5.15000010        -2.79133397E-15
   5.17999983         5.81174663E-16
   5.21000004         4.24457654E-15
   5.23999977         8.04769137E-15
   5.26999998         1.18200390E-14
   5.30000019         1.53780153E-14
   5.32999992         1.85321085E-14
   5.36000013         2.10950337E-14
   5.38999987         2.28906114E-14
   5.42000008         2.37632298E-14
   5.44999981         2.35874959E-14
   5.48000002         2.22777255E-14
   5.51000023         1.97966626E-14
   5.53999996         1.61628489E-14
   5.57000017         1.14558267E-14
   5.59999990         5.81857382E-15
   5.63000011        -5.43613252E-16
   5.65999985        -7.36820408E-15
   5.69000006        -1.43448147E-14
   5.71999979        -2.11287473E-14
   5.75000000        -2.73583663E-14
   5.78000021        -3.26753056E-14
   5.80999994        -3.67464373E-14
   5.84000015        -3.92860047E-14
   5.86999989        -4.00761984E-14
   5.90000010        -3.89845017E-14
   5.92999983        -3.59761794E-14
   5.96000004        -3.11205665E-14
   5.98999977        -2.45904778E-14
   6.01999998        -1.66544380E-14
   6.05000019        -7.66223039E-15
   6.07999992         1.97520989E-15
   6.11000013         1.18099153E-14
   6.13999987         2.13829605E-14
   6.17000008         3.02504027E-14
   6.19999981         3.80069816E-14
   6.23000002         4.43056168E-14
   6.26000023         4.88716767E-14
   6.28999996         5.15111127E-14
   6.32000017         5.21128246E-14
   6.34999990         5.06458109E-14
   6.38000011         4.71525928E-14
   6.40999985         4.17404995E-14
   6.44000006         3.45726865E-14
   6.46999979         2.58603004E-14
   6.50000000         1.58569481E-14
   6.53000021         4.85603735E-15
   6.55999994        -6.80983403E-15
   6.59000015        -1.87679055E-14
   6.61999989        -3.06049064E-14
   6.65000010        -4.18691876E-14
   6.67999983        -5.20773474E-14
   6.71000004        -6.07271056E-14
   6.73999977        -6.73174691E-14
   6.76999998        -7.13759902E-14
   6.80000019        -7.24917495E-14
   6.82999992        -7.03521781E-14
   6.86000013        -6.47796703E-14
   6.88999987        -5.57641701E-14
   6.92000008        -4.34875152E-14
   6.94999981        -2.83354188E-14
   6.98000002        -1.08941549E-14
   7.01000023         8.06967103E-15
   7.03999996         2.76460305E-14
   7.07000017         4.68333427E-14
   7.09999990         6.46009328E-14
   7.13000011         7.99573081E-14
   7.15999985         9.20174242E-14
   7.19000006         1.00063139E-13
   7.21999979         1.03590280E-13
   7.25000000         1.02338155E-13
   7.28000021         9.62989251E-14
   7.30999994         8.57060123E-14
   7.34000015         7.10043054E-14
   7.36999989         5.28056128E-14
   7.40000010         3.18366075E-14
   7.42999983         8.88424822E-15
   7.46000004        -1.52523258E-14
   7.48999977        -3.97988154E-14
   7.51999998        -6.40274238E-14
   7.55000019        -8.72613410E-14
   7.57999992        -1.08863127E-13
   7.61000013        -1.28211555E-13
   7.63999987        -1.44672401E-13
   7.67000008        -1.57571317E-13
   7.69999981        -1.66177605E-13
   7.73000002        -1.69704650E-13
   7.76000023        -1.67333947E-13
   7.78999996        -1.58264339E-13
   7.82000017        -1.41785157E-13
   7.84999990        -1.17368355E-13
   7.88000011        -8.47709896E-14
   7.90999985        -4.41370505E-14
   7.94000006         3.91614841E-15
   7.96999979         5.82360630E-14
   8.00000000         1.17112835E-13
   8.02999973         1.78301547E-13
   8.06000042         2.39095039E-13
   8.09000015         2.96442504E-13
   8.11999989         3.47110090E-13
   8.14999962         3.87870047E-13
   8.18000031         4.15701111E-13
   8.21000004         4.27988265E-13
   8.23999977         4.22697928E-13
   8.27000046         3.98518377E-13
   8.30000019         3.54951203E-13
   8.32999992         2.92349153E-13
   8.35999966         2.11900891E-13
   8.39000034         1.15567129E-13
   8.42000008         5.98152772E-15
   8.44999981        -1.13669375E-13
   8.47999954        -2.39772042E-13
   8.51000023        -3.68401490E-13
   8.53999996        -4.95414365E-13
   8.56999969        -6.16515953E-13
   8.60000038        -7.27299568E-13
   8.63000011        -8.23269892E-13
   8.65999985        -8.99862108E-13
   8.68999958        -9.52478656E-13
   8.72000027        -9.76562798E-13
   8.75000000        -9.67727634E-13
   8.77999973        -9.21958148E-13
   8.81000042        -8.35884259E-13
   8.84000015        -7.07121048E-13
   8.86999989        -5.34658255E-13
   8.89999962        -3.19263035E-13
   8.93000031        -6.38556319E-14
   8.96000004         2.26190892E-13
   8.98999977         5.42875315E-13
   9.02000046         8.75561613E-13
   9.05000019         1.21117504E-12
   9.07999992         1.53461347E-12
   9.10999966         1.82937758E-12
   9.14000034         2.07838195E-12
   9.17000008         2.26490940E-12
   9.19999981         2.37364100E-12
   9.22999954         2.39167865E-12
   9.26000023         2.30948789E-12
   9.28999996         2.12167827E-12
   9.31999969         1.82755677E-12
   9.35000038         1.43141759E-12
   9.38000011         9.42540859E-13
   9.40999985         3.74909874E-13
   9.43999958        -2.53318064E-13
   9.47000027        -9.20539252E-13
   9.50000000        -1.60256118E-12
   9.52999973        -2.27353206E-12
   9.56000042        -2.90686680E-12
   9.59000015        -3.47614494E-12
   9.61999989        -3.95592500E-12
   9.64999962        -4.32250676E-12
   9.68000031        -4.55462057E-12
   9.71000004        -4.63410430E-12
   9.73999977        -4.54657709E-12
   9.77000046        -4.28215276E-12
   9.80000019        -3.83618918E-12
   9.82999992        -3.21006654E-12
   9.85999966        -2.41193328E-12
   9.89000034        -1.45734716E-12
   9.92000008        -3.69704349E-13
   9.94999981         8.19659553E-13
   9.97999954         2.07181191E-12
   10.0100002         3.34110127E-12
   10.0400000         4.57659561E-12
   10.0699997         5.72410825E-12
   10.1000004         6.72869659E-12
   10.1300001         7.53750968E-12
   10.1599998         8.10281096E-12
   10.1899996         8.38488307E-12
   10.2200003         8.35462515E-12
   10.2500000         7.99558596E-12
   10.2799997         7.30524495E-12
   10.3100004         6.29543943E-12
   10.3400002         4.99192658E-12
   10.3699999         3.43310710E-12
   10.3999996         1.66813340E-12
   10.4300003        -2.45443829E-13
   10.4600000        -2.24419767E-12
   10.4899998        -4.26129227E-12
   10.5200005        -6.22865865E-12
   10.5500002        -8.07881886E-12
   10.5799999        -9.74623507E-12
   10.6099997        -1.11683544E-11
   10.6400003        -1.22864167E-11
   10.6700001        -1.30463175E-11
   10.6999998        -1.33997232E-11
   10.7299995        -1.33056587E-11
   10.7600002        -1.27326743E-11
   10.7900000        -1.16615936E-11
   10.8199997        -1.00886756E-11
   10.8500004        -8.02890480E-12
   10.8800001        -5.51894077E-12
   10.9099998        -2.61927134E-12
   10.9399996         5.84983180E-13
   10.9700003         3.98502108E-12
   11.0000000         7.45138586E-12
   11.0299997         1.08390970E-11
   11.0600004         1.39947090E-11
   11.0900002         1.67648759E-11
   11.1199999         1.90057015E-11
   11.1499996         2.05920437E-11
   11.1800003         2.14259131E-11
   11.2100000         2.14430643E-11
   11.2399998         2.06171573E-11
   11.2700005         1.89610168E-11
   11.3000002         1.65250019E-11
   11.3299999         1.33927236E-11
   11.3599997         9.67469941E-12
   11.3900003         5.50086452E-12
   11.4200001         1.01286763E-12
   11.4499998        -3.64289328E-12
   11.4799995        -8.32069743E-12
   11.5100002        -1.28789444E-11
   11.5400000        -1.71815565E-11
   11.5699997        -2.10976115E-11
   11.6000004        -2.44999472E-11
   11.6300001        -2.72638058E-11
   11.6599998        -2.92663845E-11
   11.6899996        -3.03885320E-11
   11.7200003        -3.05190803E-11
   11.7500000        -2.95621583E-11
   11.7799997        -2.74471817E-11
   11.8100004        -2.41405888E-11
   11.8400002        -1.96578795E-11
   11.8699999        -1.40742929E-11
   11.8999996        -7.53214678E-12
   11.9300003        -2.43220889E-13
   11.9600000         7.51522889E-12
   11.9899998         1.54111637E-11
   12.0200005         2.30751650E-11
   12.0500002         3.01232927E-11
   12.0799999         3.61832023E-11
   12.1099997         4.09213080E-11
   12.1400003         4.40677876E-11
   12.1700001         4.54368279E-11
   12.1999998         4.49396874E-11
   12.2299995         4.25890330E-11
   12.2600002         3.84942599E-11
   12.2900000         3.28483456E-11
   12.3199997         2.59082113E-11
   12.3500004         1.79712217E-11
   12.3800001         9.35097572E-12
   12.4099998         3.55744974E-13
   12.4399996        -8.72770693E-12
   12.4700003        -1.76432011E-11
   12.5000000        -2.61661873E-11
   12.5299997        -3.40977385E-11
   12.5600004        -4.12532855E-11
   12.5900002        -4.74491627E-11
   12.6199999        -5.24906577E-11
   12.6499996        -5.61648610E-11
   12.6800003        -5.82413978E-11
   12.7100000        -5.84827256E-11
   12.7399998        -5.66641838E-11
   12.7700005        -5.26021171E-11
   12.8000002        -4.61868911E-11
   12.8299999        -3.74162437E-11
   12.8599997        -2.64239394E-11
   12.8900003        -1.34982485E-11
   12.9200001         9.13522188E-13
   12.9499998         1.62175429E-11
   12.9799995         3.17032130E-11
   13.0100002         4.65885906E-11
   13.0400000         6.00770614E-11
   13.0699997         7.14195647E-11
   13.1000004         7.99751723E-11
   13.1300001         8.52628523E-11
   13.1599998         8.69981101E-11
   13.1899996         8.51100163E-11
   13.2200003         7.97365993E-11
   13.2500000         7.11996573E-11
   13.2799997         5.99625904E-11
   13.3100004         4.65776376E-11
   13.3400002         3.16299868E-11
   13.3699999         1.56866152E-11
   13.3999996        -7.42193525E-13
   13.4300003        -1.72244181E-11
   13.4600000        -3.34079847E-11
   13.4899998        -4.90035443E-11
   13.5200005        -6.37527600E-11
   13.5500002        -7.73889702E-11
   13.5799999        -8.95986133E-11
   13.6099997        -9.99925490E-11
   13.6400003        -1.08094825E-10
   13.6700001        -1.13354347E-10
   13.6999998        -1.15181024E-10
   13.7299995        -1.13004099E-10
   13.7600002        -1.06346133E-10
   13.7900000        -9.49034462E-11
   13.8199997        -7.86208459E-11
   13.8500004        -5.77491735E-11
   13.8800001        -3.28750638E-11
   13.9099998        -4.91562607E-12
   13.9399996         2.49243872E-11
   13.9700003         5.52307609E-11
   14.0000000         8.44854395E-11
   14.0299997         1.11188274E-10
   14.0600004         1.33979453E-10
   14.0900002         1.51748225E-10
   14.1199999         1.63713765E-10
   14.1499996         1.69467940E-10
   14.1800003         1.68975667E-10
   14.2100000         1.62533251E-10
   14.2399998         1.50693125E-10
   14.2700005         1.34166137E-10