  -10.0000000         1.86113890E-32
  -9.97000027         5.58341714E-32
  -9.93999958         9.30569406E-32
  -9.90999985         1.30279722E-31
  -9.88000011         1.64322214E-31
  -9.85000038         1.94760606E-31
  -9.81999969         2.17459919E-31
  -9.78999996         2.37104146E-31
  -9.76000023         2.62406968E-31
  -9.72999954         2.88748080E-31
  -9.69999981         3.03914519E-31
  -9.67000008         3.05294503E-31
  -9.64000034         3.09292406E-31
  -9.60999966         3.15089686E-31
  -9.57999992         2.96818342E-31
  -9.55000019         2.46669355E-31
  -9.52000046         1.80149928E-31
  -9.48999977         1.12846470E-31
  -9.46000004         6.40886632E-32
  -9.43000031         3.54081997E-32
  -9.39999962         2.70487568E-32
  -9.36999989         4.54485789E-32
  -9.34000015         7.49419379E-32
  -9.31000042         1.21396887E-31
  -9.27999973         1.71304756E-31
  -9.25000000         1.93262427E-31
  -9.22000027         1.71873343E-31
  -9.18999958         9.63381274E-32
  -9.15999985         2.19609712E-33
  -9.13000011        -8.62258961E-32
  -9.10000038        -1.95654052E-31
  -9.06999969        -2.93029512E-31
  -9.03999996        -3.23342549E-31
  -9.01000023        -2.67717992E-31
  -8.97999954        -1.58844281E-31
  -8.94999981        -3.96337963E-32
  -8.92000008         7.52694600E-32
  -8.89000034         1.65982365E-31
  -8.85999966         2.23069590E-31
  -8.82999992         2.24454393E-31
  -8.80000019         1.81355891E-31
  -8.77000046         1.18092702E-31
  -8.73999977         3.70179510E-32
  -8.71000004        -6.92131544E-32
  -8.68000031        -1.45460714E-31
  -8.64999962        -1.64476674E-31
  -8.61999989        -1.25637988E-31
  -8.59000015        -3.51509310E-32
  -8.56000042         7.43404609E-32
  -8.52999973         2.23107112E-31
  -8.50000000         3.74830871E-31
  -8.47000027         4.96981426E-31
  -8.43999958         6.10425283E-31
  -8.40999985         7.28545115E-31
  -8.38000011         8.74611902E-31
  -8.35000038         1.01332052E-30
  -8.31999969         1.14717876E-30
  -8.28999996         1.31571409E-30
  -8.26000023         1.46773156E-30
  -8.22999954         1.56875589E-30
  -8.19999981         1.60694234E-30
  -8.17000008         1.54470556E-30
  -8.14000034         1.35653186E-30
  -8.10999966         1.04232297E-30
  -8.07999992         5.41856393E-31
  -8.05000019        -8.50540399E-32
  -8.02000046        -6.87907429E-31
  -7.98999977        -1.21725534E-30
  -7.96000004        -1.63975048E-30
  -7.92999983        -1.91962986E-30
  -7.90000010        -2.05708314E-30
  -7.86999989        -2.06591872E-30
  -7.84000015        -1.96958837E-30
  -7.80999994        -1.80384009E-30
  -7.78000021        -1.63081466E-30
  -7.75000000        -1.51085010E-30
  -7.71999979        -1.44427668E-30
  -7.69000006        -1.36101350E-30
  -7.65999985        -1.21385572E-30
  -7.63000011        -1.05372282E-30
  -7.59999990        -8.47515628E-31
  -7.57000017        -5.41694363E-31
  -7.53999996        -1.34871379E-31
  -7.51000023         3.32404553E-31
  -7.48000002         7.67517454E-31
  -7.44999981         1.16437352E-30
  -7.42000008         1.46651779E-30
  -7.38999987         1.61238648E-30
  -7.36000013         1.62681403E-30
  -7.32999992         1.51039025E-30
  -7.30000019         1.36269371E-30
  -7.26999998         1.23592642E-30
  -7.23999977         1.10701522E-30
  -7.21000004         9.96189991E-31
  -7.17999983         9.13260181E-31
  -7.15000010         8.64614745E-31
  -7.11999989         8.46285027E-31
  -7.09000015         7.74053720E-31
  -7.05999994         6.10716241E-31
  -7.03000021         3.38105183E-31
  -7.00000000        -6.25360820E-32
  -6.96999979        -4.94678774E-31
  -6.94000006        -9.40514629E-31
  -6.90999985        -1.40207013E-30
  -6.88000011        -1.85792355E-30
  -6.84999990        -2.23509737E-30
  -6.82000017        -2.42612592E-30
  -6.78999996        -2.40544851E-30
  -6.76000023        -2.14234560E-30
  -6.73000002        -1.54150944E-30
  -6.69999981        -6.27268048E-31
  -6.67000008         4.52886705E-31
  -6.63999987         1.55774960E-30
  -6.61000013         2.52824347E-30
  -6.57999992         3.28659682E-30
  -6.55000019         3.73636315E-30
  -6.51999998         3.78048726E-30
  -6.48999977         3.41176910E-30
  -6.46000004         2.67978858E-30
  -6.42999983         1.69653156E-30
  -6.40000010         6.28062400E-31
  -6.36999989        -2.56699613E-31
  -6.34000015        -8.19508864E-31
  -6.30999994        -1.01595024E-30
  -6.28000021        -8.34201791E-31
  -6.25000000        -4.08026973E-31
  -6.21999979         1.56571710E-31
  -6.19000006         7.18892519E-31
  -6.15999985         1.08157846E-30
  -6.13000011         1.11295184E-30
  -6.09999990         8.26942690E-31
  -6.07000017         2.53263220E-31
  -6.03999996        -5.54855621E-31
  -6.01000023        -1.45652543E-30
  -5.98000002        -2.36917877E-30
  -5.94999981        -3.15200347E-30
  -5.92000008        -3.61457592E-30
  -5.88999987        -3.63414780E-30
  -5.86000013        -3.15060830E-30
  -5.82999992        -2.14277311E-30
  -5.80000019        -7.42512009E-31
  -5.76999998         7.98512842E-31
  -5.73999977         2.27844547E-30
  -5.71000004         3.51172185E-30
  -5.67999983         4.23877169E-30
  -5.65000010         4.31775400E-30
  -5.61999989         3.82195494E-30
  -5.59000015         2.89207627E-30
  -5.55999994         1.68328685E-30
  -5.53000021         4.15328391E-31
  -5.50000000        -6.55481511E-31
  -5.46999979        -1.37456347E-30
  -5.44000006        -1.61935951E-30
  -5.40999985        -1.39503344E-30
  -5.38000011        -8.28141601E-31
  -5.34999990        -9.71328556E-32
  -5.32000017         5.94364550E-31
  -5.28999996         1.10595991E-30
  -5.26000023         1.33883728E-30
  -5.23000002         1.17285090E-30
  -5.19999981         4.88389409E-31
  -5.17000008        -5.88806860E-31
  -5.13999987        -1.76238972E-30
  -5.11000013        -2.78777363E-30
  -5.07999992        -3.47270409E-30
  -5.05000019        -3.62031609E-30
  -5.01999998        -3.23648954E-30
  -4.98999977        -2.36643695E-30
  -4.96000004        -1.06876793E-30
  -4.92999983         3.85351169E-31
  -4.90000010         1.77823030E-30
  -4.86999989         2.86330713E-30
  -4.84000015         3.42428501E-30
  -4.80999994         3.42262540E-30
  -4.78000021         2.85157852E-30
  -4.75000000         1.76263798E-30
  -4.71999979         3.03312596E-31
  -4.69000006        -1.23636276E-30
  -4.65999985        -2.56534433E-30
  -4.63000011        -3.53331559E-30
  -4.59999990        -4.01082961E-30
  -4.57000017        -3.96407089E-30
  -4.53999996        -3.42191220E-30
  -4.51000023        -2.53196161E-30
  -4.48000002        -1.53374102E-30
  -4.44999981        -6.07541043E-31
  -4.42000008         1.15590462E-31
  -4.38999987         5.29965280E-31
  -4.36000013         6.14826004E-31
  -4.32999992         4.45030453E-31
  -4.30000019         7.98042586E-32
  -4.26999998        -4.59204611E-31
  -4.23999977        -1.06071861E-30
  -4.21000004        -1.67044800E-30
  -4.17999983        -2.26979082E-30
  -4.15000010        -2.77875222E-30
  -4.11999989        -3.20518941E-30
  -4.09000015        -3.48939197E-30
  -4.05999994        -3.52880056E-30
  -4.03000021        -3.33024960E-30
  -4.00000000        -2.85919422E-30
  -3.97000003        -2.12563741E-30
  -3.94000006        -1.12292972E-30
  -3.91000009         1.03435357E-31
  -3.88000011         1.38815821E-30
  -3.84999990         2.68204741E-30
  -3.81999993         3.88212257E-30
  -3.78999996         4.84651506E-30
  -3.75999999         5.55077084E-30
  -3.73000002         5.98702331E-30
  -3.70000005         6.17529237E-30
  -3.67000008         6.24122312E-30
  -3.64000010         6.17713743E-30
  -3.60999990         5.95244535E-30
  -3.57999992         5.63754941E-30
  -3.54999995         5.28777345E-30
  -3.51999998         4.89887139E-30
  -3.49000001         4.34432920E-30
  -3.46000004         3.41059548E-30
  -3.43000007         1.89173265E-30
  -3.40000010        -3.17956904E-31
  -3.36999989        -3.23503418E-30
  -3.33999991        -6.85909041E-30
  -3.30999994        -1.10040663E-29
  -3.27999997        -1.52797474E-29
  -3.25000000        -1.92390516E-29
  -3.22000003        -2.24570022E-29
  -3.19000006        -2.44456211E-29
  -3.16000009        -2.46280383E-29
  -3.13000011        -2.25594105E-29
  -3.09999990        -1.79325113E-29
  -3.06999993        -1.05300205E-29
  -3.03999996        -2.76463858E-31
  -3.00999999         1.27894462E-29
  -2.98000002         2.84043671E-29
  -2.95000005         4.60532852E-29
  -2.92000008         6.52080458E-29
  -2.89000010         8.50683016E-29
  -2.85999990         1.04501308E-28
  -2.82999992         1.21978195E-28
  -2.79999995         1.35647928E-28
  -2.76999998         1.43361519E-28
  -2.74000001         1.42566555E-28
  -2.71000004         1.30511545E-28
  -2.68000007         1.04277069E-28
  -2.65000010         6.10249681E-29
  -2.61999989        -1.83130397E-30
  -2.58999991        -8.62077299E-29
  -2.55999994        -1.92819363E-28
  -2.52999997        -3.20578550E-28
  -2.50000000        -4.66303703E-28
  -2.47000003        -6.24361740E-28
  -2.44000006        -7.86148377E-28
  -2.41000009        -9.39751931E-28
  -2.38000011        -1.06986776E-27
  -2.34999990        -1.15809952E-27
  -2.31999993        -1.18328606E-27
  -2.28999996        -1.12225690E-27
  -2.25999999        -9.51229222E-28
  -2.23000002        -6.47463655E-28
  -2.20000005        -1.91399616E-28
  -2.17000008         4.30504806E-28
  -2.14000010         1.22279016E-27
  -2.10999990         2.17758543E-27
  -2.07999992         3.27125903E-27
  -2.04999995         4.46139592E-27
  -2.01999998         5.68424626E-27
  -1.99000001         6.85321448E-27
  -1.96000004         7.85877563E-27
  -1.92999995         8.57019489E-27
  -1.89999998         8.83955314E-27
  -1.87000000         8.50828009E-27
  -1.84000003         7.41667225E-27
  -1.80999994         5.41623077E-27
  -1.77999997         2.38463850E-27
  -1.75000000        -1.75675953E-27
  -1.72000003        -7.02419469E-27
  -1.69000006        -1.33521996E-26
  -1.65999997        -2.05750763E-26
  -1.63000000        -2.84109888E-26
  -1.60000002        -3.64508250E-26
  -1.57000005        -4.41537713E-26
  -1.53999996        -5.08510062E-26
  -1.50999999        -5.57605715E-26
  -1.48000002        -5.80145566E-26
  -1.45000005        -5.66990263E-26
  -1.41999996        -5.09081185E-26
  -1.38999999        -3.98114402E-26
  -1.36000001        -2.27329822E-26
  -1.33000004         7.60915325E-28
  -1.29999995         3.07681391E-26
  -1.26999998         6.69574105E-26
  -1.24000001         1.08481132E-25
  -1.21000004         1.53901241E-25
  -1.17999995         2.01136038E-25
  -1.14999998         2.47436799E-25
  -1.12000000         2.89401980E-25
  -1.09000003         3.23037160E-25
  -1.05999994         3.43867969E-25
  -1.02999997         3.47111050E-25
  -1.00000000         3.27906996E-25
 -0.970000029         2.81615553E-25
 -0.939999998         2.04170958E-25
 -0.910000026         9.24893436E-26
 -0.879999995        -5.50826564E-26
 -0.850000024        -2.38295429E-25
 -0.819999993        -4.54523263E-25
 -0.790000021        -6.98319839E-25
 -0.759999990        -9.61037095E-25
 -0.730000019        -1.23054846E-24
 -0.699999988        -1.49112332E-24
 -0.670000017        -1.72349857E-24
 -0.639999986        -1.90519907E-24
 -0.610000014        -2.01115059E-24
 -0.579999983        -2.01462749E-24
 -0.550000012        -1.88856042E-24
 -0.519999981        -1.60721643E-24
 -0.490000010        -1.14823803E-24
 -0.460000008        -4.95000702E-25
 -0.430000007         3.60784598E-25
 -0.400000006         1.41634079E-24
 -0.370000005         2.65511628E-24
 -0.340000004         4.04429265E-24
 -0.310000002         5.53273749E-24
 -0.280000001         7.04966416E-24
 -0.250000000         8.50426687E-24
 -0.219999999         9.78662259E-24
 -0.189999998         1.07701002E-23
 -0.159999996         1.13155147E-23
 -0.129999995         1.12771540E-23
 -0.100000001         1.05107559E-23
  -7.00000003E-02     8.88335240E-24
  -3.99999991E-02     6.28476609E-24
  -9.99999978E-03     2.64039062E-24
   1.99999996E-02    -2.07530056E-24
   5.00000007E-02    -7.82525406E-24
   7.99999982E-02    -1.44972313E-23
  0.109999999        -2.18931478E-23
  0.140000001        -2.97214800E-23
  0.170000002        -3.75939648E-23
  0.200000003        -4.50277229E-23
  0.230000004        -5.14539322E-23
  0.259999990        -5.62338928E-23
  0.289999992        -5.86831671E-23
  0.319999993        -5.81039476E-23
  0.349999994        -5.38255131E-23
  0.379999995        -4.52519424E-23
  0.409999996        -3.19157440E-23
  0.439999998        -1.35353243E-23
  0.469999999         9.92632986E-24
  0.500000000         3.82051553E-23
  0.529999971         7.06855280E-23
  0.560000002         1.06360134E-22
  0.589999974         1.43804862E-22
  0.620000005         1.81173317E-22
  0.649999976         2.16215642E-22
  0.680000007         2.46325465E-22
  0.709999979         2.68618170E-22
  0.740000010         2.80042769E-22
  0.769999981         2.77527350E-22
  0.800000012         2.58156864E-22
  0.829999983         2.19379567E-22
  0.860000014         1.59235638E-22
  0.889999986         7.65992269E-23
  0.920000017        -2.85777453E-23
  0.949999988        -1.55034001E-22
  0.980000019        -2.99996103E-22
   1.00999999        -4.59022333E-22
   1.03999996        -6.25912383E-22
   1.07000005        -7.92701762E-22
   1.10000002        -9.49758642E-22
   1.13000000        -1.08599878E-21
   1.15999997        -1.18922965E-21
   1.19000006        -1.24662934E-21
   1.22000003        -1.24535929E-21
   1.25000000        -1.17330350E-21
   1.27999997        -1.01991127E-21
   1.30999994        -7.77120686E-22
   1.34000003        -4.40319135E-22
   1.37000000        -9.29695217E-24
   1.39999998         5.10866120E-22
   1.42999995         1.10904352E-21
   1.46000004         1.76750200E-21
   1.49000001         2.46160933E-21
   1.51999998         3.15987659E-21
   1.54999995         3.82439525E-21
   1.58000004         4.41171489E-21
   1.61000001         4.87420255E-21
   1.63999999         5.16188329E-21
   1.66999996         5.22475911E-21
   1.70000005         5.01556239E-21
   1.73000002         4.49286421E-21
   1.75999999         3.62444453E-21
   1.78999996         2.39077512E-21
   1.82000005         7.88452919E-22
   1.85000002        -1.16661345E-21
   1.88000000        -3.43647743E-21
   1.90999997        -5.95912182E-21
   1.94000006        -8.64735178E-21
   1.97000003        -1.13888351E-20
   2.00000000        -1.40475027E-20
   2.02999997        -1.64664680E-20
   2.05999994        -1.84725861E-20
   2.08999991        -1.98827110E-20
   2.11999989        -2.05116073E-20
   2.15000010        -2.01814040E-20
   2.18000007        -1.87323661E-20
   2.21000004        -1.60346328E-20
   2.24000001        -1.20004746E-20
   2.26999998        -6.59651860E-21
   2.29999995         1.44723639E-22
   2.32999992         8.11477429E-21
   2.35999990         1.71213349E-20
   2.39000010         2.68834846E-20
   2.42000008         3.70307111E-20
   2.45000005         4.71065239E-20
   2.48000002         5.65772540E-20
   2.50999999         6.48464493E-20
   2.53999996         7.12750967E-20
   2.56999993         7.52075909E-20
   2.59999990         7.60030220E-20
   2.63000011         7.30710997E-20
   2.66000009         6.59114767E-20
   2.69000006         5.41550753E-20
   2.72000003         3.76054595E-20
   2.75000000         1.62781874E-20
   2.77999997        -9.56433803E-21
   2.80999994        -3.93850675E-20
   2.83999991        -7.23541021E-20
   2.86999989        -1.07342666E-19
   2.90000010        -1.42931446E-19
   2.93000007        -1.77435140E-19
   2.96000004        -2.08944647E-19
   2.99000001        -2.35387297E-19
   3.01999998        -2.54605184E-19
   3.04999995        -2.64449952E-19
   3.07999992        -2.62892397E-19
   3.10999990        -2.48142991E-19
   3.14000010        -2.18779475E-19
   3.17000008        -1.73875937E-19
   3.20000005        -1.13127095E-19
   3.23000002        -3.69610050E-20
   3.25999999         5.33673053E-20
   3.28999996         1.55708634E-19
   3.31999993         2.66986424E-19
   3.34999990         3.83204318E-19
   3.38000011         4.99499992E-19
   3.41000009         6.10249964E-19
   3.44000006         7.09227707E-19
   3.47000003         7.89815210E-19
   3.50000000         8.45265779E-19
   3.52999997         8.69012894E-19
   3.55999994         8.55016584E-19
   3.58999991         7.98135975E-19
   3.61999989         6.94513922E-19
   3.65000010         5.41956743E-19
   3.68000007         3.40288507E-19
   3.71000004         9.16605041E-20
   3.74000001        -1.99206831E-19
   3.76999998        -5.24871276E-19
   3.79999995        -8.75125862E-19
   3.82999992        -1.23708324E-18
   3.85999990        -1.59540289E-18
   3.89000010        -1.93266842E-18
   3.92000008        -2.22992032E-18
   3.95000005        -2.46733894E-18
   3.98000002        -2.62506719E-18
   4.01000023        -2.68415042E-18
   4.03999996        -2.62756610E-18
   4.07000017        -2.44130467E-18
   4.09999990        -2.11545755E-18
   4.13000011        -1.64525986E-18
   4.15999985        -1.03202982E-18
   4.19000006        -2.83949003E-19
   4.21999979         5.83379932E-19
   4.25000000         1.54665228E-18
   4.28000021         2.57490716E-18
   4.30999994         3.62994357E-18
   4.34000015         4.66713417E-18
   4.36999989         5.63664858E-18
   4.40000010         6.48508442E-18
   4.42999983         7.15747721E-18
   4.46000004         7.59964330E-18
   4.48999977         7.76078883E-18
   4.51999998         7.59628991E-18
   4.55000019         7.07053970E-18
   4.57999992         6.15972534E-18
   4.61000013         4.85441158E-18
   4.63999987         3.16177175E-18
   4.67000008         1.10732249E-18
   4.69999981        -1.26397313E-18
   4.73000002        -3.88736383E-18
   4.76000023        -6.67883535E-18
   4.78999996        -9.53657686E-18
   4.82000017        -1.23434232E-17
   4.84999990        -1.49702767E-17
   4.88000011        -1.72804548E-17
   4.90999985        -1.91348631E-17
   4.94000006        -2.03978570E-17
   4.96999979        -2.09435811E-17
   5.00000000        -2.06625581E-17
   5.03000021        -1.94682731E-17
   5.05999994        -1.73034173E-17
   5.09000015        -1.41455247E-17
   5.11999989        -1.00116680E-17
   5.15000010        -4.96193389E-18
   5.17999983         8.98590081E-19
   5.21000004         7.41952472E-18
   5.23999977         1.44067731E-17
   5.26999998         2.16260233E-17
   5.30000019         2.88082291E-17
   5.32999992         3.56569504E-17
   5.36000013         4.18574533E-17
   5.38999987         4.70872762E-17
   5.42000008         5.10280341E-17
   5.44999981         5.33780708E-17
   5.48000002         5.38655581E-17
   5.51000023         5.22616218E-17
   5.53999996         4.83930966E-17
   5.57000017         4.21544409E-17
   5.59999990         3.35183974E-17
   5.63000011         2.25450210E-17
   5.65999985         9.38871419E-18
   5.69000006        -5.69711010E-18
   5.71999979        -2.23580451E-17
   5.75000000        -4.01396738E-17
   5.78000021        -5.84918866E-17
   5.80999994        -7.67767472E-17
   5.84000015        -9.42802926E-17
   5.86999989        -1.10228388E-16
   5.90000010        -1.23806981E-16
   5.92999983        -1.34186787E-16
   5.96000004        -1.40552386E-16
   5.98999977        -1.42135517E-16
   6.01999998        -1.38252096E-16
   6.05000019        -1.28342141E-16
   6.07999992        -1.12011359E-16
   6.11000013        -8.90729458E-17
   6.13999987        -5.95874311E-17
   6.17000008        -2.38982207E-17
   6.19999981         1.73396843E-17
   6.23000002         6.31409395E-17
   6.26000023         1.12183770E-16
   6.28999996         1.62819320E-16
   6.32000017         2.13098733E-16
   6.34999990         2.60819550E-16
   6.38000011         3.03592252E-16
   6.40999985         3.38926284E-16
   6.44000006         3.64334308E-16
   6.46999979         3.77451090E-16
   6.50000000         3.76163123E-16
   6.53000021         3.58743044E-16
   6.55999994         3.23981817E-16
   6.59000015         2.71312038E-16
   6.61999989         2.00913356E-16
   6.65000010         1.13793252E-16
   6.67999983         1.18354797E-17
   6.71000004        -1.02189813E-16
   6.73999977        -2.24658602E-16
   6.76999998        -3.51170834E-16
   6.80000019        -4.76673720E-16
   6.82999992        -5.95628433E-16
   6.86000013        -7.02215883E-16
   6.88999987        -7.90573649E-16
   6.92000008        -8.55056784E-16
   6.94999981        -8.90509984E-16
   6.98000002        -8.92540957E-16
   7.01000023        -8.57780895E-16
   7.03999996        -7.84120793E-16
   7.07000017        -6.70910816E-16
   7.09999990        -5.19111765E-16
   7.13000011        -3.31389067E-16
   7.15999985        -1.12141789E-16
   7.19000006         1.32538580E-16
   7.21999979         3.94982475E-16
   7.25000000         6.66129791E-16
   7.28000021         9.35787601E-16
   7.30999994         1.19295305E-15
   7.34000015         1.42619172E-15
   7.36999989         1.62406286E-15
   7.40000010         1.77557513E-15
   7.42999983         1.87065998E-15
   7.46000004         1.90064325E-15
   7.48999977         1.85869882E-15
   7.51999998         1.74026297E-15
   7.55000019         1.54339292E-15
   7.57999992         1.26904911E-15
   7.61000013         9.21286714E-16
   7.63999987         5.07341766E-16
   7.67000008         3.76013576E-17
   7.69999981        -4.74548991E-16
   7.73000002        -1.01300323E-15
   7.76000023        -1.55933578E-15
   7.78999996        -2.09331869E-15
   7.82000017        -2.59354267E-15
   7.84999990        -3.03812719E-15
   7.88000011        -3.40549935E-15
   7.90999985        -3.67521751E-15
   7.94000006        -3.82881508E-15
   7.96999979        -3.85063761E-15
   8.00000000        -3.72864200E-15
   8.02999973        -3.45513252E-15
   8.06000042        -3.02740057E-15
   8.09000015        -2.44824243E-15
   8.11999989        -1.72632684E-15
   8.14999962        -8.76387668E-16
   8.18000031         8.07810359E-17
   8.21000004         1.11854745E-15
   8.23999977         2.20489537E-15
   8.27000046         3.30311721E-15
   8.30000019         4.37274745E-15
   8.32999992         5.37072887E-15
   8.35999966         6.25279510E-15
   8.39000034         6.97503722E-15
   8.42000008         7.49561817E-15
   8.44999981         7.77657900E-15
   8.47999954         7.78567613E-15
   8.51000023         7.49817705E-15
   8.53999996         6.89853617E-15
   8.56999969         5.98186865E-15
   8.60000038         4.75513878E-15
   8.63000011         3.23798821E-15
   8.65999985         1.46313687E-15
   8.68999958        -5.23704801E-16
   8.72000027        -2.66444717E-15
   8.75000000        -4.88977721E-15
   8.77999973        -7.12086284E-15
   8.81000042        -9.27157944E-15
   8.84000015        -1.12512191E-14
   8.86999989        -1.29676196E-14
   8.89999962        -1.43306235E-14
   8.93000031        -1.52557766E-14
   8.96000004        -1.56681376E-14
   8.98999977        -1.55060799E-14
   9.02000046        -1.47249376E-14
   9.05000019        -1.33003341E-14
   9.07999992        -1.12310707E-14
   9.10999966        -8.54137097E-15
   9.14000034        -5.28236555E-15
   9.17000008        -1.53264270E-15
   9.19999981         2.60225356E-15
   9.22999954         6.99148406E-15
   9.26000023         1.14818111E-14
   9.28999996         1.59017459E-14
   9.31999969         2.00669254E-14
   9.35000038         2.37866181E-14
   9.38000011         2.68711936E-14
   9.40999985         2.91403220E-14
   9.43999958         3.04315831E-14
   9.47000027         3.06091415E-14
   9.50000000         2.95720412E-14
   9.52999973         2.72616843E-14
   9.56000042         2.36680758E-14
   9.59000015         1.88343536E-14
   9.61999989         1.28592764E-14
   9.64999962         5.89734916E-15
   9.68000031        -1.84358140E-15
   9.71000004        -1.01073477E-14
   9.73999977        -1.85970251E-14
   9.77000046        -2.69848281E-14
   9.80000019        -3.49240087E-14
   9.82999992        -4.20623212E-14
   9.85999966        -4.80564685E-14
   9.89000034        -5.25869665E-14
   9.92000008        -5.53727562E-14
   9.94999981        -5.61849456E-14
   9.97999954        -5.48590172E-14
   10.0100002        -5.13050431E-14
   10.0400000        -4.55153120E-14
   10.0699997        -3.75691265E-14
   10.1000004        -2.76343940E-14
   10.1300001        -1.59659290E-14
   10.1599998        -2.90039180E-15
   10.1899996         1.11520714E-14
   10.2200003         2.57193016E-14
   10.2500000         4.02814616E-14
   10.2799997         5.42878730E-14
   10.3100004         6.71758723E-14
   10.3400002         7.83911916E-14
   10.3699999         8.74091923E-14
   10.3999996         9.37562948E-14
   10.4300003         9.70307547E-14
   10.4600000         9.69220431E-14
   10.4899998         9.32280173E-14
   10.5200005         8.58689002E-14
   10.5500002         7.48974925E-14
   10.5799999         6.05047628E-14
   10.6099997         4.30203765E-14
   10.6400003         2.29077909E-14
   10.6700001         7.53749421E-16
   10.6999998        -2.27476661E-14
   10.7299995        -4.68160565E-14
   10.7600002        -7.06101573E-14
   10.7900000        -9.32568570E-14
   10.8199997        -1.13882685E-13
   10.8500004        -1.31646592E-13
   10.8800001        -1.45772622E-13
   10.9099998        -1.55581277E-13
   10.9399996        -1.60518205E-13
   10.9700003        -1.60179080E-13
   11.0000000        -1.54329579E-13
   11.0299997        -1.42919734E-13
   11.0600004        -1.26091981E-13
   11.0900002        -1.04182471E-13
   11.1199999        -7.77156117E-14
   11.1499996        -4.73916933E-14
   11.1800003        -1.40680204E-14
   11.2100000         2.12660073E-14
   11.2399998         5.75192698E-14
   11.2700005         9.35338368E-14
   11.3000002         1.28123383E-13
   11.3299999         1.60113852E-13
   11.3599997         1.88384939E-13
   11.3900003         2.11910852E-13
   11.4200001         2.29798656E-13
   11.4499998         2.41322370E-13
   11.4799995         2.45951290E-13
   11.5100002         2.43371024E-13
   11.5400000         2.33495623E-13
   11.5699997         2.16470627E-13
   11.6000004         1.92665748E-13
   11.6300001         1.62658393E-13
   11.6599998         1.27208181E-13
   11.6899996         8.72243019E-14
   11.7200003         4.37275745E-14
   11.7500000        -2.18995604E-15
   11.7799997        -4.94055717E-14
   11.8100004        -9.68034924E-14
   11.8400002        -1.43307255E-13
   11.8699999        -1.87904474E-13
   11.8999996        -2.29663050E-13
   11.9300003        -2.67737953E-13
   11.9600000        -3.01369227E-13
   11.9899998        -3.29872658E-13
   12.0200005        -3.52625156E-13
   12.0500002        -3.69047837E-13
   12.0799999        -3.78590117E-13
   12.1099997        -3.80717999E-13
   12.1400003        -3.74909413E-13
   12.1700001        -3.60659365E-13
   12.1999998        -3.37495819E-13
   12.2299995        -3.05007132E-13
   12.2600002        -2.62879887E-13
   12.2900000        -2.10945451E-13
   12.3199997        -1.49232121E-13
   12.3500004        -7.80195000E-14
   12.3800001         2.10925286E-15
   12.4099998         9.02213891E-14
   12.4399996         1.84998569E-13
   12.4700003         2.84714445E-13
   12.5000000         3.87228525E-13
   12.5299997         4.89998125E-13
   12.5600004         5.90109233E-13
   12.5900002         6.84327215E-13
   12.6199999         7.69165872E-13
   12.6499996         8.40974751E-13
   12.6800003         8.96043168E-13
   12.7100000         9.30718827E-13
   12.7399998         9.41539815E-13
   12.7700005         9.25377938E-13
   12.8000002         8.79588882E-13
   12.8299999         8.02168987E-13
   12.8599997         6.91910830E-13
   12.8900003         5.48554583E-13
   12.9200001         3.72927790E-13
   12.9499998         1.67065390E-13
   12.9799995        -6.56982132E-14
   13.0100002        -3.20674910E-13
   13.0400000        -5.91815442E-13
   13.0699997        -8.71757473E-13
   13.1000004        -1.15193640E-12
   13.1300001        -1.42276284E-12
   13.1599998        -1.67386981E-12
   13.1899996        -1.89442515E-12
   13.2200003        -2.07350413E-12
   13.2500000        -2.20051191E-12
   13.2799997        -2.26564015E-12
   13.3100004        -2.26034165E-12
   13.3400002        -2.17780047E-12
   13.3699999        -2.01337796E-12
   13.3999996        -1.76501348E-12
   13.4300003        -1.43355466E-12
   13.4600000        -1.02300351E-12
   13.4899998        -5.40657959E-13
   13.5200005         2.86193311E-15
   13.5500002         5.93713880E-13
   13.5799999         1.21506331E-12
   13.6099997         1.84744472E-12
   13.6400003         2.46925223E-12
   13.6700001         3.05735168E-12
   13.6999998         3.58780410E-12
   13.7299995         4.03668331E-12
   13.7600002         4.38097215E-12
   13.7900000         4.59950567E-12
   13.8199997         4.67393962E-12
   13.8500004         4.58970535E-12
   13.8800001         4.33690930E-12
   13.9099998         3.91114354E-12
   13.9399996         3.31415104E-12
   13.9700003         2.55430919E-12
   14.0000000         1.64688196E-12
   14.0299997         6.14011283E-13
   14.0600004        -5.15589036E-13
   14.0900002        -1.70724730E-12
   14.1199999        -2.92125937E-12
   14.1499996        -4.11411009E-12
   14.1800003        -5.23995864E-12
   14.2100000        -6.25233545E-12
   14.2399998        -7.10598767E-12
   14.2700005        -7.75879361E-12