  -10.0000000       0.00000000    
  -9.94999981       0.00000000    
  -9.89999962       0.00000000    
  -9.85000038       0.00000000    
  -9.80000019       0.00000000    
  -9.75000000       0.00000000    
  -9.69999981       0.00000000    
  -9.64999962       0.00000000    
  -9.60000038       2.08108057E-22
  -9.55000019       1.12984395E-22
  -9.50000000      -6.54175909E-21
  -9.44999981      -1.92159549E-20
  -9.39999962       5.37310741E-20
  -9.35000038       4.13718390E-19
  -9.30000019       7.00441602E-19
  -9.25000000      -1.45296746E-18
  -9.19999981      -9.19911199E-18
  -9.14999962      -1.64871555E-17
  -9.10000038       5.00668312E-18
  -9.05000019       8.68823465E-17
  -9.00000000       1.76892720E-16
  -8.94999981       5.17522705E-17
  -8.89999962      -5.36347086E-16
  -8.85000038      -1.31897609E-15
  -8.80000019      -1.02676254E-15
  -8.75000000       1.87141681E-15
  -8.69999981       6.63581662E-15
  -8.64999962       8.12756743E-15
  -8.60000038      -2.34941264E-16
  -8.55000019      -1.70586625E-14
  -8.50000000      -2.63369479E-14
  -8.44999981      -9.60177067E-15
  -8.39999962       2.29846066E-14
  -8.35000038       2.02061912E-14
  -8.30000019      -5.20649943E-14
  -8.25000000      -1.00914760E-13
  -8.19999981       1.00566724E-13
  -8.14999962       6.33186049E-13
  -8.10000038       9.65686840E-13
  -8.05000019      -8.35470609E-14
  -8.00000000      -3.21153954E-12
  -7.94999981      -6.56303614E-12
  -7.90000010      -4.87433444E-12
  -7.84999990       7.13081027E-12
  -7.80000019       2.67708442E-11
  -7.75000000       3.69511297E-11
  -7.69999981       1.21621680E-11
  -7.65000010      -5.73558076E-11
  -7.59999990      -1.35945519E-10
  -7.55000019      -1.39843942E-10
  -7.50000000       9.20628851E-12
  -7.44999981       2.87409846E-10
  -7.40000010       5.06007125E-10
  -7.34999990       3.82563037E-10
  -7.30000019      -2.27511121E-10
  -7.25000000      -1.07373144E-09
  -7.19999981      -1.48737123E-09
  -7.15000010      -7.76969822E-10
  -7.09999990       1.09790543E-09
  -7.05000019       3.09431103E-09
  -7.00000000       3.47332185E-09
  -6.94999981       1.07491005E-09
  -6.90000010      -3.31210437E-09
  -6.84999990      -6.77752920E-09
  -6.80000019      -6.04485351E-09
  -6.75000000      -3.13118476E-10
  -6.69999981       7.10439885E-09
  -6.65000010       1.04219886E-08
  -6.59999990       5.97690386E-09
  -6.55000019      -3.64229957E-09
  -6.50000000      -1.02542792E-08
  -6.44999981      -6.68272726E-09
  -6.40000010       5.24478638E-09
  -6.34999990       1.32065745E-08
  -6.30000019       3.83849219E-09
  -6.25000000      -2.21221974E-08
  -6.19999981      -4.27560174E-08
  -6.15000010      -2.76334564E-08
  -6.09999990       3.32935777E-08
  -6.05000019       1.06721856E-07
  -6.00000000       1.25635253E-07
  -5.94999981       3.79700325E-08
  -5.90000010      -1.34943264E-07
  -5.84999990      -2.82030214E-07
  -5.80000019      -2.62413408E-07
  -5.75000000      -1.86010851E-08
  -5.69999981       3.38433324E-07
  -5.65000010       5.59323041E-07
  -5.59999990       4.17461393E-07
  -5.55000019      -9.29870936E-08
  -5.50000000      -6.80088078E-07
  -5.44999981      -9.02008708E-07
  -5.40000010      -4.83296390E-07
  -5.34999990       4.15590648E-07
  -5.30000019       1.21097753E-06
  -5.25000000       1.25412680E-06
  -5.19999981       3.29703710E-07
  -5.15000010      -1.07379947E-06
  -5.09999990      -1.98850853E-06
  -5.05000019      -1.61316689E-06
  -5.00000000       4.24451230E-08
  -4.94999981       2.01556441E-06
  -4.90000010       2.94596771E-06
  -4.84999990       2.01442481E-06
  -4.80000019      -3.90818315E-07
  -4.75000000      -2.81300913E-06
  -4.69999981      -3.65656933E-06
  -4.65000010      -2.29516831E-06
  -4.59999990       4.42117795E-07
  -4.55000019       2.80141967E-06
  -4.50000000       3.31176193E-06
  -4.44999981       1.80892050E-06
  -4.40000010      -4.79780681E-07
  -4.34999990      -1.86284910E-06
  -4.30000019      -1.44043906E-06
  -4.25000000       2.47118066E-07
  -4.19999981       1.65711356E-06
  -4.15000010       1.42681620E-06
  -4.09999990      -5.93635377E-07
  -4.05000019      -3.21194625E-06
  -4.00000000      -4.71430894E-06
  -3.95000005      -3.97805343E-06
  -3.90000010      -1.07149629E-06
  -3.84999990       2.97015526E-06
  -3.79999995       6.82028030E-06
  -3.75000000       9.33934280E-06
  -3.70000005       9.56598706E-06
  -3.65000010       6.56619568E-06
  -3.59999990      -2.41988033E-07
  -3.54999995      -1.01163405E-05
  -3.50000000      -2.00574013E-05
  -3.45000005      -2.50870835E-05
  -3.40000010      -2.03953041E-05
  -3.34999990      -4.62161188E-06
  -3.29999995       1.77772636E-05
  -3.25000000       3.72198119E-05
  -3.20000005       4.33254536E-05
  -3.15000010       3.09640054E-05
  -3.09999990       4.36667278E-06
  -3.04999995      -2.39147193E-05
  -3.00000000      -3.95782736E-05
  -2.95000005      -3.53218820E-05
  -2.90000010      -1.62408032E-05
  -2.84999990       2.43876616E-06
  -2.79999995       5.12578072E-06
  -2.75000000      -1.23196669E-05
  -2.70000005      -3.67489665E-05
  -2.65000010      -4.33988243E-05
  -2.59999990      -1.17037716E-05
  -2.54999995       5.75674640E-05
  -2.50000000       1.35587776E-04
  -2.45000005       1.76326997E-04
  -2.40000010       1.41714205E-04
  -2.34999990       2.75290822E-05
  -2.29999995      -1.26657833E-04
  -2.25000000      -2.52666039E-04
  -2.20000005      -2.88336159E-04
  -2.15000010      -2.12624975E-04
  -2.09999990      -5.95720339E-05
  -2.04999995       9.91794877E-05
  -2.00000000       1.94380918E-04
  -1.95000005       1.97691726E-04
  -1.89999998       1.34439833E-04
  -1.85000002       6.24054010E-05
  -1.79999995       3.09903444E-05
  -1.75000000       4.89313497E-05
  -1.70000005       8.32491714E-05
  -1.64999998       8.98980798E-05
  -1.60000002       5.26235526E-05
  -1.54999995      -1.32543369E-06
  -1.50000000      -2.41404268E-05
  -1.45000005       5.40848760E-06
  -1.39999998       4.75562410E-05
  -1.35000002       1.29234686E-05
  -1.29999995      -1.78420407E-04
  -1.25000000      -5.26786956E-04
  -1.20000005      -9.24945227E-04
  -1.14999998      -1.20399112E-03
  -1.10000002      -1.23421778E-03
  -1.04999995      -1.01695315E-03
  -1.00000000      -6.98474469E-04
 -0.949999988      -4.83086536E-04
 -0.899999976      -4.93041589E-04
 -0.850000024      -6.69500558E-04
 -0.800000012      -7.93116458E-04
 -0.750000000      -6.27499598E-04
 -0.699999988      -1.00523415E-04
 -0.649999976       6.00505853E-04
 -0.600000024       1.09920371E-03
 -0.550000012       1.03957334E-03
 -0.500000000       3.09847092E-04
 -0.449999988      -8.64887377E-04
 -0.400000006      -2.02944316E-03
 -0.349999994      -2.74451519E-03
 -0.300000012      -2.81895720E-03
 -0.250000000      -2.38402421E-03
 -0.200000003      -1.77186204E-03
 -0.150000006      -1.29189738E-03
 -0.100000001      -1.06228585E-03
  -5.00000007E-02  -1.00424374E-03
   0.00000000      -9.81945894E-04
   5.00000007E-02  -9.63116821E-04
  0.100000001      -1.06631184E-03
  0.150000006      -1.45679491E-03
  0.200000003      -2.17940216E-03
  0.250000000      -3.07373703E-03
  0.300000012      -3.85624915E-03
  0.349999994      -4.31904662E-03
  0.400000006      -4.49203746E-03
  0.449999988      -4.62947367E-03
  0.500000000      -5.01136947E-03
  0.550000012      -5.69959683E-03
  0.600000024      -6.44007279E-03
  0.649999976      -6.80773705E-03
  0.699999988      -6.51290873E-03
  0.750000000      -5.65774180E-03
  0.800000012      -4.75159241E-03
  0.850000024      -4.45597153E-03
  0.899999976      -5.21751586E-03
  0.949999988      -7.02370144E-03
   1.00000000      -9.42638610E-03
   1.04999995      -1.17930779E-02
   1.10000002      -1.36053078E-02
   1.14999998      -1.46270283E-02
   1.20000005      -1.48952259E-02
   1.25000000      -1.46223595E-02
   1.29999995      -1.41297486E-02
   1.35000002      -1.38382586E-02
   1.39999998      -1.42284241E-02
   1.45000005      -1.56728197E-02
   1.50000000      -1.81722585E-02
   1.54999995      -2.11882796E-02
   1.60000002      -2.37912405E-02
   1.64999998      -2.51582563E-02
   1.70000005      -2.51623224E-02
   1.75000000      -2.46265959E-02
   1.79999995      -2.49583088E-02
   1.85000002      -2.72872634E-02
   1.89999998      -3.16406265E-02
   1.95000005      -3.67621928E-02
   2.00000000      -4.08078544E-02
   2.04999995      -4.25359979E-02
   2.09999990      -4.21975404E-02
   2.15000010      -4.14584279E-02
   2.20000005      -4.23285589E-02
   2.25000000      -4.57972959E-02
   2.29999995      -5.11462353E-02
   2.34999990      -5.64764440E-02
   2.40000010      -6.01150170E-02
   2.45000005      -6.18823767E-02
   2.50000000      -6.32450208E-02
   2.54999995      -6.61739185E-02
   2.59999990      -7.15245306E-02
   2.65000010      -7.81947821E-02
   2.70000005      -8.38113949E-02
   2.75000000      -8.65541697E-02
   2.79999995      -8.67841616E-02
   2.84999990      -8.71499777E-02
   2.90000010      -9.08937380E-02
   2.95000005      -9.94496495E-02
   3.00000000     -0.111096978    
   3.04999995     -0.121811576    
   3.09999990     -0.127908528    
   3.15000010     -0.128684178    
   3.20000005     -0.127111495    
   3.25000000     -0.127936631    
   3.29999995     -0.134404495    
   3.34999990     -0.145933911    
   3.40000010     -0.158493876    
   3.45000005     -0.167520091    
   3.50000000     -0.171306878    
   3.54999995     -0.172347680    
   3.59999990     -0.175516158    
   3.65000010     -0.184317186    
   3.70000005     -0.197981760    
   3.75000000     -0.211709604    
   3.79999995     -0.220107153    
   3.84999990     -0.221419036    
   3.90000010     -0.219356328    
   3.95000005     -0.220898435    
   4.00000000     -0.231366515    
   4.05000019     -0.250230670    
   4.09999990     -0.270846844    
   4.15000010     -0.284657657    
   4.19999981     -0.287146330    
   4.25000000     -0.281356037    
   4.30000019     -0.276274264    
   4.34999990     -0.280914336    
   4.40000010     -0.298050255    
   4.44999981     -0.322005719    
   4.50000000     -0.342224658    
   4.55000019     -0.350343913    
   4.59999990     -0.345955431    
   4.65000010     -0.337026805    
   4.69999981     -0.334577709    
   4.75000000     -0.345198631    
   4.80000019     -0.366540909    
   4.84999990     -0.388899237    
   4.90000010     -0.401814610    
   4.94999981     -0.401159853    
   5.00000000     -0.391854465    
   5.05000019     -0.384394318    
   5.09999990     -0.387648851    
   5.15000010     -0.402901411    
   5.19999981     -0.423158050    
   5.25000000     -0.438054055    
   5.30000019     -0.440850884    
   5.34999990     -0.432711124    
   5.40000010     -0.421481431    
   5.44999981     -0.416077942    
   5.50000000     -0.420525491    
   5.55000019     -0.431716532    
   5.59999990     -0.442159891    
   5.65000010     -0.445466578    
   5.69999981     -0.440569878    
   5.75000000     -0.431835353    
   5.80000019     -0.425310344    
   5.84999990     -0.424093544    
   5.90000010     -0.426242113    
   5.94999981     -0.426587820    
   6.00000000     -0.420904845    
   6.05000019     -0.409222424    
   6.09999990     -0.395833820    
   6.15000010     -0.386072874    
   6.19999981     -0.382305294    
   6.25000000     -0.382086039    
   6.30000019     -0.379789442    
   6.34999990     -0.370495379    
   6.40000010     -0.353350908    
   6.44999981     -0.332089633    
   6.50000000     -0.312453657    
   6.55000019     -0.298398107    
   6.59999990     -0.289671332    
   6.65000010     -0.282271385    
   6.69999981     -0.271269828    
   6.75000000     -0.253975332    
   6.80000019     -0.231393307    
   6.84999990     -0.207245439    
   6.90000010     -0.185427070    
   6.94999981     -0.167643681    
   7.00000000     -0.152614251    
   7.05000019     -0.137089774    
   7.09999990     -0.117860422    
   7.15000010      -9.35312808E-02
   7.19999981      -6.51989430E-02
   7.25000000      -3.58583778E-02
   7.30000019      -8.95140879E-03
   7.34999990       1.32603133E-02
   7.40000010       3.08427773E-02
   7.44999981       4.63699400E-02
   7.50000000       6.39374256E-02
   7.55000019       8.72643068E-02
   7.59999990      0.117663153    
   7.65000010      0.152962625    
   7.69999981      0.188202545    
   7.75000000      0.218033433    
   7.80000019      0.239667028    
   7.84999990      0.254653096    
   7.90000010      0.268236309    
   7.94999981      0.286451161    
   8.00000000      0.312597960    
   8.05000019      0.345274389    
   8.10000038      0.379250109    
   8.14999962      0.408668786    
   8.19999981      0.430529058    
   8.25000000      0.446213692    
   8.30000019      0.460179418    
   8.35000038      0.476845026    
   8.39999962      0.497877240    
   8.44999981      0.521637380    
   8.50000000      0.544889927    
   8.55000019      0.565259755    
   8.60000038      0.582547367    
   8.64999962      0.598104894    
   8.69999981      0.613106787    
   8.75000000      0.627378821    
   8.80000019      0.639815927    
   8.85000038      0.649910331    
   8.89999962      0.658830404    
   8.94999981      0.668825209    
   9.00000000      0.681248128    
   9.05000019      0.694882274    
   9.10000038      0.706255496    
   9.14999962      0.712070584    
   9.19999981      0.711982012    
   9.25000000      0.709361911    
   9.30000019      0.709083855    
   9.35000038      0.713758171    
   9.39999962      0.721344173    
   9.44999981      0.726273060    
   9.50000000      0.723568678    
   9.55000019      0.712953389    
   9.60000038      0.699633360    
   9.64999962      0.690808475    
   9.69999981      0.690264344    
   9.75000000      0.695106149    
   9.80000019      0.697330654    
   9.85000038      0.689377367    
   9.89999962      0.669711590    
   9.94999981      0.644270837    
   10.0000000      0.622539043    
   10.0500002      0.610966623    
   10.1000004      0.608470559    
   10.1499996      0.607281804    
   10.1999998      0.598522186    
   10.2500000      0.578463554    
   10.3000002      0.550976872    
   10.3500004      0.524505734    
   10.3999996      0.505879223    
   10.4499998      0.495491534    
   10.5000000      0.487266868    
   10.5500002      0.473293871    
   10.6000004      0.449680358    
   10.6499996      0.419407994    
   10.6999998      0.390217006    
   10.7500000      0.369113743    
   10.8000002      0.357418329    
   10.8500004      0.349795580    
   10.8999996      0.337882251    
   10.9499998      0.315969884    
   11.0000000      0.284874350    
   11.0500002      0.251437187    
   11.1000004      0.224070355    
   11.1499996      0.207348123    
   11.1999998      0.199182197    
   11.2500000      0.192327872    
   11.3000002      0.179115131    
   11.3500004      0.156266689    
   11.3999996      0.126738191    
   11.4499998       9.75571126E-02
   11.5000000       7.52444491E-02
   11.5500002       6.18645623E-02
   11.6000004       5.41604310E-02
   11.6499996       4.60873097E-02
   11.6999998       3.28449123E-02
   11.7500000       1.37016186E-02
   11.8000002      -8.06421321E-03
   11.8500004      -2.77392603E-02
   11.8999996      -4.23003100E-02
   11.9499998      -5.20070642E-02
   12.0000000      -5.96677177E-02
   12.0500002      -6.84334040E-02
   12.1000004      -7.98070729E-02
   12.1499996      -9.31050703E-02
   12.1999998     -0.106394529    
   12.2500000     -0.117940344    
   12.3000002     -0.127091438    
   12.3500004     -0.134212971    
   12.3999996     -0.140062541    
   12.4499998     -0.145274788    
   12.5000000     -0.150281817    
   12.5500002     -0.155478939    
   12.6000004     -0.161245421    
   12.6499996     -0.167679176    
   12.6999998     -0.174294710    
   12.7500000     -0.180062965    
   12.8000002     -0.183909386    
   12.8500004     -0.185376391    
   12.8999996     -0.184976548    
   12.9499998     -0.183965236    
   13.0000000     -0.183672324    
   13.0500002     -0.184819400    
   13.1000004     -0.187213883    
   13.1499996     -0.189930767    
   13.1999998     -0.191809312    
   13.2500000     -0.191977352    
   13.3000002     -0.190184101    
   13.3500004     -0.186852798    
   13.3999996     -0.182871506    
   13.4499998     -0.179212749    
   13.5000000     -0.176531777    
   13.5500002     -0.174923435    
   13.6000004     -0.173955500    
   13.6499996     -0.172941715    
   13.6999998     -0.171272054    
   13.7500000     -0.168606177    
   13.8000002     -0.164880380    
   13.8500004     -0.160244063    
   13.8999996     -0.155058905    
   13.9499998     -0.149935827    
   14.0000000     -0.145629480    
   14.0500002     -0.142668173    
   14.1000004     -0.140880540    
   14.1499996     -0.139232188    
   14.1999998     -0.136294052    
   14.2500000     -0.131194532    
   14.3000002     -0.124409735    
   14.3500004     -0.117696337    
   14.3999996     -0.113030866    
   14.4499998     -0.111211963    
   14.5000000     -0.111158416    
   14.5500002     -0.110512614    
   14.6000004     -0.107201606    
   14.6499996     -0.100858890    
   14.6999998      -9.30826515E-02
   14.7500000      -8.63634348E-02
   14.8000002      -8.24783444E-02
   14.8500004      -8.14713016E-02
   14.8999996      -8.18175748E-02
   14.9499998      -8.14843029E-02
   15.0000000      -7.90701509E-02
   15.0500002      -7.43644312E-02
   15.1000004      -6.82284907E-02
   15.1499996      -6.21172488E-02
   15.1999998      -5.75392768E-02
   15.2500000      -5.55146150E-02
   15.3000002      -5.60353249E-02
   15.3500004      -5.77678345E-02
   15.3999996      -5.84202483E-02
   15.4499998      -5.59199899E-02
   15.5000000      -4.98538576E-02
   15.5500002      -4.21095006E-02
   15.6000004      -3.59609164E-02
   15.6499996      -3.39497440E-02
   15.6999998      -3.60049419E-02
   15.7500000      -3.93142551E-02
   15.8000002      -4.02498171E-02
   15.8500004      -3.70160416E-02
   15.8999996      -3.09848711E-02
   15.9499998      -2.56081615E-02
   16.0000000      -2.37040278E-02
   16.0499992      -2.52597500E-02
   16.1000004      -2.75186077E-02
   16.1499996      -2.72725765E-02
   16.2000008      -2.34751273E-02
   16.2500000      -1.80320404E-02
   16.2999992      -1.41524952E-02
   16.3500004      -1.36707854E-02
   16.3999996      -1.55765042E-02
   16.4500008      -1.69388968E-02
   16.5000000      -1.53936381E-02
   16.5499992      -1.10889338E-02
   16.6000004      -6.50495896E-03
   16.6499996      -4.37323749E-03
   16.7000008      -5.46996901E-03
   16.7500000      -8.06782581E-03
   16.7999992      -9.37996525E-03
   16.8500004      -7.70778349E-03
   16.8999996      -3.55401938E-03
   16.9500008       1.04337255E-03
   17.0000000       4.21179552E-03
   17.0499992       5.51602338E-03
   17.1000004       5.88996243E-03
   17.1499996       6.52752630E-03
   17.2000008       7.82009680E-03
   17.2500000       9.20617115E-03
   17.2999992       9.90321301E-03
   17.3500004       9.76919383E-03
   17.3999996       9.55525413E-03
   17.4500008       1.04126474E-02
   17.5000000       1.31023554E-02
   17.5499992       1.74724218E-02
   17.6000004       2.24648099E-02
   17.6499996       2.65637506E-02
   17.7000008       2.84601096E-02
   17.7500000       2.77184602E-02
   17.7999992       2.52031814E-02
   17.8500004       2.29481198E-02
   17.8999996       2.32743211E-02
   17.9500008       2.74175238E-02
   18.0000000       3.44714560E-02
   18.0499992       4.15461697E-02
   18.1000004       4.53683063E-02
   18.1499996       4.44571786E-02
   18.2000008       4.03583236E-02
   18.2500000       3.68763208E-02
   18.2999992       3.76378074E-02
   18.3500004       4.36153747E-02
   18.3999996       5.23906834E-02
   18.4500008       5.97268417E-02
   18.5000000       6.23504221E-02
   18.5499992       5.99994361E-02
   18.6000004       5.54023869E-02
   18.6499996       5.23862168E-02
   18.7000008       5.35512939E-02
   18.7500000       5.90178594E-02
   18.7999992       6.67686388E-02
   18.8500004       7.39970654E-02
   18.8999996       7.84631073E-02
   18.9500008       7.92506114E-02
   19.0000000       7.69207254E-02
   19.0499992       7.32822567E-02
   19.1000004       7.08238557E-02
   19.1499996       7.17337951E-02
   19.2000008       7.67197534E-02
   19.2500000       8.43077302E-02
   19.2999992       9.13465247E-02
   19.3500004       9.47472751E-02
   19.3999996       9.34719145E-02
   19.4500008       8.93425643E-02
   19.5000000       8.59271362E-02
   19.5499992       8.61648396E-02
   19.6000004       9.04167742E-02
   19.6499996       9.63690802E-02
   19.7000008      0.100818247    
   19.7500000      0.101940848    
   19.7999992      0.100349091    
   19.8500004       9.82768685E-02
   19.8999996       9.77266431E-02
   19.9500008       9.91087332E-02
   20.0000000      0.101318151    
   20.0499992      0.102924839    
   20.1000004      0.103321925    
   20.1499996      0.102923803    
   20.2000008      0.102475613    
   20.2500000      0.102287084    
   20.2999992      0.102106236    
   20.3500004      0.101608448    
   20.3999996      0.100870647    
   20.4500008      0.100296795    
   20.5000000      0.100096747    
   20.5499992       9.99139026E-02
   20.6000004       9.90546793E-02
   20.6499996       9.71463844E-02
   20.7000008       9.45832804E-02
   20.7500000       9.22877714E-02
   20.7999992       9.09562111E-02
   20.8500004       9.04548615E-02
   20.8999996       8.99044052E-02
   20.9500008       8.83710384E-02
   21.0000000       8.55565742E-02
   21.0499992       8.19312856E-02
   21.1000004       7.82883987E-02
   21.1499996       7.51813576E-02
   21.2000008       7.27025717E-02
   21.2500000       7.06398487E-02
   21.2999992       6.86888397E-02
   21.3500004       6.64698258E-02
   21.3999996       6.34641349E-02
   21.4500008       5.91861680E-02
   21.5000000       5.36523797E-02
   21.5499992       4.77460958E-02
   21.6000004       4.29451652E-02
   21.6499996       4.03526761E-02
   21.7000008       3.96923833E-02
   21.7500000       3.91785316E-02
   21.7999992       3.65844220E-02
   21.8500004       3.08218524E-02
   21.8999996       2.27988586E-02
   21.9500008       1.48076098E-02
   22.0000000       8.87706038E-03
   22.0499992       5.39697381E-03
   22.1000004       3.09619028E-03
   22.1499996       3.01220483E-04
   22.2000008      -3.67742311E-03
   22.2500000      -8.22763983E-03
   22.2999992      -1.23646986E-02
   22.3500004      -1.59353763E-02
   22.3999996      -1.99019350E-02
   22.4500008      -2.54116468E-02
   22.5000000      -3.25427651E-02
   22.5499992      -3.99630964E-02
   22.6000004      -4.59101461E-02
   22.6499996      -4.96564545E-02
   22.7000008      -5.21240607E-02
   22.7500000      -5.50564677E-02
   22.7999992      -5.94753139E-02
   22.8500004      -6.48306608E-02
   22.8999996      -6.96393624E-02
   22.9500008      -7.30330348E-02
   23.0000000      -7.57575482E-02
   23.0499992      -7.96151459E-02
   23.1000004      -8.57569724E-02
   23.1499996      -9.33496878E-02
   23.2000008      -9.99212041E-02
   23.2500000     -0.103270032    
   23.2999992     -0.103415795    
   23.3500004     -0.102907836    
   23.3999996     -0.105084479    
   23.4500008     -0.111548133    
   23.5000000     -0.120811045    
   23.5499992     -0.129200995    
   23.6000004     -0.133395433    
   23.6499996     -0.132741585    
   23.7000008     -0.129719064    
   23.7500000     -0.128280938    
   23.7999992     -0.131292343    
   23.8500004     -0.138802603    
   23.8999996     -0.148182079    
   23.9500008     -0.155866176    
   24.0000000     -0.159490243    
   24.0499992     -0.159121364    
   24.1000004     -0.156983495    
   24.1499996     -0.155998230    
   24.2000008     -0.158080220    
   24.2500000     -0.163163409    
   24.2999992     -0.169454500    
   24.3500004     -0.174689844    
   24.3999996     -0.177587345    
   24.4500008     -0.178569809    
   24.5000000     -0.179299220    
   24.5499992     -0.181362629    
   24.6000004     -0.185066745    
   24.6499996     -0.189249903    
   24.7000008     -0.192273408    
   24.7500000     -0.193429500    
   24.7999992     -0.193628967    
   24.8500004     -0.194760516    
   24.8999996     -0.198176324    
   24.9500008     -0.203507245    
   25.0000000     -0.208804205    
   25.0499992     -0.211964682    
   25.1000004     -0.212359145    
   25.1499996     -0.211380541    
   25.2000008     -0.211471617    
   25.2500000     -0.214369506    
   25.2999992     -0.219892219    
   25.3500004     -0.226131693    
   25.3999996     -0.230822757    
   25.4500008     -0.232819751    
   25.5000000     -0.232655615    
   25.5499992     -0.231950536    
   25.6000004     -0.232279181    
   25.6499996     -0.234349757    
   25.7000008     -0.237922817    
   25.7500000     -0.242268190    
   25.7999992     -0.246658996    
   25.8500004     -0.250579238    
   25.8999996     -0.253690869    
   25.9500008     -0.255790770    
   26.0000000     -0.256877601    
   26.0499992     -0.257240146    
   26.1000004     -0.257419139    
   26.1499996     -0.258019775    
   26.2000008     -0.259495825    
   26.2500000     -0.262020409    
   26.2999992     -0.265443623    
   26.3500004     -0.269276172    
   26.3999996     -0.272720546    
   26.4500008     -0.274874061    
   26.5000000     -0.275162458    
   26.5499992     -0.273809522    
   26.6000004     -0.271944284    
   26.6499996     -0.271081328    
   26.7000008     -0.272176534    
   26.7500000     -0.274900407    
   26.7999992     -0.277742624    
   26.8500004     -0.278986752    
   26.8999996     -0.277892798    
   26.9500008     -0.275190413    
   27.0000000     -0.272485077    
   27.0499992     -0.271034151    
   27.1000004     -0.270856768    
   27.1499996     -0.270863146    
   27.2000008     -0.269837916    
   27.2500000     -0.267426431    
   27.2999992     -0.264311403    
   27.3500004     -0.261486888    
   27.3999996     -0.259309262    
   27.4500008     -0.257161468    
   27.5000000     -0.254001647    
   27.5499992     -0.249298021    
   27.6000004     -0.243537501    
   27.6499996     -0.237884864    
   27.7000008     -0.233290136    
   27.7500000     -0.229771644    
   27.7999992     -0.226414129    
   27.8500004     -0.222029552    
   27.8999996     -0.215943500    
   27.9500008     -0.208351552    
   28.0000000     -0.200077951    
   28.0499992     -0.192002401    
   28.1000004     -0.184573337    
   28.1499996     -0.177668005    
   28.2000008     -0.170793042    
   28.2500000     -0.163436666    
   28.2999992     -0.155356050    
   28.3500004     -0.146653876    
   28.3999996     -0.137608096    
   28.4500008     -0.128360674    
   28.5000000     -0.118698888    
   28.5499992     -0.108164571    
   28.6000004      -9.65113714E-02
   28.6499996      -8.41897428E-02
   28.7000008      -7.23741427E-02
   28.7500000      -6.22926205E-02
   28.7999992      -5.42013682E-02
   28.8500004      -4.68123555E-02
   28.8999996      -3.78239825E-02
   28.9500008      -2.54158154E-02
   29.0000000      -9.69462097E-03
   29.0499992       7.08993943E-03
   29.1000004       2.19221245E-02
   29.1499996       3.31080034E-02
   29.2000008       4.15183902E-02
   29.2500000       4.99756038E-02
   29.2999992       6.11893088E-02
   29.3500004       7.58042485E-02
   29.3999996       9.20525938E-02
   29.4500008      0.107232027    
   29.5000000      0.119776517    
   29.5499992      0.130269319    
   29.6000004      0.140685946    
   29.6499996      0.152634606    
   29.7000008      0.166127011    
   29.7500000      0.179846361    
   29.7999992      0.192532659    
   29.8500004      0.204165086    
   29.8999996      0.215891689    
   29.9500008      0.228834897    
   30.0000000      0.242907912    
   30.0499992      0.256727815    
   30.1000004      0.268704414    
   30.1499996      0.278348535    
   30.2000008      0.286683351    
   30.2500000      0.295455694    
   30.2999992      0.305859685    
   30.3500004      0.317811489    
   30.3999996      0.330239475    
   30.4500008      0.341973901    
   30.5000000      0.352426440    
   30.5499992      0.361614794    
   30.6000004      0.369769067    
   30.6499996      0.377068311    
   30.7000008      0.383755505    
   30.7500000      0.390355706    
   30.7999992      0.397557586    
   30.8500004      0.405694872    
   30.8999996      0.414278775    
   30.9500008      0.422119468    
   31.0000000      0.428089887    
   31.0499992      0.431967527    
   31.1000004      0.434637100    
   31.1499996      0.437440991    
   31.2000008      0.441185415    
   31.2500000      0.445604712    
   31.2999992      0.449683666    
   31.3500004      0.452510864    
   31.3999996      0.453930944    
   31.4500008      0.454507530    
   31.5000000      0.454932928    
   31.5499992      0.455451488    
   31.6000004      0.455748439    
   31.6499996      0.455288410    
   31.7000008      0.453731149    
   31.7500000      0.451103747    
   31.7999992      0.447717339    
   31.8500004      0.444016039    
   31.8999996      0.440459043    
   31.9500008      0.437350869    
   32.0000000      0.434557885    
   32.0499992      0.431303978    
   32.0999985      0.426405370    
   32.1500015      0.419052094    
   32.2000008      0.409672827    
   32.2500000      0.400077045    
   32.2999992      0.392438978    
   32.3499985      0.387641400    
   32.4000015      0.384252101    
   32.4500008      0.379171252    
   32.5000000      0.369756848    
   32.5499992      0.355930358    
   32.5999985      0.340544641    
   32.6500015      0.327514559    
   32.7000008      0.318988323    
   32.7500000      0.313714981    
   32.7999992      0.307935745    