  -10.0000000         3.85332949E-31
  -9.94999981         1.15599882E-30
  -9.89999962         1.12674406E-30
  -9.85000038         3.10018415E-33
  -9.80000019        -1.20615472E-30
  -9.75000000        -1.57206975E-30
  -9.69999981        -6.14174498E-31
  -9.64999962         5.75477318E-31
  -9.60000038        -1.06918481E-18
  -9.55000019        -4.61031968E-18
  -9.50000000         1.66769571E-17
  -9.44999981         1.77395897E-16
  -9.39999962         5.00300857E-16
  -9.35000038        -1.37318996E-17
  -9.30000019        -4.24563999E-15
  -9.25000000        -1.31538525E-14
  -9.19999981        -1.26229144E-14
  -9.14999962         3.67302488E-14
  -9.10000038         1.63301867E-13
  -9.05000019         2.67123400E-13
  -9.00000000         1.41805267E-14
  -8.94999981        -9.66173430E-13
  -8.89999962        -2.34075888E-12
  -8.85000038        -2.23752093E-12
  -8.80000019         2.17821377E-12
  -8.75000000         1.12617979E-11
  -8.69999981         1.79955339E-11
  -8.64999962         7.81875606E-12
  -8.60000038        -2.95823158E-11
  -8.55000019        -7.87161378E-11
  -8.50000000        -8.71941477E-11
  -8.44999981         5.83867850E-12
  -8.39999962         1.97031627E-10
  -8.35000038         3.54750646E-10
  -8.30000019         2.58714550E-10
  -8.25000000        -2.08889656E-10
  -8.19999981        -8.28883406E-10
  -8.14999962        -1.02648345E-09
  -8.10000038        -2.70115347E-10
  -8.05000019         1.27428645E-09
  -8.00000000         2.43830223E-09
  -7.94999981         1.71878400E-09
  -7.90000010        -1.20203725E-09
  -7.84999990        -4.32942615E-09
  -7.80000019        -4.24383684E-09
  -7.75000000         7.26484317E-10
  -7.69999981         7.36850714E-09
  -7.65000010         8.30192537E-09
  -7.59999990        -1.75004733E-09
  -7.55000019        -1.79708497E-08
  -7.50000000        -2.41248586E-08
  -7.44999981        -3.88963040E-09
  -7.40000010         3.99763564E-08
  -7.34999990         7.53947660E-08
  -7.30000019         5.67016301E-08
  -7.25000000        -3.49423139E-08
  -7.19999981        -1.55025489E-07
  -7.15000010        -2.03334835E-07
  -7.09999990        -9.19124759E-08
  -7.05000019         1.63327456E-07
  -7.00000000         4.05194299E-07
  -6.94999981         4.13092749E-07
  -6.90000010         7.39737018E-08
  -6.84999990        -4.72081638E-07
  -6.80000019        -8.52728704E-07
  -6.75000000        -6.93013817E-07
  -6.69999981         7.40428021E-08
  -6.65000010         1.05368304E-06
  -6.59999990         1.56470207E-06
  -6.55000019         1.08690767E-06
  -6.50000000        -3.09741097E-07
  -6.44999981        -1.88659089E-06
  -6.40000010        -2.62405342E-06
  -6.34999990        -1.85857448E-06
  -6.30000019         2.43435238E-07
  -6.25000000         2.68793883E-06
  -6.19999981         4.13221505E-06
  -6.15000010         3.56250575E-06
  -6.09999990         8.38999142E-07
  -6.05000019        -3.08910126E-06
  -6.00000000        -6.36853429E-06
  -5.94999981        -6.87881038E-06
  -5.90000010        -3.31874821E-06
  -5.84999990         3.57200429E-06
  -5.80000019         1.04677129E-05
  -5.75000000         1.25511042E-05
  -5.69999981         6.43513886E-06
  -5.65000010        -6.50025004E-06
  -5.59999990        -1.90406627E-05
  -5.55000019        -2.14359898E-05
  -5.50000000        -8.26103769E-06
  -5.44999981         1.55294729E-05
  -5.40000010         3.48643371E-05
  -5.34999990         3.32901654E-05
  -5.30000019         5.77979426E-06
  -5.25000000        -3.37701276E-05
  -5.19999981        -5.82020875E-05
  -5.15000010        -4.50204534E-05
  -5.09999990         4.79273058E-06
  -5.05000019         6.20795181E-05
  -5.00000000         8.59307765E-05
  -4.94999981         5.26151161E-05
  -4.90000010        -2.34146337E-05
  -4.84999990        -9.42766928E-05
  -4.80000019        -1.09527478E-04
  -4.75000000        -5.29516328E-05
  -4.69999981         4.22142657E-05
  -4.65000010         1.13449205E-04
  -4.59999990         1.12217349E-04
  -4.55000019         3.92077054E-05
  -4.50000000        -5.53600403E-05
  -4.44999981        -1.07617707E-04
  -4.40000010        -8.55808757E-05
  -4.34999990        -1.00974639E-05
  -4.30000019         6.37600388E-05
  -4.25000000         8.87206770E-05
  -4.19999981         5.70271186E-05
  -4.15000010        -1.48771937E-06
  -4.09999990        -4.90125931E-05
  -4.05000019        -6.84871702E-05
  -4.00000000        -6.67130662E-05
  -3.95000005        -5.35838190E-05
  -3.90000010        -2.33951596E-05
  -3.84999990         3.76692951E-05
  -3.79999995         1.21838377E-04
  -3.75000000         1.80157076E-04
  -3.70000005         1.44301594E-04
  -3.65000010        -1.43128755E-05
  -3.59999990        -2.33892308E-04
  -3.54999995        -3.73852439E-04
  -3.50000000        -3.00925487E-04
  -3.45000005         1.82702956E-06
  -3.40000010         3.88415152E-04
  -3.34999990         6.18984515E-04
  -3.29999995         5.14942687E-04
  -3.25000000         9.69333560E-05
  -3.20000005        -4.01090831E-04
  -3.15000010        -6.69739849E-04
  -3.09999990        -5.32316975E-04
  -3.04999995        -8.08338955E-05
  -3.00000000         3.64529027E-04
  -2.95000005         4.60486714E-04
  -2.90000010         8.15411986E-05
  -2.84999990        -5.66672126E-04
  -2.79999995        -1.04956538E-03
  -2.75000000        -9.70129913E-04
  -2.70000005        -2.35892061E-04
  -2.65000010         8.49032949E-04
  -2.59999990         1.74058951E-03
  -2.54999995         1.97887607E-03
  -2.50000000         1.48479617E-03
  -2.45000005         6.36176090E-04
  -2.40000010         5.51310259E-05
  -2.34999990         2.18373112E-04
  -2.29999995         1.12782209E-03
  -2.25000000         2.26313039E-03
  -2.20000005         2.87441816E-03
  -2.15000010         2.45362264E-03
  -2.09999990         1.08809618E-03
  -2.04999995        -5.47454634E-04
  -2.00000000        -1.58055022E-03
  -1.95000005        -1.47529307E-03
  -1.89999998        -3.63248138E-04
  -1.85000002         1.05351338E-03
  -1.79999995         1.96549878E-03
  -1.75000000         1.97202130E-03
  -1.70000005         1.30325370E-03
  -1.64999998         6.12352509E-04
  -1.60000002         5.06073353E-04
  -1.54999995         1.15497888E-03
  -1.50000000         2.24176305E-03
  -1.45000005         3.24105704E-03
  -1.39999998         3.78696551E-03
  -1.35000002         3.85481748E-03
  -1.29999995         3.66663001E-03
  -1.25000000         3.45944893E-03
  -1.20000005         3.33884545E-03
  -1.14999998         3.32019897E-03
  -1.10000002         3.46180378E-03
  -1.04999995         3.90521577E-03
  -1.00000000         4.74257162E-03
 -0.949999988         5.82850212E-03
 -0.899999976         6.75266003E-03
 -0.850000024         7.07748393E-03
 -0.800000012         6.70479517E-03
 -0.750000000         6.07446907E-03
 -0.699999988         5.97828301E-03
 -0.649999976         7.05463579E-03
 -0.600000024         9.29915719E-03
 -0.550000012         1.19604636E-02
 -0.500000000         1.39433211E-02
 -0.449999988         1.44859571E-02
 -0.400000006         1.36731435E-02
 -0.349999994         1.24398498E-02
 -0.300000012         1.20453071E-02
 -0.250000000         1.33320047E-02
 -0.200000003         1.62155535E-02
 -0.150000006         1.97114721E-02
 -0.100000001         2.24929620E-02
  -5.00000007E-02     2.36716513E-02
   0.00000000         2.33593136E-02
   5.00000007E-02     2.26688888E-02
  0.100000001         2.31067277E-02
  0.150000006         2.56610196E-02
  0.200000003         3.01163029E-02
  0.250000000         3.50613184E-02
  0.300000012         3.86815853E-02
  0.349999994         3.99192274E-02
  0.400000006         3.92663740E-02
  0.449999988         3.86011936E-02
  0.500000000         4.00634184E-02
  0.550000012         4.46439870E-02
  0.600000024         5.14422767E-02
  0.649999976         5.81636280E-02
  0.699999988         6.25954866E-02
  0.750000000         6.40889332E-02
  0.800000012         6.40202910E-02
  0.850000024         6.48909807E-02
  0.899999976         6.86725453E-02
  0.949999988         7.55320340E-02
   1.00000000         8.37942511E-02
   1.04999995         9.11220536E-02
   1.10000002         9.60661024E-02
   1.14999998         9.89365131E-02
   1.20000005        0.101477638    
   1.25000000        0.105658025    
   1.29999995        0.112425722    
   1.35000002        0.121203087    
   1.39999998        0.130345747    
   1.45000005        0.138191104    
   1.50000000        0.144042328    
   1.54999995        0.148558646    
   1.60000002        0.153386191    
   1.64999998        0.160247773    
   1.70000005        0.169959053    
   1.75000000        0.181889549    
   1.79999995        0.194209024    
   1.85000002        0.204870492    
   1.89999998        0.212827697    
   1.95000005        0.218747169    
   2.00000000        0.224690616    
   2.04999995        0.232877180    
   2.09999990        0.244298175    
   2.15000010        0.258129120    
   2.20000005        0.272362351    
   2.25000000        0.285198599    
   2.29999995        0.296167105    
   2.34999990        0.306174070    
   2.40000010        0.316546232    
   2.45000005        0.327942580    
   2.50000000        0.340056866    
   2.54999995        0.352283239    
   2.59999990        0.364619225    
   2.65000010        0.377848595    
   2.70000005        0.392727047    
   2.75000000        0.408892661    
   2.79999995        0.424620509    
   2.84999990        0.437897503    
   2.90000010        0.448102832    
   2.95000005        0.456884921    
   3.00000000        0.467310756    
   3.04999995        0.481723458    
   3.09999990        0.499875307    
   3.15000010        0.518838346    
   3.20000005        0.534903467    
   3.25000000        0.546151876    
   3.29999995        0.553832829    
   3.34999990        0.561541617    
   3.40000010        0.572780967    
   3.45000005        0.588616073    
   3.50000000        0.606990576    
   3.54999995        0.624060452    
   3.59999990        0.636580229    
   3.65000010        0.643808305    
   3.70000005        0.647850990    
   3.75000000        0.652384281    
   3.79999995        0.660557985    
   3.84999990        0.673230946    
   3.90000010        0.688434422    
   3.95000005        0.702360809    
   4.00000000        0.711441934    
   4.05000019        0.714437902    
   4.09999990        0.713294566    
   4.15000010        0.712084591    
   4.19999981        0.714493752    
   4.25000000        0.721373081    
   4.30000019        0.730057716    
   4.34999990        0.736085713    
   4.40000010        0.736236989    
   4.44999981        0.730745614    
   4.50000000        0.723027468    
   4.55000019        0.717085719    
   4.59999990        0.714559853    
   4.65000010        0.713672578    
   4.69999981        0.710825861    
   4.75000000        0.703469753    
   4.80000019        0.691913188    
   4.84999990        0.678691030    
   4.90000010        0.666184008    
   4.94999981        0.654626369    
   5.00000000        0.642168641    
   5.05000019        0.626803994    
   5.09999990        0.608341455    
   5.15000010        0.588626802    
   5.19999981        0.569829106    
   5.25000000        0.552355766    
   5.30000019        0.534275353    
   5.34999990        0.512764454    
   5.40000010        0.486345679    
   5.44999981        0.456046194    
   5.50000000        0.424611658    
   5.55000019        0.394570440    
   5.59999990        0.366743773    
   5.65000010        0.340176195    
   5.69999981        0.313135803    
   5.75000000        0.284114599    
   5.80000019        0.252155095    
   5.84999990        0.216778934    
   5.90000010        0.178155571    
   5.94999981        0.137546495    
   6.00000000         9.73107666E-02
   6.05000019         5.98179772E-02
   6.09999990         2.56826151E-02
   6.15000010        -7.20463740E-03
   6.19999981        -4.26084995E-02
   6.25000000        -8.32033008E-02
   6.30000019       -0.128217980    
   6.34999990       -0.173615977    
   6.40000010       -0.215016842    
   6.44999981       -0.251166105    
   6.50000000       -0.285056978    
   6.55000019       -0.321595728    
   6.59999990       -0.363605142    
   6.65000010       -0.409472287    
   6.69999981       -0.454440862    
   6.75000000       -0.494453996    
   6.80000019       -0.529275537    
   6.84999990       -0.562294781    
   6.90000010       -0.597325921    
   6.94999981       -0.635335028    
   7.00000000       -0.673948586    
   7.05000019       -0.709994197    
   7.09999990       -0.742569506    
   7.15000010       -0.773726225    
   7.19999981       -0.806176782    
   7.25000000       -0.840264142    
   7.30000019       -0.873159707    
   7.34999990       -0.901172161    
   7.40000010       -0.923129082    
   7.44999981       -0.941721618    
   7.50000000       -0.961487770    
   7.55000019       -0.985142827    
   7.59999990        -1.01142216    
   7.65000010        -1.03622246    
   7.69999981        -1.05590308    
   7.75000000        -1.06982696    
   7.80000019        -1.08013141    
   7.84999990        -1.08934748    
   7.90000010        -1.09831035    
   7.94999981        -1.10619020    
   8.00000000        -1.11218178    
   8.05000019        -1.11678481    
   8.10000038        -1.12119889    
   8.14999962        -1.12550604    
   8.19999981        -1.12777400    
   8.25000000        -1.12539291    
   8.30000019        -1.11763251    
   8.35000038        -1.10691047    
   8.39999962        -1.09721220    
   8.44999981        -1.09075844    
   8.50000000        -1.08586800    
   8.55000019        -1.07811415    
   8.60000038        -1.06395340    
   8.64999962        -1.04369593    
   8.69999981        -1.02118695    
   8.75000000        -1.00050616    
   8.80000019       -0.982672513    
   8.85000038       -0.965263188    
   8.89999962       -0.945105135    
   8.94999981       -0.921349287    
   9.00000000       -0.895994961    
   9.05000019       -0.871487617    
   9.10000038       -0.847901583    
   9.14999962       -0.822634459    
   9.19999981       -0.793051481    
   9.25000000       -0.759525895    
   9.30000019       -0.725761473    
   9.35000038       -0.695798457    
   9.39999962       -0.670340180    
   9.44999981       -0.645878971    
   9.50000000       -0.617620170    
   9.55000019       -0.583674312    
   9.60000038       -0.546726763    
   9.64999962       -0.511655390    
   9.69999981       -0.481280446    
   9.75000000       -0.454118103    
   9.80000019       -0.426101148    
   9.85000038       -0.394516408    
   9.89999962       -0.360405773    
   9.94999981       -0.327266812    
   10.0000000       -0.297487795    
   10.0500002       -0.270093828    
   10.1000004       -0.242009193    
   10.1499996       -0.211499408    
   10.1999998       -0.180244759    
   10.2500000       -0.151824072    
   10.3000002       -0.127987877    
   10.3500004       -0.106462896    
   10.3999996        -8.27179402E-02
   10.4499998        -5.42827770E-02
   10.5000000        -2.35341694E-02
   10.5500002         3.94461351E-03
   10.6000004         2.42185444E-02
   10.6499996         3.86847965E-02
   10.6999998         5.30713350E-02
   10.7500000         7.24811554E-02
   10.8000002         9.69157144E-02
   10.8500004        0.121355586    
   10.8999996        0.140308991    
   10.9499998        0.152623385    
   11.0000000        0.162164778    
   11.0500002        0.173894614    
   11.1000004        0.189192295    
   11.1499996        0.204893053    
   11.1999998        0.216848031    
   11.2500000        0.224378660    
   11.3000002        0.231112033    
   11.3500004        0.241246507    
   11.3999996        0.254884124    
   11.4499998        0.267197937    
   11.5000000        0.272626221    
   11.5500002        0.270342708    
   11.6000004        0.265729100    
   11.6499996        0.266106397    
   11.6999998        0.274375916    
   11.7500000        0.286375463    
   11.8000002        0.294486165    
   11.8500004        0.294283241    
   11.8999996        0.288175344    
   11.9499998        0.282763124    
   12.0000000        0.282507777    
   12.0500002        0.285733938    
   12.1000004        0.286709040    
   12.1499996        0.281694293    
   12.1999998        0.273006111    
   12.2500000        0.266998678    
   12.3000002        0.267771453    
   12.3500004        0.272689015    
   12.3999996        0.274278492    
   12.4499998        0.267042488    
   12.5000000        0.252865374    
   12.5500002        0.239738628    
   12.6000004        0.234689996    
   12.6499996        0.237346634    
   12.6999998        0.240196973    
   12.7500000        0.235488340    
   12.8000002        0.222456947    
   12.8500004        0.208128750    
   12.8999996        0.200816080    
   12.9499998        0.202275589    
   13.0000000        0.205871955    
   13.0500002        0.202602834    
   13.1000004        0.189507246    
   13.1499996        0.172633454    
   13.1999998        0.161668390    
   13.2500000        0.161047623    
   13.3000002        0.165725961    
   13.3500004        0.165618360    
   13.3999996        0.154786259    
   13.4499998        0.137032717    
   13.5000000        0.122755669    
   13.5500002        0.119802780    
   13.6000004        0.126480207    
   13.6499996        0.132907957    
   13.6999998        0.129440531    
   13.7500000        0.114692211    
   13.8000002         9.63042900E-02
   13.8500004         8.41915905E-02
   13.8999996         8.24902728E-02
   13.9499998         8.70664865E-02
   14.0000000         9.00519788E-02
   14.0500002         8.66807848E-02
   14.1000004         7.82967433E-02
   14.1499996         6.96044415E-02
   14.1999998         6.36724681E-02
   14.2500000         5.97252883E-02
   14.3000002         5.53377084E-02
   14.3500004         5.00341654E-02
   14.3999996         4.61330079E-02
   14.4499998         4.59071323E-02
   14.5000000         4.82459404E-02
   14.5500002         4.86992858E-02
   14.6000004         4.33265083E-02
   14.6499996         3.27009521E-02
   14.6999998         2.19528191E-02
   14.7500000         1.64876003E-02
   14.8000002         1.73187684E-02
   14.8500004         2.04669200E-02
   14.8999996         2.09724419E-02
   14.9499998         1.75433178E-02
   15.0000000         1.32383984E-02
   15.0500002         1.15862852E-02
   15.1000004         1.22368811E-02
   15.1499996         1.08717177E-02
   15.1999998         3.83423385E-03
   15.2500000        -7.09686847E-03
   15.3000002        -1.50352269E-02
   15.3500004        -1.39269074E-02
   15.3999996        -4.85281693E-03
   15.4499998         3.61350668E-03
   15.5000000         2.17365101E-03
   15.5500002        -1.09082824E-02
   15.6000004        -2.75823120E-02
   15.6499996        -3.63605432E-02
   15.6999998        -3.19949500E-02
   15.7500000        -1.99704077E-02
   15.8000002        -1.17423013E-02
   15.8500004        -1.49265798E-02
   15.8999996        -2.71925759E-02
   15.9499998        -3.91702056E-02
   16.0000000        -4.33909707E-02
   16.0499992        -4.08226773E-02
   16.1000004        -3.90151851E-02
   16.1499996        -4.39267084E-02
   16.2000008        -5.35376705E-02
   16.2500000        -5.96292615E-02
   16.2999992        -5.61862811E-02
   16.3500004        -4.62883078E-02
   16.3999996        -4.04620096E-02
   16.4500008        -4.74370122E-02
   16.5000000        -6.56595752E-02
   16.5499992        -8.36818293E-02
   16.6000004        -8.96185338E-02
   16.6499996        -8.14553723E-02
   16.7000008        -6.89374432E-02
   16.7500000        -6.52033761E-02
   16.7999992        -7.55479336E-02
   16.8500004        -9.32642668E-02
   16.8999996       -0.106078319    
   16.9500008       -0.107144706    
   17.0000000       -0.100640640    
   17.0499992        -9.71731246E-02
   17.1000004       -0.103611760    
   17.1499996       -0.116894461    
   17.2000008       -0.127394915    
   17.2500000       -0.128425747    
   17.2999992       -0.122813851    
   17.3500004       -0.120372616    
   17.3999996       -0.128679827    
   17.4500008       -0.145797551    
   17.5000000       -0.161710784    
   17.5499992       -0.167168424    
   17.6000004       -0.161849439    
   17.6499996       -0.154525772    
   17.7000008       -0.155277833    
   17.7500000       -0.166921601    
   17.7999992       -0.183190346    
   17.8500004       -0.194818750    
   17.8999996       -0.197619051    
   17.9500008       -0.195329383    
   18.0000000       -0.195283040    
   18.0499992       -0.201542869    
   18.1000004       -0.211939141    
   18.1499996       -0.221178621    
   18.2000008       -0.226318210    
   18.2500000       -0.229080781    
   18.2999992       -0.233149886    
   18.3500004       -0.239762336    
   18.3999996       -0.246408418    
   18.4500008       -0.249944493    
   18.5000000       -0.250654936    
   18.5499992       -0.252696991    
   18.6000004       -0.260081321    
   18.6499996       -0.272107899    
   18.7000008       -0.283092618    
   18.7500000       -0.287168354    
   18.7999992       -0.283832103    
   18.8500004       -0.278839111    
   18.8999996       -0.279278666    
   18.9500008       -0.287249148    
   19.0000000       -0.298047125    
   19.0499992       -0.304624498    
   19.1000004       -0.304127246    
   19.1499996       -0.300326616    
   19.2000008       -0.299678117    
   19.2500000       -0.304878056    
   19.2999992       -0.312219262    
   19.3500004       -0.315355182    
   19.3999996       -0.311785460    
   19.4500008       -0.305597901    
   19.5000000       -0.303555459    
   19.5499992       -0.308173507    
   19.6000004       -0.314638704    
   19.6499996       -0.314976007    
   19.7000008       -0.305861443    
   19.7500000       -0.292612225    
   19.7999992       -0.285083175    
   19.8500004       -0.288743943    
   19.8999996       -0.299062371    
   19.9500008       -0.304720163    
   20.0000000       -0.297251910    
   20.0499992       -0.278639674    
   20.1000004       -0.259922624    
   20.1499996       -0.251813680    
   20.2000008       -0.255519688    
   20.2500000       -0.261858195    
   20.2999992       -0.259404629    
   20.3500004       -0.244388759    
   20.3999996       -0.223623559    
   20.4500008       -0.208106235    
   20.5000000       -0.203238457    
   20.5499992       -0.204414651    
   20.6000004       -0.201638922    
   20.6499996       -0.188665986    
   20.7000008       -0.168344393    
   20.7500000       -0.149597183    
   20.7999992       -0.139154390    
   20.8500004       -0.135668874    
   20.8999996       -0.131315455    
   20.9500008       -0.119037732    
   21.0000000        -9.87019092E-02
   21.0499992        -7.68254995E-02
   21.1000004        -6.05965443E-02
   21.1499996        -5.18480204E-02
   21.2000008        -4.61731963E-02
   21.2500000        -3.73324268E-02
   21.2999992        -2.24850979E-02
   21.3500004        -3.67247593E-03
   21.3999996         1.50230676E-02
   21.4500008         3.12427804E-02
   21.5000000         4.54327911E-02
   21.5499992         5.89050576E-02
   21.6000004         7.16892257E-02
   21.6499996         8.28070864E-02
   21.7000008         9.25111771E-02
   21.7500000        0.103524528    
   21.7999992        0.119165361    
   21.8500004        0.139702320    
   21.8999996        0.160724863    
   21.9500008        0.175907969    
   22.0000000        0.182364985    
   22.0499992        0.183817238    
   22.1000004        0.188237220    
   22.1499996        0.201479748    
   22.2000008        0.222277269    
   22.2500000        0.243109033    
   22.2999992        0.256389946    
   22.3500004        0.260671586    
   22.3999996        0.261472940    
   22.4500008        0.266127467    
   22.5000000        0.277337253    
   22.5499992        0.291171968    
   22.6000004        0.301113755    
   22.6499996        0.304261178    
   22.7000008        0.303978026    
   22.7500000        0.306650758    
   22.7999992        0.315644562    
   22.8500004        0.328036785    
   22.8999996        0.337063968    
   22.9500008        0.338010222    
   23.0000000        0.332263678    
   23.0499992        0.326063871    
   23.1000004        0.325256288    
   23.1499996        0.330718428    
   23.2000008        0.338183612    
   23.2500000        0.342117965    
   23.2999992        0.339960903    
   23.3500004        0.333286464    
   23.3999996        0.325617880    
   23.4500008        0.319500089    
   23.5000000        0.315443903    
   23.5499992        0.312938005    
   23.6000004        0.311622232    
   23.6499996        0.311036617    
   23.7000008        0.309501857    
   23.7500000        0.304125100    
   23.7999992        0.292884707    
   23.8500004        0.277211159    
   23.8999996        0.262222588    
   23.9500008        0.253462642    
   24.0000000        0.252350837    
   24.0499992        0.254339337    
   24.1000004        0.251918048    
   24.1499996        0.240439266    
   24.2000008        0.221965477    
   24.2500000        0.203704432    
   24.2999992        0.192144454    
   24.3500004        0.187799245    
   24.3999996        0.185063988    
   24.4500008        0.177293226    
   24.5000000        0.162655041    
   24.5499992        0.145634875    
   24.6000004        0.132894859    
   24.6499996        0.127171189    
   24.7000008        0.124628909    
   24.7500000        0.118065648    
   24.7999992        0.103236794    
   24.8500004         8.28390941E-02
   24.8999996         6.46696389E-02
   24.9500008         5.54206967E-02
   25.0000000         5.52230738E-02
   25.0499992         5.73798306E-02
   25.1000004         5.34479395E-02
   25.1499996         3.95759046E-02
   25.2000008         1.92114264E-02
   25.2500000         3.48734553E-04
   25.2999992        -1.02993222E-02
   25.3500004        -1.17807509E-02
   25.3999996        -9.03906766E-03
   25.4500008        -9.10258759E-03
   25.5000000        -1.63624547E-02
   25.5499992        -3.01171243E-02
   25.6000004        -4.55843657E-02
   25.6499996        -5.72283529E-02
   25.7000008        -6.20864928E-02
   25.7500000        -6.12034760E-02
   25.7999992        -5.86363822E-02
   25.8500004        -5.88538386E-02
   25.8999996        -6.40963838E-02
   25.9500008        -7.31906220E-02
   26.0000000        -8.24812725E-02
   26.0499992        -8.82996917E-02
   26.1000004        -8.93729925E-02
   26.1499996        -8.75207707E-02
   26.2000008        -8.61161128E-02
   26.2500000        -8.74377340E-02
   26.2999992        -9.09644961E-02
   26.3500004        -9.39974636E-02
   26.3999996        -9.41211730E-02
   26.4500008        -9.14329365E-02
   26.5000000        -8.85730162E-02
   26.5499992        -8.84185955E-02
   26.6000004        -9.13715139E-02
   26.6499996        -9.46474001E-02
   26.7000008        -9.43609625E-02
   26.7500000        -8.87936726E-02
   26.7999992        -8.00986215E-02
   26.8500004        -7.28926808E-02
   26.8999996        -7.07473010E-02
   26.9500008        -7.33723640E-02
   27.0000000        -7.67704695E-02
   27.0499992        -7.62477368E-02
   27.1000004        -6.98937103E-02
   27.1499996        -5.98463267E-02
   27.2000008        -5.05019948E-02
   27.2500000        -4.52237017E-02
   27.2999992        -4.41120602E-02
   27.3500004        -4.43453491E-02
   27.3999996        -4.25088853E-02
   27.4500008        -3.69642712E-02
   27.5000000        -2.85946708E-02
   27.5499992        -1.97381973E-02
   27.6000004        -1.24510564E-02
   27.6499996        -7.42751872E-03
   27.7000008        -4.06325376E-03
   27.7500000        -1.19443610E-03
   27.7999992         2.24123150E-03
   27.8500004         6.95592212E-03
   27.8999996         1.32755404E-02
   27.9500008         2.10207161E-02
   28.0000000         2.93464530E-02
   28.0499992         3.68865095E-02
   28.1000004         4.24090251E-02
   28.1499996         4.56869192E-02
   28.2000008         4.79090773E-02
   28.2500000         5.11325635E-02
   28.2999992         5.69630750E-02
   28.3500004         6.53263107E-02
   28.3999996         7.42853656E-02
   28.4500008         8.12053978E-02
   28.5000000         8.45816284E-02
   28.5499992         8.52504224E-02
   28.6000004         8.59999731E-02
   28.6499996         8.96819830E-02
   28.7000008         9.70843360E-02
   28.7500000        0.106167667    
   28.7999992        0.113411456    
   28.8500004        0.116447173    
   28.8999996        0.116018169    
   28.9500008        0.115604572    
   29.0000000        0.118754633    
   29.0499992        0.126077160    
   29.1000004        0.134395823    
   29.1499996        0.139058605    
   29.2000008        0.137824446    
   29.2500000        0.133176491    
   29.2999992        0.130840674    
   29.3500004        0.135272905    
   29.3999996        0.145605743    
   29.4500008        0.155611843    
   29.5000000        0.158248156    
   29.5499992        0.151497871    
   29.6000004        0.140731737    
   29.6499996        0.135204747    
   29.7000008        0.140952125    
   29.7500000        0.155551389    
   29.7999992        0.169175923    
   29.8500004        0.171615139    
   29.8999996        0.160122037    
   29.9500008        0.141992927    
   30.0000000        0.129630029    
   30.0499992        0.131591901    
   30.1000004        0.146296456    
   30.1499996        0.163101509    
   30.2000008        0.169943139    
   30.2500000        0.161849335    
   30.2999992        0.144150272    
   30.3500004        0.128299072    
   30.3999996        0.123646751    
   30.4500008        0.131208673    