  -10.0000000         4.06256396E-31
  -9.94999981         1.21876919E-30
  -9.89999962         1.27170386E-30
  -9.85000038         1.89993753E-31
  -9.80000019        -8.85538639E-31
  -9.75000000        -1.30523244E-30
  -9.69999981        -1.06791508E-30
  -9.64999962         1.69633815E-31
  -9.60000038         2.61077638E-24
  -9.55000019         7.20876478E-24
  -9.50000000        -5.58353098E-23
  -9.44999981        -3.79374190E-22
  -9.39999962        -9.86176702E-22
  -9.35000038        -1.75277148E-21
  -9.30000019        -5.64853812E-21
  -9.25000000        -2.19437623E-20
  -9.19999981        -4.34876507E-20
  -9.14999962         2.11003612E-20
  -9.10000038         3.42801896E-19
  -9.05000019         7.93519376E-19
  -9.00000000         2.27903432E-19
  -8.94999981        -3.17667982E-18
  -8.89999962        -8.18356994E-18
  -8.85000038        -4.65407547E-18
  -8.80000019         2.34571944E-17
  -8.75000000         7.12939492E-17
  -8.69999981         7.25451625E-17
  -8.64999962        -8.88174727E-17
  -8.60000038        -4.28626173E-16
  -8.55000019        -6.19236247E-16
  -8.50000000         2.17022596E-17
  -8.44999981         1.86503907E-15
  -8.39999962         3.72684756E-15
  -8.35000038         2.38936221E-15
  -8.30000019        -5.04702718E-15
  -8.25000000        -1.57479620E-14
  -8.19999981        -1.72838750E-14
  -8.14999962         6.19700273E-15
  -8.10000038         5.39606811E-14
  -8.05000019         8.76290211E-14
  -8.00000000         3.93161320E-14
  -7.94999981        -1.27558784E-13
  -7.90000010        -3.29801372E-13
  -7.84999990        -3.40073781E-13
  -7.80000019         7.03019525E-14
  -7.75000000         8.34623332E-13
  -7.69999981         1.36902544E-12
  -7.65000010         7.83386756E-13
  -7.59999990        -1.32153782E-12
  -7.55000019        -3.90105049E-12
  -7.50000000        -4.36720582E-12
  -7.44999981        -2.21523104E-13
  -7.40000010         7.98561564E-12
  -7.34999990         1.46500659E-11
  -7.30000019         1.11224693E-11
  -7.25000000        -7.27675645E-12
  -7.19999981        -3.30132761E-11
  -7.15000010        -4.48703019E-11
  -7.09999990        -1.99264511E-11
  -7.05000019         4.38082834E-11
  -7.00000000         1.10116458E-10
  -6.94999981         1.14331239E-10
  -6.90000010         8.81348466E-12
  -6.84999990        -1.77814624E-10
  -6.80000019        -3.18102406E-10
  -6.75000000        -2.46201309E-10
  -6.69999981         1.05504099E-10
  -6.65000010         5.79825410E-10
  -6.59999990         8.07389045E-10
  -6.55000019         4.29559915E-10
  -6.50000000        -5.58492363E-10
  -6.44999981        -1.60162117E-09
  -6.40000010        -1.78648463E-09
  -6.34999990        -4.85427532E-10
  -6.30000019         1.92031258E-09
  -6.25000000         3.86495635E-09
  -6.19999981         3.40978867E-09
  -6.15000010        -2.08685680E-10
  -6.09999990        -5.34122391E-09
  -6.05000019        -8.25963031E-09
  -6.00000000        -5.48241630E-09
  -5.94999981         3.08942383E-09
  -5.90000010         1.26481492E-08
  -5.84999990         1.55829429E-08
  -5.80000019         6.85313584E-09
  -5.75000000        -1.07418430E-08
  -5.69999981        -2.59845425E-08
  -5.65000010        -2.55903370E-08
  -5.59999990        -4.55389415E-09
  -5.55000019         2.69035052E-08
  -5.50000000         4.67908130E-08
  -5.44999981         3.56760701E-08
  -5.40000010        -6.68257405E-09
  -5.34999990        -5.55301298E-08
  -5.30000019        -7.40804396E-08
  -5.25000000        -3.98441813E-08
  -5.19999981         3.36339738E-08
  -5.15000010         9.85295259E-08
  -5.09999990         1.02424011E-07
  -5.05000019         2.86707333E-08
  -5.00000000        -8.25094730E-08
  -4.94999981        -1.53321324E-07
  -4.90000010        -1.21325129E-07
  -4.84999990         8.98803343E-09
  -4.80000019         1.56793973E-07
  -4.75000000         2.12958312E-07
  -4.69999981         1.18487335E-07
  -4.65000010        -8.19024351E-08
  -4.59999990        -2.56223956E-07
  -4.55000019        -2.70154800E-07
  -4.50000000        -8.67044392E-08
  -4.44999981         1.91719579E-07
  -4.40000010         3.77776956E-07
  -4.34999990         3.22810621E-07
  -4.30000019         2.87002297E-08
  -4.25000000        -3.33339898E-07
  -4.19999981        -5.20648882E-07
  -4.15000010        -3.78015130E-07
  -4.09999990         4.52185773E-08
  -4.05000019         5.03289982E-07
  -4.00000000         6.94288303E-07
  -3.95000005         4.53117167E-07
  -3.90000010        -1.23240682E-07
  -3.84999990        -7.05881405E-07
  -3.79999995        -9.17048965E-07
  -3.75000000        -5.67109680E-07
  -3.70000005         1.98404862E-07
  -3.65000010         9.46539046E-07
  -3.59999990         1.19529602E-06
  -3.54999995         7.16875491E-07
  -3.50000000        -2.80150658E-07
  -3.45000005        -1.22554923E-06
  -3.40000010        -1.50780193E-06
  -3.34999990        -8.65242157E-07
  -3.29999995         3.99862074E-07
  -3.25000000         1.54909196E-06
  -3.20000005         1.83576822E-06
  -3.15000010         9.85666361E-07
  -3.09999990        -5.79065954E-07
  -3.04999995        -1.94254130E-06
  -3.00000000        -2.22882545E-06
  -2.95000005        -1.15097600E-06
  -2.90000010         7.66405549E-07
  -2.84999990         2.44276202E-06
  -2.79999995         2.84147086E-06
  -2.75000000         1.57767624E-06
  -2.70000005        -8.07018580E-07
  -2.65000010        -3.06432435E-06
  -2.59999990        -3.86190595E-06
  -2.54999995        -2.51616848E-06
  -2.50000000         5.30591137E-07
  -2.45000005         3.77621154E-06
  -2.40000010         5.33508546E-06
  -2.34999990         3.97926306E-06
  -2.29999995         1.66648437E-08
  -2.25000000        -4.58145360E-06
  -2.20000005        -7.08344987E-06
  -2.15000010        -5.59694672E-06
  -2.09999990        -4.54377499E-07
  -2.04999995         5.61230036E-06
  -2.00000000         8.87908755E-06
  -1.95000005         6.93930315E-06
  -1.89999998         4.62006255E-07
  -1.85000002        -6.89647277E-06
  -1.79999995        -1.05903482E-05
  -1.75000000        -8.05394393E-06
  -1.70000005        -4.57831163E-07
  -1.64999998         7.87619683E-06
  -1.60000002         1.20683808E-05
  -1.54999995         9.59899626E-06
  -1.50000000         1.70900000E-06
  -1.45000005        -7.45201714E-06
  -1.39999998        -1.31783490E-05
  -1.35000002        -1.25442994E-05
  -1.29999995        -5.58032025E-06
  -1.25000000         4.89197146E-06
  -1.20000005         1.43091074E-05
  -1.14999998         1.79103699E-05
  -1.10000002         1.26806754E-05
  -1.04999995        -6.27660427E-07
  -1.00000000        -1.64930661E-05
 -0.949999988        -2.61392761E-05
 -0.899999976        -2.20158672E-05
 -0.850000024        -3.32644277E-06
 -0.800000012         2.12588693E-05
 -0.750000000         3.69287336E-05
 -0.699999988         3.15660618E-05
 -0.649999976         4.93333982E-06
 -0.600000024        -2.87021230E-05
 -0.550000012        -4.79828013E-05
 -0.500000000        -3.83571496E-05
 -0.449999988        -3.23226141E-06
 -0.400000006         3.62942810E-05
 -0.349999994         5.44211834E-05
 -0.300000012         3.82452818E-05
 -0.250000000        -2.45071305E-06
 -0.200000003        -4.09591776E-05
 -0.150000006        -5.17251865E-05
 -0.100000001        -2.81859830E-05
  -5.00000007E-02     1.25983479E-05
   0.00000000         4.21696204E-05
   5.00000007E-02     4.09956083E-05
  0.100000001         1.20123068E-05
  0.150000006        -2.24881478E-05
  0.200000003        -3.79806406E-05
  0.250000000        -2.56818312E-05
  0.300000012         2.18455216E-06
  0.349999994         2.33320770E-05
  0.400000006         2.33955288E-05
  0.449999988         6.49455478E-06
  0.500000000        -9.81750873E-06
  0.550000012        -1.05767958E-05
  0.600000024         3.31333672E-06
  0.649999976         1.60419677E-05
  0.699999988         1.15971661E-05
  0.750000000        -1.03023594E-05
  0.800000012        -3.15097241E-05
  0.850000024        -2.99121930E-05
  0.899999976        -3.76775446E-08
  0.949999988         3.81017562E-05
   1.00000000         5.18747765E-05
   1.04999995         2.28003555E-05
   1.10000002        -3.40142069E-05
   1.14999998        -7.60478069E-05
   1.20000005        -6.43041349E-05
   1.25000000         3.18293087E-06
   1.29999995         8.31490834E-05
   1.35000002         1.15026647E-04
   1.39999998         6.72451424E-05
   1.45000005        -3.36273770E-05
   1.50000000        -1.17075753E-04
   1.54999995        -1.19851880E-04
   1.60000002        -3.66287859E-05
   1.64999998         7.12737383E-05
   1.70000005         1.20388329E-04
   1.75000000         7.11540997E-05
   1.79999995        -3.71349051E-05
   1.85000002        -1.14180933E-04
   1.89999998        -9.13492986E-05
   1.95000005         1.83194206E-05
   2.00000000         1.24843951E-04
   2.04999995         1.32600748E-04
   2.09999990         2.31921258E-05
   2.15000010        -1.20404555E-04
   2.20000005        -1.75086941E-04
   2.25000000        -8.02328723E-05
   2.29999995         1.02371014E-04
   2.34999990         2.27197495E-04
   2.40000010         1.79301031E-04
   2.45000005        -2.51990914E-05
   2.50000000        -2.38592271E-04
   2.54999995        -2.90619850E-04
   2.59999990        -1.25484206E-04
   2.65000010         1.44263438E-04
   2.70000005         3.16800841E-04
   2.75000000         2.56471802E-04
   2.79999995         3.28086844E-06
   2.84999990        -2.53586913E-04
   2.90000010        -3.20412597E-04
   2.95000005        -1.48124906E-04
   3.00000000         1.32689733E-04
   3.04999995         3.17694357E-04
   3.09999990         2.87542149E-04
   3.15000010         9.06149726E-05
   3.20000005        -1.12707115E-04
   3.25000000        -1.89911880E-04
   3.29999995        -1.37883864E-04
   3.34999990        -6.21067738E-05
   3.40000010        -6.04926208E-05
   3.45000005        -1.23498219E-04
   3.50000000        -1.44985956E-04
   3.54999995        -3.47965324E-05
   3.59999990         1.73846784E-04
   3.65000010         3.30867188E-04
   3.70000005         2.96380371E-04
   3.75000000         7.88212637E-05
   3.79999995        -1.47873288E-04
   3.84999990        -1.81763593E-04
   3.90000010         2.10937633E-05
   3.95000005         2.78052670E-04
   4.00000000         3.09398310E-04
   4.05000019        -2.10242615E-05
   4.09999990        -5.50183409E-04
   4.15000010        -8.93552147E-04
   4.19999981        -7.23457953E-04
   4.25000000        -4.36671835E-05
   4.30000019         7.63367279E-04
   4.34999990         1.17785775E-03
   4.40000010         9.11194657E-04
   4.44999981         1.28890868E-04
   4.50000000        -6.48197718E-04
   4.55000019        -9.04853106E-04
   4.59999990        -4.97915898E-04
   4.65000010         2.41369780E-04
   4.69999981         7.47571292E-04
   4.75000000         6.31718314E-04
   4.80000019        -3.62135506E-05
   4.84999990        -7.76958186E-04
   4.90000010        -1.04706793E-03
   4.94999981        -6.30866445E-04
   5.00000000         2.04561409E-04
   5.05000019         9.01515887E-04
   5.09999990         1.00977696E-03
   5.15000010         5.02195675E-04
   5.19999981        -2.19152251E-04
   5.25000000        -6.27219211E-04
   5.30000019        -4.60440293E-04
   5.34999990         8.87266724E-05
   5.40000010         5.30337333E-04
   5.44999981         4.63566830E-04
   5.50000000        -9.97361349E-05
   5.55000019        -7.25408318E-04
   5.59999990        -8.83604051E-04
   5.65000010        -3.72890237E-04
   5.69999981         4.88741556E-04
   5.75000000         1.07044890E-03
   5.80000019         9.01394931E-04
   5.84999990         5.36440166E-05
   5.90000010        -8.73242039E-04
   5.94999981        -1.17849966E-03
   6.00000000        -5.95493242E-04
   6.05000019         4.76891873E-04
   6.09999990         1.24533148E-03
   6.15000010         1.11167214E-03
   6.19999981         1.40528384E-04
   6.25000000        -9.63480852E-04
   6.30000019        -1.36975362E-03
   6.34999990        -7.47754879E-04
   6.40000010         4.69373015E-04
   6.44999981         1.39130268E-03
   6.50000000         1.32672174E-03
   6.55000019         2.96768732E-04
   6.59999990        -9.80501180E-04
   6.65000010        -1.61494501E-03
   6.69999981        -1.18237373E-03
   6.75000000        -8.47805768E-06
   6.80000019         1.09294197E-03
   6.84999990         1.40952936E-03
   6.90000010         8.07446777E-04
   6.94999981        -2.28875433E-04
   7.00000000        -9.82706086E-04
   7.05000019        -1.00349402E-03
   7.09999990        -3.65793298E-04
   7.15000010         4.48428618E-04
   7.19999981         9.11348907E-04
   7.25000000         7.82477029E-04
   7.30000019         2.07405479E-04
   7.34999990        -4.30708373E-04
   7.40000010        -7.66585348E-04
   7.44999981        -6.53983327E-04
   7.50000000        -2.17774301E-04
   7.55000019         2.43966439E-04
   7.59999990         4.38675721E-04
   7.65000010         2.56013183E-04
   7.69999981        -1.49749030E-04
   7.75000000        -4.37173439E-04
   7.80000019        -3.01425229E-04
   7.84999990         2.72856327E-04
   7.90000010         9.19022539E-04
   7.94999981         1.08159787E-03
   8.00000000         4.22556710E-04
   8.05000019        -8.31077865E-04
   8.10000038        -1.90443255E-03
   8.14999962        -1.93906762E-03
   8.19999981        -6.36253506E-04
   8.25000000         1.38633838E-03
   8.30000019         2.86244415E-03
   8.35000038         2.68466515E-03
   8.39999962         7.27239414E-04
   8.44999981        -1.92856789E-03
   8.50000000        -3.60759348E-03
   8.55000019        -3.14354640E-03
   8.60000038        -7.20630167E-04
   8.64999962         2.16924795E-03
   8.69999981         3.67831974E-03
   8.75000000         2.84253573E-03
   8.80000019         2.48723518E-04
   8.85000038        -2.35549361E-03
   8.89999962        -3.25532141E-03
   8.94999981        -1.93858310E-03
   9.00000000         5.77821862E-04
   9.05000019         2.49335123E-03
   9.10000038         2.50827498E-03
   9.14999962         7.27441628E-04
   9.19999981        -1.45937712E-03
   9.25000000        -2.42409622E-03
   9.30000019        -1.50273531E-03
   9.35000038         5.29549259E-04
   9.39999962         2.06017937E-03
   9.44999981         1.87021645E-03
   9.50000000         7.53165659E-05
   9.55000019        -1.93771010E-03
   9.60000038        -2.54857680E-03
   9.64999962        -1.15006394E-03
   9.69999981         1.33610738E-03
   9.75000000         3.08794808E-03
   9.80000019         2.71741627E-03
   9.85000038         3.30026523E-04
   9.89999962        -2.48591742E-03
   9.94999981        -3.75801115E-03
   10.0000000        -2.53316085E-03
   10.0500002         4.27674880E-04
   10.1000004         3.16254911E-03
   10.1499996         3.85741633E-03
   10.1999998         2.07295059E-03
   10.2500000        -9.95218637E-04
   10.3000002        -3.36123607E-03
   10.3500004        -3.57286283E-03
   10.3999996        -1.60683179E-03
   10.4499998         1.21483335E-03
   10.5000000         3.14528472E-03
   10.5500002         3.10787791E-03
   10.6000004         1.27482007E-03
   10.6499996        -1.15389342E-03
   10.6999998        -2.73942715E-03
   10.7500000        -2.64094165E-03
   10.8000002        -1.03596225E-03
   10.8500004         1.05408498E-03
   10.8999996         2.38752970E-03
   10.9499998         2.21960316E-03
   11.0000000         7.26611295E-04
   11.0500002        -1.10533647E-03
   11.1000004        -2.08886480E-03
   11.1499996        -1.60008401E-03
   11.1999998        -1.17983045E-05
   11.2500000         1.53319701E-03
   11.3000002         1.91145041E-03
   11.3500004         8.44685768E-04
   11.3999996        -8.58167419E-04
   11.4499998        -1.87881431E-03
   11.5000000        -1.39776187E-03
   11.5500002         2.37209329E-04
   11.6000004         1.74017320E-03
   11.6499996         1.88458653E-03
   11.6999998         5.00814756E-04
   11.7500000        -1.34315761E-03
   11.8000002        -2.16270238E-03
   11.8500004        -1.24715653E-03
   11.8999996         7.40723975E-04
   11.9499998         2.26238207E-03
   12.0000000         2.11426197E-03
   12.0500002         3.79261823E-04
   12.1000004        -1.64179364E-03
   12.1499996        -2.44977651E-03
   12.1999998        -1.48773077E-03
   12.2500000         4.93344734E-04
   12.3000002         2.07553734E-03
   12.3500004         2.24684365E-03
   12.3999996         1.04896491E-03
   12.4499998        -6.21070620E-04
   12.5000000        -1.75993948E-03
   12.5500002        -1.89149810E-03
   12.6000004        -1.15999929E-03
   12.6499996        -6.14180590E-06
   12.6999998         1.14269345E-03
   12.7500000         1.91785349E-03
   12.8000002         1.94531842E-03
   12.8500004         9.78722004E-04
   12.8999996        -7.50453910E-04
   12.9499998        -2.35122140E-03
   13.0000000        -2.66872020E-03
   13.0500002        -1.16512470E-03
   13.1000004         1.40405679E-03
   13.1499996         3.25721316E-03
   13.1999998         2.83682998E-03
   13.2500000         1.58198774E-04
   13.3000002        -2.92453635E-03
   13.3500004        -3.97334201E-03
   13.3999996        -1.90737343E-03
   13.4499998         1.93136907E-03
   13.5000000         4.60507767E-03
   13.5500002         3.82204284E-03
   13.6000004        -1.31270135E-04
   13.6499996        -4.39439761E-03
   13.6999998        -5.62519487E-03
   13.7500000        -2.62581487E-03
   13.8000002         2.58109951E-03
   13.8500004         6.16407348E-03
   13.8999996         5.36659267E-03
   13.9499998         6.47416746E-04
   14.0000000        -4.60118800E-03
   14.0500002        -6.56893011E-03
   14.1000004        -3.86250042E-03
   14.1499996         1.48675591E-03
   14.1999998         5.57128852E-03
   14.2500000         5.50143048E-03
   14.3000002         1.46921247E-03
   14.3500004        -3.49749764E-03
   14.3999996        -5.81432786E-03
   14.4499998        -3.91825289E-03
   14.5000000         7.07779254E-04
   14.5500002         4.70366469E-03
   14.6000004         5.25792176E-03
   14.6499996         2.04361160E-03
   14.6999998        -2.63615325E-03
   14.7500000        -5.50362561E-03
   14.8000002        -4.56907926E-03
   14.8500004        -4.65290097E-04
   14.8999996         4.00706427E-03
   14.9499998         5.78586850E-03
   15.0000000         3.62428091E-03
   15.0500002        -1.04896410E-03
   15.1000004        -5.07569592E-03
   15.1499996        -5.71084302E-03
   15.1999998        -2.52085691E-03
   15.2500000         2.28531659E-03
   15.3000002         5.37193334E-03
   15.3500004         4.61829780E-03
   15.3999996         6.30542578E-04
   15.4499998        -3.69130843E-03
   15.5000000        -5.25314081E-03
   15.5500002        -3.01124295E-03
   15.6000004         1.29987649E-03
   15.6499996         4.49837837E-03
   15.6999998         4.33244370E-03
   15.7500000         1.10069173E-03
   15.8000002        -2.68664164E-03
   15.8500004        -4.28221142E-03
   15.8999996        -2.74344860E-03
   15.9499998         5.12500992E-04
   16.0000000         2.96789152E-03
   16.0499992         2.98105902E-03
   16.1000004         9.05372435E-04
   16.1499996        -1.42823288E-03
   16.2000008        -2.29299208E-03
   16.2500000        -1.35927589E-03
   16.2999992         2.80455977E-04
   16.3500004         1.21009350E-03
   16.3999996         8.79582425E-04
   16.4500008        -9.39727033E-05
   16.5000000        -6.43122592E-04
   16.5499992        -2.54650891E-04
   16.6000004         6.22744206E-04
   16.6499996         1.05318497E-03
   16.7000008         4.86815814E-04
   16.7500000        -7.37040595E-04
   16.7999992        -1.65080198E-03
   16.8500004        -1.43123674E-03
   16.8999996        -5.78938780E-05
   16.9500008         1.62663194E-03
   17.0000000         2.47121812E-03
   17.0499992         1.79170188E-03
   17.1000004        -1.33264984E-04
   17.1499996        -2.15717847E-03
   17.2000008        -2.92862253E-03
   17.2500000        -1.77486264E-03
   17.2999992         7.28464627E-04
   17.3500004         2.95616267E-03
   17.3999996         3.23967217E-03
   17.4500008         1.12176163E-03
   17.5000000        -2.06316100E-03
   17.5499992        -3.91866872E-03
   17.6000004        -2.73425924E-03
   17.6499996         9.83581296E-04
   17.7000008         4.54064552E-03
   17.7500000         4.93486878E-03
   17.7999992         1.32905669E-03
   17.8500004        -3.89902061E-03
   17.8999996        -6.66876277E-03
   17.9500008        -4.37716022E-03
   18.0000000         1.72758498E-03
   18.0499992         7.11134542E-03
   18.1000004         7.34522007E-03
   18.1499996         1.77731598E-03
   18.2000008        -5.57970861E-03
   18.2500000        -8.95347167E-03
   18.2999992        -5.40225208E-03
   18.3500004         2.60501355E-03
   18.3999996         8.89407191E-03
   18.4500008         8.41284450E-03
   18.5000000         1.35529367E-03
   18.5499992        -6.83457544E-03
   18.6000004        -9.71725024E-03
   18.6499996        -5.00305556E-03
   18.7000008         3.58477794E-03
   18.7500000         9.27338097E-03
   18.7999992         7.64500257E-03
   18.8500004         1.11852445E-04
   18.8999996        -7.30994949E-03
   18.9500008        -8.85593798E-03
   19.0000000        -3.52708274E-03
   19.0499992         4.31519467E-03
   19.1000004         8.58085882E-03
   19.1499996         6.24105381E-03
   19.2000008        -5.43544767E-04
   19.2500000        -6.43704925E-03
   19.2999992        -7.21130334E-03
   19.3500004        -2.80792895E-03
   19.3999996         3.04298988E-03
   19.4500008         5.99167403E-03
   19.5000000         4.31556720E-03
   19.5499992        -1.81854048E-04
   19.6000004        -3.94984521E-03
   19.6499996        -4.44587087E-03
   19.7000008        -1.74143282E-03
   19.7500000         1.93252868E-03
   19.7999992         3.99018172E-03
   19.8500004         3.19107086E-03
   19.8999996         2.13866617E-04
   19.9500008        -2.96886265E-03
   20.0000000        -4.32585925E-03
   20.0499992        -2.91781453E-03
   20.1000004         5.34978404E-04
   20.1499996         3.94577160E-03
   20.2000008         5.00881905E-03
   20.2500000         2.71673151E-03
   20.2999992        -1.70065870E-03
   20.3500004        -5.29149920E-03
   20.3999996        -5.33518381E-03
   20.4500008        -1.48996746E-03
   20.5000000         3.60551546E-03
   20.5499992         6.07587490E-03
   20.6000004         3.81792500E-03
   20.6499996        -1.59482309E-03
   20.7000008        -5.88102825E-03
   20.7500000        -5.40401088E-03
   20.7999992        -2.88468291E-04
   20.8500004         5.39798196E-03
   20.8999996         6.81371009E-03
   20.9500008         2.41304538E-03
   21.0000000        -4.50679101E-03
   21.0499992        -8.27736501E-03
   21.1000004        -5.49255125E-03
   21.1499996         2.00552470E-03
   21.2000008         8.38974211E-03
   21.2500000         8.47681053E-03
   21.2999992         1.97899970E-03
   21.3500004        -6.14761934E-03
   21.3999996        -9.61099658E-03
   21.4500008        -5.78741450E-03
   21.5000000         2.23922892E-03
   21.5499992         8.21156707E-03
   21.6000004         7.68243521E-03
   21.6499996         1.40288158E-03
   21.7000008        -5.51085360E-03
   21.7500000        -7.77155301E-03
   21.7999992        -3.99676617E-03
   21.8500004         2.50849873E-03
   21.8999996         6.62996434E-03
   21.9500008         5.46753965E-03
   22.0000000         3.24125169E-04
   22.0499992        -4.65539377E-03
   22.1000004        -5.82501944E-03
   22.1499996        -2.65260250E-03
   22.2000008         2.21899664E-03
   22.2500000         5.18471189E-03
   22.2999992         4.29547997E-03
   22.3500004         4.19281976E-04
   22.3999996        -3.61994933E-03
   22.4500008        -5.07305330E-03
   22.5000000        -3.03179701E-03
   22.5499992         1.09925773E-03
   22.6000004         4.56554629E-03
   22.6499996         5.01471898E-03
   22.7000008         2.02318397E-03
   22.7500000        -2.51938007E-03
   22.7999992        -5.51575283E-03
   22.8500004        -4.71551623E-03
   22.8999996        -4.24410420E-04
   22.9500008         4.43956675E-03
   23.0000000         6.25857571E-03
   23.0499992         3.41801369E-03
   23.1000004        -2.22899322E-03
   23.1499996        -6.48329407E-03
   23.2000008        -5.91881759E-03
   23.2500000        -6.75866497E-04
   23.2999992         5.39243221E-03
   23.3500004         7.56807020E-03
   23.3999996         3.99500830E-03
   23.4500008        -2.71602557E-03
   23.5000000        -7.42679276E-03
   23.5499992        -6.50549633E-03
   23.6000004        -7.18723342E-04
   23.6499996         5.39102545E-03
   23.7000008         7.14929448E-03
   23.7500000         3.43720615E-03
   23.7999992        -2.56468588E-03
   23.8500004        -6.09350670E-03
   23.8999996        -4.64839814E-03
   23.9500008         1.99270318E-04
   24.0000000         4.36801650E-03
   24.0499992         4.70266538E-03
   24.1000004         1.36387371E-03
   24.1499996        -2.65623303E-03
   24.2000008        -4.20644227E-03
   24.2500000        -2.43958062E-03
   24.2999992         8.76343634E-04
   24.3500004         3.12994211E-03
   24.3999996         2.96707777E-03
   24.4500008         9.96743562E-04
   24.5000000        -1.14709453E-03
   24.5499992        -2.22676294E-03
   24.6000004        -2.03360501E-03
   24.6499996        -1.00753480E-03
   24.7000008         3.81774153E-04
   24.7500000         1.74868957E-03
   24.7999992         2.51261028E-03
   24.8500004         1.94105413E-03
   24.8999996        -1.60352647E-04
   24.9500008        -2.75090965E-03
   25.0000000        -3.86755588E-03
   25.0499992        -2.13215686E-03
   25.1000004         1.71244610E-03
   25.1499996         4.84680105E-03
   25.2000008         4.42867912E-03
   25.2500000         1.65176432E-04
   25.2999992        -4.92716022E-03
   25.3500004        -6.62660459E-03
   25.3999996        -3.02591245E-03
   25.4500008         3.50251095E-03
   25.5000000         7.84530398E-03
   25.5499992         6.22732332E-03
   25.6000004        -4.79169103E-04
   25.6499996        -7.13889021E-03
   25.7000008        -8.36477429E-03
   25.7500000        -2.96249567E-03
   25.7999992         4.92067030E-03
   25.8500004         9.02972929E-03
   25.8999996         6.04755664E-03
   25.9500008        -1.68918632E-03
   26.0000000        -8.05710070E-03
   26.0499992        -8.07044469E-03
   26.1000004        -1.83572900E-03
   26.1499996         5.64006809E-03
   26.2000008         8.52828845E-03
   26.2500000         4.76447586E-03
   26.2999992        -2.50688684E-03
   26.3500004        -7.60563044E-03
   26.3999996        -6.78811083E-03
   26.4500008        -9.55034804E-04
   26.5000000         5.33250626E-03
   26.5499992         7.47660175E-03
   26.6000004         4.17559966E-03
   26.6499996        -1.92614738E-03
   26.7000008        -6.43047411E-03
   26.7500000        -6.34703925E-03
   26.7999992        -1.96119421E-03
   26.8500004         3.63696832E-03
   26.8999996         6.74282620E-03
   26.9500008         5.39146503E-03
   27.0000000         4.90497274E-04
   27.0499992        -4.79487842E-03
   27.1000004        -6.98688347E-03
   27.1499996        -4.49181208E-03
   27.2000008         1.22575287E-03
   27.2500000         6.35123113E-03
   27.2999992         7.13896472E-03
   27.3500004         2.63663311E-03
   27.3999996        -4.24847705E-03
   27.4500008        -8.46539345E-03
   27.5000000        -6.46452187E-03
   27.5499992         8.19470442E-04
   27.6000004         8.16668477E-03
   27.6499996         9.75491572E-03
   27.7000008         3.77609325E-03
   27.7500000        -5.69493975E-03
   27.7999992        -1.14271529E-02
   27.8500004        -8.58463254E-03
   27.8999996         1.19317172E-03
   27.9500008         1.06459251E-02
   28.0000000         1.23456931E-02
   28.0499992         4.60427022E-03
   28.1000004        -6.92885509E-03
   28.1499996        -1.34627866E-02
   28.2000008        -9.89479665E-03
   28.2500000         1.12235476E-03
   28.2999992         1.11717330E-02
   28.3500004         1.26077542E-02
   28.3999996         4.48298315E-03
   28.4500008        -6.80181198E-03
   28.5000000        -1.25733204E-02
   28.5499992        -8.61239992E-03
   28.6000004         1.74385798E-03
   28.6499996         1.04151042E-02
   28.7000008         1.09146349E-02
   28.7500000         3.19574354E-03
   28.7999992        -6.61494583E-03
   28.8500004        -1.11193294E-02
   28.8999996        -7.22240936E-03
   28.9500008         1.82408933E-03
   29.0000000         9.17706918E-03
   29.0499992         9.58991889E-03
   29.1000004         3.08836065E-03
   29.1499996        -5.37814014E-03
   29.2000008        -9.73429438E-03
   29.2500000        -7.09456718E-03
   29.2999992         4.16130555E-04
   29.3500004         7.38256797E-03
   29.3999996         8.95476900E-03
   29.4500008         4.14603064E-03
   29.5000000        -3.57814506E-03
   29.5499992        -8.72366503E-03
   29.6000004        -7.56306341E-03
   29.6499996        -7.78959482E-04
   29.7000008         6.86709955E-03
   29.7500000         9.75682400E-03
   29.7999992         5.45135979E-03
   29.8500004        -3.29221436E-03
   29.8999996        -1.01800868E-02
   29.9500008        -9.83492192E-03
   30.0000000        -1.95707800E-03
   30.0499992         8.01668037E-03
   30.1000004         1.26138460E-02
   30.1499996         7.92797934E-03
   30.2000008        -3.08332872E-03
   30.2500000        -1.23940641E-02
   30.2999992        -1.27990777E-02
   30.3500004        -3.55761987E-03
   30.3999996         8.67982674E-03
   30.4500008         1.46812573E-02