  -10.0000000       0.00000000    
  -9.94999981       0.00000000    
  -9.89999962       0.00000000    
  -9.85000038       0.00000000    
  -9.80000019       0.00000000    
  -9.75000000       0.00000000    
  -9.69999981       0.00000000    
  -9.64999962       0.00000000    
  -9.60000038      -1.06918492E-18
  -9.55000019      -4.61031927E-18
  -9.50000000       1.66769538E-17
  -9.44999981       1.77395884E-16
  -9.39999962       5.00300857E-16
  -9.35000038      -1.37320270E-17
  -9.30000019      -4.24563999E-15
  -9.25000000      -1.31538525E-14
  -9.19999981      -1.26229127E-14
  -9.14999962       3.67302488E-14
  -9.10000038       1.63301867E-13
  -9.05000019       2.67123400E-13
  -9.00000000       1.41805835E-14
  -8.94999981      -9.66173322E-13
  -8.89999962      -2.34075888E-12
  -8.85000038      -2.23752072E-12
  -8.80000019       2.17821377E-12
  -8.75000000       1.12617962E-11
  -8.69999981       1.79955339E-11
  -8.64999962       7.81875866E-12
  -8.60000038      -2.95823123E-11
  -8.55000019      -7.87161447E-11
  -8.50000000      -8.71941824E-11
  -8.44999981       5.83865421E-12
  -8.39999962       1.97031669E-10
  -8.35000038       3.54750701E-10
  -8.30000019       2.58714550E-10
  -8.25000000      -2.08889572E-10
  -8.19999981      -8.28883295E-10
  -8.14999962      -1.02648323E-09
  -8.10000038      -2.70115125E-10
  -8.05000019       1.27428645E-09
  -8.00000000       2.43830178E-09
  -7.94999981       1.71878378E-09
  -7.90000010      -1.20203680E-09
  -7.84999990      -4.32942526E-09
  -7.80000019      -4.24383684E-09
  -7.75000000       7.26483318E-10
  -7.69999981       7.36850581E-09
  -7.65000010       8.30192537E-09
  -7.59999990      -1.75004644E-09
  -7.55000019      -1.79708461E-08
  -7.50000000      -2.41248532E-08
  -7.44999981      -3.88963395E-09
  -7.40000010       3.99763600E-08
  -7.34999990       7.53947731E-08
  -7.30000019       5.67016123E-08
  -7.25000000      -3.49423388E-08
  -7.19999981      -1.55025489E-07
  -7.15000010      -2.03334793E-07
  -7.09999990      -9.19124474E-08
  -7.05000019       1.63327442E-07
  -7.00000000       4.05194299E-07
  -6.94999981       4.13092806E-07
  -6.90000010       7.39736734E-08
  -6.84999990      -4.72081638E-07
  -6.80000019      -8.52728533E-07
  -6.75000000      -6.93013533E-07
  -6.69999981       7.40430437E-08
  -6.65000010       1.05368281E-06
  -6.59999990       1.56470162E-06
  -6.55000019       1.08690722E-06
  -6.50000000      -3.09741381E-07
  -6.44999981      -1.88659101E-06
  -6.40000010      -2.62405320E-06
  -6.34999990      -1.85857391E-06
  -6.30000019       2.43436062E-07
  -6.25000000       2.68793951E-06
  -6.19999981       4.13221505E-06
  -6.15000010       3.56250484E-06
  -6.09999990       8.38997323E-07
  -6.05000019      -3.08910239E-06
  -6.00000000      -6.36853383E-06
  -5.94999981      -6.87880947E-06
  -5.90000010      -3.31874821E-06
  -5.84999990       3.57200292E-06
  -5.80000019       1.04677101E-05
  -5.75000000       1.25511042E-05
  -5.69999981       6.43514204E-06
  -5.65000010      -6.50024640E-06
  -5.59999990      -1.90406627E-05
  -5.55000019      -2.14359916E-05
  -5.50000000      -8.26103587E-06
  -5.44999981       1.55294747E-05
  -5.40000010       3.48643334E-05
  -5.34999990       3.32901654E-05
  -5.30000019       5.77979790E-06
  -5.25000000      -3.37701204E-05
  -5.19999981      -5.82020839E-05
  -5.15000010      -4.50204534E-05
  -5.09999990       4.79272921E-06
  -5.05000019       6.20795181E-05
  -5.00000000       8.59307838E-05
  -4.94999981       5.26151343E-05
  -4.90000010      -2.34146264E-05
  -4.84999990      -9.42767074E-05
  -4.80000019      -1.09527515E-04
  -4.75000000      -5.29516728E-05
  -4.69999981       4.22142330E-05
  -4.65000010       1.13449219E-04
  -4.59999990       1.12217407E-04
  -4.55000019       3.92077745E-05
  -4.50000000      -5.53600075E-05
  -4.44999981      -1.07617736E-04
  -4.40000010      -8.55809485E-05
  -4.34999990      -1.00975303E-05
  -4.30000019       6.37600242E-05
  -4.25000000       8.87207061E-05
  -4.19999981       5.70271513E-05
  -4.15000010      -1.48771130E-06
  -4.09999990      -4.90126040E-05
  -4.05000019      -6.84871775E-05
  -4.00000000      -6.67130662E-05
  -3.95000005      -5.35837971E-05
  -3.90000010      -2.33951432E-05
  -3.84999990       3.76692587E-05
  -3.79999995       1.21838268E-04
  -3.75000000       1.80156989E-04
  -3.70000005       1.44301623E-04
  -3.65000010      -1.43127427E-05
  -3.59999990      -2.33892162E-04
  -3.54999995      -3.73852381E-04
  -3.50000000      -3.00925516E-04
  -3.45000005       1.82690110E-06
  -3.40000010       3.88415065E-04
  -3.34999990       6.18984515E-04
  -3.29999995       5.14942687E-04
  -3.25000000       9.69334505E-05
  -3.20000005      -4.01090685E-04
  -3.15000010      -6.69739791E-04
  -3.09999990      -5.32317092E-04
  -3.04999995      -8.08341283E-05
  -3.00000000       3.64528707E-04
  -2.95000005       4.60486452E-04
  -2.90000010       8.15413077E-05
  -2.84999990      -5.66671661E-04
  -2.79999995      -1.04956492E-03
  -2.75000000      -9.70129739E-04
  -2.70000005      -2.35892425E-04
  -2.65000010       8.49032309E-04
  -2.59999990       1.74058881E-03
  -2.54999995       1.97887560E-03
  -2.50000000       1.48479629E-03
  -2.45000005       6.36176730E-04
  -2.40000010       5.51317862E-05
  -2.34999990       2.18373243E-04
  -2.29999995       1.12782104E-03
  -2.25000000       2.26312899E-03
  -2.20000005       2.87441746E-03
  -2.15000010       2.45362381E-03
  -2.09999990       1.08809897E-03
  -2.04999995      -5.47451782E-04
  -2.00000000      -1.58054847E-03
  -1.95000005      -1.47529331E-03
  -1.89999998      -3.63249797E-04
  -1.85000002       1.05351117E-03
  -1.79999995       1.96549646E-03
  -1.75000000       1.97201967E-03
  -1.70000005       1.30325335E-03
  -1.64999998       6.12352800E-04
  -1.60000002       5.06072480E-04
  -1.54999995       1.15497631E-03
  -1.50000000       2.24176166E-03
  -1.45000005       3.24105914E-03
  -1.39999998       3.78696946E-03
  -1.35000002       3.85482027E-03
  -1.29999995       3.66662955E-03
  -1.25000000       3.45944637E-03
  -1.20000005       3.33884358E-03
  -1.14999998       3.32020014E-03
  -1.10000002       3.46180936E-03
  -1.04999995       3.90522438E-03
  -1.00000000       4.74258047E-03
 -0.949999988       5.82850445E-03
 -0.899999976       6.75265118E-03
 -0.850000024       7.07746996E-03
 -0.800000012       6.70478586E-03
 -0.750000000       6.07446954E-03
 -0.699999988       5.97829279E-03
 -0.649999976       7.05464091E-03
 -0.600000024       9.29914974E-03
 -0.550000012       1.19604487E-02
 -0.500000000       1.39433090E-02
 -0.449999988       1.44859636E-02
 -0.400000006       1.36731621E-02
 -0.349999994       1.24398619E-02
 -0.300000012       1.20452931E-02
 -0.250000000       1.33319683E-02
 -0.200000003       1.62155200E-02
 -0.150000006       1.97114591E-02
 -0.100000001       2.24929657E-02
  -5.00000007E-02   2.36716550E-02
   0.00000000       2.33593099E-02
   5.00000007E-02   2.26688683E-02
  0.100000001       2.31066998E-02
  0.150000006       2.56609861E-02
  0.200000003       3.01162768E-02
  0.250000000       3.50613184E-02
  0.300000012       3.86815816E-02
  0.349999994       3.99191976E-02
  0.400000006       3.92663516E-02
  0.449999988       3.86012085E-02
  0.500000000       4.00634669E-02
  0.550000012       4.46440317E-02
  0.600000024       5.14423028E-02
  0.649999976       5.81636503E-02
  0.699999988       6.25954717E-02
  0.750000000       6.40889183E-02
  0.800000012       6.40203506E-02
  0.850000024       6.48910999E-02
  0.899999976       6.86727017E-02
  0.949999988       7.55321905E-02
   1.00000000       8.37943032E-02
   1.04999995       9.11219046E-02
   1.10000002       9.60657671E-02
   1.14999998       9.89360958E-02
   1.20000005      0.101477243    
   1.25000000      0.105657712    
   1.29999995      0.112425581    
   1.35000002      0.121203192    
   1.39999998      0.130346045    
   1.45000005      0.138191447    
   1.50000000      0.144042701    
   1.54999995      0.148559019    
   1.60000002      0.153386503    
   1.64999998      0.160248086    
   1.70000005      0.169959202    
   1.75000000      0.181889459    
   1.79999995      0.194208711    
   1.85000002      0.204869851    
   1.89999998      0.212826863    
   1.95000005      0.218746707    
   2.00000000      0.224690914    
   2.04999995      0.232878134    
   2.09999990      0.244299099    
   2.15000010      0.258129299    
   2.20000005      0.272361696    
   2.25000000      0.285197705    
   2.29999995      0.296166599    
   2.34999990      0.306174099    
   2.40000010      0.316546559    
   2.45000005      0.327942491    
   2.50000000      0.340056211    
   2.54999995      0.352282733    
   2.59999990      0.364619702    
   2.65000010      0.377850145    
   2.70000005      0.392729133    
   2.75000000      0.408894241    
   2.79999995      0.424620658    
   2.84999990      0.437896043    
   2.90000010      0.448100299    
   2.95000005      0.456881940    
   3.00000000      0.467308134    
   3.04999995      0.481722355    
   3.09999990      0.499876231    
   3.15000010      0.518840730    
   3.20000005      0.534905672    
   3.25000000      0.546152115    
   3.29999995      0.553831041    
   3.34999990      0.561538577    
   3.40000010      0.572778761    
   3.45000005      0.588617027    
   3.50000000      0.606994271    
   3.54999995      0.624065399    
   3.59999990      0.636584580    
   3.65000010      0.643809319    
   3.70000005      0.647847891    
   3.75000000      0.652379036    
   3.79999995      0.660555303    
   3.84999990      0.673232734    
   3.90000010      0.688437521    
   3.95000005      0.702363074    
   4.00000000      0.711443424    
   4.05000019      0.714438438    
   4.09999990      0.713294566    
   4.15000010      0.712086141    
   4.19999981      0.714496613    
   4.25000000      0.721374869    
   4.30000019      0.730056167    
   4.34999990      0.736080110    
   4.40000010      0.736228287    
   4.44999981      0.730736196    
   4.50000000      0.723019242    
   4.55000019      0.717078447    
   4.59999990      0.714554965    
   4.65000010      0.713673770    
   4.69999981      0.710833609    
   4.75000000      0.703482330    
   4.80000019      0.691926897    
   4.84999990      0.678700686    
   4.90000010      0.666187525    
   4.94999981      0.654626012    
   5.00000000      0.642166913    
   5.05000019      0.626803339    
   5.09999990      0.608344197    
   5.15000010      0.588633478    
   5.19999981      0.569837987    
   5.25000000      0.552362621    
   5.30000019      0.534276068    
   5.34999990      0.512759089    
   5.40000010      0.486335874    
   5.44999981      0.456032813    
   5.50000000      0.424597532    
   5.55000019      0.394561231    
   5.59999990      0.366743505    
   5.65000010      0.340182662    
   5.69999981      0.313143194    
   5.75000000      0.284113258    
   5.80000019      0.252142817    
   5.84999990      0.216769889    
   5.90000010      0.178165525    
   5.94999981      0.137578800    
   6.00000000       9.73519757E-02
   6.05000019       5.98472506E-02
   6.09999990       2.56867278E-02
   6.15000010      -7.22557399E-03
   6.19999981      -4.26376052E-02
   6.25000000      -8.32175165E-02
   6.30000019     -0.128208160    
   6.34999990     -0.173591360    
   6.40000010     -0.214994669    
   6.44999981     -0.251159698    
   6.50000000     -0.285066754    
   6.55000019     -0.321611792    
   6.59999990     -0.363614142    
   6.65000010     -0.409466088    
   6.69999981     -0.454423219    
   6.75000000     -0.494434685    
   6.80000019     -0.529264331    
   6.84999990     -0.562296808    
   6.90000010     -0.597336352    
   6.94999981     -0.635341227    
   7.00000000     -0.673939764    
   7.05000019     -0.709967434    
   7.09999990     -0.742532909    
   7.15000010     -0.773695529    
   7.19999981     -0.806168735    
   7.25000000     -0.840288043    
   7.30000019     -0.873204887    
   7.34999990     -0.901212990    
   7.40000010     -0.923140407    
   7.44999981     -0.941694796    
   7.50000000     -0.961439908    
   7.55000019     -0.985104084    
   7.59999990      -1.01141584    
   7.65000010      -1.03625107    
   7.69999981      -1.05594838    
   7.75000000      -1.06986034    
   7.80000019      -1.08013153    
   7.84999990      -1.08931375    
   7.90000010      -1.09826267    
   7.94999981      -1.10615468    
   8.00000000      -1.11217666    
   8.05000019      -1.11681199    
   8.10000038      -1.12124360    
   8.14999962      -1.12554681    
   8.19999981      -1.12779260    
   8.25000000      -1.12538123    
   8.30000019      -1.11759460    
   8.35000038      -1.10686195    
   8.39999962      -1.09717441    
   8.44999981      -1.09074652    
   8.50000000      -1.08588350    
   8.55000019      -1.07814395    
   8.60000038      -1.06397712    
   8.64999962      -1.04369712    
   8.69999981      -1.02116299    
   8.75000000      -1.00047159    
   8.80000019     -0.982650936    
   8.85000038     -0.965273261    
   8.89999962     -0.945147574    
   8.94999981     -0.921405375    
   9.00000000     -0.896036386    
   9.05000019     -0.871491373    
   9.10000038     -0.847861588    
   9.14999962     -0.822564423    
   9.19999981     -0.792978883    
   9.25000000     -0.759481251    
   9.30000019     -0.725767314    
   9.35000038     -0.695858181    
   9.39999962     -0.670433044    
   9.44999981     -0.645963490    
   9.50000000     -0.617649913    
   9.55000019     -0.583623230    
   9.60000038     -0.546609521    
   9.64999962     -0.511528790    
   9.69999981     -0.481218100    
   9.75000000     -0.454168707    
   9.80000019     -0.426254213    
   9.85000038     -0.394699395    
   9.89999962     -0.360521823    
   9.94999981     -0.327251911    
   10.0000000     -0.297352999    
   10.0500002     -0.269922435    
   10.1000004     -0.241906345    
   10.1499996     -0.211525872    
   10.1999998     -0.180379659    
   10.2500000     -0.151979357    
   10.3000002     -0.128066450    
   10.3500004     -0.106419839    
   10.3999996      -8.25858340E-02
   10.4499998      -5.41465953E-02
   10.5000000      -2.34739501E-02
   10.5500002       3.90256802E-03
   10.6000004       2.41126101E-02
   10.6499996       3.85876745E-02
   10.6999998       5.30423112E-02
   10.7500000       7.25329369E-02
   10.8000002       9.70125124E-02
   10.8500004      0.121438764    
   10.8999996      0.140330881    
   10.9499998      0.152570322    
   11.0000000      0.162061006    
   11.0500002      0.173787668    
   11.1000004      0.189129069    
   11.1499996      0.204898074    
   11.1999998      0.216912076    
   11.2500000      0.224463552    
   11.3000002      0.231170014    
   11.3500004      0.241244718    
   11.3999996      0.254821807    
   11.4499998      0.267105818    
   11.5000000      0.272548258    
   11.5500002      0.270311564    
   11.6000004      0.265750527    
   11.6499996      0.266160607    
   11.6999998      0.274433136    
   11.7500000      0.286412448    
   11.8000002      0.294492990    
   11.8500004      0.294260740    
   11.8999996      0.288130611    
   11.9499998      0.282707155    
   12.0000000      0.282457530    
   12.0500002      0.285709977    
   12.1000004      0.286726415    
   12.1499996      0.281751126    
   12.1999998      0.273078561    
   12.2500000      0.267049968    
   12.3000002      0.267772198    
   12.3500004      0.272635520    
   12.3999996      0.274196625    
   12.4499998      0.266973615    
   12.5000000      0.252841860    
   12.5500002      0.239765584    
   12.6000004      0.234744817    
   12.6499996      0.237396017    
   12.6999998      0.240217611    
   12.7500000      0.235477537    
   12.8000002      0.222429261    
   12.8500004      0.208103135    
   12.8999996      0.200802833    
   12.9499998      0.202271447    
   13.0000000      0.205865756    
   13.0500002      0.202586964    
   13.1000004      0.189486071    
   13.1499996      0.172624052    
   13.1999998      0.161691964    
   13.2500000      0.161113575    
   13.3000002      0.165818781    
   13.3500004      0.165697366    
   13.3999996      0.154803574    
   13.4499998      0.136962801    
   13.5000000      0.122618906    
   13.5500002      0.119664311    
   13.6000004      0.126418188    
   13.6499996      0.132966369    
   13.6999998      0.129596487    
   13.7500000      0.114862755    
   13.8000002       9.63929072E-02
   13.8500004       8.41466486E-02
   13.8999996       8.23372006E-02
   13.9499998       8.68918896E-02
   14.0000000       8.99500400E-02
   14.0500002       8.66974145E-02
   14.1000004       7.84075782E-02
   14.1499996       6.97377324E-02
   14.1999998       6.37572333E-02
   14.2500000       5.97311780E-02
   14.3000002       5.52834757E-02
   14.3500004       4.99660783E-02
   14.3999996       4.60934527E-02
   14.4499998       4.59141284E-02
   14.5000000       4.82906960E-02
   14.5500002       4.87557314E-02
   14.6000004       4.33636717E-02
   14.6499996       3.26940902E-02
   14.6999998       2.18938384E-02
   14.7500000       1.63930878E-02
   14.8000002       1.72289200E-02
   14.8500004       2.04295591E-02
   14.8999996       2.10162308E-02
   14.9499998       1.76559985E-02
   15.0000000       1.33672245E-02
   15.0500002       1.16645033E-02
   15.1000004       1.22210346E-02
   15.1499996       1.07655423E-02
   15.1999998       3.68438615E-03
   15.2500000      -7.22771930E-03
   15.3000002      -1.50980828E-02
   15.3500004      -1.39020523E-02
   15.3999996      -4.74949786E-03
   15.4499998       3.76318628E-03
   15.5000000       2.31931941E-03
   15.5500002      -1.08276429E-02
   15.6000004      -2.76178736E-02
   15.6499996      -3.65214497E-02
   15.6999998      -3.22247148E-02
   15.7500000      -2.01588497E-02
   15.8000002      -1.17805721E-02
   15.8500004      -1.47777032E-02
   15.8999996      -2.69278884E-02
   15.9499998      -3.89369838E-02
   16.0000000      -4.33237553E-02
   16.0499992      -4.09554727E-02
   16.1000004      -3.92571948E-02
   16.1499996      -4.41220254E-02
   16.2000008      -5.35687953E-02
   16.2500000      -5.94918728E-02
   16.2999992      -5.59840500E-02
   16.3500004      -4.61556651E-02
   16.3999996      -4.04737294E-02
   16.4500008      -4.75681722E-02
   16.5000000      -6.58173040E-02
   16.5499992      -8.37762877E-02
   16.6000004      -8.96173641E-02
   16.6499996      -8.13873336E-02
   16.7000008      -6.88544884E-02
   16.7500000      -6.51398450E-02
   16.7999992      -7.55085051E-02
   16.8500004      -9.32412967E-02
   16.8999996     -0.106073231    
   16.9500008     -0.107169725    
   17.0000000     -0.100700863    
   17.0499992      -9.72495303E-02
   17.1000004     -0.103665702    
   17.1499996     -0.116893515    
   17.2000008     -0.127338573    
   17.2500000     -0.128348544    
   17.2999992     -0.122762054    
   17.3500004     -0.120372929    
   17.3999996     -0.128724217    
   17.4500008     -0.145854041    
   17.5000000     -0.161748588    
   17.5499992     -0.167175770    
   17.6000004     -0.161833018    
   17.6499996     -0.154497564    
   17.7000008     -0.155244514    
   17.7500000     -0.166885957    
   17.7999992     -0.183160365    
   17.8500004     -0.194810778    
   17.8999996     -0.197646976    
   17.9500008     -0.195388481    
   18.0000000     -0.195344225    
   18.0499992     -0.201567307    
   18.1000004     -0.211906150    
   18.1499996     -0.221105993    
   18.2000008     -0.226256147    
   18.2500000     -0.229079068    
   18.2999992     -0.233220994    
   18.3500004     -0.239867613    
   18.3999996     -0.246479869    
   18.4500008     -0.249929786    
   18.5000000     -0.250554681    
   18.5499992     -0.252567351    
   18.6000004     -0.259997636    
   18.6499996     -0.272115707    
   18.7000008     -0.283179194    
   18.7500000     -0.287275523    
   18.7999992     -0.283899814    
   18.8500004     -0.278844833    
   18.8999996     -0.279244900    
   18.9500008     -0.287216067    
   19.0000000     -0.298035979    
   19.0499992     -0.304622740    
   19.1000004     -0.304107457    
   19.1499996     -0.300280333    
   19.2000008     -0.299631178    
   19.2500000     -0.304870874    
   19.2999992     -0.312269211    
   19.3500004     -0.315433234    
   19.3999996     -0.311832666    
   19.4500008     -0.305575550    
   19.5000000     -0.303484261    
   19.5499992     -0.308122694    
   19.6000004     -0.314668924    
   19.6499996     -0.315081537    
   19.7000008     -0.305962473    
   19.7500000     -0.292609185    
   19.7999992     -0.284939378    
   19.8500004     -0.288527340    
   19.8999996     -0.298906744    
   19.9500008     -0.304733872    
   20.0000000     -0.297440231    
   20.0499992     -0.278900474    
   20.1000004     -0.260117263    
   20.1499996     -0.251857281    
   20.2000008     -0.255421758    
   20.2500000     -0.261693865    
   20.2999992     -0.259251237    
   20.3500004     -0.244282782    
   20.3999996     -0.223566666    
   20.4500008     -0.208099723    
   20.5000000     -0.203300551    
   20.5499992     -0.204556257    
   20.6000004     -0.201823100    
   20.6499996     -0.188802034    
   20.7000008     -0.168338671    
   20.7500000     -0.149429366    
   20.7999992     -0.138912752    
   20.8500004     -0.135502115    
   20.8999996     -0.131330639    
   20.9500008     -0.119220659    
   21.0000000      -9.89236906E-02
   21.0499992      -7.69336969E-02
   21.1000004      -6.05231635E-02
   21.1499996      -5.16545251E-02
   21.2000008      -4.59973253E-02
   21.2500000      -3.72860059E-02
   21.2999992      -2.25841794E-02
   21.3500004      -3.84463044E-03
   21.3999996       1.48744285E-02
   21.4500008       3.11769340E-02
   21.5000000       4.54548225E-02
   21.5499992       5.89940511E-02
   21.6000004       7.18260407E-02
   21.6499996       8.29698518E-02
   21.7000008       9.26531255E-02
   21.7500000      0.103572048    
   21.7999992      0.119059965    
   21.8500004      0.139461443    
   21.8999996      0.160459921    
   21.9500008      0.175769269    
   22.0000000      0.182442769    
   22.0499992      0.184070483    
   22.1000004      0.188511431    
   22.1499996      0.201606959    
   22.2000008      0.222188756    
   22.2500000      0.242877543    
   22.2999992      0.256174535    
   22.3500004      0.260605425    
   22.3999996      0.261578441    
   22.4500008      0.266316086    
   22.5000000      0.277483314    
   22.5499992      0.291195452    
   22.6000004      0.301016361    
   22.6499996      0.304106712    
   22.7000008      0.303841710    
   22.7500000      0.306580037    
   22.7999992      0.315653592    
   22.8500004      0.328117549    
   22.8999996      0.337194085    
   22.9500008      0.338153958    
   23.0000000      0.332372546    
   23.0499992      0.326091796    
   23.1000004      0.325184494    
   23.1499996      0.330574274    
   23.2000008      0.338033229    
   23.2500000      0.342031300    
   23.2999992      0.339974105    
   23.3500004      0.333383262    
   23.3999996      0.325741023    
   23.4500008      0.319583863    
   23.5000000      0.315447807    
   23.5499992      0.312866479    
   23.6000004      0.311521620    
   23.6499996      0.310970038    
   23.7000008      0.309514672    
   23.7500000      0.304216832    
   23.7999992      0.293003321    
   23.8500004      0.277279109    
   23.8999996      0.262183577    
   23.9500008      0.253321767    
   24.0000000      0.252178907    
   24.0499992      0.254234076    
   24.1000004      0.251944363    
   24.1499996      0.240588188    
   24.2000008      0.222161025    
   24.2500000      0.203852341    
   24.2999992      0.192185372    
   24.3500004      0.187731102    
   24.3999996      0.184926897    
   24.4500008      0.177138016    
   24.5000000      0.162524596    
   24.5499992      0.145566449    
   24.6000004      0.132923439    
   24.6499996      0.127313703    
   24.7000008      0.124853611    
   24.7500000      0.118279397    
   24.7999992      0.103321597    
   24.8500004       8.27258825E-02
   24.8999996       6.43983409E-02
   24.9500008       5.51341996E-02
   25.0000000       5.50849959E-02
   25.0499992       5.74690141E-02
   25.1000004       5.37056290E-02
   25.1499996       3.98459919E-02
   25.2000008       1.93441194E-02
   25.2500000       2.90475320E-04
   25.2999992      -1.04911774E-02
   25.3500004      -1.19964089E-02
   25.3999996      -9.18938592E-03
   25.4500008      -9.15093254E-03
   25.5000000      -1.63076352E-02
   25.5499992      -2.99663395E-02
   25.6000004      -4.53574099E-02
   25.6499996      -5.69884740E-02
   25.7000008      -6.19483963E-02
   25.7500000      -6.12809770E-02
   25.7999992      -5.89514263E-02
   25.8500004      -5.92802204E-02
   25.8999996      -6.44054562E-02
   25.9500008      -7.31891170E-02
   26.0000000      -8.21484402E-02
   26.0499992      -8.78167674E-02
   26.1000004      -8.90130475E-02
   26.1499996      -8.74729380E-02
   26.2000008      -8.63703862E-02
   26.2500000      -8.78101513E-02
   26.2999992      -9.12350044E-02
   26.3500004      -9.40511301E-02
   26.3999996      -9.39934626E-02
   26.4500008      -9.12454352E-02
   26.5000000      -8.84312168E-02
   26.5499992      -8.83582085E-02
   26.6000004      -9.13777202E-02
   26.6499996      -9.47039425E-02
   26.7000008      -9.44675282E-02
   26.7500000      -8.89355615E-02
   26.7999992      -8.02129805E-02
   26.8500004      -7.28860199E-02
   26.8999996      -7.05678612E-02
   26.9500008      -7.30776265E-02
   27.0000000      -7.65200555E-02
   27.0499992      -7.62079358E-02
   27.1000004      -7.01192245E-02
   27.1499996      -6.02313951E-02
   27.2000008      -5.08419350E-02
   27.2500000      -4.53446247E-02
   27.2999992      -4.39721569E-02
   27.3500004      -4.40405942E-02
   27.3999996      -4.21965681E-02
   27.4500008      -3.67685556E-02
   27.5000000      -2.85590906E-02
   27.5499992      -1.98406950E-02
   27.6000004      -1.26425829E-02
   27.6499996      -7.65138073E-03
   27.7000008      -4.25172318E-03
   27.7500000      -1.27296709E-03
   27.7999992       2.32034619E-03
   27.8500004       7.16885785E-03
   27.8999996       1.35172429E-02
   27.9500008       2.11558212E-02
   28.0000000       2.92963013E-02
   28.0499992       3.66877951E-02
   28.1000004       4.21925783E-02
   28.1499996       4.55886424E-02
   28.2000008       4.79786806E-02
   28.2500000       5.13081215E-02
   28.2999992       5.71257360E-02
   28.3500004       6.53868467E-02
   28.3999996       7.42345825E-02
   28.4500008       8.10977221E-02
   28.5000000       8.44795257E-02
   28.5499992       8.51834193E-02
   28.6000004       8.59667063E-02
   28.6499996       8.96796510E-02
   28.7000008       9.71246958E-02
   28.7500000      0.106260695    
   28.7999992      0.113536172    
   28.8500004      0.116545290    
   28.8999996      0.116028242    
   28.9500008      0.115510538    
   29.0000000      0.118605167    
   29.0499992      0.125955075    
   29.1000004      0.134360641    
   29.1499996      0.139109656    
   29.2000008      0.137912571    
   29.2500000      0.133248791    
   29.2999992      0.130877227    
   29.3500004      0.135286614    
   29.3999996      0.145613402    
   29.4500008      0.155610427    
   29.5000000      0.158220842    
   29.5499992      0.151440114    
   29.6000004      0.140668079    
   29.6499996      0.135174647    
   29.7000008      0.140974611    
   29.7500000      0.155604362    
   29.7999992      0.169212699    
   29.8500004      0.171603993    
   29.8999996      0.160073474    
   29.9500008      0.141949877    
   30.0000000      0.129630730    
   30.0499992      0.131640092    
   30.1000004      0.146364748    
   30.1499996      0.163160026    
   30.2000008      0.169981629    
   30.2500000      0.161871016    
   30.2999992      0.144147322    
   30.3500004      0.128242552    
   30.3999996      0.123512216    
   30.4500008      0.131019235    
   30.5000000      0.143477544    
   30.5499992      0.150905326    
   30.6000004      0.147617236    
   30.6499996      0.135658622    
   30.7000008      0.122668788    
   30.7500000      0.116127670    
   30.7999992      0.118207254    
   30.8500004      0.124692477    
   30.8999996      0.128444925    
   30.9500008      0.124777257    
   31.0000000      0.114897914    
   31.0499992      0.104983360    
   31.1000004      0.101497501    
   31.1499996      0.106095292    
   31.2000008      0.113933109    
   31.2500000      0.116938502    
   31.2999992      0.109949641    
   31.3500004       9.51968804E-02
   31.3999996       8.14042687E-02
   31.4500008       7.76314735E-02
   31.5000000       8.61817300E-02
   31.5499992      0.100127816    
   31.6000004      0.107888438    
   31.6499996      0.101862058    
   31.7000008       8.45983624E-02
   31.7500000       6.74373135E-02
   31.7999992       6.22182339E-02
   31.8500004       7.22337142E-02
   31.8999996       8.95085931E-02
   31.9500008      0.100723013    
   32.0000000       9.73047465E-02
   32.0499992       8.18470120E-02
   32.0999985       6.58763126E-02
   32.1500015       6.08457215E-02
   32.2000008       6.95249811E-02
   32.2500000       8.44450369E-02
   32.2999992       9.42624286E-02
   32.3499985       9.26582366E-02
   32.4000015       8.27167258E-02
   32.4500008       7.37391710E-02
   32.5000000       7.35829473E-02
   32.5499992       8.28264356E-02
   32.5999985       9.50362757E-02
   32.6500015      0.102265261    
   32.7000008      0.101034544    
   32.7500000       9.43283290E-02
   32.7999992       8.87546763E-02