  -10.0000000         1.00000002E-24
  -9.94999981         1.00000002E-24
  -9.89999962         1.00000002E-24
  -9.85000038         1.00000012E-24
  -9.80000019         1.00000022E-24
  -9.75000000         1.00000022E-24
  -9.69999981         1.00000022E-24
  -9.64999962         1.00000022E-24
  -9.60000038         1.00000012E-24
  -9.55000019         2.18108207E-23
  -9.50000000         1.22984330E-23
  -9.44999981        -6.32365038E-22
  -9.39999962        -1.90929684E-21
  -9.35000038         4.74074334E-21
  -9.30000019         3.94625349E-20
  -9.25000000         7.47848951E-20
  -9.19999981        -1.05834224E-19
  -9.14999962        -8.45126037E-19
  -9.10000038        -1.75454913E-18
  -9.05000019        -3.44457730E-19
  -9.00000000         6.93368473E-18
  -8.94999981         1.73448078E-17
  -8.89999962         1.21089009E-17
  -8.85000038        -3.62899024E-17
  -8.80000019        -1.19788683E-16
  -8.75000000        -1.38966158E-16
  -8.69999981         6.73528902E-17
  -8.64999962         5.24615309E-16
  -8.60000038         8.80109743E-16
  -8.55000019         5.01121526E-16
  -8.50000000        -8.25756168E-16
  -8.44999981        -2.13257316E-15
  -8.39999962        -1.78593339E-15
  -8.35000038         1.65885857E-16
  -8.30000019         2.34682336E-16
  -8.25000000        -5.04061514E-15
  -8.19999981        -9.85679112E-15
  -8.14999962         5.01606601E-15
  -8.10000038         5.34618296E-14
  -8.05000019         1.01584749E-13
  -8.00000000         4.51070998E-14
  -7.94999981        -2.19569209E-13
  -7.90000010        -6.11196586E-13
  -7.84999990        -7.07002653E-13
  -7.80000019         1.01884416E-13
  -7.75000000         1.97008165E-12
  -7.69999981         3.79699701E-12
  -7.65000010         3.18629693E-12
  -7.59999990        -1.93858623E-12
  -7.55000019        -1.04082567E-11
  -7.50000000        -1.59229799E-11
  -7.44999981        -9.48762423E-12
  -7.40000010         1.28180053E-11
  -7.34999990         4.11130852E-11
  -7.30000019         5.10743149E-11
  -7.25000000         1.83619786E-11
  -7.19999981        -5.62988371E-11
  -7.15000010        -1.30375183E-10
  -7.09999990        -1.33995828E-10
  -7.05000019        -2.05846191E-11
  -7.00000000         1.75435291E-10
  -6.94999981         3.26747601E-10
  -6.90000010         2.82926349E-10
  -6.84999990        -4.46281640E-12
  -6.80000019        -3.94826477E-10
  -6.75000000        -6.08948003E-10
  -6.69999981        -4.26138347E-10
  -6.65000010         1.01491759E-10
  -6.59999990         6.16060258E-10
  -6.55000019         6.99181990E-10
  -6.50000000         2.51830223E-10
  -6.44999981        -3.26246224E-10
  -6.40000010        -4.16442714E-10
  -6.34999990         1.98232541E-10
  -6.30000019         9.04214981E-10
  -6.25000000         5.82082271E-10
  -6.19999981        -1.30800470E-09
  -6.15000010        -3.69351971E-09
  -6.09999990        -4.07135126E-09
  -6.05000019        -3.64162811E-10
  -6.00000000         6.60083188E-09
  -5.94999981         1.21993606E-08
  -5.90000010         1.03978373E-08
  -5.84999990        -1.29496014E-09
  -5.80000019        -1.78051813E-08
  -5.75000000        -2.75362950E-08
  -5.69999981        -1.96652810E-08
  -5.65000010         6.30704111E-09
  -5.59999990         3.62670178E-08
  -5.55000019         4.80531668E-08
  -5.50000000         2.69682872E-08
  -5.44999981        -1.99556585E-08
  -5.40000010        -6.32325836E-08
  -5.34999990        -6.82852885E-08
  -5.30000019        -2.16734914E-08
  -5.25000000         5.28125170E-08
  -5.19999981         1.03739218E-07
  -5.15000010         8.57828653E-08
  -5.09999990        -3.64076636E-09
  -5.05000019        -1.13068026E-07
  -5.00000000        -1.64957470E-07
  -4.94999981        -1.08823464E-07
  -4.90000010         3.65990829E-08
  -4.84999990         1.85773402E-07
  -4.80000019         2.38041608E-07
  -4.75000000         1.46691576E-07
  -4.69999981        -4.32593268E-08
  -4.65000010        -2.18965425E-07
  -4.59999990        -2.72776163E-07
  -4.55000019        -1.74753623E-07
  -4.50000000         7.36572714E-09
  -4.44999981         1.56422416E-07
  -4.40000010         1.88257644E-07
  -4.34999990         1.08444269E-07
  -4.30000019         1.97275152E-09
  -4.25000000        -3.55994914E-08
  -4.19999981         2.66847380E-08
  -4.15000010         1.30112099E-07
  -4.09999990         1.69366601E-07
  -4.05000019         7.07486976E-08
  -4.00000000        -1.51828118E-07
  -3.95000005        -4.00682552E-07
  -3.90000010        -5.49634080E-07
  -3.84999990        -5.07832851E-07
  -3.79999995        -2.52619060E-07
  -3.75000000         1.74195094E-07
  -3.70000005         6.81315726E-07
  -3.65000010         1.13079443E-06
  -3.59999990         1.33793594E-06
  -3.54999995         1.10659607E-06
  -3.50000000         3.26301830E-07
  -3.45000005        -8.99144425E-07
  -3.40000010        -2.18240712E-06
  -3.34999990        -2.93867538E-06
  -3.29999995        -2.64456867E-06
  -3.25000000        -1.16094930E-06
  -3.20000005         1.07741312E-06
  -3.15000010         3.17159743E-06
  -3.09999990         4.17381443E-06
  -3.04999995         3.60826493E-06
  -3.00000000         1.78234211E-06
  -2.95000005        -3.49563464E-07
  -2.90000010        -1.74984791E-06
  -2.84999990        -1.97364488E-06
  -2.79999995        -1.50597123E-06
  -2.75000000        -1.46106584E-06
  -2.70000005        -2.73793648E-06
  -2.65000010        -5.13596115E-06
  -2.59999990        -7.07781874E-06
  -2.54999995        -6.30633849E-06
  -2.50000000        -1.32107300E-06
  -2.45000005         7.25243717E-06
  -2.40000010         1.63116256E-05
  -2.34999990         2.14238553E-05
  -2.29999995         1.90645351E-05
  -2.25000000         8.75807746E-06
  -2.20000005        -6.20206447E-06
  -2.15000010        -2.00755348E-05
  -2.09999990        -2.74645627E-05
  -2.04999995        -2.60327397E-05
  -2.00000000        -1.75466175E-05
  -1.95000005        -6.59465468E-06
  -1.89999998         2.22254698E-06
  -1.85000002         6.84932229E-06
  -1.79999995         8.46308740E-06
  -1.75000000         9.94836682E-06
  -1.70000005         1.33562371E-05
  -1.64999998         1.82732911E-05
  -1.60000002         2.23460393E-05
  -1.54999995         2.35356292E-05
  -1.50000000         2.22134749E-05
  -1.45000005         2.11215756E-05
  -1.39999998         2.27543333E-05
  -1.35000002         2.58772270E-05
  -1.29999995         2.40467125E-05
  -1.25000000         8.03520925E-06
  -1.20000005        -2.86319828E-05
  -1.14999998        -8.44593378E-05
  -1.10000002        -1.49031126E-04
  -1.04999995        -2.07881138E-04
  -1.00000000        -2.50726473E-04
 -0.949999988        -2.77728599E-04
 -0.899999976        -2.99035135E-04
 -0.850000024        -3.27032845E-04
 -0.800000012        -3.65985237E-04
 -0.750000000        -4.06344450E-04
 -0.699999988        -4.28735075E-04
 -0.649999976        -4.16396622E-04
 -0.600000024        -3.68684356E-04
 -0.550000012        -3.06476228E-04
 -0.500000000        -2.64727190E-04
 -0.449999988        -2.75491795E-04
 -0.400000006        -3.51216237E-04
 -0.349999994        -4.78436385E-04
 -0.300000012        -6.25667861E-04
 -0.250000000        -7.60331925E-04
 -0.200000003        -8.64069909E-04
 -0.150000006        -9.37517674E-04
 -0.100000001        -9.93259251E-04
  -5.00000007E-02    -1.04374602E-03
   0.00000000        -1.09368365E-03
   5.00000007E-02    -1.14194083E-03
  0.100000001        -1.18999556E-03
  0.150000006        -1.24857237E-03
  0.200000003        -1.33567560E-03
  0.250000000        -1.46651291E-03
  0.300000012        -1.64304930E-03
  0.349999994        -1.85213774E-03
  0.400000006        -2.07495363E-03
  0.449999988        -2.30134116E-03
  0.500000000        -2.53790081E-03
  0.550000012        -2.80247768E-03
  0.600000024        -3.10785999E-03
  0.649999976        -3.44648468E-03
  0.699999988        -3.78863374E-03
  0.750000000        -4.09777556E-03
  0.800000012        -4.35440801E-03
  0.850000024        -4.57293587E-03
  0.899999976        -4.80000721E-03
  0.949999988        -5.09468885E-03
   1.00000000        -5.50237764E-03
   1.04999995        -6.03732700E-03
   1.10000002        -6.68168394E-03
   1.14999998        -7.39785610E-03
   1.20000005        -8.14438518E-03
   1.25000000        -8.88737757E-03
   1.29999995        -9.60662030E-03
   1.35000002        -1.03003522E-02
   1.39999998        -1.09904474E-02
   1.45000005        -1.17231971E-02
   1.50000000        -1.25577329E-02
   1.54999995        -1.35404263E-02
   1.60000002        -1.46765634E-02
   1.64999998        -1.59195531E-02
   1.70000005        -1.71923880E-02
   1.75000000        -1.84357818E-02
   1.79999995        -1.96550470E-02
   1.85000002        -2.09316127E-02
   1.89999998        -2.23837700E-02
   1.95000005        -2.40956713E-02
   2.00000000        -2.60599852E-02
   2.04999995        -2.81764511E-02
   2.09999990        -3.03135850E-02
   2.15000010        -3.23962122E-02
   2.20000005        -3.44594419E-02
   2.25000000        -3.66290845E-02
   2.29999995        -3.90391797E-02
   2.34999990        -4.17437069E-02
   2.40000010        -4.46868166E-02
   2.45000005        -4.77551930E-02
   2.50000000        -5.08750379E-02
   2.54999995        -5.40796891E-02
   2.59999990        -5.74924313E-02
   2.65000010        -6.12321496E-02
   2.70000005        -6.53119162E-02
   2.75000000        -6.96132928E-02
   2.79999995        -7.39673451E-02
   2.84999990        -7.82917291E-02
   2.90000010        -8.26823637E-02
   2.95000005        -8.73811170E-02
   3.00000000        -9.26273242E-02
   3.04999995        -9.84907970E-02
   3.09999990       -0.104808450    
   3.15000010       -0.111281611    
   3.20000005       -0.117676839    
   3.25000000       -0.123992756    
   3.29999995       -0.130470544    
   3.34999990       -0.137433261    
   3.40000010       -0.145063981    
   3.45000005       -0.153282687    
   3.50000000       -0.161816016    
   3.54999995       -0.170413375    
   3.59999990       -0.179050758    
   3.65000010       -0.187964961    
   3.70000005       -0.197482452    
   3.75000000       -0.207763061    
   3.79999995       -0.218653306    
   3.84999990       -0.229773670    
   3.90000010       -0.240795091    
   3.95000005       -0.251709223    
   4.00000000       -0.262884974    
   4.05000019       -0.274846017    
   4.09999990       -0.287908256    
   4.15000010       -0.301930934    
   4.19999981       -0.316374153    
   4.25000000       -0.330645561    
   4.30000019       -0.344509691    
   4.34999990       -0.358272910    
   4.40000010       -0.372601002    
   4.44999981       -0.388077796    
   4.50000000       -0.404801518    
   4.55000019       -0.422300309    
   4.59999990       -0.439835936    
   4.65000010       -0.456895888    
   4.69999981       -0.473538667    
   4.75000000       -0.490353733    
   4.80000019       -0.508058667    
   4.84999990       -0.527007878    
   4.90000010       -0.546948552    
   4.94999981       -0.567189276    
   5.00000000       -0.587064505    
   5.05000019       -0.606374741    
   5.09999990       -0.625504017    
   5.15000010       -0.645139694    
   5.19999981       -0.665794015    
   5.25000000       -0.687455177    
   5.30000019       -0.709598958    
   5.34999990       -0.731539786    
   5.40000010       -0.752869904    
   5.44999981       -0.773688078    
   5.50000000       -0.794477999    
   5.55000019       -0.815740943    
   5.59999990       -0.837650061    
   5.65000010       -0.859957516    
   5.69999981       -0.882197261    
   5.75000000       -0.904014885    
   5.80000019       -0.925380826    
   5.84999990       -0.946545660    
   5.90000010       -0.967789769    
   5.94999981       -0.989169359    
   6.00000000        -1.01044810    
   6.05000019        -1.03125954    
   6.09999990        -1.05137026    
   6.15000010        -1.07084286    
   6.19999981        -1.08997750    
   6.25000000        -1.10907340    
   6.30000019        -1.12818599    
   6.34999990        -1.14705217    
   6.40000010        -1.16523540    
   6.44999981        -1.18238711    
   6.50000000        -1.19844413    
   6.55000019        -1.21363235    
   6.59999990        -1.22828400    
   6.65000010        -1.24259949    
   6.69999981        -1.25651109    
   6.75000000        -1.26972651    
   6.80000019        -1.28190875    
   6.84999990        -1.29286599    
   6.90000010        -1.30263329    
   6.94999981        -1.31140828    
   7.00000000        -1.31939685    
   7.05000019        -1.32666874    
   7.09999990        -1.33310485    
   7.15000010        -1.33845437    
   7.19999981        -1.34245837    
   7.25000000        -1.34497511    
   7.30000019        -1.34604478    
   7.34999990        -1.34587014    
   7.40000010        -1.34471798    
   7.44999981        -1.34278464    
   7.50000000        -1.34007978    
   7.55000019        -1.33639026    
   7.59999990        -1.33135378    
   7.65000010        -1.32462513    
   7.69999981        -1.31605887    
   7.75000000        -1.30580592    
   7.80000019        -1.29425621    
   7.84999990        -1.28183961    
   7.90000010        -1.26879120    
   7.94999981        -1.25501609    
   8.00000000        -1.24014533    
   8.05000019        -1.22375464    
   8.10000038        -1.20561600    
   8.14999962        -1.18582797    
   8.19999981        -1.16474819    
   8.25000000        -1.14277506    
   8.30000019        -1.12012708    
   8.35000038        -1.09675705    
   8.39999962        -1.07244170    
   8.44999981        -1.04696786    
   8.50000000        -1.02027690    
   8.55000019       -0.992479324    
   8.60000038       -0.963753045    
   8.64999962       -0.934227288    
   8.69999981       -0.903944433    
   8.75000000       -0.872916698    
   8.80000019       -0.841204941    
   8.85000038       -0.808932841    
   8.89999962       -0.776212275    
   8.94999981       -0.743049502    
   9.00000000       -0.709330320    
   9.05000019       -0.674924910    
   9.10000038       -0.639841199    
   9.14999962       -0.604297757    
   9.19999981       -0.568633378    
   9.25000000       -0.533101082    
   9.30000019       -0.497701198    
   9.35000038       -0.462197840    
   9.39999962       -0.426329106    
   9.44999981       -0.390063614    
   9.50000000       -0.353698462    
   9.55000019       -0.317701995    
   9.60000038       -0.282399923    
   9.64999962       -0.247738600    
   9.69999981       -0.213321030    
   9.75000000       -0.178713113    
   9.80000019       -0.143807590    
   9.85000038       -0.108973183    
   9.89999962        -7.48620033E-02
   9.94999981        -4.19979952E-02
   10.0000000        -1.04382169E-02
   10.0500002         2.02455260E-02
   10.1000004         5.06452322E-02
   10.1499996         8.10825303E-02
   10.1999998        0.111370824    
   10.2500000        0.140939787    
   10.3000002        0.169226125    
   10.3500004        0.196045280    
   10.3999996        0.221680135    
   10.4499998        0.246632591    
   10.5000000        0.271227688    
   10.5500002        0.295359790    
   10.6000004        0.318560362    
   10.6499996        0.340331644    
   10.6999998        0.360502183    
   10.7500000        0.379349768    
   10.8000002        0.397406787    
   10.8500004        0.415085524    
   10.8999996        0.432384640    
   10.9499998        0.448877335    
   11.0000000        0.463987827    
   11.0500002        0.477369130    
   11.1000004        0.489130914    
   11.1499996        0.499770939    
   11.1999998        0.509859681    
   11.2500000        0.519686759    
   11.3000002        0.529095590    
   11.3500004        0.537604928    
   11.3999996        0.544727981    
   11.4499998        0.550279558    
   11.5000000        0.554479182    
   11.5500002        0.557797372    
   11.6000004        0.560661256    
   11.6499996        0.563214004    
   11.6999998        0.565274358    
   11.7500000        0.566502810    
   11.8000002        0.566645265    
   11.8500004        0.565693140    
   11.8999996        0.563867390    
   11.9499998        0.561462700    
   12.0000000        0.558671892    
   12.0500002        0.555504680    
   12.1000004        0.551835537    
   12.1499996        0.547524333    
   12.1999998        0.542518198    
   12.2500000        0.536875248    
   12.3000002        0.530718386    
   12.3500004        0.524168909    
   12.3999996        0.517307639    
   12.4499998        0.510174572    
   12.5000000        0.502785265    
   12.5500002        0.495140105    
   12.6000004        0.487221569    
   12.6499996        0.478997469    
   12.6999998        0.470441967    
   12.7500000        0.461567789    
   12.8000002        0.452445656    
   12.8500004        0.443190575    
   12.8999996        0.433917850    
   12.9499998        0.424694300    
   13.0000000        0.415514886    
   13.0500002        0.406317860    
   13.1000004        0.397027165    
   13.1499996        0.387597799    
   13.1999998        0.378041953    
   13.2500000        0.368427217    
   13.3000002        0.358852059    
   13.3500004        0.349410951    
   13.3999996        0.340163291    
   13.4499998        0.331117511    
   13.5000000        0.322236657    
   13.5500002        0.313462317    
   13.6000004        0.304745525    
   13.6499996        0.296068937    
   13.6999998        0.287451774    
   13.7500000        0.278939247    
   13.8000002        0.270586789    
   13.8500004        0.262447476    
   13.8999996        0.254561543    
   13.9499998        0.246943891    
   14.0000000        0.239571214    
   14.0500002        0.232381940    
   14.1000004        0.225301355    
   14.1499996        0.218288034    
   14.1999998        0.211373419    
   14.2500000        0.204659313    
   14.3000002        0.198261485    
   14.3500004        0.192229688    
   14.3999996        0.186500847    
   14.4499998        0.180927485    
   14.5000000        0.175370947    
   14.5500002        0.169797584    
   14.6000004        0.164308041    
   14.6499996        0.159074813    
   14.6999998        0.154229686    
   14.7500000        0.149778932    
   14.8000002        0.145602137    
   14.8500004        0.141530171    
   14.8999996        0.137444675    
   14.9499998        0.133335307    
   15.0000000        0.129288897    
   15.0500002        0.125431329    
   15.1000004        0.121863268    
   15.1499996        0.118618824    
   15.1999998        0.115653105    
   15.2500000        0.112855129    
   15.3000002        0.110085934    
   15.3500004        0.107240163    
   15.3999996        0.104310572    
   15.4499998        0.101413645    
   15.5000000         9.87408161E-02
   15.5500002         9.64453071E-02
   15.6000004         9.45320427E-02
   15.6499996         9.28346589E-02
   15.6999998         9.11127254E-02
   15.7500000         8.92119557E-02
   15.8000002         8.71717557E-02
   15.8500004         8.51939619E-02
   15.8999996         8.34894255E-02
   15.9499998         8.21173117E-02
   16.0000000         8.09428468E-02
   16.0499992         7.97475800E-02
   16.1000004         7.84044042E-02
   16.1499996         7.69761205E-02
   16.2000008         7.56589323E-02
   16.2500000         7.46190846E-02
   16.2999992         7.38581419E-02
   16.3500004         7.32163638E-02
   16.3999996         7.25077093E-02
   16.4500008         7.16718063E-02
   16.5000000         7.08172619E-02
   16.5499992         7.01243877E-02
   16.6000004         6.96922541E-02
   16.6499996         6.94572106E-02
   16.7000008         6.92458004E-02
   16.7500000         6.89132363E-02
   16.7999992         6.84527084E-02
   16.8500004         6.79925084E-02
   16.8999996         6.76938444E-02
   16.9500008         6.76380545E-02
   17.0000000         6.77893087E-02
   17.0499992         6.80478141E-02
   17.1000004         6.83356449E-02
   17.1499996         6.86419085E-02
   17.2000008         6.90003484E-02
   17.2500000         6.94334656E-02
   17.2999992         6.99193776E-02
   17.3500004         7.04093277E-02
   17.3999996         7.08763450E-02
   17.4500008         7.13517144E-02
   17.5000000         7.19205663E-02
   17.5499992         7.26808235E-02
   17.6000004         7.36926049E-02
   17.6499996         7.49444291E-02
   17.7000008         7.63497725E-02
   17.7500000         7.77762830E-02
   17.7999992         7.91022554E-02
   17.8500004         8.02831203E-02
   17.8999996         8.13947991E-02
   17.9500008         8.26168954E-02
   18.0000000         8.41446370E-02
   18.0499992         8.60688314E-02
   18.1000004         8.83010402E-02
   18.1499996         9.06082764E-02
   18.2000008         9.27524120E-02
   18.2500000         9.46496874E-02
   18.2999992         9.64386463E-02
   18.3500004         9.84003544E-02
   18.3999996        0.100778498    
   18.4500008        0.103620544    
   18.5000000        0.106748238    
   18.5499992        0.109874181    
   18.6000004        0.112780973    
   18.6499996        0.115443967    
   18.7000008        0.118028402    
   18.7500000        0.120780542    
   18.7999992        0.123893201    
   18.8500004        0.127421677    
   18.8999996        0.131277621    
   18.9500008        0.135281071    
   19.0000000        0.139236838    
   19.0499992        0.143010646    
   19.1000004        0.146587670    
   19.1499996        0.150091097    
   19.2000008        0.153737351    
   19.2500000        0.157730117    
   19.2999992        0.162141323    
   19.3500004        0.166855365    
   19.3999996        0.171626821    
   19.4500008        0.176227212    
   19.5000000        0.180587485    
   19.5499992        0.184835538    
   19.6000004        0.189201504    
   19.6499996        0.193858415    
   19.7000008        0.198813349    
   19.7500000        0.203922287    
   19.7999992        0.209005937    
   19.8500004        0.213971913    
   19.8999996        0.218854845    
   19.9500008        0.223759130    
   20.0000000        0.228765339    
   20.0499992        0.233877659    
   20.1000004        0.239042282    
   20.1499996        0.244203717    
   20.2000008        0.249342322    
   20.2500000        0.254466861    
   20.2999992        0.259582907    
   20.3500004        0.264676750    
   20.3999996        0.269730628    
   20.4500008        0.274747342    
   20.5000000        0.279751658    
   20.5499992        0.284761637    
   20.6000004        0.289756954    
   20.6499996        0.294680268    
   20.7000008        0.299475342    
   20.7500000        0.304131210    
   20.7999992        0.308691263    
   20.8500004        0.313216746    
   20.8999996        0.317734689    
   20.9500008        0.322212905    
   21.0000000        0.326581001    
   21.0499992        0.330776632    
   21.1000004        0.334778607    
   21.1499996        0.338606119    
   21.2000008        0.342294246    
   21.2500000        0.345871419    
   21.2999992        0.349351734    
   21.3500004        0.352734029    
   21.3999996        0.355995119    
   21.4500008        0.359081179    
   21.5000000        0.361918122    
   21.5499992        0.364451706    
   21.6000004        0.366696298    
   21.6499996        0.368747830    
   21.7000008        0.370733261    
   21.7500000        0.372720748    
   21.7999992        0.374655724    
   21.8500004        0.376380205    
   21.8999996        0.377730757    
   21.9500008        0.378644764    
   22.0000000        0.379194438    
   22.0499992        0.379523575    
   22.1000004        0.379740477    
   22.1499996        0.379853576    
   22.2000008        0.379795492    
   22.2500000        0.379502863    
   22.2999992        0.378973931    
   22.3500004        0.378252387    
   22.3999996        0.377359092    
   22.4500008        0.376243532    
   22.5000000        0.374808580    
   22.5499992        0.372990549    
   22.6000004        0.370821655    
   22.6499996        0.368412852    
   22.7000008        0.365868807    
   22.7500000        0.363208592    
   22.7999992        0.360363424    
   22.8500004        0.357252806    
   22.8999996        0.353867143    
   22.9500008        0.350277603    
   23.0000000        0.346561044    
   23.0499992        0.342708945    
   23.1000004        0.338611066    
   23.1499996        0.334140301    
   23.2000008        0.329272836    
   23.2500000        0.324136883    
   23.2999992        0.318935901    
   23.3500004        0.313796282    
   23.3999996        0.308658719    
   23.4500008        0.303305566    
   23.5000000        0.297512501    
   23.5499992        0.291215688    
   23.6000004        0.284570068    
   23.6499996        0.277854383    
   23.7000008        0.271289557    
   23.7500000        0.264896542    
   23.7999992        0.258487225    
   23.8500004        0.251788020    
   23.8999996        0.244609252    
   23.9500008        0.236952737    
   24.0000000        0.228998125    
   24.0499992        0.220988110    
   24.1000004        0.213088989    
   24.1499996        0.205308378    
   24.2000008        0.197510451    
   24.2500000        0.189510435    
   24.2999992        0.181187332    
   24.3500004        0.172546804    
   24.3999996        0.163700774    
   24.4500008        0.154781491    
   24.5000000        0.145850658    
   24.5499992        0.136866048    
   24.6000004        0.127727106    
   24.6499996        0.118363649    
   24.7000008        0.108797528    
   24.7500000         9.91275385E-02
   24.7999992         8.94474611E-02
   24.8500004         7.97623992E-02
   24.8999996         6.99735656E-02
   24.9500008         5.99487498E-02
   25.0000000         4.96263430E-02
   25.0499992         3.90704684E-02
   25.1000004         2.84306277E-02
   25.1499996         1.78336278E-02
   25.2000008         7.28919590E-03
   25.2500000        -3.31952586E-03
   25.2999992        -1.41546270E-02
   25.3500004        -2.53129229E-02
   25.3999996        -3.67657691E-02
   25.4500008        -4.83861230E-02
   25.5000000        -6.00347593E-02
   25.5499992        -7.16406927E-02
   25.6000004        -8.32263678E-02
   25.6499996        -9.48749036E-02
   25.7000008       -0.106675081    
   25.7500000       -0.118682861    
   25.7999992       -0.130913407    
   25.8500004       -0.143351838    
   25.8999996       -0.155964762    
   25.9500008       -0.168706730    
   26.0000000       -0.181526765    
   26.0499992       -0.194380805    
   26.1000004       -0.207246274    
   26.1499996       -0.220130101    
   26.2000008       -0.233065188    
   26.2500000       -0.246099070    
   26.2999992       -0.259280354    
   26.3500004       -0.272644430    
   26.3999996       -0.286197096    
   26.4500008       -0.299899817    
   26.5000000       -0.313670129    
   26.5499992       -0.327409595    
   26.6000004       -0.341053307    
   26.6499996       -0.354611844    
   26.7000008       -0.368170857    
   26.7500000       -0.381837994    
   26.7999992       -0.395667374    
   26.8500004       -0.409615427    
   26.8999996       -0.423563987    
   26.9500008       -0.437396377    
   27.0000000       -0.451070607    
   27.0499992       -0.464634150    
   27.1000004       -0.478171498    
   27.1499996       -0.491728246    
   27.2000008       -0.505273163    
   27.2500000       -0.518725276    
   27.2999992       -0.532018483    
   27.3500004       -0.545146465    
   27.3999996       -0.558150589    
   27.4500008       -0.571063995    
   27.5000000       -0.583864212    
   27.5499992       -0.596473455    
   27.6000004       -0.608808994    
   27.6499996       -0.620839477    
   27.7000008       -0.632601380    
   27.7500000       -0.644163549    
   27.7999992       -0.655568421    
   27.8500004       -0.666794419    
   27.8999996       -0.677764058    
   27.9500008       -0.688386440    
   28.0000000       -0.698602200    
   28.0499992       -0.708401680    
   28.1000004       -0.717812300    
   28.1499996       -0.726868451    
   28.2000008       -0.735585093    
   28.2500000       -0.743948042    
   28.2999992       -0.751923144    
   28.3500004       -0.759473920    
   28.3999996       -0.766577423    
   28.4500008       -0.773225546    
   28.5000000       -0.779409468    
   28.5499992       -0.785098851    
   28.6000004       -0.790236950    
   28.6499996       -0.794765294    
   28.7000008       -0.798668742    
   28.7500000       -0.802006125    
   28.7999992       -0.804889262    
   28.8500004       -0.807409048    
   28.8999996       -0.809553921    
   28.9500008       -0.811184883    
   29.0000000       -0.812102437    
   29.0499992       -0.812169909    
   29.1000004       -0.811407685    
   29.1499996       -0.809982419    
   29.2000008       -0.808091044    
   29.2500000       -0.805819988    
   29.2999992       -0.803085446    
   29.3500004       -0.799699008    
   29.3999996       -0.795507193    
   29.4500008       -0.790496171    
   29.5000000       -0.784785151    
   29.5499992       -0.778520763    
   29.6000004       -0.771764278    
   29.6499996       -0.764460862    
   29.7000008       -0.756506383    
   29.7500000       -0.747844458    
   29.7999992       -0.738508224    
   29.8500004       -0.728574932    
   29.8999996       -0.718083501    
   29.9500008       -0.706992269    
   30.0000000       -0.695217669    
   30.0499992       -0.682718575    
   30.1000004       -0.669549942    
   30.1499996       -0.655838132    
   30.2000008       -0.641697645    
   30.2500000       -0.627157331    
   30.2999992       -0.612152874    
   30.3500004       -0.596584082    
   30.3999996       -0.580386996    
   30.4500008       -0.563567817    