  -10.0000000         1.00000002E-24
  -9.94999981         1.00000002E-24
  -9.89999962         1.00000002E-24
  -9.85000038         1.00000002E-24
  -9.80000019         1.00000012E-24
  -9.75000000         1.00000022E-24
  -9.69999981         1.00000032E-24
  -9.64999962         1.00000022E-24
  -9.60000038         1.00000032E-24
  -9.55000019         1.00000022E-24
  -9.50000000         1.00000022E-24
  -9.44999981         1.00000012E-24
  -9.39999962         1.00000022E-24
  -9.35000038         1.00000022E-24
  -9.30000019         9.99997357E-25
  -9.25000000         9.99987496E-25
  -9.19999981         1.00000387E-24
  -9.14999962         1.00016874E-24
  -9.10000038         1.00039238E-24
  -9.05000019         9.99385891E-25
  -9.00000000         9.95180079E-25
  -8.94999981         9.92973438E-25
  -8.89999962         1.01683826E-24
  -8.85000038         1.08697834E-24
  -8.80000019         1.11463522E-24
  -8.75000000         8.14942520E-25
  -8.69999981         2.37553151E-26
  -8.64999962        -3.38743110E-25
  -8.60000038         2.24347387E-24
  -8.55000019         9.21100972E-24
  -8.50000000         1.44077508E-23
  -8.44999981         1.57578812E-24
  -8.39999962        -3.99210129E-23
  -8.35000038        -8.32600466E-23
  -8.30000019        -5.93924667E-23
  -8.25000000         6.87073425E-23
  -8.19999981         2.04785274E-22
  -8.14999962         1.98222431E-22
  -8.10000038         2.00133229E-22
  -8.05000019         7.79955385E-22
  -8.00000000         1.80042242E-21
  -7.94999981         3.31147778E-22
  -7.90000010        -8.55212099E-21
  -7.84999990        -2.25975436E-20
  -7.80000019        -1.79905838E-20
  -7.75000000         4.69168313E-20
  -7.69999981         1.76872192E-19
  -7.65000010         2.43503387E-19
  -7.59999990        -3.88358357E-20
  -7.55000019        -8.80934945E-19
  -7.50000000        -1.89865392E-18
  -7.44999981        -1.73407393E-18
  -7.40000010         1.31269055E-18
  -7.34999990         7.12797664E-18
  -7.30000019         1.12956112E-17
  -7.25000000         5.64309190E-18
  -7.19999981        -1.49064084E-17
  -7.15000010        -4.10093615E-17
  -7.09999990        -4.36293502E-17
  -7.05000019         1.06463075E-17
  -7.00000000         1.20698450E-16
  -6.94999981         2.13462560E-16
  -6.90000010         1.57349486E-16
  -6.84999990        -1.39269462E-16
  -6.80000019        -5.82921774E-16
  -6.75000000        -8.33116408E-16
  -6.69999981        -4.67485848E-16
  -6.65000010         6.27564911E-16
  -6.59999990         1.90113178E-15
  -6.55000019         2.23225517E-15
  -6.50000000         6.85104018E-16
  -6.44999981        -2.44356512E-15
  -6.40000010        -5.19573229E-15
  -6.34999990        -4.92399734E-15
  -6.30000019        -3.89966425E-16
  -6.25000000         6.60082908E-15
  -6.19999981         1.18355406E-14
  -6.15000010         1.16981848E-14
  -6.09999990         6.02209551E-15
  -6.05000019        -2.50384760E-15
  -6.00000000        -1.25518390E-14
  -5.94999981        -2.69154968E-14
  -5.90000010        -4.72113024E-14
  -5.84999990        -6.12467772E-14
  -5.80000019        -3.68844258E-14
  -5.75000000         5.84624173E-14
  -5.69999981         2.10535636E-13
  -5.65000010         3.17496897E-13
  -5.59999990         2.15973859E-13
  -5.55000019        -1.92398736E-13
  -5.50000000        -7.70460898E-13
  -5.44999981        -1.08611308E-12
  -5.40000010        -6.19418796E-13
  -5.34999990         7.79069463E-13
  -5.30000019         2.47058103E-12
  -5.25000000         3.10176711E-12
  -5.19999981         1.41906343E-12
  -5.15000010        -2.50635016E-12
  -5.09999990        -6.57065591E-12
  -5.05000019        -7.40459256E-12
  -5.00000000        -2.69452256E-12
  -4.94999981         6.27921933E-12
  -4.90000010         1.40857855E-11
  -4.84999990         1.39854569E-11
  -4.80000019         3.12494648E-12
  -4.75000000        -1.35447313E-11
  -4.69999981        -2.46085496E-11
  -4.65000010        -1.96113178E-11
  -4.59999990         1.77033334E-12
  -4.55000019         2.63199115E-11
  -4.50000000         3.46350414E-11
  -4.44999981         1.62295056E-11
  -4.40000010        -1.87257414E-11
  -4.34999990        -4.28049991E-11
  -4.30000019        -3.16201232E-11
  -4.25000000         1.24047560E-11
  -4.19999981         5.40276088E-11
  -4.15000010         4.87472875E-11
  -4.09999990        -1.62588016E-11
  -4.05000019        -9.70081307E-11
  -4.00000000        -1.13652150E-10
  -3.95000005        -1.49755642E-11
  -3.90000010         1.58539543E-10
  -3.84999990         2.73868900E-10
  -3.79999995         1.92213370E-10
  -3.75000000        -1.03374129E-10
  -3.70000005        -4.41662179E-10
  -3.65000010        -5.42259238E-10
  -3.59999990        -2.23076099E-10
  -3.54999995         4.01945865E-10
  -3.50000000         9.12981635E-10
  -3.45000005         8.36609948E-10
  -3.40000010         3.12676413E-11
  -3.34999990        -1.08013654E-09
  -3.29999995        -1.67718750E-09
  -3.25000000        -1.09385401E-09
  -3.20000005         5.86267812E-10
  -3.15000010         2.36875430E-09
  -3.09999990         2.87681967E-09
  -3.04999995         1.33321953E-09
  -3.00000000        -1.66872582E-09
  -2.95000005        -4.26877822E-09
  -2.90000010        -4.44962067E-09
  -2.84999990        -1.52398338E-09
  -2.79999995         3.06342884E-09
  -2.75000000         6.37539355E-09
  -2.70000005         5.86234083E-09
  -2.65000010         1.29562483E-09
  -2.59999990        -4.68915617E-09
  -2.54999995        -8.07730327E-09
  -2.50000000        -6.20098728E-09
  -2.45000005         1.37699768E-10
  -2.40000010         6.81219037E-09
  -2.34999990         8.98995456E-09
  -2.29999995         4.60898741E-09
  -2.25000000        -3.75587472E-09
  -2.20000005        -1.02233244E-08
  -2.15000010        -9.54649071E-09
  -2.09999990        -1.08170650E-09
  -2.04999995         1.01158175E-08
  -2.00000000         1.61953633E-08
  -1.95000005         1.17637144E-08
  -1.89999998        -2.00648342E-09
  -1.85000002        -1.74057782E-08
  -1.79999995        -2.46807055E-08
  -1.75000000        -1.82438331E-08
  -1.70000005        -5.29263300E-10
  -1.64999998         1.91468601E-08
  -1.60000002         3.00845748E-08
  -1.54999995         2.65368740E-08
  -1.50000000         1.08615481E-08
  -1.45000005        -8.34359248E-09
  -1.39999998        -2.16412008E-08
  -1.35000002        -2.40786431E-08
  -1.29999995        -1.72316597E-08
  -1.25000000        -7.19519511E-09
  -1.20000005        -3.25355076E-10
  -1.14999998         4.85145923E-10
  -1.10000002        -2.84603541E-09
  -1.04999995        -4.75890083E-09
  -1.00000000         1.16786203E-09
 -0.949999988         1.86990334E-08
 -0.899999976         4.53505002E-08
 -0.850000024         7.00101950E-08
 -0.800000012         7.42493356E-08
 -0.750000000         3.97375786E-08
 -0.699999988        -3.88890626E-08
 -0.649999976        -1.41782479E-07
 -0.600000024        -2.22275858E-07
 -0.550000012        -2.23550117E-07
 -0.500000000        -1.10920617E-07
 -0.449999988         9.63313624E-08
 -0.400000006         3.16511830E-07
 -0.349999994         4.35362665E-07
 -0.300000012         3.66802681E-07
 -0.250000000         1.12681548E-07
 -0.200000003        -2.19150678E-07
 -0.150000006        -4.61058477E-07
 -0.100000001        -4.79580251E-07
  -5.00000007E-02    -2.63593023E-07
   0.00000000         5.43178622E-08
   5.00000007E-02     2.70047224E-07
  0.100000001         2.40136814E-07
  0.150000006        -8.22274782E-09
  0.200000003        -2.71167721E-07
  0.250000000        -2.89492277E-07
  0.300000012         6.51884449E-08
  0.349999994         6.59554019E-07
  0.400000006         1.12682028E-06
  0.449999988         1.06648429E-06
  0.500000000         3.12186387E-07
  0.550000012        -9.00101384E-07
  0.600000024        -1.99275428E-06
  0.649999976        -2.33478181E-06
  0.699999988        -1.60875072E-06
  0.750000000        -3.77798948E-08
  0.800000012         1.68286988E-06
  0.850000024         2.73624119E-06
  0.899999976         2.62693698E-06
  0.949999988         1.45718332E-06
   1.00000000        -1.36749009E-07
   1.04999995        -1.35914809E-06
   1.10000002        -1.71817851E-06
   1.14999998        -1.29292653E-06
   1.20000005        -6.34382900E-07
   1.25000000        -3.59029428E-07
   1.29999995        -6.94797563E-07
   1.35000002        -1.28254669E-06
   1.39999998        -1.38569953E-06
   1.45000005        -4.02060266E-07
   1.50000000         1.63585776E-06
   1.54999995         3.90742025E-06
   1.60000002         5.14359181E-06
   1.64999998         4.31107492E-06
   1.70000005         1.26692737E-06
   1.75000000        -3.00553074E-06
   1.79999995        -6.75498541E-06
   1.85000002        -8.26387077E-06
   1.89999998        -6.68915754E-06
   1.95000005        -2.50208814E-06
   2.00000000         2.70879309E-06
   2.04999995         6.97446376E-06
   2.09999990         8.84547990E-06
   2.15000010         7.99938789E-06
   2.20000005         5.25785936E-06
   2.25000000         2.02475417E-06
   2.29999995        -5.43336796E-07
   2.34999990        -2.17923389E-06
   2.40000010        -3.58889406E-06
   2.45000005        -5.88194553E-06
   2.50000000        -9.60307807E-06
   2.54999995        -1.38812011E-05
   2.59999990        -1.62518063E-05
   2.65000010        -1.34612164E-05
   2.70000005        -3.09008738E-06
   2.75000000         1.46726097E-05
   2.79999995         3.60485465E-05
   2.84999990         5.42472371E-05
   2.90000010         6.17052719E-05
   2.95000005         5.31946280E-05
   3.00000000         2.83405698E-05
   3.04999995        -7.88717352E-06
   3.09999990        -4.72789106E-05
   3.15000010        -8.22766815E-05
   3.20000005        -1.09692483E-04
   3.25000000        -1.32122048E-04
   3.29999995        -1.56021430E-04
   3.34999990        -1.87309750E-04
   3.40000010        -2.26987118E-04
   3.45000005        -2.69534212E-04
   3.50000000        -3.05419177E-04
   3.54999995        -3.26570967E-04
   3.59999990        -3.31652729E-04
   3.65000010        -3.27755843E-04
   3.70000005        -3.27084796E-04
   3.75000000        -3.40276223E-04
   3.79999995        -3.70290247E-04
   3.84999990        -4.10746085E-04
   3.90000010        -4.49985964E-04
   3.95000005        -4.78552392E-04
   4.00000000        -4.95465181E-04
   4.05000019        -5.09304577E-04
   4.09999990        -5.33383805E-04
   4.15000010        -5.78161387E-04
   4.19999981        -6.45878725E-04
   4.25000000        -7.30883097E-04
   4.30000019        -8.25130614E-04
   4.34999990        -9.24680964E-04
   4.40000010        -1.03223743E-03
   4.44999981        -1.15366362E-03
   4.50000000        -1.29099994E-03
   4.55000019        -1.43752433E-03
   4.59999990        -1.57944288E-03
   4.65000010        -1.70422497E-03
   4.69999981        -1.81047327E-03
   4.75000000        -1.91229035E-03
   4.80000019        -2.03412655E-03
   4.84999990        -2.19834829E-03
   4.90000010        -2.41306494E-03
   4.94999981        -2.66822753E-03
   5.00000000        -2.94296630E-03
   5.05000019        -3.21973325E-03
   5.09999990        -3.49608785E-03
   5.15000010        -3.78631451E-03
   5.19999981        -4.11177846E-03
   5.25000000        -4.48651426E-03
   5.30000019        -4.90777846E-03
   5.34999990        -5.35788434E-03
   5.40000010        -5.81596466E-03
   5.44999981        -6.27169525E-03
   5.50000000        -6.73210574E-03
   5.55000019        -7.21776579E-03
   5.59999990        -7.75206275E-03
   5.65000010        -8.35142005E-03
   5.69999981        -9.02240537E-03
   5.75000000        -9.76552349E-03
   5.80000019        -1.05801839E-02
   5.84999990        -1.14651946E-02
   5.90000010        -1.24143222E-02
   5.94999981        -1.34123778E-02
   6.00000000        -1.44387260E-02
   6.05000019        -1.54798068E-02
   6.09999990        -1.65439248E-02
   6.15000010        -1.76668502E-02
   6.19999981        -1.89005714E-02
   6.25000000        -2.02885065E-02
   6.30000019        -2.18412727E-02
   6.34999990        -2.35294215E-02
   6.40000010        -2.53003016E-02
   6.44999981        -2.71106660E-02
   6.50000000        -2.89552249E-02
   6.55000019        -3.08725704E-02
   6.59999990        -3.29238959E-02
   6.65000010        -3.51577662E-02
   6.69999981        -3.75836864E-02
   6.75000000        -4.01714481E-02
   6.80000019        -4.28760611E-02
   6.84999990        -4.56709862E-02
   6.90000010        -4.85675335E-02
   6.94999981        -5.16084880E-02
   7.00000000        -5.48423752E-02
   7.05000019        -5.82974963E-02
   7.09999990        -6.19735532E-02
   7.15000010        -6.58545047E-02
   7.19999981        -6.99302778E-02
   7.25000000        -7.42091537E-02
   7.30000019        -7.87111446E-02
   7.34999990        -8.34487826E-02
   7.40000010        -8.84125456E-02
   7.44999981        -9.35752541E-02
   7.50000000        -9.89146903E-02
   7.55000019       -0.104438648    
   7.59999990       -0.110192560    
   7.65000010       -0.116241388    
   7.69999981       -0.122636229    
   7.75000000       -0.129387259    
   7.80000019       -0.136461794    
   7.84999990       -0.143808171    
   7.90000010       -0.151389599    
   7.94999981       -0.159205869    
   8.00000000       -0.167290926    
   8.05000019       -0.175691754    
   8.10000038       -0.184445068    
   8.14999962       -0.193566471    
   8.19999981       -0.203053936    
   8.25000000       -0.212896541    
   8.30000019       -0.223078340    
   8.35000038       -0.233576849    
   8.39999962       -0.244365305    
   8.44999981       -0.255426228    
   8.50000000       -0.266772181    
   8.55000019       -0.278456002    
   8.60000038       -0.290553451    
   8.64999962       -0.303119421    
   8.69999981       -0.316142738    
   8.75000000       -0.329534531    
   8.80000019       -0.343169600    
   8.85000038       -0.356962085    
   8.89999962       -0.370927721    
   8.94999981       -0.385184169    
   9.00000000       -0.399879932    
   9.05000019       -0.415092379    
   9.10000038       -0.430764377    
   9.14999962       -0.446728915    
   9.19999981       -0.462812066    
   9.25000000       -0.478946090    
   9.30000019       -0.495211720    
   9.35000038       -0.511774480    
   9.39999962       -0.528754830    
   9.44999981       -0.546125770    
   9.50000000       -0.563715816    
   9.55000019       -0.581322968    
   9.60000038       -0.598860085    
   9.64999962       -0.616422474    
   9.69999981       -0.634217381    
   9.75000000       -0.652395606    
   9.80000019       -0.670904756    
   9.85000038       -0.689478338    
   9.89999962       -0.707784355    
   9.94999981       -0.725640953    
   10.0000000       -0.743147254    
   10.0500002       -0.760625243    
   10.1000004       -0.778397560    
   10.1499996       -0.796546221    
   10.1999998       -0.814821482    
   10.2500000       -0.832773805    
   10.3000002       -0.850030303    
   10.3500004       -0.866528988    
   10.3999996       -0.882546246    
   10.4499998       -0.898491204    
   10.5000000       -0.914601684    
   10.5500002       -0.930751681    
   10.6000004       -0.946506023    
   10.6499996       -0.961390853    
   10.6999998       -0.975196421    
   10.7500000       -0.988102555    
   10.8000002        -1.00053704    
   10.8500004        -1.01286173    
   10.8999996        -1.02510154    
   10.9499998        -1.03690398    
   11.0000000        -1.04775560    
   11.0500002        -1.05730975    
   11.1000004        -1.06559718    
   11.1499996        -1.07297885    
   11.1999998        -1.07987475    
   11.2500000        -1.08645737    
   11.3000002        -1.09252036    
   11.3500004        -1.09760714    
   11.3999996        -1.10130656    
   11.4499998        -1.10351145    
   11.5000000        -1.10446453    
   11.5500002        -1.10456944    
   11.6000004        -1.10410261    
   11.6499996        -1.10302377    
   11.6999998        -1.10100698    
   11.7500000        -1.09766006    
   11.8000002        -1.09277642    
   11.8500004        -1.08644807    
   11.8999996        -1.07897723    
   11.9499998        -1.07065880    
   12.0000000        -1.06158924    
   12.0500002        -1.05162621    
   12.1000004        -1.04050851    
   12.1499996        -1.02804434    
   12.1999998        -1.01423109    
   12.2500000       -0.999236166    
   12.3000002       -0.983265638    
   12.3500004       -0.966421843    
   12.3999996       -0.948649764    
   12.4499998       -0.929800212    
   12.5000000       -0.909758508    
   12.5500002       -0.888545811    
   12.6000004       -0.866325617    
   12.6499996       -0.843316972    
   12.6999998       -0.819671333    
   12.7500000       -0.795392454    
   12.8000002       -0.770344317    
   12.8500004       -0.744341671    
   12.8999996       -0.717269182    
   12.9499998       -0.689167857    
   13.0000000       -0.660243213    
   13.0500002       -0.630791664    
   13.1000004       -0.601077557    
   13.1499996       -0.571221232    
   13.1999998       -0.541151285    
   13.2500000       -0.510652304    
   13.3000002       -0.479490817    
   13.3500004       -0.447559625    
   13.3999996       -0.414965391    
   13.4499998       -0.382006168    
   13.5000000       -0.349045515    
   13.5500002       -0.316350400    
   13.6000004       -0.283984214    
   13.6499996       -0.251816124    
   13.6999998       -0.219637096    
   13.7500000       -0.187306508    
   13.8000002       -0.154839158    
   13.8500004       -0.122385576    
   13.8999996        -9.01349261E-02
   13.9499998        -5.82192093E-02
   14.0000000        -2.66880821E-02
   14.0500002         4.43847757E-03
   14.1000004         3.50970589E-02
   14.1499996         6.51610792E-02
   14.1999998         9.45017263E-02
   14.2500000        0.123083845    
   14.3000002        0.151011154    
   14.3500004        0.178465039    
   14.3999996        0.205563113    
   14.4499998        0.232235029    
   14.5000000        0.258215308    
   14.5500002        0.283175886    
   14.6000004        0.306917280    
   14.6499996        0.329485983    
   14.6999998        0.351128399    
   14.7500000        0.372105747    
   14.8000002        0.392498255    
   14.8500004        0.412138730    
   14.8999996        0.430727988    
   14.9499998        0.448050052    
   15.0000000        0.464128762    
   15.0500002        0.479205459    
   15.1000004        0.493547440    
   15.1499996        0.507226288    
   15.1999998        0.520035207    
   15.2500000        0.531618357    
   15.3000002        0.541729510    
   15.3500004        0.550433517    
   15.3999996        0.558095634    
   15.4499998        0.565149307    
   15.5000000        0.571797788    
   15.5500002        0.577860057    
   15.6000004        0.582878947    
   15.6499996        0.586426258    
   15.6999998        0.588398933    
   15.7500000        0.589102089    
   15.8000002        0.589060307    
   15.8500004        0.588689327    
   15.8999996        0.588052511    
   15.9499998        0.586861789    
   16.0000000        0.584707737    
   16.0499992        0.581344068    
   16.1000004        0.576828778    
   16.1499996        0.571441233    
   16.2000008        0.565465689    
   16.2500000        0.559019923    
   16.2999992        0.552052259    
   16.3500004        0.544482410    
   16.3999996        0.536341548    
   16.4500008        0.527774930    
   16.5000000        0.518899620    
   16.5499992        0.509648561    
   16.6000004        0.499763340    
   16.6499996        0.488983452    
   16.7000008        0.477305382    
   16.7500000        0.465097159    
   16.7999992        0.452936769    
   16.8500004        0.441248596    
   16.8999996        0.429986477    
   16.9500008        0.418612391    
   17.0000000        0.406426489    
   17.0499992        0.393047452    
   17.1000004        0.378713727    
   17.1499996        0.364179850    
   17.2000008        0.350256830    
   17.2500000        0.337297946    
   17.2999992        0.324978888    
   17.3500004        0.312524050    
   17.3999996        0.299225777    
   17.4500008        0.284906715    
   17.5000000        0.270020247    
   17.5499992        0.255337507    
   17.6000004        0.241448551    
   17.6499996        0.228415146    
   17.7000008        0.215790510    
   17.7500000        0.202961341    
   17.7999992        0.189559862    
   17.8500004        0.175671548    
   17.8999996        0.161729082    
   17.9500008        0.148199722    
   18.0000000        0.135294884    
   18.0499992        0.122883447    
   18.1000004        0.110631593    
   18.1499996         9.82428640E-02
   18.2000008         8.56306255E-02
   18.2500000         7.29306266E-02
   18.2999992         6.03804477E-02
   18.3500004         4.81691509E-02
   18.3999996         3.63516882E-02
   18.4500008         2.48569772E-02
   18.5000000         1.35542266E-02
   18.5499992         2.32222443E-03
   18.6000004        -8.91095586E-03
   18.6499996        -2.01575123E-02
   18.7000008        -3.13747823E-02
   18.7500000        -4.24795114E-02
   18.7999992        -5.33760078E-02
   18.8500004        -6.39977828E-02
   18.8999996        -7.43452683E-02
   18.9500008        -8.44927058E-02
   19.0000000        -9.45509523E-02
   19.0499992       -0.104603484    
   19.1000004       -0.114656597    
   19.1499996       -0.124639295    
   19.2000008       -0.134454384    
   19.2500000       -0.144045517    
   19.2999992       -0.153432921    
   19.3500004       -0.162694529    
   19.3999996       -0.171909690    
   19.4500008       -0.181108713    
   19.5000000       -0.190263763    
   19.5499992       -0.199322253    
   19.6000004       -0.208251327    
   19.6499996       -0.217056319    
   19.7000008       -0.225760549    
   19.7500000       -0.234367415    
   19.7999992       -0.242840663    
   19.8500004       -0.251124263    
   19.8999996       -0.259190083    
   19.9500008       -0.267076641    
   20.0000000       -0.274884790    
   20.0499992       -0.282724977    
   20.1000004       -0.290644765    
   20.1499996       -0.298581749    
   20.2000008       -0.306375742    
   20.2500000       -0.313838929    
   20.2999992       -0.320849866    
   20.3500004       -0.327420771    
   20.3999996       -0.333698839    
   20.4500008       -0.339895934    
   20.5000000       -0.346178949    
   20.5499992       -0.352577120    
   20.6000004       -0.358958453    
   20.6499996       -0.365091890    
   20.7000008       -0.370764107    
   20.7500000       -0.375885129    
   20.7999992       -0.380519956    
   20.8500004       -0.384827405    
   20.8999996       -0.388946384    
   20.9500008       -0.392906457    
   21.0000000       -0.396622777    
   21.0499992       -0.399973571    
   21.1000004       -0.402898371    
   21.1499996       -0.405436695    
   21.2000008       -0.407673806    
   21.2500000       -0.409636021    
   21.2999992       -0.411226153    
   21.3500004       -0.412263662    
   21.3999996       -0.412612468    
   21.4500008       -0.412301272    
   21.5000000       -0.411532193    
   21.5499992       -0.410550654    
   21.6000004       -0.409457654    
   21.6499996       -0.408101976    
   21.7000008       -0.406144649    
   21.7500000       -0.403267562    
   21.7999992       -0.399388522    
   21.8500004       -0.394731343    
   21.8999996       -0.389694393    
   21.9500008       -0.384600163    
   22.0000000       -0.379490048    
   22.0499992       -0.374097407    
   22.1000004       -0.368010968    
   22.1499996       -0.360917300    
   22.2000008       -0.352770448    
   22.2500000       -0.343796164    
   22.2999992       -0.334346950    
   22.3500004       -0.324709475    
   22.3999996       -0.314972758    
   22.4500008       -0.305013299    
   22.5000000       -0.294581294    
   22.5499992       -0.283431888    
   22.6000004       -0.271438807    
   22.6499996       -0.258650571    
   22.7000008       -0.245270401    
   22.7500000       -0.231566682    
   22.7999992       -0.217747331    
   22.8500004       -0.203856096    
   22.8999996       -0.189750969    
   22.9500008       -0.175189227    
   23.0000000       -0.159979925    
   23.0499992       -0.144113645    
   23.1000004       -0.127783686    
   23.1499996       -0.111279733    
   23.2000008        -9.48219523E-02
   23.2500000        -7.84464777E-02
   23.2999992        -6.20169677E-02
   23.3500004        -4.53460328E-02
   23.3999996        -2.83336733E-02
   23.4500008        -1.10255023E-02
   23.5000000         6.43714005E-03
   23.5499992         2.39182822E-02
   23.6000004         4.13512737E-02
   23.6499996         5.87210208E-02
   23.7000008         7.59979561E-02
   23.7500000         9.30995867E-02
   23.7999992        0.109925851    
   23.8500004        0.126440600    
   23.8999996        0.142719671    
   23.9500008        0.158907250    
   24.0000000        0.175099179    
   24.0499992        0.191241801    
   24.1000004        0.207132727    
   24.1499996        0.222533762    
   24.2000008        0.237315118    
   24.2500000        0.251520783    
   24.2999992        0.265303075    
   24.3500004        0.278777421    
   24.3999996        0.291912556    
   24.4500008        0.304543406    
   24.5000000        0.316496760    
   24.5499992        0.327728868    
   24.6000004        0.338361233    
   24.6499996        0.348580778    
   24.7000008        0.358478189    
   24.7500000        0.367949337    
   24.7999992        0.376741081    
   24.8500004        0.384613961    
   24.8999996        0.391505092    
   24.9500008        0.397571772    
   25.0000000        0.403081685    
   25.0499992        0.408227623    
   25.1000004        0.412996918    
   25.1499996        0.417185336    
   25.2000008        0.420540929    
   25.2500000        0.422933787    
   25.2999992        0.424434423    
   25.3500004        0.425254583    
   25.3999996        0.425601929    
   25.4500008        0.425554276    
   25.5000000        0.425034553    
   25.5499992        0.423889577    
   25.6000004        0.422003001    
   25.6499996        0.419361860    
   25.7000008        0.416043073    
   25.7500000        0.412150949    
   25.7999992        0.407765746    
   25.8500004        0.402937025    
   25.8999996        0.397706270    
   25.9500008        0.392116278    
   26.0000000        0.386185467    
   26.0499992        0.379873097    
   26.1000004        0.373085290    
   26.1499996        0.365744680    
   26.2000008        0.357883781    
   26.2500000        0.349682182    
   26.2999992        0.341392636    
   26.3500004        0.333185107    
   26.3999996        0.325017184    
   26.4500008        0.316641331    
   26.5000000        0.307770789    
   26.5499992        0.298304588    
   26.6000004        0.288451433    
   26.6499996        0.278646857    
   26.7000008        0.269300789    
   26.7500000        0.260539293    
   26.7999992        0.252120137    
   26.8500004        0.243588254    
   26.8999996        0.234574452    
   26.9500008        0.225041211    
   27.0000000        0.215315700    
   27.0499992        0.205894619    
   27.1000004        0.197154224    
   27.1499996        0.189151406    
   27.2000008        0.181630790    
   27.2500000        0.174213782    
   27.2999992        0.166637331    
   27.3500004        0.158896580    
   27.3999996        0.151222736    
   27.4500008        0.143933117    
   27.5000000        0.137255773    
   27.5499992        0.131227180    
   27.6000004        0.125704512    
   27.6499996        0.120467238    
   27.7000008        0.115342453    
   27.7500000        0.110288844    
   27.7999992        0.105403483    
   27.8500004        0.100857764    
   27.8999996         9.68023688E-02
   27.9500008         9.32931602E-02
   28.0000000         9.02751237E-02
   28.0499992         8.76269341E-02
   28.1000004         8.52340162E-02
   28.1499996         8.30436572E-02
   28.2000008         8.10723379E-02
   28.2500000         7.93699548E-02
   28.2999992         7.79740885E-02
   28.3500004         7.68878087E-02
   28.3999996         7.60903805E-02
   28.4500008         7.55615011E-02
   28.5000000         7.52919689E-02
   28.5499992         7.52707422E-02
   28.6000004         7.54640102E-02
   28.6499996         7.58111775E-02
   28.7000008         7.62474164E-02
   28.7500000         7.67369419E-02
   28.7999992         7.72891715E-02
   28.8500004         7.79427737E-02
   28.8999996         7.87292123E-02
   28.9500008         7.96436295E-02
   29.0000000         8.06432590E-02
   29.0499992         8.16697627E-02
   29.1000004         8.26737657E-02
   29.1499996         8.36224481E-02
   29.2000008         8.44900310E-02
   29.2500000         8.52466151E-02
   29.2999992         8.58597234E-02
   29.3500004         8.63070488E-02
   29.3999996         8.65859389E-02
   29.4500008         8.67081061E-02
   29.5000000         8.66825506E-02
   29.5499992         8.65012705E-02
   29.6000004         8.61387700E-02
   29.6499996         8.55621025E-02
   29.7000008         8.47388133E-02
   29.7500000         8.36356878E-02
   29.7999992         8.22151080E-02
   29.8500004         8.04423988E-02
   29.8999996         7.83057958E-02
   29.9500008         7.58327171E-02
   30.0000000         7.30797648E-02
   30.0499992         7.00927079E-02
   30.1000004         6.68614879E-02
   30.1499996         6.33088648E-02
   30.2000008         5.93308322E-02
   30.2500000         5.48662506E-02
   30.2999992         4.99447249E-02
   30.3500004         4.46732491E-02
   30.3999996         3.91673185E-02
   30.4500008         3.34762111E-02