  -10.0000000         1.00000002E-24
  -9.94999981         1.00000002E-24
  -9.89999962         1.00000012E-24
  -9.85000038         1.00000022E-24
  -9.80000019         1.00000022E-24
  -9.75000000         1.00000012E-24
  -9.69999981         1.00000002E-24
  -9.64999962         1.00000002E-24
  -9.60000038         1.00000022E-24
  -9.55000019         1.00000032E-24
  -9.50000000         1.00000041E-24
  -9.44999981         1.00000041E-24
  -9.39999962         1.00000032E-24
  -9.35000038         1.00000061E-24
  -9.30000019         9.99999428E-25
  -9.25000000         9.99995286E-25
  -9.19999981         1.00002694E-24
  -9.14999962         1.00019645E-24
  -9.10000038         1.00026232E-24
  -9.05000019         9.98702146E-25
  -9.00000000         9.94240250E-25
  -8.94999981         9.95247428E-25
  -8.89999962         1.02744055E-24
  -8.85000038         1.09367104E-24
  -8.80000019         1.05802340E-24
  -8.75000000         6.29098083E-25
  -8.69999981        -1.40288509E-25
  -8.64999962         1.28566775E-25
  -8.60000038         3.91274851E-24
  -8.55000019         1.07259666E-23
  -8.50000000         1.09062103E-23
  -8.44999981        -1.15172746E-23
  -8.39999962        -5.52050667E-23
  -8.35000038        -7.34890071E-23
  -8.30000019         2.43196844E-24
  -8.25000000         1.62015849E-22
  -8.19999981         2.54947955E-22
  -8.14999962         1.86397558E-22
  -8.10000038         2.62108616E-22
  -8.05000019         8.75347828E-22
  -8.00000000         8.17183612E-22
  -7.94999981        -4.05011256E-21
  -7.90000010        -1.64799743E-20
  -7.84999990        -2.48910214E-20
  -7.80000019         5.94961651E-21
  -7.75000000         1.08835527E-19
  -7.69999981         2.32751590E-19
  -7.65000010         1.65247280E-19
  -7.59999990        -3.74591558E-19
  -7.55000019        -1.33073136E-18
  -7.50000000        -1.78702962E-18
  -7.44999981        -6.08977605E-20
  -7.40000010         4.74398711E-18
  -7.34999990         1.00375952E-17
  -7.30000019         8.52377278E-18
  -7.25000000        -7.54830268E-18
  -7.19999981        -3.56396392E-17
  -7.15000010        -5.29558712E-17
  -7.09999990        -2.23982146E-17
  -7.05000019         7.48034119E-17
  -7.00000000         1.93227935E-16
  -6.94999981         2.09905524E-16
  -6.90000010        -5.34001913E-18
  -6.84999990        -4.39788029E-16
  -6.80000019        -8.14565804E-16
  -6.75000000        -6.59372904E-16
  -6.69999981         3.29966026E-16
  -6.65000010         1.82432220E-15
  -6.59999990         2.71701954E-15
  -6.55000019         1.69398426E-15
  -6.50000000        -1.59847367E-15
  -6.44999981        -5.61799049E-15
  -6.40000010        -7.29980363E-15
  -6.34999990        -4.04700823E-15
  -6.30000019         3.85314441E-15
  -6.25000000         1.25125731E-14
  -6.19999981         1.65926351E-14
  -6.15000010         1.28604462E-14
  -6.09999990         1.78858312E-15
  -6.05000019        -1.45495425E-14
  -6.00000000        -3.51682998E-14
  -5.94999981        -5.72283242E-14
  -5.90000010        -6.61795719E-14
  -5.84999990        -3.02187135E-14
  -5.80000019         8.16854654E-14
  -5.75000000         2.52223725E-13
  -5.69999981         3.69820385E-13
  -5.65000010         2.49067314E-13
  -5.59999990        -2.35481041E-13
  -5.55000019        -9.48578672E-13
  -5.50000000        -1.39468526E-12
  -5.44999981        -9.18121698E-13
  -5.40000010         7.65598088E-13
  -5.34999990         3.00475291E-12
  -5.30000019         4.16190866E-12
  -5.25000000         2.48487754E-12
  -5.19999981        -2.34713182E-12
  -5.15000010        -8.05978461E-12
  -5.09999990        -1.03196375E-11
  -5.05000019        -5.42275556E-12
  -5.00000000         6.17522743E-12
  -4.94999981         1.82407735E-11
  -4.90000010         2.14003867E-11
  -4.84999990         9.61986480E-12
  -4.80000019        -1.35028013E-11
  -4.75000000        -3.41533711E-11
  -4.69999981        -3.60632565E-11
  -4.65000010        -1.28824191E-11
  -4.59999990         2.39354005E-11
  -4.55000019         4.99028041E-11
  -4.50000000         4.44734423E-11
  -4.44999981         8.73992979E-12
  -4.40000010        -3.16622562E-11
  -4.34999990        -4.49003577E-11
  -4.30000019        -2.10354859E-11
  -4.25000000         1.43561916E-11
  -4.19999981         1.86960360E-11
  -4.15000010        -2.53838998E-11
  -4.09999990        -7.95298619E-11
  -4.05000019        -6.77585418E-11
  -4.00000000         5.50441671E-11
  -3.95000005         2.33471714E-10
  -3.90000010         3.12819326E-10
  -3.84999990         1.43877479E-10
  -3.79999995        -2.64162442E-10
  -3.75000000        -6.69622857E-10
  -3.70000005        -7.09754422E-10
  -3.65000010        -1.75135809E-10
  -3.59999990         7.35466132E-10
  -3.54999995         1.41745893E-09
  -3.50000000         1.21888044E-09
  -3.45000005        -2.41845866E-11
  -3.40000010        -1.67316860E-09
  -3.34999990        -2.53855181E-09
  -3.29999995        -1.67427916E-09
  -3.25000000         7.74080411E-10
  -3.20000005         3.35255845E-09
  -3.15000010         4.07820711E-09
  -3.09999990         1.86424121E-09
  -3.04999995        -2.38240538E-09
  -3.00000000        -5.95471894E-09
  -2.95000005        -5.99821659E-09
  -2.90000010        -1.66564440E-09
  -2.84999990         4.80071094E-09
  -2.79999995         9.13066600E-09
  -2.75000000         7.84200171E-09
  -2.70000005         9.72582570E-10
  -2.65000010        -7.38632444E-09
  -2.59999990        -1.15337508E-08
  -2.54999995        -8.17526669E-09
  -2.50000000         8.38382086E-10
  -2.45000005         9.33949806E-09
  -2.40000010         1.10795559E-08
  -2.34999990         4.52353266E-09
  -2.29999995        -5.48157031E-09
  -2.25000000        -1.08847074E-08
  -2.20000005        -6.56611210E-09
  -2.15000010         5.07701747E-09
  -2.09999990         1.49948072E-08
  -2.04999995         1.38905083E-08
  -2.00000000        -1.65374853E-10
  -1.95000005        -1.88408045E-08
  -1.89999998        -2.83907156E-08
  -1.85000002        -1.95524201E-08
  -1.79999995         4.58116567E-09
  -1.75000000         2.91549824E-08
  -1.70000005         3.72631028E-08
  -1.64999998         2.23718679E-08
  -1.60000002        -5.86093263E-09
  -1.54999995        -2.76293104E-08
  -1.50000000        -2.74549379E-08
  -1.45000005        -6.63359456E-09
  -1.39999998         1.64276344E-08
  -1.35000002         1.96607708E-08
  -1.29999995        -4.50774174E-09
  -1.25000000        -4.02799536E-08
  -1.20000005        -5.73123771E-08
  -1.14999998        -3.27507337E-08
  -1.10000002         2.90203683E-08
  -1.04999995         9.46021075E-08
  -1.00000000         1.21431498E-07
 -0.949999988         8.66704539E-08
 -0.899999976         4.37123981E-09
 -0.850000024        -8.26853679E-08
 -0.800000012        -1.31656009E-07
 -0.750000000        -1.27770562E-07
 -0.699999988        -9.01148454E-08
 -0.649999976        -5.01154851E-08
 -0.600000024        -2.04024602E-08
 -0.550000012         1.81101480E-08
 -0.500000000         9.57372350E-08
 -0.449999988         2.13156710E-07
 -0.400000006         3.15339122E-07
 -0.349999994         3.11147062E-07
 -0.300000012         1.36852591E-07
 -0.250000000        -1.77488388E-07
 -0.200000003        -4.94139556E-07
 -0.150000006        -6.33236766E-07
 -0.100000001        -4.87488023E-07
  -5.00000007E-02    -1.09646052E-07
   0.00000000         2.99187434E-07
   5.00000007E-02     5.10532573E-07
  0.100000001         4.26860680E-07
  0.150000006         1.63403357E-07
  0.200000003        -2.20903740E-08
  0.250000000         7.67009922E-08
  0.300000012         4.26599485E-07
  0.349999994         7.22512254E-07
  0.400000006         5.69485223E-07
  0.449999988        -2.14907885E-07
  0.500000000        -1.38242763E-06
  0.550000012        -2.30278943E-06
  0.600000024        -2.30089995E-06
  0.649999976        -1.10053588E-06
  0.699999988         9.13927067E-07
  0.750000000         2.82414817E-06
  0.800000012         3.66176528E-06
  0.850000024         2.97335350E-06
  0.899999976         1.10755718E-06
  0.949999988        -9.80089908E-07
   1.00000000        -2.30249543E-06
   1.04999995        -2.43439240E-06
   1.10000002        -1.73158082E-06
   1.14999998        -1.02072477E-06
   1.20000005        -9.61736305E-07
   1.25000000        -1.52185021E-06
   1.29999995        -1.94499694E-06
   1.35000002        -1.27343651E-06
   1.39999998         9.07149683E-07
   1.45000005         4.00785575E-06
   1.50000000         6.60959313E-06
   1.54999995         7.20924072E-06
   1.60000002         5.09470919E-06
   1.64999998         8.05077093E-07
   1.70000005        -4.11018709E-06
   1.75000000        -7.87484987E-06
   1.79999995        -9.32360581E-06
   1.85000002        -8.30726640E-06
   1.89999998        -5.49960441E-06
   1.95000005        -1.84291457E-06
   2.00000000         1.93180949E-06
   2.04999995         5.40754900E-06
   2.09999990         8.24788094E-06
   2.15000010         9.94602033E-06
   2.20000005         9.86760460E-06
   2.25000000         7.61781894E-06
   2.29999995         3.44403929E-06
   2.34999990        -1.69816417E-06
   2.40000010        -6.54485848E-06
   2.45000005        -1.01314972E-05
   2.50000000        -1.21433968E-05
   2.54999995        -1.27218027E-05
   2.59999990        -1.18995376E-05
   2.65000010        -9.22015442E-06
   2.70000005        -4.03838476E-06
   2.75000000         3.53494625E-06
   2.79999995         1.17319923E-05
   2.84999990         1.71906504E-05
   2.90000010         1.64078556E-05
   2.95000005         8.01663009E-06
   3.00000000        -5.50170444E-06
   3.04999995        -1.80304414E-05
   3.09999990        -2.22781473E-05
   3.15000010        -1.33340263E-05
   3.20000005         8.75523256E-06
   3.25000000         3.90800997E-05
   3.29999995         7.07341169E-05
   3.34999990         9.87132444E-05
   3.40000010         1.22292506E-04
   3.45000005         1.44210455E-04
   3.50000000         1.67132457E-04
   3.54999995         1.89872168E-04
   3.59999990         2.06289624E-04
   3.65000010         2.08186000E-04
   3.70000005         1.90799750E-04
   3.75000000         1.57470087E-04
   3.79999995         1.20152967E-04
   3.84999990         9.48629677E-05
   3.90000010         9.43276900E-05
   3.95000005         1.22069643E-04
   4.00000000         1.71409672E-04
   4.05000019         2.29879151E-04
   4.09999990         2.86160706E-04
   4.15000010         3.35185410E-04
   4.19999981         3.78419645E-04
   4.25000000         4.19736287E-04
   4.30000019         4.60288342E-04
   4.34999990         4.96387482E-04
   4.40000010         5.22117189E-04
   4.44999981         5.34865947E-04
   4.50000000         5.39669127E-04
   4.55000019         5.48878859E-04
   4.59999990         5.76865918E-04
   4.65000010         6.32969954E-04
   4.69999981         7.17250514E-04
   4.75000000         8.21731985E-04
   4.80000019         9.36064986E-04
   4.84999990         1.05351326E-03
   4.90000010         1.17312162E-03
   4.94999981         1.29689509E-03
   5.00000000         1.42468128E-03
   5.05000019         1.55131030E-03
   5.09999990         1.66893890E-03
   5.15000010         1.77350163E-03
   5.19999981         1.87065196E-03
   5.25000000         1.97629444E-03
   5.30000019         2.11022771E-03
   5.34999990         2.28628982E-03
   5.40000010         2.50522839E-03
   5.44999981         2.75511923E-03
   5.50000000         3.01926187E-03
   5.55000019         3.28643457E-03
   5.59999990         3.55676725E-03
   5.65000010         3.83956847E-03
   5.69999981         4.14512493E-03
   5.75000000         4.47675819E-03
   5.80000019         4.82912175E-03
   5.84999990         5.19402977E-03
   5.90000010         5.56933042E-03
   5.94999981         5.96381025E-03
   6.00000000         6.39385451E-03
   6.05000019         6.87371381E-03
   6.09999990         7.40633812E-03
   6.15000010         7.98180047E-03
   6.19999981         8.58505908E-03
   6.25000000         9.20783821E-03
   6.30000019         9.85592697E-03
   6.34999990         1.05460733E-02
   6.40000010         1.12942159E-02
   6.44999981         1.21036097E-02
   6.50000000         1.29622249E-02
   6.55000019         1.38525376E-02
   6.59999990         1.47675723E-02
   6.65000010         1.57214589E-02
   6.69999981         1.67455096E-02
   6.75000000         1.78705323E-02
   6.80000019         1.91063490E-02
   6.84999990         2.04329062E-02
   6.90000010         2.18106695E-02
   6.94999981         2.32052635E-02
   7.00000000         2.46110763E-02
   7.05000019         2.60580163E-02
   7.09999990         2.75960546E-02
   7.15000010         2.92667691E-02
   7.19999981         3.10801007E-02
   7.25000000         3.30115706E-02
   7.30000019         3.50217819E-02
   7.34999990         3.70851681E-02
   7.40000010         3.92086804E-02
   7.44999981         4.14278768E-02
   7.50000000         4.37833034E-02
   7.55000019         4.62934934E-02
   7.59999990         4.89431880E-02
   7.65000010         5.16948700E-02
   7.69999981         5.45155592E-02
   7.75000000         5.74004836E-02
   7.80000019         6.03773817E-02
   7.84999990         6.34890124E-02
   7.90000010         6.67664260E-02
   7.94999981         7.02116191E-02
   8.00000000         7.38012046E-02
   8.05000019         7.75073394E-02
   8.10000038         8.13201442E-02
   8.14999962         8.52550045E-02
   8.19999981         8.93397108E-02
   8.25000000         9.35916528E-02
   8.30000019         9.80025381E-02
   8.35000038        0.102543160    
   8.39999962        0.107185267    
   8.44999981        0.111924775    
   8.50000000        0.116788648    
   8.55000019        0.121818908    
   8.60000038        0.127044171    
   8.64999962        0.132458791    
   8.69999981        0.138024911    
   8.75000000        0.143697008    
   8.80000019        0.149452299    
   8.85000038        0.155305371    
   8.89999962        0.161296174    
   8.94999981        0.167459011    
   9.00000000        0.173793823    
   9.05000019        0.180260420    
   9.10000038        0.186800286    
   9.14999962        0.193371907    
   9.19999981        0.199976116    
   9.25000000        0.206654131    
   9.30000019        0.213460222    
   9.35000038        0.220426276    
   9.39999962        0.227541462    
   9.44999981        0.234758183    
   9.50000000        0.242018536    
   9.55000019        0.249282345    
   9.60000038        0.256539613    
   9.64999962        0.263802141    
   9.69999981        0.271083832    
   9.75000000        0.278385639    
   9.80000019        0.285694033    
   9.85000038        0.292991251    
   9.89999962        0.300265878    
   9.94999981        0.307513624    
   10.0000000        0.314728230    
   10.0500002        0.321890622    
   10.1000004        0.328967661    
   10.1499996        0.335923105    
   10.1999998        0.342733532    
   10.2500000        0.349397272    
   10.3000002        0.355927616    
   10.3500004        0.362335026    
   10.3999996        0.368609637    
   10.4499998        0.374718338    
   10.5000000        0.380617589    
   10.5500002        0.386273861    
   10.6000004        0.391675889    
   10.6499996        0.396829933    
   10.6999998        0.401741654    
   10.7500000        0.406398326    
   10.8000002        0.410765648    
   10.8500004        0.414802134    
   10.8999996        0.418480575    
   10.9499998        0.421800345    
   11.0000000        0.424780160    
   11.0500002        0.427434742    
   11.1000004        0.429752141    
   11.1499996        0.431688845    
   11.1999998        0.433187634    
   11.2500000        0.434208483    
   11.3000002        0.434750766    
   11.3500004        0.434851140    
   11.3999996        0.434556156    
   11.4499998        0.433886200    
   11.5000000        0.432813913    
   11.5500002        0.431271851    
   11.6000004        0.429186106    
   11.6499996        0.426515967    
   11.6999998        0.423275113    
   11.7500000        0.419521451    
   11.8000002        0.415321499    
   11.8500004        0.410710782    
   11.8999996        0.405674160    
   11.9499998        0.400157005    
   12.0000000        0.394099444    
   12.0500002        0.387472242    
   12.1000004        0.380292922    
   12.1499996        0.372612983    
   12.1999998        0.364486128    
   12.2500000        0.355938166    
   12.3000002        0.346957475    
   12.3500004        0.337510914    
   12.3999996        0.327573240    
   12.4499998        0.317151368    
   12.5000000        0.306286573    
   12.5500002        0.295034736    
   12.6000004        0.283437550    
   12.6499996        0.271504074    
   12.6999998        0.259214580    
   12.7500000        0.246543765    
   12.8000002        0.233487591    
   12.8500004        0.220076829    
   12.8999996        0.206368744    
   12.9499998        0.192423195    
   13.0000000        0.178279161    
   13.0500002        0.163946703    
   13.1000004        0.149418265    
   13.1499996        0.134690568    
   13.1999998        0.119781144    
   13.2500000        0.104728714    
   13.3000002         8.95779580E-02
   13.3500004         7.43607953E-02
   13.3999996         5.90888001E-02
   13.4499998         4.37628962E-02
   13.5000000         2.83938497E-02
   13.5500002         1.30181722E-02
   13.6000004        -2.30374304E-03
   13.6499996        -1.75083093E-02
   13.6999998        -3.25554907E-02
   13.7500000        -4.74429838E-02
   13.8000002        -6.21963590E-02
   13.8500004        -7.68393874E-02
   13.8999996        -9.13631171E-02
   13.9499998       -0.105714336    
   14.0000000       -0.119812526    
   14.0500002       -0.133585572    
   14.1000004       -0.147001609    
   14.1499996       -0.160075784    
   14.1999998       -0.172847241    
   14.2500000       -0.185340494    
   14.3000002       -0.197537094    
   14.3500004       -0.209376156    
   14.3999996       -0.220784113    
   14.4499998       -0.231714353    
   14.5000000       -0.242170453    
   14.5500002       -0.252196163    
   14.6000004       -0.261837989    
   14.6499996       -0.271102905    
   14.6999998       -0.279940546    
   14.7500000       -0.288262784    
   14.8000002       -0.295992404    
   14.8500004       -0.303111136    
   14.8999996       -0.309676677    
   14.9499998       -0.315793544    
   15.0000000       -0.321550906    
   15.0500002       -0.326962888    
   15.1000004       -0.331948698    
   15.1499996       -0.336369753    
   15.1999998       -0.340106368    
   15.2500000       -0.343130291    
   15.3000002       -0.345527887    
   15.3500004       -0.347456366    
   15.3999996       -0.349055827    
   15.4499998       -0.350370318    
   15.5000000       -0.351327538    
   15.5500002       -0.351789951    
   15.6000004       -0.351645380    
   15.6499996       -0.350878090    
   15.6999998       -0.349574924    
   15.7500000       -0.347865433    
   15.8000002       -0.345839322    
   15.8500004       -0.343499094    
   15.8999996       -0.340778202    
   15.9499998       -0.337607890    
   16.0000000       -0.333981365    
   16.0499992       -0.329968363    
   16.1000004       -0.325672477    
   16.1499996       -0.321164519    
   16.2000008       -0.316442460    
   16.2500000       -0.311444253    
   16.2999992       -0.306100041    
   16.3500004       -0.300383806    
   16.3999996       -0.294329703    
   16.4500008       -0.288009495    
   16.5000000       -0.281495869    
   16.5499992       -0.274840295    
   16.6000004       -0.268074006    
   16.6499996       -0.261216968    
   16.7000008       -0.254277378    
   16.7500000       -0.247239932    
   16.7999992       -0.240062162    
   16.8500004       -0.232696667    
   16.8999996       -0.225133255    
   16.9500008       -0.217429832    
   17.0000000       -0.209698528    
   17.0499992       -0.202045932    
   17.1000004       -0.194506139    
   17.1499996       -0.187020674    
   17.2000008       -0.179488540    
   17.2500000       -0.171854496    
   17.2999992       -0.164167687    
   17.3500004       -0.156558856    
   17.3999996       -0.149147317    
   17.4500008       -0.141947731    
   17.5000000       -0.134854525    
   17.5499992       -0.127724722    
   17.6000004       -0.120500572    
   17.6499996       -0.113275275    
   17.7000008       -0.106243134    
   17.7500000        -9.95644778E-02
   17.7999992        -9.32468250E-02
   17.8500004        -8.71376917E-02
   17.8999996        -8.10416564E-02
   17.9500008        -7.48762935E-02
   18.0000000        -6.87463656E-02
   18.0499992        -6.28746673E-02
   18.1000004        -5.74376844E-02
   18.1499996        -5.24305701E-02
   18.2000008        -4.76673469E-02
   18.2500000        -4.29205261E-02
   18.2999992        -3.80969085E-02
   18.3500004        -3.33165489E-02
   18.3999996        -2.88336277E-02
   18.4500008        -2.48571616E-02
   18.5000000        -2.14043371E-02
   18.5499992        -1.82937235E-02
   18.6000004        -1.52799888E-02
   18.6499996        -1.22278044E-02
   18.7000008        -9.19842906E-03
   18.7500000        -6.39274297E-03
   18.7999992        -4.00218554E-03
   18.8500004        -2.08161701E-03
   18.8999996        -5.31938160E-04
   18.9500008         8.08093057E-04
   19.0000000         2.04057968E-03
   19.0499992         3.14889196E-03
   19.1000004         4.03313013E-03
   19.1499996         4.59868414E-03
   19.2000008         4.82270308E-03
   19.2500000         4.75248182E-03
   19.2999992         4.45024576E-03
   19.3500004         3.93859250E-03
   19.3999996         3.19099380E-03
   19.4500008         2.16726796E-03
   19.5000000         8.56453320E-04
   19.5499992        -7.10860826E-04
   19.6000004        -2.48697191E-03
   19.6499996        -4.44261730E-03
   19.7000008        -6.58344990E-03
   19.7500000        -8.93957354E-03
   19.7999992        -1.15445442E-02
   19.8500004        -1.44233508E-02
   19.8999996        -1.75914932E-02
   19.9500008        -2.10515261E-02
   20.0000000        -2.47787479E-02
   20.0499992        -2.87089348E-02
   20.1000004        -3.27532180E-02
   20.1499996        -3.68478559E-02
   20.2000008        -4.10099551E-02
   20.2500000        -4.53485735E-02
   20.2999992        -5.00033610E-02
   20.3500004        -5.50406687E-02
   20.3999996        -6.03839718E-02
   20.4500008        -6.58442527E-02
   20.5000000        -7.12446868E-02
   20.5499992        -7.65535980E-02
   20.6000004        -8.19192082E-02
   20.6499996        -8.75657722E-02
   20.7000008        -9.36190188E-02
   20.7500000        -9.99931246E-02
   20.7999992       -0.106433913    
   20.8500004       -0.112694949    
   20.8999996       -0.118716039    
   20.9500008       -0.124664858    
   21.0000000       -0.130805433    
   21.0499992       -0.137293309    
   21.1000004       -0.144055948    
   21.1499996       -0.150850907    
   21.2000008       -0.157451451    
   21.2500000       -0.163808659    
   21.2999992       -0.170060992    
   21.3500004       -0.176390007    
   21.3999996       -0.182848856    
   21.4500008       -0.189310238    
   21.5000000       -0.195577472    
   21.5499992       -0.201559886    
   21.6000004       -0.207356915    
   21.6499996       -0.213171139    
   21.7000008       -0.219118223    
   21.7500000       -0.225095928    
   21.7999992       -0.230831534    
   21.8500004       -0.236079663    
   21.8999996       -0.240812555    
   21.9500008       -0.245243907    
   22.0000000       -0.249658778    
   22.0499992       -0.254181832    
   22.1000004       -0.258669138    
   22.1499996       -0.262812436    
   22.2000008       -0.266372085    
   22.2500000       -0.269351304    
   22.2999992       -0.271972388    
   22.3500004       -0.274476945    
   22.3999996       -0.276914954    
   22.4500008       -0.279094547    
   22.5000000       -0.280731857    
   22.5499992       -0.281676114    
   22.6000004       -0.282026142    
   22.6499996       -0.282044172    
   22.7000008       -0.281938016    
   22.7500000       -0.281688780    
   22.7999992       -0.281060129    
   22.8500004       -0.279778540    
   22.8999996       -0.277737051    
   22.9500008       -0.275062501    
   23.0000000       -0.271998525    
   23.0499992       -0.268705517    
   23.1000004       -0.265138507    
   23.1499996       -0.261094630    
   23.2000008       -0.256383568    
   23.2500000       -0.250978678    
   23.2999992       -0.245030135    
   23.3500004       -0.238737404    
   23.3999996       -0.232188106    
   23.4500008       -0.225293025    
   23.5000000       -0.217862487    
   23.5499992       -0.209757105    
   23.6000004       -0.200992912    
   23.6499996       -0.191724762    
   23.7000008       -0.182131246    
   23.7500000       -0.172296807    
   23.7999992       -0.162178233    
   23.8500004       -0.151667699    
   23.8999996       -0.140689507    
   23.9500008       -0.129250199    
   24.0000000       -0.117412552    
   24.0499992       -0.105230875    
   24.1000004        -9.27131772E-02
   24.1499996        -7.98441321E-02
   24.2000008        -6.66424409E-02
   24.2500000        -5.31931967E-02
   24.2999992        -3.96174006E-02
   24.3500004        -2.59974170E-02
   24.3999996        -1.23198926E-02
   24.4500008         1.51260861E-03
   24.5000000         1.56042278E-02
   24.5499992         2.99793873E-02
   24.6000004         4.45522442E-02
   24.6499996         5.91729879E-02
   24.7000008         7.37121478E-02
   24.7500000         8.81175697E-02
   24.7999992        0.102405690    
   24.8500004        0.116604775    
   24.8999996        0.130705088    
   24.9500008        0.144658357    
   25.0000000        0.158420429    
   25.0499992        0.171989381    
   25.1000004        0.185395792    
   25.1499996        0.198646992    
   25.2000008        0.211674616    
   25.2500000        0.224339411    
   25.2999992        0.236500934    
   25.3500004        0.248102620    
   25.3999996        0.259202242    
   25.4500008        0.269917309    
   25.5000000        0.280322313    
   25.5499992        0.290376931    
   25.6000004        0.299940437    
   25.6499996        0.308861166    
   25.7000008        0.317068994    
   25.7500000        0.324598998    
   25.7999992        0.331533760    
   25.8500004        0.337916702    
   25.8999996        0.343710005    
   25.9500008        0.348827571    
   26.0000000        0.353206784    
   26.0499992        0.356851012    
   26.1000004        0.359806180    
   26.1499996        0.362096310    
   26.2000008        0.363682956    
   26.2500000        0.364489883    
   26.2999992        0.364473075    
   26.3500004        0.363669664    
   26.3999996        0.362174243    
   26.4500008        0.360056221    
   26.5000000        0.357288718    
   26.5499992        0.353757113    
   26.6000004        0.349348277    
   26.6499996        0.344051212    
   26.7000008        0.337983012    
   26.7500000        0.331313133    
   26.7999992        0.324143350    
   26.8500004        0.316438794    
   26.8999996        0.308066905    
   26.9500008        0.298911929    
   27.0000000        0.288973272    
   27.0499992        0.278370261    
   27.1000004        0.267254263    
   27.1499996        0.255703628    
   27.2000008        0.243686572    
   27.2500000        0.231117532    
   27.2999992        0.217954934    
   27.3500004        0.204258204    
   27.3999996        0.190160185    
   27.4500008        0.175781980    
   27.5000000        0.161161318    
   27.5499992        0.146249056    
   27.6000004        0.130970895    
   27.6499996        0.115302503    
   27.7000008         9.93020162E-02
   27.7500000         8.30830783E-02
   27.7999992         6.67552426E-02
   27.8500004         5.03763035E-02
   27.8999996         3.39438021E-02
   27.9500008         1.74232740E-02
   28.0000000         7.90795952E-04
   28.0499992        -1.59339830E-02
   28.1000004        -3.26792486E-02
   28.1499996        -4.93412316E-02
   28.2000008        -6.58270642E-02
   28.2500000        -8.21009353E-02
   28.2999992        -9.82042030E-02
   28.3500004       -0.114226542    
   28.3999996       -0.130233780    
   28.4500008       -0.146195486    
   28.5000000       -0.161968276    
   28.5499992       -0.177360907    
   28.6000004       -0.192246899    
   28.6499996       -0.206645116    
   28.7000008       -0.220702469    
   28.7500000       -0.234581664    
   28.7999992       -0.248332739    
   28.8500004       -0.261845648    
   28.8999996       -0.274923265    
   28.9500008       -0.287420720    
   29.0000000       -0.299344003    
   29.0499992       -0.310831368    
   29.1000004       -0.322034597    
   29.1499996       -0.332995862    
   29.2000008       -0.343616545    
   29.2500000       -0.353737563    
   29.2999992       -0.363262087    
   29.3500004       -0.372221261    
   29.3999996       -0.380735934    
   29.4500008       -0.388914347    
   29.5000000       -0.396772504    
   29.5499992       -0.404238462    
   29.6000004       -0.411226958    
   29.6499996       -0.417715430    
   29.7000008       -0.423759997    
   29.7500000       -0.429445297    
   29.7999992       -0.434817076    
   29.8500004       -0.439854890    
   29.8999996       -0.444500834    
   29.9500008       -0.448714197    
   30.0000000       -0.452505559    
   30.0499992       -0.455929309    
   30.1000004       -0.459050030    
   30.1499996       -0.461912811    
   30.2000008       -0.464535356    
   30.2500000       -0.466917455    
   30.2999992       -0.469051778    
   30.3500004       -0.470929682    
   30.3999996       -0.472545475    
   30.4500008       -0.473903656    