  -10.0000000         1.54133182E-29
  -9.94999981         1.54133182E-29
  -9.89999962        -1.65835087E-29
  -9.85000038        -2.83622464E-29
  -9.80000019        -2.00079460E-29
  -9.75000000         5.37134263E-30
  -9.69999981         3.29444701E-29
  -9.64999962         1.46416025E-29
  -9.60000038        -4.27673916E-17
  -9.55000019        -9.88780205E-17
  -9.50000000         9.50369167E-16
  -9.44999981         5.47838845E-15
  -9.39999962         7.43780986E-15
  -9.35000038        -2.79991196E-14
  -9.30000019        -1.41277208E-13
  -9.25000000        -2.15051284E-13
  -9.19999981         2.36288799E-13
  -9.14999962         1.73783741E-12
  -9.10000038         3.32502710E-12
  -9.05000019         8.27833678E-13
  -9.00000000        -1.09455474E-11
  -8.94999981        -2.82686079E-11
  -8.89999962        -2.67148074E-11
  -8.85000038         3.08443236E-11
  -8.80000019         1.45785065E-10
  -8.75000000         2.17558305E-10
  -8.69999981         5.17911374E-11
  -8.64999962        -4.58862254E-10
  -8.60000038        -1.03718067E-09
  -8.55000019        -9.28172206E-10
  -8.50000000         5.89051585E-10
  -8.44999981         3.13226134E-09
  -8.39999962         4.51545734E-09
  -8.35000038         1.79330351E-09
  -8.30000019        -5.63474778E-09
  -8.25000000        -1.30694193E-08
  -8.19999981        -1.17303296E-08
  -8.14999962         3.82632992E-09
  -8.10000038         2.64283955E-08
  -8.05000019         3.53476786E-08
  -8.00000000         1.12129488E-08
  -7.94999981        -3.99936759E-08
  -7.90000010        -7.68391786E-08
  -7.84999990        -4.82563607E-08
  -7.80000019         5.16799403E-08
  -7.75000000         1.47132909E-07
  -7.69999981         1.18548002E-07
  -7.65000010        -8.12112759E-08
  -7.59999990        -3.20867628E-07
  -7.55000019        -3.27964386E-07
  -7.50000000         8.18040533E-08
  -7.44999981         7.27604913E-07
  -7.40000010         1.02703450E-06
  -7.34999990         3.89701796E-07
  -7.30000019        -1.13742726E-06
  -7.25000000        -2.52833070E-06
  -7.19999981        -2.27499663E-06
  -7.15000010         3.42622798E-07
  -7.09999990         4.11427163E-06
  -7.05000019         6.09532617E-06
  -7.00000000         3.57934618E-06
  -6.94999981        -3.26340682E-06
  -6.90000010        -1.03013545E-05
  -6.84999990        -1.15408557E-05
  -6.80000019        -3.68502515E-06
  -6.75000000         1.00736188E-05
  -6.69999981         2.06086479E-05
  -6.65000010         1.85769532E-05
  -6.59999990         1.86380805E-06
  -6.55000019        -2.09755872E-05
  -6.50000000        -3.48903632E-05
  -6.44999981        -2.81836328E-05
  -6.40000010        -1.31487309E-06
  -6.34999990         3.19340288E-05
  -6.30000019         5.21463589E-05
  -6.25000000         4.56337875E-05
  -6.19999981         1.21372468E-05
  -6.15000010        -3.49256188E-05
  -6.09999990        -7.40146497E-05
  -6.05000019        -8.31093566E-05
  -6.00000000        -4.80679591E-05
  -5.94999981         2.76569208E-05
  -5.90000010         1.14745555E-04
  -5.84999990         1.60884549E-04
  -5.80000019         1.14943796E-04
  -5.75000000        -3.16081423E-05
  -5.69999981        -2.13030449E-04
  -5.65000010        -3.04385088E-04
  -5.59999990        -1.97231362E-04
  -5.55000019         1.01418271E-04
  -5.50000000         4.25579812E-04
  -5.44999981         5.26040560E-04
  -5.40000010         2.47353833E-04
  -5.34999990        -3.10320553E-04
  -5.30000019        -7.90094375E-04
  -5.25000000        -7.91902479E-04
  -5.19999981        -1.85375931E-04
  -5.15000010         7.12641340E-04
  -5.09999990         1.27988600E-03
  -5.05000019         1.01158547E-03
  -5.00000000        -5.75351842E-05
  -4.94999981        -1.27509120E-03
  -4.90000010        -1.76609890E-03
  -4.84999990        -1.06838334E-03
  -4.80000019         4.58351948E-04
  -4.75000000         1.80468208E-03
  -4.69999981         2.00195378E-03
  -4.65000010         8.47443705E-04
  -4.59999990        -8.96717829E-04
  -4.55000019        -2.02366756E-03
  -4.50000000        -1.75904192E-03
  -4.44999981        -3.31264688E-04
  -4.40000010         1.21273764E-03
  -4.34999990         1.80659862E-03
  -4.30000019         1.14770152E-03
  -4.25000000        -1.49275918E-04
  -4.19999981        -1.11846661E-03
  -4.15000010        -1.22212700E-03
  -4.09999990        -6.78868091E-04
  -4.05000019        -1.00114943E-04
  -4.00000000         1.71079038E-04
  -3.95000005         3.54091084E-04
  -3.90000010         8.53455393E-04
  -3.84999990         1.58912269E-03
  -3.79999995         1.77764043E-03
  -3.75000000         5.55107137E-04
  -3.70000005        -1.98932644E-03
  -3.65000010        -4.35525225E-03
  -3.59999990        -4.42792429E-03
  -3.54999995        -1.17048156E-03
  -3.50000000         4.08756034E-03
  -3.45000005         8.02254025E-03
  -3.40000010         7.44098565E-03
  -3.34999990         1.78178842E-03
  -3.29999995        -5.94346318E-03
  -3.25000000        -1.07769109E-02
  -3.20000005        -9.14405566E-03
  -3.15000010        -1.60190463E-03
  -3.09999990         7.09882006E-03
  -3.04999995         1.09605026E-02
  -3.00000000         6.85401354E-03
  -2.95000005        -3.01570725E-03
  -2.90000010        -1.21421134E-02
  -2.84999990        -1.37864202E-02
  -2.79999995        -5.52931381E-03
  -2.75000000         8.70673452E-03
  -2.70000005         2.06627790E-02
  -2.65000010         2.27342211E-02
  -2.59999990         1.29280407E-02
  -2.54999995        -3.39657487E-03
  -2.50000000        -1.63666196E-02
  -2.45000005        -1.75781865E-02
  -2.40000010        -5.66361612E-03
  -2.34999990         1.21933008E-02
  -2.29999995         2.41846554E-02
  -2.25000000         2.12276801E-02
  -2.20000005         3.22383363E-03
  -2.15000010        -2.00556591E-02
  -2.09999990        -3.45653966E-02
  -2.04999995        -3.08566336E-02
  -2.00000000        -1.04671912E-02
  -1.95000005         1.46774715E-02
  -1.89999998         2.98043247E-02
  -1.85000002         2.68661398E-02
  -1.79999995         9.61328018E-03
  -1.75000000        -9.35237296E-03
  -1.70000005        -1.73983350E-02
  -1.64999998        -1.02377106E-02
  -1.60000002         5.98654198E-03
  -1.54999995         1.99696757E-02
  -1.50000000         2.35016979E-02
  -1.45000005         1.64700598E-02
  -1.39999998         5.36626764E-03
  -1.35000002        -2.65219412E-03
  -1.29999995        -4.87531023E-03
  -1.25000000        -3.41192679E-03
  -1.20000005        -1.41221832E-03
  -1.14999998         6.66344247E-04
  -1.10000002         4.99784341E-03
  -1.04999995         1.27386535E-02
  -1.00000000         2.07555927E-02
 -0.949999988         2.26816218E-02
 -0.899999976         1.42847002E-02
 -0.850000024        -1.29174429E-03
 -0.800000012        -1.36158112E-02
 -0.750000000        -1.15972357E-02
 -0.699999988         7.74979359E-03
 -0.649999976         3.53043191E-02
 -0.600000024         5.44765368E-02
 -0.550000012         5.19757345E-02
 -0.500000000         2.73385830E-02
 -0.449999988        -5.63311623E-03
 -0.400000006        -2.68794652E-02
 -0.349999994        -2.24522762E-02
 -0.300000012         6.67058909E-03
 -0.250000000         4.47973274E-02
 -0.200000003         7.05446154E-02
 -0.150000006         6.92922100E-02
 -0.100000001         4.19673622E-02
  -5.00000007E-02     5.18014049E-03
   0.00000000        -1.76736675E-02
   5.00000007E-02    -9.94328968E-03
  0.100000001         2.74567939E-02
  0.150000006         7.47149065E-02
  0.200000003        0.103496410    
  0.250000000         9.43042785E-02
  0.300000012         5.05064726E-02
  0.349999994        -1.00082671E-03
  0.400000006        -2.51132324E-02
  0.449999988        -1.49402278E-03
  0.500000000         5.99831045E-02
  0.550000012        0.123239711    
  0.600000024        0.148691922    
  0.649999976        0.120162189    
  0.699999988         5.71121946E-02
  0.750000000         2.62559974E-03
  0.800000012        -5.37122041E-03
  0.850000024         4.01986688E-02
  0.899999976        0.111063913    
  0.949999988        0.163315684    
   1.00000000        0.167173266    
   1.04999995        0.125938654    
   1.10000002         7.18236417E-02
   1.14999998         4.29929681E-02
   1.20000005         5.86521924E-02
   1.25000000        0.108563483    
   1.29999995        0.162144214    
   1.35000002        0.188950196    
   1.39999998        0.176756352    
   1.45000005        0.137057900    
   1.50000000         9.69915017E-02
   1.54999995         8.36619064E-02
   1.60000002        0.109439939    
   1.64999998        0.165023729    
   1.70000005        0.223427594    
   1.75000000        0.253791958    
   1.79999995        0.238986492    
   1.85000002        0.187471539    
   1.89999998        0.130816847    
   1.95000005        0.105961643    
   2.00000000        0.131776005    
   2.04999995        0.195686385    
   2.09999990        0.261153787    
   2.15000010        0.292083651    
   2.20000005        0.277245522    
   2.25000000        0.236204177    
   2.29999995        0.202536836    
   2.34999990        0.197741941    
   2.40000010        0.217145950    
   2.45000005        0.238707647    
   2.50000000        0.245863214    
   2.54999995        0.243191645    
   2.59999990        0.250247180    
   2.65000010        0.278928697    
   2.70000005        0.316210032    
   2.75000000        0.330414772    
   2.79999995        0.298699766    
   2.84999990        0.232380107    
   2.90000010        0.175832957    
   2.95000005        0.175449669    
   3.00000000        0.241583958    
   3.04999995        0.334923148    
   3.09999990        0.391151458    
   3.15000010        0.367369264    
   3.20000005        0.275236845    
   3.25000000        0.174698263    
   3.29999995        0.132539019    
   3.34999990        0.175810426    
   3.40000010        0.273764282    
   3.45000005        0.359639585    
   3.50000000        0.375341266    
   3.54999995        0.307454109    
   3.59999990        0.193334311    
   3.65000010         9.57885608E-02
   3.70000005         6.59199506E-02
   3.75000000        0.115412705    
   3.79999995        0.211536631    
   3.84999990        0.295382798    
   3.90000010        0.312756479    
   3.95000005        0.244301721    
   4.00000000        0.118944630    
   4.05000019         8.95395759E-04
   4.09999990        -4.66289222E-02
   4.15000010        -1.76705199E-03
   4.19999981         9.81320962E-02
   4.25000000        0.177041262    
   4.30000019        0.170346007    
   4.34999990         7.07744807E-02
   4.40000010        -6.47242814E-02
   4.44999981       -0.154931158    
   4.50000000       -0.153796896    
   4.55000019        -8.38739723E-02
   4.59999990        -1.71609651E-02
   4.65000010        -1.83302481E-02
   4.69999981        -9.55376625E-02
   4.75000000       -0.198705852    
   4.80000019       -0.263558328    
   4.84999990       -0.265327662    
   4.90000010       -0.234953359    
   4.94999981       -0.227352843    
   5.00000000       -0.270956218    
   5.05000019       -0.343630493    
   5.09999990       -0.394871354    
   5.15000010       -0.393715709    
   5.19999981       -0.358193457    
   5.25000000       -0.340737671    
   5.30000019       -0.382478029    
   5.34999990       -0.477955431    
   5.40000010       -0.578796864    
   5.44999981       -0.633181870    
   5.50000000       -0.624199271    
   5.55000019       -0.577448130    
   5.59999990       -0.535619259    
   5.65000010       -0.527084947    
   5.69999981       -0.554529428    
   5.75000000       -0.606318831    
   5.80000019       -0.672060430    
   5.84999990       -0.742986262    
   5.90000010       -0.801947951    
   5.94999981       -0.822415173    
   6.00000000       -0.787013888    
   6.05000019       -0.712697864    
   6.09999990       -0.652716577    
   6.15000010       -0.662773550    
   6.19999981       -0.753381073    
   6.25000000       -0.870411217    
   6.30000019       -0.930176198    
   6.34999990       -0.885743082    
   6.40000010       -0.770291388    
   6.44999981       -0.675678730    
   6.50000000       -0.679956973    
   6.55000019       -0.781592727    
   6.59999990       -0.898784935    
   6.65000010       -0.935900450    
   6.69999981       -0.862842679    
   6.75000000       -0.737682223    
   6.80000019       -0.655179679    
   6.84999990       -0.665590346    
   6.90000010       -0.735653877    
   6.94999981       -0.784708977    
   7.00000000       -0.759833813    
   7.05000019       -0.681990921    
   7.09999990       -0.621022582    
   7.15000010       -0.625246465    
   7.19999981       -0.672774255    
   7.25000000       -0.690718889    
   7.30000019       -0.625104010    
   7.34999990       -0.495393574    
   7.40000010       -0.382881075    
   7.44999981       -0.360819101    
   7.50000000       -0.429827005    
   7.55000019       -0.516376019    
   7.59999990       -0.534797609    
   7.65000010       -0.457211733    
   7.69999981       -0.330009252    
   7.75000000       -0.226945370    
   7.80000019       -0.185235798    
   7.84999990       -0.183403566    
   7.90000010       -0.175117582    
   7.94999981       -0.140076190    
   8.00000000        -9.95887890E-02
   8.05000019        -8.45303312E-02
   8.10000038        -9.20328945E-02
   8.14999962        -8.02542418E-02
   8.19999981        -1.04613481E-02
   8.25000000        0.105706438    
   8.30000019        0.204707831    
   8.35000038        0.224168420    
   8.39999962        0.163761407    
   8.44999981         9.43895206E-02
   8.50000000        0.101227336    
   8.55000019        0.208928347    
   8.60000038        0.357501596    
   8.64999962        0.452799201    
   8.69999981        0.447559476    
   8.75000000        0.379667461    
   8.80000019        0.333681375    
   8.85000038        0.362691641    
   8.89999962        0.443631351    
   8.94999981        0.506602585    
   9.00000000        0.507571697    
   9.05000019        0.472722977    
   9.10000038        0.470715016    
   9.14999962        0.539968848    
   9.19999981        0.643348873    
   9.25000000        0.697674632    
   9.30000019        0.652899921    
   9.35000038        0.545622289    
   9.39999962        0.472707510    
   9.44999981        0.505739212    
   9.50000000        0.624613345    
   9.55000019        0.733221173    
   9.60000038        0.744681418    
   9.64999962        0.658173203    
   9.69999981        0.556823194    
   9.75000000        0.529670596    
   9.80000019        0.591006100    
   9.85000038        0.672383845    
   9.89999962        0.692040622    
   9.94999981        0.633516848    
   10.0000000        0.557644963    
   10.0500002        0.538114369    
   10.1000004        0.585270822    
   10.1499996        0.635120869    
   10.1999998        0.615065038    
   10.2500000        0.521762490    
   10.3000002        0.431685090    
   10.3500004        0.429313689    
   10.3999996        0.520484567    
   10.4499998        0.616921902    
   10.5000000        0.613022327    
   10.5500002        0.486128896    
   10.6000004        0.324828237    
   10.6499996        0.253821939    
   10.6999998        0.321639746    
   10.7500000        0.454752892    
   10.8000002        0.522629380    
   10.8500004        0.454965472    
   10.8999996        0.303170979    
   10.9499998        0.189404696    
   11.0000000        0.192251280    
   11.0500002        0.276941657    
   11.1000004        0.334965676    
   11.1499996        0.293064713    
   11.1999998        0.185134664    
   11.2500000        0.116090640    
   11.3000002        0.153244495    
   11.3500004        0.252134174    
   11.3999996        0.293370664    
   11.4499998        0.199181691    
   11.5000000         1.79488268E-02
   11.5500002       -0.109288841    
   11.6000004        -7.52549544E-02
   11.6499996         9.03474614E-02
   11.6999998        0.240433559    
   11.7500000        0.239547834    
   11.8000002         8.48806053E-02
   11.8500004        -9.29992124E-02
   11.8999996       -0.151316136    
   11.9499998        -6.51729256E-02
   12.0000000         5.49602211E-02
   12.0500002         7.40858167E-02
   12.1000004        -3.50814983E-02
   12.1499996       -0.165510237    
   12.1999998       -0.182017043    
   12.2500000        -5.82808666E-02
   12.3000002         8.91917571E-02
   12.3500004        0.107509904    
   12.3999996        -4.39314134E-02
   12.4499998       -0.245508045    
   12.5000000       -0.321576864    
   12.5500002       -0.203492478    
   12.6000004         1.54682656E-03
   12.6499996        0.104718372    
   12.6999998         9.29538999E-03
   12.7500000       -0.197641194    
   12.8000002       -0.323614419    
   12.8500004       -0.249513522    
   12.8999996        -4.29932289E-02
   12.9499998        0.101374194    
   13.0000000         4.24804501E-02
   13.0500002       -0.173245504    
   13.1000004       -0.350577742    
   13.1499996       -0.324373782    
   13.1999998       -0.114228472    
   13.2500000         8.93976316E-02
   13.3000002         9.77354050E-02
   13.3500004       -0.102039225    
   13.3999996       -0.331244230    
   13.4499998       -0.378897518    
   13.5000000       -0.192184418    
   13.5500002         7.40686283E-02
   13.6000004        0.193028659    
   13.6499996         6.40815347E-02
   13.6999998       -0.202778921    
   13.7500000       -0.387153894    
   13.8000002       -0.348362923    
   13.8500004       -0.136144847    
   13.8999996         6.80922270E-02
   13.9499998        0.114956170    
   14.0000000         4.46371408E-03
   14.0500002       -0.139311299    
   14.1000004       -0.196050599    
   14.1499996       -0.151641279    
   14.1999998        -8.56377631E-02
   14.2500000        -7.22496286E-02
   14.3000002       -0.103253521    
   14.3500004       -0.108888179    
   14.3999996        -4.71582860E-02
   14.4499998         3.81231084E-02
   14.5000000         5.54290712E-02
   14.5500002        -3.72952521E-02
   14.6000004       -0.177615896    
   14.6499996       -0.247406349    
   14.6999998       -0.182518959    
   14.7500000        -3.60897444E-02
   14.8000002         6.93364516E-02
   14.8500004         5.65896332E-02
   14.8999996        -3.63687314E-02
   14.9499998       -0.100796245    
   15.0000000        -7.14005455E-02
   15.0500002         5.31600416E-03
   15.1000004         2.07078196E-02
   15.1499996        -7.53143504E-02
   15.1999998       -0.206184968    
   15.2500000       -0.231059119    
   15.3000002        -8.64751860E-02
   15.3500004        0.130807951    
   15.3999996        0.232155666    
   15.4499998        0.106497273    
   15.5000000       -0.164091513    
   15.5500002       -0.359185815    
   15.6000004       -0.307775348    
   15.6499996        -4.33539264E-02
   15.6999998        0.217977673    
   15.7500000        0.263003975    
   15.8000002         6.61202669E-02
   15.8500004       -0.193491369    
   15.8999996       -0.297148466    
   15.9499998       -0.181956753    
   16.0000000         1.31260287E-02
   16.0499992         8.96058306E-02
   16.1000004        -1.73062775E-02
   16.1499996       -0.179154664    
   16.2000008       -0.205283836    
   16.2500000        -3.83798294E-02
   16.2999992        0.176099062    
   16.3500004        0.219819903    
   16.3999996         1.32319704E-02
   16.4500008       -0.292232066    
   16.5000000       -0.436670452    
   16.5499992       -0.284220070    
   16.6000004         4.67519052E-02
   16.6499996        0.279774517    
   16.7000008        0.220942751    
   16.7500000        -7.15801120E-02
   16.7999992       -0.342201978    
   16.8500004       -0.366451234    
   16.8999996       -0.146111175    
   16.9500008        0.103455663    
   17.0000000        0.156706706    
   17.0499992        -1.80062409E-02
   17.1000004       -0.239539489    
   17.1499996       -0.291768610    
   17.2000008       -0.128249183    
   17.2500000         8.70156810E-02
   17.2999992        0.137459770    
   17.3500004        -3.98101136E-02
   17.3999996       -0.292478353    
   17.4500008       -0.392230093    
   17.5000000       -0.244299352    
   17.5499992         2.59933807E-02
   17.6000004        0.186765984    
   17.6499996        0.106180556    
   17.7000008       -0.136262536    
   17.7500000       -0.329488158    
   17.7999992       -0.321261942    
   17.8500004       -0.143874764    
   17.8999996         3.18630151E-02
   17.9500008         5.97238690E-02
   18.0000000        -5.78704141E-02
   18.0499992       -0.192522541    
   18.1000004       -0.223328888    
   18.1499996       -0.146250248    
   18.2000008        -5.93330748E-02
   18.2500000        -5.11697046E-02
   18.2999992       -0.111594081    
   18.3500004       -0.152903974    
   18.3999996       -0.112938926    
   18.4500008        -2.85035986E-02
   18.5000000         8.58490530E-05
   18.5499992        -8.17679539E-02
   18.6000004       -0.213605046    
   18.6499996       -0.267457634    
   18.7000008       -0.171931371    
   18.7500000         8.90206918E-03
   18.7999992        0.124548800    
   18.8500004         7.51700476E-02
   18.8999996        -9.27520916E-02
   18.9500008       -0.226068363    
   19.0000000       -0.205851927    
   19.0499992        -5.72423898E-02
   19.1000004         7.71318600E-02
   19.1499996         7.48929903E-02
   19.2000008        -4.89536114E-02
   19.2500000       -0.159043446    
   19.2999992       -0.134604380    
   19.3500004         9.16814618E-03
   19.3999996        0.133620232    
   19.4500008        0.113881655    
   19.5000000        -3.21829692E-02
   19.5499992       -0.152539238    
   19.6000004       -0.106068395    
   19.6499996         9.25766751E-02
   19.7000008        0.272005737    
   19.7500000        0.257963657    
   19.7999992         4.31993119E-02
   19.8500004       -0.189630985    
   19.8999996       -0.223106369    
   19.9500008        -3.20472033E-03
   20.0000000        0.301933587    
   20.0499992        0.442554802    
   20.1000004        0.306128025    
   20.1499996         1.82299595E-02
   20.2000008       -0.166469485    
   20.2500000        -8.70710015E-02
   20.2999992        0.185213864    
   20.3500004        0.415420294    
   20.3999996        0.415187448    
   20.4500008        0.205505714    
   20.5000000        -1.07941451E-02
   20.5499992        -3.62542495E-02
   20.6000004        0.147283703    
   20.6499996        0.371633083    
   20.7000008        0.441230834    
   20.7500000        0.308657527    
   20.7999992        0.109053954    
   20.8500004         3.03660799E-02
   20.8999996        0.143771112    
   20.9500008        0.347337753    
   21.0000000        0.466095060    
   21.0499992        0.408961236    
   21.1000004        0.240196645    
   21.1499996        0.109744444    
   21.2000008        0.117248483    
   21.2500000        0.236382276    
   21.2999992        0.357510835    
   21.3500004        0.394994020    
   21.3999996        0.352827698    
   21.4500008        0.295960844    
   21.5000000        0.271639526    
   21.5499992        0.267251104    
   21.6000004        0.244115412    
   21.6499996        0.200598925    
   21.7000008        0.187564656    
   21.7500000        0.252969593    
   21.7999992        0.372663796    
   21.8500004        0.448814273    
   21.8999996        0.392087787    
   21.9500008        0.215236232    
   22.0000000         4.30441424E-02
   22.0499992         1.50455665E-02
   22.1000004        0.161753118    
   22.1499996        0.367948085    
   22.2000008        0.463952035    
   22.2500000        0.369318098    
   22.2999992        0.161917672    
   22.3500004         9.34777502E-03
   22.3999996         2.27063019E-02
   22.4500008        0.163474262    
   22.5000000        0.284918070    
   22.5499992        0.268470466    
   22.6000004        0.129201502    
   22.6499996        -3.30437231E-03
   22.7000008        -8.02142452E-03
   22.7500000        0.114931293    
   22.7999992        0.244820401    
   22.8500004        0.250869095    
   22.8999996        0.110217497    
   22.9500008        -7.23663643E-02
   23.0000000       -0.157495379    
   23.0499992        -9.04957652E-02
   23.1000004         5.81926517E-02
   23.1499996        0.160293043    
   23.2000008        0.138312712    
   23.2500000         1.90607477E-02
   23.2999992       -0.105343439    
   23.3500004       -0.161633939    
   23.3999996       -0.145108715    
   23.4500008        -9.96037126E-02
   23.5000000        -6.26424551E-02
   23.5499992        -3.75938118E-02
   23.6000004        -1.50386319E-02
   23.6499996        -8.38571135E-03
   23.7000008        -5.30051813E-02
   23.7500000       -0.162064865    
   23.7999992       -0.287551671    
   23.8500004       -0.339389980    
   23.8999996       -0.260153383    
   23.9500008        -9.02439281E-02
   24.0000000         4.57705893E-02
   24.0499992         3.37693207E-02
   24.1000004       -0.130621672    
   24.1499996       -0.328529567    
   24.2000008       -0.410421491    
   24.2500000       -0.320020616    
   24.2999992       -0.142378017    
   24.3500004        -3.14303935E-02
   24.3999996        -7.79799297E-02
   24.4500008       -0.232850552    
   24.5000000       -0.352676809    
   24.5499992       -0.328129321    
   24.6000004       -0.181471646    
   24.6499996        -4.74751852E-02
   24.7000008        -5.42158596E-02
   24.7500000       -0.208314717    
   24.7999992       -0.384839475    
   24.8500004       -0.431068480    
   24.8999996       -0.295709610    
   24.9500008        -7.42480904E-02
   25.0000000         6.63431287E-02
   25.0499992         1.99270863E-02
   25.1000004       -0.177202746    
   25.1499996       -0.377678514    
   25.2000008       -0.436900556    
   25.2500000       -0.317607075    
   25.2999992       -0.108315200    
   25.3500004         4.90581021E-02
   25.3999996         6.06091991E-02
   25.4500008        -6.31499663E-02
   25.5000000       -0.227244720    
   25.5499992       -0.322942078    
   25.6000004       -0.295747548    
   25.6499996       -0.170011878    
   25.7000008        -2.43137516E-02
   25.7500000         5.96341789E-02
   25.7999992         4.30494919E-02
   25.8500004        -5.17476350E-02
   25.8999996       -0.157954246    
   25.9500008       -0.205815405    
   26.0000000       -0.165810779    
   26.0499992        -6.69261888E-02
   26.1000004         2.39943024E-02
   26.1499996         5.00948057E-02
   26.2000008         6.09146431E-03
   26.2500000        -5.89561984E-02
   26.2999992        -8.21144879E-02
   26.3500004        -3.92042622E-02
   26.3999996         3.42558622E-02
   26.4500008         7.32736513E-02
   26.5000000         4.11232673E-02
   26.5499992        -3.49465311E-02
   26.6000004        -8.31701979E-02
   26.6499996        -4.78652418E-02
   26.7000008         5.93227744E-02
   26.7500000        0.163368732    
   26.7999992        0.184433281    
   26.8500004        0.103804521    
   26.8999996        -1.79892853E-02
   26.9500008        -8.70132819E-02
   27.0000000        -4.89112474E-02
   27.0499992         6.98205531E-02
   27.1000004        0.184340551    
   27.1499996        0.217554882    
   27.2000008        0.156218395    
   27.2500000         5.49134016E-02
   27.2999992        -1.04475645E-02
   27.3500004         1.11591571E-03
   27.3999996         7.23427162E-02
   27.4500008        0.149441823    
   27.5000000        0.185342237    
   27.5499992        0.168916702    
   27.6000004        0.122568868    
   27.6499996         7.83726200E-02
   27.7000008         5.61979711E-02
   27.7500000         5.85547313E-02
   27.7999992         7.88719803E-02
   27.8500004        0.109715626    
   27.8999996        0.143069118    
   27.9500008        0.166737899    
   28.0000000        0.166291550    
   28.0499992        0.135310784    
   28.1000004         8.55898634E-02
   28.1499996         4.55259345E-02
   28.2000008         4.33603004E-02
   28.2500000         8.55791345E-02
   28.2999992        0.147641242    
   28.3500004        0.186888143    
   28.3999996        0.171474129    
   28.4500008        0.105327144    
   28.5000000         2.97219977E-02
   28.5499992        -2.97031435E-03
   28.6000004         3.29525694E-02
   28.6499996        0.114327937    
   28.7000008        0.181766123    
   28.7500000        0.181567103    
   28.7999992        0.108184181    
   28.8500004         1.32447397E-02
   28.8999996        -3.04050930E-02
   28.9500008         1.38610229E-02
   29.0000000        0.112141423    
   29.0499992        0.180759773    
   29.1000004        0.151986182    
   29.1499996         3.45251821E-02
   29.2000008        -8.38912427E-02
   29.2500000       -0.102027401    
   29.2999992         8.59457254E-03
   29.3500004        0.168694288    
   29.3999996        0.244618610    
   29.4500008        0.155625135    
   29.5000000        -5.01728468E-02
   29.5499992       -0.219838411    
   29.6000004       -0.210806653    
   29.6499996        -1.02735199E-02
   29.7000008        0.240168750    
   29.7500000        0.343801200    
   29.7999992        0.201180950    
   29.8500004       -0.103612170    
   29.8999996       -0.356112063    
   29.9500008       -0.369052798    
   30.0000000       -0.125462890    
   30.0499992        0.203938127    
   30.1000004        0.384243637    
   30.1499996        0.287958711    
   30.2000008        -1.42934183E-02
   30.2500000       -0.309458673    
   30.2999992       -0.398504227    
   30.3500004       -0.235544041    
   30.3999996         4.94512618E-02
   30.4500008        0.253026128    