  -10.0000000       0.00000000    
  -9.94999981       0.00000000    
  -9.89999962       0.00000000    
  -9.85000038       0.00000000    
  -9.80000019       0.00000000    
  -9.75000000       0.00000000    
  -9.69999981       0.00000000    
  -9.64999962       0.00000000    
  -9.60000038      -5.02592500E-18
  -9.55000019       2.71524001E-18
  -9.50000000       2.32457710E-16
  -9.44999981       1.04903771E-15
  -9.39999962       1.30501074E-15
  -9.35000038      -4.64455905E-15
  -9.30000019      -2.21075701E-14
  -9.25000000      -3.01913476E-14
  -9.19999981       4.32867514E-14
  -9.14999962       2.51345385E-13
  -9.10000038       3.88349319E-13
  -9.05000019      -1.85878670E-13
  -9.00000000      -1.99337812E-12
  -8.94999981      -3.78579806E-12
  -8.89999962      -1.27744365E-12
  -8.85000038       1.00198296E-11
  -8.80000019       2.57477997E-11
  -8.75000000       2.42189949E-11
  -8.69999981      -2.40668614E-11
  -8.64999962      -1.16569254E-10
  -8.60000038      -1.71361231E-10
  -8.55000019      -4.15634020E-11
  -8.50000000       3.44705681E-10
  -8.44999981       7.70710495E-10
  -8.39999962       6.74690748E-10
  -8.35000038      -4.74589035E-10
  -8.30000019      -2.40373033E-09
  -8.25000000      -3.49092844E-09
  -8.19999981      -1.42757284E-09
  -8.14999962       4.55950211E-09
  -8.10000038       1.12441150E-08
  -8.05000019       1.15290755E-08
  -8.00000000      -6.96932734E-10
  -7.94999981      -2.27224497E-08
  -7.90000010      -3.88547079E-08
  -7.84999990      -2.74980465E-08
  -7.80000019       2.00644497E-08
  -7.75000000       8.13394578E-08
  -7.69999981       1.04642737E-07
  -7.65000010       4.25737703E-08
  -7.59999990      -9.80415464E-08
  -7.55000019      -2.30650599E-07
  -7.50000000      -2.27320896E-07
  -7.44999981      -1.79473130E-08
  -7.40000010       3.14262252E-07
  -7.34999990       5.34244180E-07
  -7.30000019       3.98123262E-07
  -7.25000000      -1.31414808E-07
  -7.19999981      -7.64701497E-07
  -7.15000010      -1.00860257E-06
  -7.09999990      -5.18510319E-07
  -7.05000019       5.50188417E-07
  -7.00000000       1.50313713E-06
  -6.94999981       1.52219309E-06
  -6.90000010       3.21184501E-07
  -6.84999990      -1.45161107E-06
  -6.80000019      -2.48903552E-06
  -6.75000000      -1.74052025E-06
  -6.69999981       6.34222602E-07
  -6.65000010       3.07474170E-06
  -6.59999990       3.55830366E-06
  -6.55000019       1.17086233E-06
  -6.50000000      -2.84540715E-06
  -6.44999981      -5.57258227E-06
  -6.40000010      -4.40272106E-06
  -6.34999990       7.42772954E-07
  -6.30000019       6.71951057E-06
  -6.25000000       8.91191848E-06
  -6.19999981       4.58178692E-06
  -6.15000010      -4.50300877E-06
  -6.09999990      -1.24082317E-05
  -6.05000019      -1.27270669E-05
  -6.00000000      -3.46011666E-06
  -5.94999981       1.04708342E-05
  -5.90000010       1.95290140E-05
  -5.84999990       1.59117062E-05
  -5.80000019      -1.29052580E-07
  -5.75000000      -1.88844042E-05
  -5.69999981      -2.67879623E-05
  -5.65000010      -1.60846084E-05
  -5.59999990       8.13943916E-06
  -5.55000019       2.95791378E-05
  -5.50000000       3.14080717E-05
  -5.44999981       9.36355082E-06
  -5.40000010      -2.27301662E-05
  -5.34999990      -4.08819069E-05
  -5.30000019      -2.84757934E-05
  -5.25000000       8.99133465E-06
  -5.19999981       4.45784426E-05
  -5.15000010       4.83467993E-05
  -5.09999990       1.16625761E-05
  -5.05000019      -4.17816373E-05
  -5.00000000      -6.99387092E-05
  -4.94999981      -4.43236931E-05
  -4.90000010       2.36246924E-05
  -4.84999990       8.49290591E-05
  -4.80000019       8.73785684E-05
  -4.75000000       1.85592016E-05
  -4.69999981      -7.69980325E-05
  -4.65000010      -1.25270759E-04
  -4.59999990      -7.91678322E-05
  -4.55000019       3.84510640E-05
  -4.50000000       1.42843564E-04
  -4.44999981       1.47336206E-04
  -4.40000010       3.32146737E-05
  -4.34999990      -1.26049781E-04
  -4.30000019      -2.11412407E-04
  -4.25000000      -1.46379767E-04
  -4.19999981       3.90154310E-05
  -4.15000010       2.20800604E-04
  -4.09999990       2.66404386E-04
  -4.05000019       1.31983557E-04
  -4.00000000      -1.01250196E-04
  -3.95000005      -2.80586974E-04
  -3.90000010      -2.86992552E-04
  -3.84999990      -1.15640200E-04
  -3.79999995       1.24233280E-04
  -3.75000000       2.85273942E-04
  -3.70000005       2.76026636E-04
  -3.65000010       1.09738452E-04
  -3.59999990      -1.15143135E-04
  -3.54999995      -2.77259329E-04
  -3.50000000      -2.92992801E-04
  -3.45000005      -1.48241874E-04
  -3.40000010       9.86079540E-05
  -3.34999990       3.33225558E-04
  -3.29999995       4.22090554E-04
  -3.25000000       2.74439459E-04
  -3.20000005      -8.67685885E-05
  -3.15000010      -4.93391417E-04
  -3.09999990      -6.91466732E-04
  -3.04999995      -4.90360835E-04
  -3.00000000       8.03022194E-05
  -2.95000005       7.28508632E-04
  -2.90000010       1.04125601E-03
  -2.84999990       7.49003491E-04
  -2.79999995      -5.93012919E-05
  -2.75000000      -9.39403952E-04
  -2.70000005      -1.34439685E-03
  -2.65000010      -9.77304531E-04
  -2.59999990      -6.21810750E-06
  -2.54999995       1.01489003E-03
  -2.50000000       1.47903140E-03
  -2.45000005       1.09929848E-03
  -2.40000010       8.42861773E-05
  -2.34999990      -9.86944069E-04
  -2.29999995      -1.50153588E-03
  -2.25000000      -1.15567748E-03
  -2.20000005      -1.17619762E-04
  -2.15000010       1.05853507E-03
  -2.09999990       1.71135413E-03
  -2.04999995       1.41090841E-03
  -2.00000000       2.08989324E-04
  -1.95000005      -1.32367492E-03
  -1.89999998      -2.33097537E-03
  -1.85000002      -2.11444031E-03
  -1.79999995      -5.82518522E-04
  -1.75000000       1.57156098E-03
  -1.70000005       3.14975809E-03
  -1.64999998       3.11102672E-03
  -1.60000002       1.25351560E-03
  -1.54999995      -1.53718481E-03
  -1.50000000      -3.70777072E-03
  -1.45000005      -3.93217243E-03
  -1.39999998      -1.94315531E-03
  -1.35000002       1.23900129E-03
  -1.29999995       3.85288708E-03
  -1.25000000       4.39762603E-03
  -1.20000005       2.49171793E-03
  -1.14999998      -8.99930659E-04
  -1.10000002      -3.96910217E-03
  -1.04999995      -4.99918498E-03
  -1.00000000      -3.25633283E-03
 -0.949999988       5.70308999E-04
 -0.899999976       4.58207447E-03
 -0.850000024       6.50529796E-03
 -0.800000012       4.86854790E-03
 -0.750000000       3.37885785E-06
 -0.699999988      -5.75330388E-03
 -0.649999976      -9.03807208E-03
 -0.600000024      -7.35622877E-03
 -0.550000012      -8.89041112E-04
 -0.500000000       7.07116630E-03
 -0.449999988       1.17124040E-02
 -0.400000006       9.65744257E-03
 -0.349999994       1.45236508E-03
 -0.300000012      -8.26869346E-03
 -0.250000000      -1.34220188E-02
 -0.200000003      -1.04213711E-02
 -0.150000006      -7.91148574E-04
 -0.100000001       9.52022430E-03
  -5.00000007E-02   1.38937291E-02
   0.00000000       9.42452811E-03
   5.00000007E-02  -1.06984400E-03
  0.100000001      -1.08523918E-02
  0.150000006      -1.36849415E-02
  0.200000003      -7.86518957E-03
  0.250000000       2.80235871E-03
  0.300000012       1.16196694E-02
  0.349999994       1.33087998E-02
  0.400000006       7.15360371E-03
  0.449999988      -2.89309560E-03
  0.500000000      -1.09013207E-02
  0.550000012      -1.25413341E-02
  0.600000024      -7.36461254E-03
  0.649999976       1.32260786E-03
  0.699999988       8.60146899E-03
  0.750000000       1.07272677E-02
  0.800000012       7.04581989E-03
  0.850000024       1.35016759E-04
  0.899999976      -5.82713028E-03
  0.949999988      -7.56310159E-03
   1.00000000      -4.64810757E-03
   1.04999995       3.33717966E-04
   1.10000002       3.65881366E-03
   1.14999998       3.21321003E-03
   1.20000005       9.92012283E-05
   1.25000000      -2.27740081E-03
   1.29999995      -1.18340610E-03
   1.35000002       2.74496037E-03
   1.39999998       5.56473713E-03
   1.45000005       3.29898880E-03
   1.50000000      -4.01661033E-03
   1.54999995      -1.11639788E-02
   1.60000002      -1.12022310E-02
   1.64999998      -1.45296752E-03
   1.70000005       1.28619717E-02
   1.75000000       2.11291090E-02
   1.79999995       1.51016805E-02
   1.85000002      -3.70915933E-03
   1.89999998      -2.33433172E-02
   1.95000005      -2.90957429E-02
   2.00000000      -1.46318348E-02
   2.04999995       1.19842961E-02
   2.09999990       3.27368528E-02
   2.15000010       3.21973860E-02
   2.20000005       9.17880144E-03
   2.25000000      -2.14561746E-02
   2.29999995      -3.87652181E-02
   2.34999990      -3.05101275E-02
   2.40000010      -1.95391057E-03
   2.45000005       2.77871173E-02
   2.50000000       3.91400568E-02
   2.54999995       2.54374407E-02
   2.59999990      -3.22821178E-03
   2.65000010      -2.78158598E-02
   2.70000005      -3.35030891E-02
   2.75000000      -1.87850706E-02
   2.79999995       5.18261828E-03
   2.84999990       2.32585836E-02
   2.90000010       2.60301512E-02
   2.95000005       1.43088009E-02
   3.00000000      -3.42035061E-03
   3.04999995      -1.72032379E-02
   3.09999990      -2.09821817E-02
   3.15000010      -1.44515904E-02
   3.20000005      -1.88304274E-03
   3.25000000       1.04623204E-02
   3.29999995       1.70188639E-02
   3.34999990       1.50736300E-02
   3.40000010       6.13355357E-03
   3.45000005      -4.54111351E-03
   3.50000000      -1.08021460E-02
   3.54999995      -9.57007613E-03
   3.59999990      -3.08224559E-03
   3.65000010       2.68126442E-03
   3.70000005       2.88391137E-03
   3.75000000      -1.82186894E-03
   3.79999995      -5.60148945E-03
   3.84999990      -2.74607493E-03
   3.90000010       6.35069609E-03
   3.95000005       1.40497088E-02
   4.00000000       1.14080543E-02
   4.05000019      -3.22205317E-03
   4.09999990      -2.04202514E-02
   4.15000010      -2.54344884E-02
   4.19999981      -1.01831593E-02
   4.25000000       1.80871524E-02
   4.30000019       3.94274518E-02
   4.34999990       3.52835394E-02
   4.40000010       3.72534548E-03
   4.44999981      -3.62329967E-02
   4.50000000      -5.62653728E-02
   4.55000019      -3.91204394E-02
   4.59999990       7.17010628E-03
   4.65000010       5.27178235E-02
   4.69999981       6.56349435E-02
   4.75000000       3.47252786E-02
   4.80000019      -2.14424673E-02
   4.84999990      -6.60361797E-02
   4.90000010      -6.87769428E-02
   4.94999981      -2.66814437E-02
   5.00000000       3.35375182E-02
   5.05000019       7.30604455E-02
   5.09999990       6.65573850E-02
   5.15000010       1.85649600E-02
   5.19999981      -4.00206037E-02
   5.25000000      -7.23153427E-02
   5.30000019      -5.91108091E-02
   5.34999990      -1.02263633E-02
   5.40000010       4.28240448E-02
   5.44999981       6.73567057E-02
   5.50000000       4.97916713E-02
   5.55000019       3.07367393E-03
   5.59999990      -4.28961962E-02
   5.65000010      -6.04112782E-02
   5.69999981      -4.09593694E-02
   5.75000000       1.13826327E-03
   5.80000019       3.88220660E-02
   5.84999990       4.98421080E-02
   5.90000010       2.98938025E-02
   5.94999981      -6.07113121E-03
   6.00000000      -3.45637575E-02
   6.05000019      -3.86426114E-02
   6.09999990      -1.76833402E-02
   6.15000010       1.35104004E-02
   6.19999981       3.48978303E-02
   6.25000000       3.35103162E-02
   6.30000019       1.07265599E-02
   6.34999990      -1.94094498E-02
   6.40000010      -3.87099124E-02
   6.44999981      -3.52918953E-02
   6.50000000      -1.03908656E-02
   6.55000019       2.22748537E-02
   6.59999990       4.35084514E-02
   6.65000010       3.93905900E-02
   6.69999981       1.02505675E-02
   6.75000000      -2.79165711E-02
   6.80000019      -5.14732152E-02
   6.84999990      -4.33969721E-02
   6.90000010      -5.61113283E-03
   6.94999981       3.96380685E-02
   7.00000000       6.22437559E-02
   7.05000019       4.43206318E-02
   7.09999990      -5.51801920E-03
   7.15000010      -5.53141609E-02
   7.19999981      -7.00728148E-02
   7.25000000      -3.68322656E-02
   7.30000019       2.40021273E-02
   7.34999990       7.08485767E-02
   7.40000010       6.97567165E-02
   7.44999981       1.94901023E-02
   7.50000000      -4.58827168E-02
   7.55000019      -8.03088844E-02
   7.59999990      -5.88910058E-02
   7.65000010       3.68818291E-03
   7.69999981       6.31616414E-02
   7.75000000       7.75389895E-02
   7.80000019       3.73768248E-02
   7.84999990      -2.78646704E-02
   7.90000010      -7.14948177E-02
   7.94999981      -6.34384528E-02
   8.00000000      -1.11576607E-02
   8.05000019       4.71832454E-02
   8.10000038       7.09229708E-02
   8.14999962       4.54306565E-02
   8.19999981      -9.34442598E-03
   8.25000000      -5.49965166E-02
   8.30000019      -6.21427037E-02
   8.35000038      -2.92878486E-02
   8.39999962       1.90384220E-02
   8.44999981       5.10778874E-02
   8.50000000       4.90824841E-02
   8.55000019       1.84365027E-02
   8.60000038      -1.91705879E-02
   8.64999962      -4.13717777E-02
   8.69999981      -3.81204784E-02
   8.75000000      -1.48164202E-02
   8.80000019       1.37656564E-02
   8.85000038       3.27553004E-02
   8.89999962       3.39621343E-02
   8.94999981       1.79862138E-02
   9.00000000      -7.18668662E-03
   9.05000019      -2.94394791E-02
   9.10000038      -3.70437689E-02
   9.14999962      -2.40961723E-02
   9.19999981       4.93824901E-03
   9.25000000       3.50823812E-02
   9.30000019       4.74965163E-02
   9.35000038       3.09809837E-02
   9.39999962      -8.50808155E-03
   9.44999981      -4.81631421E-02
   9.50000000      -6.09465726E-02
   9.55000019      -3.41059566E-02
   9.60000038       1.91706456E-02
   9.64999962       6.50612116E-02
   9.69999981       7.05568790E-02
   9.75000000       2.75679510E-02
   9.80000019      -3.81084271E-02
   9.85000038      -8.18333104E-02
   9.89999962      -7.08727166E-02
   9.94999981      -9.46811028E-03
   10.0000000       6.13309704E-02
   10.0500002       9.13986266E-02
   10.1000004       5.79531156E-02
   10.1499996      -1.63202770E-02
   10.1999998      -7.84971938E-02
   10.2500000      -8.38757232E-02
   10.3000002      -2.95354966E-02
   10.3500004       4.33122478E-02
   10.3999996       8.05487782E-02
   10.4499998       5.62493019E-02
   10.5000000      -8.14415328E-03
   10.5500002      -6.16091788E-02
   10.6000004      -6.39989376E-02
   10.6499996      -1.67917460E-02
   10.6999998       4.00620922E-02
   10.7500000       6.15453236E-02
   10.8000002       3.34467106E-02
   10.8500004      -1.84568409E-02
   10.8999996      -5.18360734E-02
   10.9499998      -4.29753959E-02
   11.0000000      -3.85806174E-03
   11.0500002       3.15421224E-02
   11.1000004       3.76351736E-02
   11.1499996       1.68551616E-02
   11.1999998      -7.25977682E-03
   11.2500000      -1.46894883E-02
   11.3000002      -6.78140158E-03
   11.3500004      -9.29251255E-04
   11.3999996      -8.90062377E-03
   11.4499998      -2.18715537E-02
   11.5000000      -1.86476428E-02
   11.5500002       9.97208804E-03
   11.6000004       4.55176868E-02
   11.6499996       5.36266826E-02
   11.6999998       1.60192009E-02
   11.7500000      -4.63351011E-02
   11.8000002      -8.38931724E-02
   11.8500004      -5.86960502E-02
   11.8999996       1.90391764E-02
   11.9499998       9.22488868E-02
   12.0000000      0.100113019    
   12.0500002       2.94008888E-02
   12.1000004      -6.98291808E-02
   12.1499996     -0.120828129    
   12.1999998      -8.14136863E-02
   12.2500000       2.03284957E-02
   12.3000002      0.106728345    
   12.3500004      0.111927003    
   12.3999996       3.40237655E-02
   12.4499998      -6.46404549E-02
   12.5000000     -0.108622074    
   12.5500002      -6.89848810E-02
   12.6000004       1.70790534E-02
   12.6499996       8.04048032E-02
   12.6999998       7.66047612E-02
   12.7500000       1.78032927E-02
   12.8000002      -4.39784601E-02
   12.8500004      -6.31481409E-02
   12.8999996      -3.49589474E-02
   12.9499998       8.76974780E-03
   13.0000000       3.31345946E-02
   13.0500002       2.92747635E-02
   13.1000004       1.40575171E-02
   13.1499996       5.80198690E-03
   13.1999998       3.98114510E-03
   13.2500000      -6.01237081E-03
   13.3000002      -2.97359265E-02
   13.3500004      -4.92782556E-02
   13.3999996      -3.66810858E-02
   13.4499998       1.49493171E-02
   13.5000000       7.42151812E-02
   13.5500002       9.04323682E-02
   13.6000004       3.75656858E-02
   13.6499996      -5.54151349E-02
   13.6999998     -0.119386330    
   13.7500000      -9.86881182E-02
   13.8000002      -4.63857927E-04
   13.8500004      0.104398169    
   13.8999996      0.134290412    
   13.9499998       6.29227385E-02
   14.0000000      -5.65158203E-02
   14.0500002     -0.131401092    
   14.1000004     -0.103161506    
   14.1499996       5.31715201E-03
   14.1999998      0.107522808    
   14.2500000      0.122400232    
   14.3000002       3.88648026E-02
   14.3500004      -7.60396868E-02
   14.3999996     -0.131093144    
   14.4499998      -8.29572752E-02
   14.5000000       3.08736321E-02
   14.5500002      0.122737616    
   14.6000004      0.123057045    
   14.6499996       3.23305763E-02
   14.6999998      -8.16679150E-02
   14.7500000     -0.136375844    
   14.8000002      -9.48377550E-02
   14.8500004       1.04127182E-02
   14.8999996      0.104351662    
   14.9499998      0.124200962    
   15.0000000       6.14742413E-02
   15.0500002      -3.63855921E-02
   15.1000004     -0.102246530    
   15.1499996      -9.57423374E-02
   15.1999998      -2.81221475E-02
   15.2500000       4.93244678E-02
   15.3000002       8.30840096E-02
   15.3500004       5.45646474E-02
   15.3999996      -8.81470274E-03
   15.4499998      -5.57272583E-02
   15.5000000      -5.02204075E-02
   15.5500002       6.00402243E-04
   15.6000004       5.18387258E-02
   15.6499996       5.64653687E-02
   15.6999998       4.77859518E-03
   15.7500000      -6.42019361E-02
   15.8000002      -9.12597030E-02
   15.8500004      -4.53587659E-02
   15.8999996       4.67795730E-02
   15.9499998      0.116596140    
   16.0000000      0.106045410    
   16.0499992       1.58473365E-02
   16.1000004      -9.07488018E-02
   16.1499996     -0.134740993    
   16.2000008      -8.29587579E-02
   16.2500000       2.52782758E-02
   16.2999992      0.108923994    
   16.3500004      0.108888902    
   16.3999996       3.27680744E-02
   16.4500008      -5.52421212E-02
   16.5000000      -8.89796317E-02
   16.5499992      -5.25007397E-02
   16.6000004       1.30907651E-02
   16.6499996       5.04784323E-02
   16.7000008       3.60733531E-02
   16.7500000      -4.77664219E-03
   16.7999992      -2.75091790E-02
   16.8500004      -1.22514162E-02
   16.8999996       1.97135303E-02
   16.9500008       3.05529851E-02
   17.0000000       5.59106469E-03
   17.0499992      -3.14079821E-02
   17.1000004      -4.21955325E-02
   17.1499996      -1.31836412E-02
   17.2000008       2.94198804E-02
   17.2500000       4.43704389E-02
   17.2999992       1.64009966E-02
   17.3500004      -2.71966942E-02
   17.3999996      -4.22267541E-02
   17.4500008      -1.17453635E-02
   17.5000000       3.48513909E-02
   17.5499992       4.86709923E-02
   17.6000004       1.02703311E-02
   17.6499996      -4.71379906E-02
   17.7000008      -6.58731908E-02
   17.7500000      -1.98497623E-02
   17.7999992       5.48467785E-02
   17.8500004       8.79760906E-02
   17.8999996       4.02486399E-02
   17.9500008      -5.41694202E-02
   18.0000000     -0.111380585    
   18.0499992      -7.18236044E-02
   18.1000004       4.05809060E-02
   18.1499996      0.131333739    
   18.2000008      0.114975296    
   18.2500000      -6.07742090E-03
   18.2999992     -0.135455996    
   18.3500004     -0.160608768    
   18.3999996      -5.06586172E-02
   18.4500008      0.111008041    
   18.5000000      0.191554368    
   18.5499992      0.119194493    
   18.6000004      -5.38103431E-02
   18.6499996     -0.190595165    
   18.7000008     -0.180397958    
   18.7500000      -2.89762840E-02
   18.7999992      0.145917833    
   18.8500004      0.209275842    
   18.8999996      0.115137793    
   18.9500008      -6.08412251E-02
   19.0000000     -0.185090944    
   19.0499992     -0.170339689    
   19.1000004      -3.70581821E-02
   19.1499996      0.111095682    
   19.2000008      0.170369089    
   19.2500000      0.110085212    
   19.2999992      -1.58845242E-02
   19.3500004     -0.117722288    
   19.3999996     -0.133901790    
   19.4500008      -6.49764463E-02
   19.5000000       3.76798101E-02
   19.5499992      0.109908894    
   19.6000004      0.111396119    
   19.6499996       4.37219217E-02
   19.7000008      -5.27527109E-02
   19.7500000     -0.119216241    
   19.7999992     -0.110010140    
   19.8500004      -2.32159588E-02
   19.8999996       8.95282403E-02
   19.9500008      0.149255931    
   20.0000000      0.103946470    
   20.0499992      -2.56504044E-02
   20.1000004     -0.149633273    
   20.1499996     -0.170338005    
   20.2000008      -6.07084222E-02
   20.2500000      0.104697764    
   20.2999992      0.199540868    
   20.3500004      0.144345909    
   20.3999996      -2.47170106E-02
   20.4500008     -0.178130329    
   20.5000000     -0.194397420    
   20.5499992      -5.98122329E-02
   20.6000004      0.118000217    
   20.6499996      0.197031498    
   20.7000008      0.117478319    
   20.7500000      -4.99256179E-02
   20.7999992     -0.165120959    
   20.8500004     -0.137077361    
   20.8999996       1.78065326E-03
   20.9500008      0.127715707    
   21.0000000      0.134421542    
   21.0499992       2.28728633E-02
   21.1000004     -0.104116768    
   21.1499996     -0.134878904    
   21.2000008      -4.55968231E-02
   21.2500000       8.29647854E-02
   21.2999992      0.139462739    
   21.3500004       7.86500126E-02
   21.3999996      -4.39873412E-02
   21.4500008     -0.125343442    
   21.5000000     -0.104068182    
   21.5499992      -7.12643750E-03
   21.6000004       8.20046589E-02
   21.6499996       9.81296673E-02
   21.7000008       4.35508117E-02
   21.7500000      -2.64779162E-02
   21.7999992      -5.92778884E-02
   21.8500004      -4.59745787E-02
   21.8999996      -1.48345465E-02
   21.9500008       6.56719645E-03
   22.0000000       1.63928848E-02
   22.0499992       2.75977701E-02
   22.1000004       3.98054905E-02
   22.1499996       3.20396014E-02
   22.2000008      -1.10806422E-02
   22.2500000      -6.85966909E-02
   22.2999992      -8.83904770E-02
   22.3500004      -3.40236016E-02
   22.3999996       6.88035414E-02
   22.4500008      0.138220310    
   22.5000000      0.102041051    
   22.5499992      -3.03399209E-02
   22.6000004     -0.159959674    
   22.6499996     -0.173439592    
   22.7000008      -4.31295522E-02
   22.7500000      0.137083724    
   22.7999992      0.220664516    
   22.8500004      0.130535081    
   22.8999996      -6.96138591E-02
   22.9500008     -0.221059293    
   23.0000000     -0.199543491    
   23.0499992      -2.01874468E-02
   23.1000004      0.172797620    
   23.1499996      0.224870920    
   23.2000008       9.84153822E-02
   23.2500000      -9.89176109E-02
   23.2999992     -0.206904486    
   23.3500004     -0.145469397    
   23.3999996       2.47905776E-02
   23.4500008      0.160983354    
   23.5000000      0.159639746    
   23.5499992       3.63647677E-02
   23.6000004      -9.90479663E-02
   23.6499996     -0.141493812    
   23.7000008      -7.35659674E-02
   23.7500000       3.40854488E-02
   23.7999992       9.40535292E-02
   23.8500004       7.47560337E-02
   23.8999996       1.27528105E-02
   23.9500008      -3.43373120E-02
   24.0000000      -4.12356742E-02
   24.0499992      -2.52094381E-02
   24.1000004      -1.32012563E-02
   24.1499996      -8.65123048E-03
   24.2000008       5.50875394E-03
   24.2500000       3.52368914E-02
   24.2999992       5.62040620E-02
   24.3500004       3.47067341E-02
   24.3999996      -2.99209598E-02
   24.4500008      -8.93243849E-02
   24.5000000      -8.28430578E-02
   24.5499992       1.43975636E-03
   24.6000004      0.101822592    
   24.6499996      0.127870992    
   24.7000008       4.24517393E-02
   24.7500000      -9.39668268E-02
   24.7999992     -0.165229306    
   24.8500004      -9.91797447E-02
   24.8999996       6.15341812E-02
   24.9500008      0.185848624    
   25.0000000      0.162730739    
   25.0499992       3.57740006E-04
   25.1000004     -0.173010975    
   25.1499996     -0.212840185    
   25.2000008      -8.08005035E-02
   25.2500000      0.119589210    
   25.2999992      0.226820171    
   25.3500004      0.154809669    
   25.3999996      -3.68211679E-02
   25.4500008     -0.193929553    
   25.5000000     -0.195267439    
   25.5499992      -4.81993556E-02
   25.6000004      0.124506630    
   25.6499996      0.189667165    
   25.7000008      0.108701929    
   25.7500000      -4.20487821E-02
   25.7999992     -0.143468827    
   25.8500004     -0.130009860    
   25.8999996      -3.04471236E-02
   25.9500008       7.05054849E-02
   26.0000000      0.105640538    
   26.0499992       6.90884963E-02
   26.1000004       3.05837533E-03
   26.1499996      -4.67577092E-02
   26.2000008      -6.20071106E-02
   26.2500000      -4.86523807E-02
   26.2999992      -1.76497437E-02
   26.3500004       2.29653288E-02
   26.3999996       5.93852252E-02
   26.4500008       6.72104806E-02
   26.5000000       2.80405451E-02
   26.5499992      -4.38490547E-02
   26.6000004      -9.73028988E-02
   26.6499996      -8.00157189E-02
   26.7000008       1.01964017E-02
   26.7500000      0.108559333    
   26.7999992      0.128244445    
   26.8500004       3.71761471E-02
   26.8999996     -0.101544037    
   26.9500008     -0.171211645    
   27.0000000      -9.96162742E-02
   27.0499992       6.92614317E-02
   27.1000004      0.199507073    
   27.1499996      0.173148811    
   27.2000008      -3.95411160E-03
   27.2500000     -0.195081204    
   27.2999992     -0.239499032    
   27.3500004      -8.84340554E-02
   27.3999996      0.145851970    
   27.4500008      0.275253952    
   27.5000000      0.189148501    
   27.5499992      -5.11635765E-02
   27.6000004     -0.257908016    
   27.6499996     -0.267108619    
   27.7000008      -7.06916824E-02
   27.7500000      0.177717313    
   27.7999992      0.286730230    
   27.8500004      0.178163722    
   27.8999996      -5.65782711E-02
   27.9500008     -0.235469729    
   28.0000000     -0.230486959    
   28.0499992      -6.05184734E-02
   28.1000004      0.135643974    
   28.1499996      0.214439422    
   28.2000008      0.133797497    
   28.2500000      -2.89478973E-02
   28.2999992     -0.149346530    
   28.3500004     -0.151255831    
   28.3999996      -5.18227406E-02
   28.4500008       6.71838671E-02
   28.5000000      0.126210630    
   28.5499992       9.81784910E-02
   28.6000004       1.31321251E-02
   28.6499996      -7.20211193E-02
   28.7000008     -0.109348632    
   28.7500000      -8.09785798E-02
   28.7999992      -3.31230974E-03
   28.8500004       8.06248561E-02
   28.8999996      0.119522400    
   28.9500008       8.18823203E-02
   29.0000000      -1.78988148E-02
   29.0499992     -0.117569230    
   29.1000004     -0.142513245    
   29.1499996      -6.20181747E-02
   29.2000008       7.65495971E-02
   29.2500000      0.171707407    
   29.2999992      0.142304048    
   29.3500004      -2.41375598E-03
   29.3999996     -0.158495218    
   29.4500008     -0.202079937    
   29.5000000      -8.94376040E-02
   29.5499992      0.100076184    
   29.6000004      0.219811887    
   29.6499996      0.171417654    
   29.7000008      -1.25192329E-02
   29.7500000     -0.189539641    
   29.7999992     -0.219294548    
   29.8500004      -7.70372376E-02
   29.8999996      0.124767035    
   29.9500008      0.226118281    
   30.0000000      0.148034111    
   30.0499992      -4.47946526E-02
   30.1000004     -0.197805569    
   30.1499996     -0.191577733    
   30.2000008      -3.58235352E-02
   30.2500000      0.142525926    
   30.2999992      0.203883752    
   30.3500004      0.106070675    
   30.3999996      -6.78090751E-02
   30.4500008     -0.181025624    
   30.5000000     -0.151906401    
   30.5499992      -1.21379970E-02
   30.6000004      0.126405358    
   30.6499996      0.162538052    
   30.7000008       7.94515535E-02
   30.7500000      -5.22410832E-02
   30.7999992     -0.135632709    
   30.8500004     -0.119107611    
   30.8999996      -2.52673905E-02
   30.9500008       7.57087618E-02
   31.0000000      0.119340658    
   31.0499992       8.57331529E-02
   31.1000004       3.08754970E-03
   31.1499996      -7.66432583E-02
   31.2000008     -0.108545244    
   31.2500000      -7.58360028E-02
   31.2999992       3.71053629E-03
   31.3500004       8.53995681E-02
   31.3999996      0.118602186    
   31.4500008       7.60599598E-02
   31.5000000      -2.31676064E-02
   31.5499992     -0.116879791    
   31.6000004     -0.136423498    
   31.6499996      -5.77538125E-02
   31.7000008       7.16726482E-02
   31.7500000      0.158541352    
   31.7999992      0.131277874    
   31.8500004       4.01555590E-04
   31.8999996     -0.140155047    
   31.9500008     -0.180107787    
   32.0000000      -8.05975944E-02
   32.0499992       8.82451683E-02
   32.0999985      0.195947811    
   32.1500015      0.153407082    
   32.2000008      -1.25581697E-02
   32.2500000     -0.174955502    
   32.2999992     -0.204639614    
   32.3499985      -7.40724653E-02
   32.4000015      0.117591061    
   32.4500008      0.220846057    
   32.5000000      0.153958187    
   32.5499992      -3.17968689E-02
   32.5999985     -0.192510024    
   32.6500015     -0.205170244    
   32.7000008      -6.32789508E-02
   32.7500000      0.120950930    
   32.7999992      0.207113296    