  -10.0000000       0.00000000    
  -9.94999981       0.00000000    
  -9.89999962       0.00000000    
  -9.85000038       0.00000000    
  -9.80000019       0.00000000    
  -9.75000000       0.00000000    
  -9.69999981       0.00000000    
  -9.64999962       0.00000000    
  -9.60000038       0.00000000    
  -9.55000019       1.10109307E-20
  -9.50000000       8.54287787E-19
  -9.44999981       8.45195366E-18
  -9.39999962       3.87036055E-17
  -9.35000038       9.00777386E-17
  -9.30000019       2.97736448E-17
  -9.25000000      -5.22167648E-16
  -9.19999981      -1.84541205E-15
  -9.14999962      -2.76345198E-15
  -9.10000038       7.97068750E-16
  -9.05000019       1.33645883E-14
  -9.00000000       2.93668051E-14
  -8.94999981       2.01037307E-14
  -8.89999962      -5.74454696E-14
  -8.85000038      -2.02292935E-13
  -8.80000019      -2.81658486E-13
  -8.75000000      -2.63819999E-14
  -8.69999981       7.43822376E-13
  -8.64999962       1.69449860E-12
  -8.60000038       1.75764644E-12
  -8.55000019      -2.57015736E-13
  -8.50000000      -4.10688063E-12
  -8.44999981      -6.80891975E-12
  -8.39999962      -3.77434585E-12
  -8.35000038       6.57068757E-12
  -8.30000019       1.75204157E-11
  -8.25000000       1.47926307E-11
  -8.19999981      -1.20204801E-11
  -8.14999962      -5.26387059E-11
  -8.10000038      -7.13753986E-11
  -8.05000019      -3.11543950E-11
  -8.00000000       6.09149259E-11
  -7.94999981       1.28128688E-10
  -7.90000010       6.91976823E-11
  -7.84999990      -1.26093413E-10
  -7.80000019      -2.81549756E-10
  -7.75000000      -9.93799140E-11
  -7.69999981       5.62650537E-10
  -7.65000010       1.36921530E-09
  -7.59999990       1.49158319E-09
  -7.55000019       1.52514196E-10
  -7.50000000      -2.47236231E-09
  -7.44999981      -4.74200901E-09
  -7.40000010      -4.24250102E-09
  -7.34999990       2.69531591E-10
  -7.30000019       6.91175828E-09
  -7.25000000       1.06831326E-08
  -7.19999981       6.52271526E-09
  -7.15000010      -5.94172800E-09
  -7.09999990      -1.96568237E-08
  -7.05000019      -2.29715198E-08
  -7.00000000      -7.95010457E-09
  -6.94999981       2.10477591E-08
  -6.90000010       4.61226008E-08
  -6.84999990       4.58418015E-08
  -6.80000019       1.18137198E-08
  -6.75000000      -4.02216571E-08
  -6.69999981      -7.59115295E-08
  -6.65000010      -6.46080736E-08
  -6.59999990      -4.52217552E-09
  -6.55000019       6.91154796E-08
  -6.50000000       1.03232495E-07
  -6.44999981       6.36990336E-08
  -6.40000010      -3.58007561E-08
  -6.34999990      -1.35938507E-07
  -6.30000019      -1.66964796E-07
  -6.25000000      -9.43646086E-08
  -6.19999981       5.62163898E-08
  -6.15000010       2.11046739E-07
  -6.09999990       2.87508612E-07
  -6.05000019       2.34699385E-07
  -6.00000000       5.55083659E-08
  -5.94999981      -1.91913742E-07
  -5.90000010      -4.05999486E-07
  -5.84999990      -4.67411127E-07
  -5.80000019      -2.88613421E-07
  -5.75000000       1.15472673E-07
  -5.69999981       5.76220600E-07
  -5.65000010       8.06450714E-07
  -5.59999990       5.56527084E-07
  -5.55000019      -1.71704428E-07
  -5.50000000      -1.01256217E-06
  -5.44999981      -1.37733559E-06
  -5.40000010      -8.41392648E-07
  -5.34999990       4.54482745E-07
  -5.30000019       1.72745263E-06
  -5.25000000       1.98226235E-06
  -5.19999981       7.53856739E-07
  -5.15000010      -1.36096696E-06
  -5.09999990      -2.88763044E-06
  -5.05000019      -2.42242686E-06
  -5.00000000       2.27026291E-07
  -4.94999981       3.58441048E-06
  -4.90000010       5.25639734E-06
  -4.84999990       3.56230180E-06
  -4.80000019      -1.05612150E-06
  -4.75000000      -5.97583630E-06
  -4.69999981      -7.95592223E-06
  -4.65000010      -5.38168206E-06
  -4.59999990       4.07585532E-07
  -4.55000019       5.80748338E-06
  -4.50000000       7.34921741E-06
  -4.44999981       4.18428726E-06
  -4.40000010      -1.18297692E-06
  -4.34999990      -4.58357317E-06
  -4.30000019      -3.20113827E-06
  -4.25000000       2.22883932E-06
  -4.19999981       7.69879080E-06
  -4.15000010       8.61183253E-06
  -4.09999990       3.04952550E-06
  -4.05000019      -6.65920243E-06
  -4.00000000      -1.51891572E-05
  -3.95000005      -1.74637498E-05
  -3.90000010      -1.17358222E-05
  -3.84999990      -5.43567808E-07
  -3.79999995       1.09159155E-05
  -3.75000000       1.77722341E-05
  -3.70000005       1.79010676E-05
  -3.65000010       1.24796325E-05
  -3.59999990       4.72681813E-06
  -3.54999995      -2.07107951E-06
  -3.50000000      -6.02066575E-06
  -3.45000005      -7.00162400E-06
  -3.40000010      -6.19538741E-06
  -3.34999990      -5.33156117E-06
  -3.29999995      -6.02082173E-06
  -3.25000000      -9.17480520E-06
  -3.20000005      -1.44104233E-05
  -3.15000010      -1.96007059E-05
  -3.09999990      -2.10657872E-05
  -3.04999995      -1.48611207E-05
  -3.00000000       9.73440024E-07
  -2.95000005       2.42181777E-05
  -2.90000010       4.78803595E-05
  -2.84999990       6.23415399E-05
  -2.79999995       5.99253726E-05
  -2.75000000       3.97252152E-05
  -2.70000005       9.54044390E-06
  -2.65000010      -1.72859309E-05
  -2.59999990      -2.94401198E-05
  -2.54999995      -2.55731738E-05
  -2.50000000      -1.71208612E-05
  -2.45000005      -2.27318924E-05
  -2.40000010      -5.62810237E-05
  -2.34999990      -1.15605049E-04
  -2.29999995      -1.80220479E-04
  -2.25000000      -2.21522365E-04
  -2.20000005      -2.20591639E-04
  -2.15000010      -1.82310963E-04
  -2.09999990      -1.35209892E-04
  -2.04999995      -1.15068025E-04
  -2.00000000      -1.41672383E-04
  -1.95000005      -2.04243275E-04
  -1.89999998      -2.66686518E-04
  -1.85000002      -2.90917465E-04
  -1.79999995      -2.63520109E-04
  -1.75000000      -2.07378529E-04
  -1.70000005      -1.69083185E-04
  -1.64999998      -1.89271712E-04
  -1.60000002      -2.75397557E-04
  -1.54999995      -3.95729992E-04
  -1.50000000      -4.99512942E-04
  -1.45000005      -5.50349010E-04
  -1.39999998      -5.50374272E-04
  -1.35000002      -5.38498629E-04
  -1.29999995      -5.63342939E-04
  -1.25000000      -6.48833346E-04
  -1.20000005      -7.75892928E-04
  -1.14999998      -8.93391436E-04
  -1.10000002      -9.52133560E-04
  -1.04999995      -9.39979043E-04
  -1.00000000      -8.94649536E-04
 -0.949999988      -8.84638692E-04
 -0.899999976      -9.69136367E-04
 -0.850000024      -1.16181583E-03
 -0.800000012      -1.42156426E-03
 -0.750000000      -1.67657912E-03
 -0.699999988      -1.86715717E-03
 -0.649999976      -1.98051939E-03
 -0.600000024      -2.05606851E-03
 -0.550000012      -2.15850654E-03
 -0.500000000      -2.33685272E-03
 -0.449999988      -2.59596226E-03
 -0.400000006      -2.89795105E-03
 -0.349999994      -3.19044571E-03
 -0.300000012      -3.44108301E-03
 -0.250000000      -3.65520990E-03
 -0.200000003      -3.86741920E-03
 -0.150000006      -4.11667023E-03
 -0.100000001      -4.42494126E-03
  -5.00000007E-02  -4.79357084E-03
   0.00000000      -5.21537149E-03
   5.00000007E-02  -5.68793202E-03
  0.100000001      -6.21462520E-03
  0.150000006      -6.79318933E-03
  0.200000003      -7.40508968E-03
  0.250000000      -8.01975187E-03
  0.300000012      -8.61460436E-03
  0.349999994      -9.19586513E-03
  0.400000006      -9.80089232E-03
  0.449999988      -1.04760882E-02
  0.500000000      -1.12449294E-02
  0.550000012      -1.20915631E-02
  0.600000024      -1.29756704E-02
  0.649999976      -1.38701852E-02
  0.699999988      -1.47935217E-02
  0.750000000      -1.58090349E-02
  0.800000012      -1.69873368E-02
  0.850000024      -1.83553584E-02
  0.899999976      -1.98682453E-02
  0.949999988      -2.14266870E-02
   1.00000000      -2.29322650E-02
   1.04999995      -2.43479386E-02
   1.10000002      -2.57267710E-02
   1.14999998      -2.71912273E-02
   1.20000005      -2.88740098E-02
   1.25000000      -3.08521092E-02
   1.29999995      -3.31080481E-02
   1.35000002      -3.55376005E-02
   1.39999998      -3.80007178E-02
   1.45000005      -4.03921455E-02
   1.50000000      -4.26982194E-02
   1.54999995      -4.50107977E-02
   1.60000002      -4.74878401E-02
   1.64999998      -5.02774939E-02
   1.70000005      -5.34444191E-02
   1.75000000      -5.69397733E-02
   1.79999995      -6.06333055E-02
   1.85000002      -6.43887818E-02
   1.89999998      -6.81362897E-02
   1.95000005      -7.18973428E-02
   2.00000000      -7.57519454E-02
   2.04999995      -7.97783509E-02
   2.09999990      -8.40132758E-02
   2.15000010      -8.84606689E-02
   2.20000005      -9.31337550E-02
   2.25000000      -9.80850011E-02
   2.29999995     -0.103387199    
   2.34999990     -0.109071620    
   2.40000010     -0.115072303    
   2.45000005     -0.121231332    
   2.50000000     -0.127379194    
   2.54999995     -0.133446127    
   2.59999990     -0.139528438    
   2.65000010     -0.145856291    
   2.70000005     -0.152671993    
   2.75000000     -0.160089374    
   2.79999995     -0.168020993    
   2.84999990     -0.176220790    
   2.90000010     -0.184420630    
   2.95000005     -0.192483008    
   3.00000000     -0.200482637    
   3.04999995     -0.208668217    
   3.09999990     -0.217323110    
   3.15000010     -0.226600349    
   3.20000005     -0.236426860    
   3.25000000     -0.246539071    
   3.29999995     -0.256639838    
   3.34999990     -0.266589880    
   3.40000010     -0.276512831    
   3.45000005     -0.286731929    
   3.50000000     -0.297558188    
   3.54999995     -0.309058875    
   3.59999990     -0.320968240    
   3.65000010     -0.332826763    
   3.70000005     -0.344279349    
   3.75000000     -0.355337173    
   3.79999995     -0.366409004    
   3.84999990     -0.378052860    
   3.90000010     -0.390600801    
   3.95000005     -0.403915375    
   4.00000000     -0.417459548    
   4.05000019     -0.430644542    
   4.09999990     -0.443215489    
   4.15000010     -0.455400467    
   4.19999981     -0.467718154    
   4.25000000     -0.480588108    
   4.30000019     -0.494032860    
   4.34999990     -0.507684529    
   4.40000010     -0.521077216    
   4.44999981     -0.533990800    
   4.50000000     -0.546584606    
   4.55000019     -0.559230924    
   4.59999990     -0.572195411    
   4.65000010     -0.585419714    
   4.69999981     -0.598569930    
   4.75000000     -0.611296535    
   4.80000019     -0.623490095    
   4.84999990     -0.635333836    
   4.90000010     -0.647125959    
   4.94999981     -0.659025848    
   5.00000000     -0.670926094    
   5.05000019     -0.682537079    
   5.09999990     -0.693599582    
   5.15000010     -0.704052567    
   5.19999981     -0.714034796    
   5.25000000     -0.723744690    
   5.30000019     -0.733281374    
   5.34999990     -0.742585897    
   5.40000010     -0.751503110    
   5.44999981     -0.759889483    
   5.50000000     -0.767676175    
   5.55000019     -0.774857998    
   5.59999990     -0.781446874    
   5.65000010     -0.787446976    
   5.69999981     -0.792868435    
   5.75000000     -0.797747135    
   5.80000019     -0.802129984    
   5.84999990     -0.806029499    
   5.90000010     -0.809386373    
   5.94999981     -0.812081337    
   6.00000000     -0.813993037    
   6.05000019     -0.815057278    
   6.09999990     -0.815284073    
   6.15000010     -0.814729571    
   6.19999981     -0.813458860    
   6.25000000     -0.811534643    
   6.30000019     -0.809025109    
   6.34999990     -0.805994093    
   6.40000010     -0.802449465    
   6.44999981     -0.798282087    
   6.50000000     -0.793264687    
   6.55000019     -0.787152231    
   6.59999990     -0.779844463    
   6.65000010     -0.771494091    
   6.69999981     -0.762462080    
   6.75000000     -0.753118336    
   6.80000019     -0.743611813    
   6.84999990     -0.733770609    
   6.90000010     -0.723212123    
   6.94999981     -0.711593270    
   7.00000000     -0.698828220    
   7.05000019     -0.685125589    
   7.09999990     -0.670830309    
   7.15000010     -0.656194687    
   7.19999981     -0.641245544    
   7.25000000     -0.625828266    
   7.30000019     -0.609773099    
   7.34999990     -0.593043387    
   7.40000010     -0.575755775    
   7.44999981     -0.558072805    
   7.50000000     -0.540067852    
   7.55000019     -0.521675169    
   7.59999990     -0.502762616    
   7.65000010     -0.483265340    
   7.69999981     -0.463274300    
   7.75000000     -0.443011194    
   7.80000019     -0.422705948    
   7.84999990     -0.402463138    
   7.90000010     -0.382207423    
   7.94999981     -0.361741900    
   8.00000000     -0.340881318    
   8.05000019     -0.319579512    
   8.10000038     -0.297977597    
   8.14999962     -0.276347876    
   8.19999981     -0.254964232    
   8.25000000     -0.233966976    
   8.30000019     -0.213294998    
   8.35000038     -0.192725986    
   8.39999962     -0.172013178    
   8.44999981     -0.151051074    
   8.50000000     -0.129975602    
   8.55000019     -0.109125979    
   8.60000038      -8.88684914E-02
   8.64999962      -6.93728551E-02
   8.69999981      -5.04832268E-02
   8.75000000      -3.17912251E-02
   8.80000019      -1.28998365E-02
   8.85000038       6.27145497E-03
   8.89999962       2.53507923E-02
   8.94999981       4.36783656E-02
   9.00000000       6.07094653E-02
   9.05000019       7.64083192E-02
   9.10000038       9.13464278E-02
   9.14999962      0.106385529    
   9.19999981      0.122109339    
   9.25000000      0.138375521    
   9.30000019      0.154323339    
   9.35000038      0.168882683    
   9.39999962      0.181472838    
   9.44999981      0.192412928    
   9.50000000      0.202735230    
   9.55000019      0.213503346    
   9.60000038      0.225098312    
   9.64999962      0.236975521    
   9.69999981      0.248064741    
   9.75000000      0.257521242    
   9.80000019      0.265281767    
   9.85000038      0.272033334    
   9.89999962      0.278650463    
   9.94999981      0.285550326    
   10.0000000      0.292454779    
   10.0500002      0.298708946    
   10.1000004      0.303861082    
   10.1499996      0.308019817    
   10.1999998      0.311711788    
   10.2500000      0.315387487    
   10.3000002      0.319010228    
   10.3500004      0.322080195    
   10.3999996      0.324069977    
   10.4499998      0.324900299    
   10.5000000      0.325053573    
   10.5500002      0.325227499    
   10.6000004      0.325809419    
   10.6499996      0.326591939    
   10.6999998      0.326944828    
   10.7500000      0.326289713    
   10.8000002      0.324503005    
   10.8500004      0.321959198    
   10.8999996      0.319228739    
   10.9499998      0.316698998    
   11.0000000      0.314394474    
   11.0500002      0.312070280    
   11.1000004      0.309435308    
   11.1499996      0.306310356    
   11.1999998      0.302649587    
   11.2500000      0.298496276    
   11.3000002      0.293969393    
   11.3500004      0.289281756    
   11.3999996      0.284703970    
   11.4499998      0.280423701    
   11.5000000      0.276380569    
   11.5500002      0.272240371    
   11.6000004      0.267593205    
   11.6499996      0.262264043    
   11.6999998      0.256489486    
   11.7500000      0.250787050    
   11.8000002      0.245587498    
   11.8500004      0.240913123    
   11.8999996      0.236367956    
   11.9499998      0.231458277    
   12.0000000      0.225985810    
   12.0500002      0.220193744    
   12.1000004      0.214553148    
   12.1499996      0.209379643    
   12.1999998      0.204604849    
   12.2500000      0.199880943    
   12.3000002      0.194904566    
   12.3500004      0.189666912    
   12.3999996      0.184421763    
   12.4499998      0.179427475    
   12.5000000      0.174715489    
   12.5500002      0.170096010    
   12.6000004      0.165378913    
   12.6499996      0.160585612    
   12.6999998      0.155943140    
   12.7500000      0.151663646    
   12.8000002      0.147720039    
   12.8500004      0.143836305    
   12.8999996      0.139713958    
   12.9499998      0.135297254    
   13.0000000      0.130840361    
   13.0500002      0.126714513    
   13.1000004      0.123120040    
   13.1499996      0.119944461    
   13.1999998      0.116871603    
   13.2500000      0.113630496    
   13.3000002      0.110170007    
   13.3500004      0.106636509    
   13.3999996      0.103215314    
   13.4499998       9.99989808E-02
   13.5000000       9.69847366E-02
   13.5500002       9.41579267E-02
   13.6000004       9.15402398E-02
   13.6499996       8.91416967E-02
   13.6999998       8.68797675E-02
   13.7500000       8.45801681E-02
   13.8000002       8.20934400E-02
   13.8500004       7.94317722E-02
   13.8999996       7.67889395E-02
   13.9499998       7.44051039E-02
   14.0000000       7.23859444E-02
   14.0500002       7.06358626E-02
   14.1000004       6.89612031E-02
   14.1499996       6.72397465E-02
   14.1999998       6.54927865E-02
   14.2500000       6.37988672E-02
   14.3000002       6.21538162E-02
   14.3500004       6.04419112E-02
   14.3999996       5.85698672E-02
   14.4499998       5.66342846E-02
   14.5000000       5.49292602E-02
   14.5500002       5.37352301E-02
   14.6000004       5.30492924E-02
   14.6499996       5.25094233E-02
   14.6999998       5.16221561E-02
   14.7500000       5.01360521E-02
   14.8000002       4.82527949E-02
   14.8500004       4.64845300E-02
   14.8999996       4.52624001E-02
   14.9499998       4.46180888E-02
   15.0000000       4.42000739E-02
   15.0500002       4.35965434E-02
   15.1000004       4.26736437E-02
   15.1499996       4.16360945E-02
   15.1999998       4.07769121E-02
   15.2500000       4.01662774E-02
   15.3000002       3.95783857E-02
   15.3500004       3.87263596E-02
   15.3999996       3.75815406E-02
   15.4499998       3.64665166E-02
   15.5000000       3.58131416E-02
   15.5500002       3.57844718E-02
   15.6000004       3.60930637E-02
   15.6499996       3.61855589E-02
   15.6999998       3.56503576E-02
   15.7500000       3.45182642E-02
   15.8000002       3.32240649E-02
   15.8500004       3.22822854E-02
   15.8999996       3.19492817E-02
   15.9499998       3.21183167E-02
   16.0000000       3.24730910E-02
   16.0499992       3.27226818E-02
   16.1000004       3.27259488E-02
   16.1499996       3.24657261E-02
   16.2000008       3.19792479E-02
   16.2500000       3.13513055E-02
   16.2999992       3.07548344E-02
   16.3500004       3.04320306E-02
   16.3999996       3.05601433E-02
   16.4500008       3.10899913E-02
   16.5000000       3.17218043E-02
   16.5499992       3.20885666E-02
   16.6000004       3.20243128E-02
   16.6499996       3.16909589E-02
   16.7000008       3.14412564E-02
   16.7500000       3.15273888E-02
   16.7999992       3.19109745E-02
   16.8500004       3.23435292E-02
   16.8999996       3.26365903E-02
   16.9500008       3.28593664E-02
   17.0000000       3.32661718E-02
   17.0499992       3.40150781E-02
   17.1000004       3.49515192E-02
   17.1499996       3.56873423E-02
   17.2000008       3.59344035E-02
   17.2500000       3.57996002E-02
   17.2999992       3.57572660E-02
   17.3500004       3.62915583E-02
   17.3999996       3.75021622E-02
   17.4500008       3.90143879E-02
   17.5000000       4.02781181E-02
   17.5499992       4.10039164E-02
   17.6000004       4.13685627E-02
   17.6499996       4.18289378E-02
   17.7000008       4.27246504E-02
   17.7500000       4.40201201E-02
   17.7999992       4.53924499E-02
   17.8500004       4.65546288E-02
   17.8999996       4.75060940E-02
   17.9500008       4.84948643E-02
   18.0000000       4.97549474E-02
   18.0499992       5.12827486E-02
   18.1000004       5.28573804E-02
   18.1499996       5.42646572E-02
   18.2000008       5.54952845E-02
   18.2500000       5.67308702E-02
   18.2999992       5.81511855E-02
   18.3500004       5.97689301E-02
   18.3999996       6.14559203E-02
   18.4500008       6.31176680E-02
   18.5000000       6.48169145E-02
   18.5499992       6.67016953E-02
   18.6000004       6.88058808E-02
   18.6499996       7.09412098E-02
   18.7000008       7.28256777E-02
   18.7500000       7.43548721E-02
   18.7999992       7.57556558E-02
   18.8500004       7.74431974E-02
   18.8999996       7.96762705E-02
   18.9500008       8.23137164E-02
   19.0000000       8.49092603E-02
   19.0499992       8.70832428E-02
   19.1000004       8.88489857E-02
   19.1499996       9.05971304E-02
   19.2000008       9.27437693E-02
   19.2500000       9.53555480E-02
   19.2999992       9.80924219E-02
   19.3500004      0.100522913    
   19.3999996      0.102525070    
   19.4500008      0.104404047    
   19.5000000      0.106613845    
   19.5499992      0.109333746    
   19.6000004      0.112286963    
   19.6499996      0.114972018    
   19.7000008      0.117103592    
   19.7500000      0.118869402    
   19.7999992      0.120774418    
   19.8500004      0.123212285    
   19.8999996      0.126140431    
   19.9500008      0.129133344    
   20.0000000      0.131748036    
   20.0499992      0.133871451    
   20.1000004      0.135759547    
   20.1499996      0.137770519    
   20.2000008      0.140058890    
   20.2500000      0.142499268    
   20.2999992      0.144868806    
   20.3500004      0.147076741    
   20.3999996      0.149213582    
   20.4500008      0.151396468    
   20.5000000      0.153597400    
   20.5499992      0.155648634    
   20.6000004      0.157424077    
   20.6499996      0.159003839    
   20.7000008      0.160636008    
   20.7500000      0.162513763    
   20.7999992      0.164580986    
   20.8500004      0.166565269    
   20.8999996      0.168220356    
   20.9500008      0.169549689    
   21.0000000      0.170790493    
   21.0499992      0.172167152    
   21.1000004      0.173652396    
   21.1499996      0.174978971    
   21.2000008      0.175906569    
   21.2500000      0.176492214    
   21.2999992      0.177089840    
   21.3500004      0.178050309    
   21.3999996      0.179384202    
   21.4500008      0.180706576    
   21.5000000      0.181537971    
   21.5499992      0.181708515    
   21.6000004      0.181504413    
   21.6499996      0.181419939    
   21.7000008      0.181732193    
   21.7500000      0.182277992    
   21.7999992      0.182629183    
   21.8500004      0.182499349    
   21.8999996      0.182004541    
   21.9500008      0.181538239    
   22.0000000      0.181379572    
   22.0499992      0.181404456    
   22.1000004      0.181177467    
   22.1499996      0.180352226    
   22.2000008      0.179018050    
   22.2500000      0.177668810    
   22.2999992      0.176803857    
   22.3500004      0.176500216    
   22.3999996      0.176325858    
   22.4500008      0.175671056    
   22.5000000      0.174220234    
   22.5499992      0.172179058    
   22.6000004      0.170091614    
   22.6499996      0.168425143    
   22.7000008      0.167265534    
   22.7500000      0.166335225    
   22.7999992      0.165259063    
   22.8500004      0.163825065    
   22.8999996      0.162049696    
   22.9500008      0.160066202    
   23.0000000      0.157996014    
   23.0499992      0.155922309    
   23.1000004      0.153934434    
   23.1499996      0.152129054    
   23.2000008      0.150522724    
   23.2500000      0.148967206    
   23.2999992      0.147197530    
   23.3500004      0.145026043    
   23.3999996      0.142528817    
   23.4500008      0.140035734    
   23.5000000      0.137890816    
   23.5499992      0.136165500    
   23.6000004      0.134577915    
   23.6499996      0.132709742    
   23.7000008      0.130351678    
   23.7500000      0.127683803    
   23.7999992      0.125130668    
   23.8500004      0.123011746    
   23.8999996      0.121286884    
   23.9500008      0.119610943    
   24.0000000      0.117638938    
   24.0499992      0.115307413    
   24.1000004      0.112850852    
   24.1499996      0.110558681    
   24.2000008      0.108509444    
   24.2500000      0.106526040    
   24.2999992      0.104379296    
   24.3500004      0.102033637    
   24.3999996       9.96942073E-02
   24.4500008       9.76078361E-02
   24.5000000       9.58075598E-02
   24.5499992       9.40478444E-02
   24.6000004       9.20033157E-02
   24.6499996       8.95578191E-02
   24.7000008       8.69219750E-02
   24.7500000       8.44662562E-02
   24.7999992       8.24100673E-02
   24.8500004       8.06349963E-02
   24.8999996       7.87810236E-02
   24.9500008       7.65396208E-02
   25.0000000       7.38940090E-02
   25.0499992       7.11129084E-02
   25.1000004       6.85204342E-02
   25.1499996       6.62454218E-02
   25.2000008       6.41496554E-02
   25.2500000       6.19662702E-02
   25.2999992       5.95071204E-02
   25.3500004       5.67674339E-02
   25.3999996       5.38717397E-02
   25.4500008       5.09455986E-02
   25.5000000       4.80355620E-02
   25.5499992       4.51220125E-02
   25.6000004       4.21707258E-02
   25.6499996       3.91500629E-02
   25.7000008       3.60068753E-02
   25.7500000       3.26602906E-02
   25.7999992       2.90578865E-02
   25.8500004       2.52558496E-02
   25.8999996       2.14270242E-02
   25.9500008       1.77456755E-02
   26.0000000       1.42182717E-02
   26.0499992       1.06107518E-02
   26.1000004       6.57056971E-03
   26.1499996       1.88160280E-03
   26.2000008      -3.34281987E-03
   26.2500000      -8.70147068E-03
   26.2999992      -1.37777319E-02
   26.3500004      -1.84479635E-02
   26.3999996      -2.29870584E-02
   26.4500008      -2.78818943E-02
   26.5000000      -3.34891304E-02
   26.5499992      -3.97938825E-02
   26.6000004      -4.64441627E-02
   26.6499996      -5.30217886E-02
   26.7000008      -5.93366511E-02
   26.7500000      -6.55312464E-02
   26.7999992      -7.19423816E-02
   26.8500004      -7.88502991E-02
   26.8999996      -8.63088742E-02
   26.9500008      -9.41611230E-02
   27.0000000     -0.102190949    
   27.0499992     -0.110273592    
   27.1000004     -0.118419230    
   27.1499996     -0.126710400    
   27.2000008     -0.135214359    
   27.2500000     -0.143948078    
   27.2999992     -0.152905896    
   27.3500004     -0.162100077    
   27.3999996     -0.171564326    
   27.4500008     -0.181317806    
   27.5000000     -0.191330761    
   27.5499992     -0.201531008    
   27.6000004     -0.211849332    
   27.6499996     -0.222263768    
   27.7000008     -0.232805133    
   27.7500000     -0.243522555    
   27.7999992     -0.254442453    
   27.8500004     -0.265555263    
   27.8999996     -0.276833951    
   27.9500008     -0.288258463    
   28.0000000     -0.299818784    
   28.0499992     -0.311497092    
   28.1000004     -0.323254019    
   28.1499996     -0.335041761    
   28.2000008     -0.346837372    
   28.2500000     -0.358664155    
   28.2999992     -0.370574027    
   28.3500004     -0.382598877    
   28.3999996     -0.394710660    
   28.4500008     -0.406828910    
   28.5000000     -0.418872595    
   28.5499992     -0.430813760    
   28.6000004     -0.442682326    
   28.6499996     -0.454514563    
   28.7000008     -0.466291219    
   28.7500000     -0.477926135    
   28.7999992     -0.489326745    
   28.8500004     -0.500478327    
   28.8999996     -0.511473060    
   28.9500008     -0.522440314    
   29.0000000     -0.533420682    
   29.0499992     -0.544285476    
   29.1000004     -0.554782391    
   29.1499996     -0.564693272    
   29.2000008     -0.573991239    
   29.2500000     -0.582871139    
   29.2999992     -0.591615379    
   29.3500004     -0.600384295    
   29.3999996     -0.609085679    
   29.4500008     -0.617423177    
   29.5000000     -0.625087380    
   29.5499992     -0.631947935    
   29.6000004     -0.638106942    
   29.6499996     -0.643785179    
   29.7000008     -0.649142563    
   29.7500000     -0.654172599    
   29.7999992     -0.658740520    
   29.8500004     -0.662710369    
   29.8999996     -0.666044295    
   29.9500008     -0.668793082    
   30.0000000     -0.671002805    
   30.0499992     -0.672631741    
   30.1000004     -0.673559070    
   30.1499996     -0.673675001    
   30.2000008     -0.672971964    
   30.2500000     -0.671555579    
   30.2999992     -0.669566989    
   30.3500004     -0.667078733    
   30.3999996     -0.664044857    
   30.4500008     -0.660332263    
   30.5000000     -0.655799091    
   30.5499992     -0.650363445    
   30.6000004     -0.644030452    
   30.6499996     -0.636883318    
   30.7000008     -0.629054010    
   30.7500000     -0.620676339    
   30.7999992     -0.611820877    
   30.8500004     -0.602433324    
   30.8999996     -0.592328668    
   30.9500008     -0.581278443    
   31.0000000     -0.569162548    
   31.0499992     -0.556082487    
   31.1000004     -0.542331934    
   31.1499996     -0.528214097    
   31.2000008     -0.513824522    
   31.2500000     -0.498971701    
   31.2999992     -0.483316302    
   31.3500004     -0.466638923    
   31.3999996     -0.449028701    
   31.4500008     -0.430833787    
   31.5000000     -0.412401676    
   31.5499992     -0.393814236    
   31.6000004     -0.374834418    
   31.6499996     -0.355113268    
   31.7000008     -0.334490567    
   31.7500000     -0.313141972    
   31.7999992     -0.291452050    
   31.8500004     -0.269718975    
   31.8999996     -0.247936204    
   31.9500008     -0.225827947    
   32.0000000     -0.203103006    
   32.0499992     -0.179713398    
   32.0999985     -0.155907929    
   32.1500015     -0.132047117    
   32.2000008     -0.108340248    
   32.2500000      -8.47175866E-02
   32.2999992      -6.09275848E-02
   32.3499985      -3.67634669E-02
   32.4000015      -1.22325383E-02
   32.4500008       1.24529116E-02
   32.5000000       3.70316058E-02
   32.5499992       6.13588654E-02
   32.5999985       8.54612589E-02
   32.6500015      0.109464951    
   32.7000008      0.133476257    
   32.7500000      0.157505289    
   32.7999992      0.181466132    