  -10.0000000       0.00000000    
  -9.94999981       0.00000000    
  -9.89999962       0.00000000    
  -9.85000038       0.00000000    
  -9.80000019       0.00000000    
  -9.75000000       0.00000000    
  -9.69999981       0.00000000    
  -9.64999962       0.00000000    
  -9.60000038       1.10109281E-19
  -9.55000019       8.54287818E-18
  -9.50000000       8.44094272E-17
  -9.44999981       3.78493178E-16
  -9.39999962       8.16257752E-16
  -9.35000038      -8.92996462E-17
  -9.30000019      -6.12245367E-15
  -9.25000000      -1.87518559E-14
  -9.19999981      -2.24128425E-14
  -9.14999962       2.64248072E-14
  -9.10000038       1.61280413E-13
  -9.05000019       2.85697356E-13
  -9.00000000       6.73914117E-14
  -8.94999981      -8.68122685E-13
  -8.89999962      -2.22396667E-12
  -8.85000038      -2.24212988E-12
  -8.80000019       1.75910968E-12
  -8.75000000       1.02548083E-11
  -8.69999981       1.72088056E-11
  -8.64999962       1.01382409E-11
  -8.60000038      -1.95151430E-11
  -8.55000019      -5.86452623E-11
  -8.50000000      -6.55190346E-11
  -8.44999981       3.32534716E-12
  -8.39999962       1.33796071E-10
  -8.35000038       2.12947604E-10
  -8.30000019       8.22194257E-11
  -8.25000000      -2.95408975E-10
  -8.19999981      -6.74313383E-10
  -8.14999962      -5.93549265E-10
  -8.10000038       2.14843046E-10
  -8.05000019       1.32290323E-09
  -8.00000000       1.59283065E-09
  -7.94999981       8.28274116E-11
  -7.90000010      -2.54222088E-09
  -7.84999990      -3.50747409E-09
  -7.80000019       2.67134842E-10
  -7.75000000       8.44200354E-09
  -7.69999981       1.46859520E-08
  -7.65000010       9.28932664E-09
  -7.59999990      -1.21670105E-08
  -7.55000019      -3.96394562E-08
  -7.50000000      -4.89452319E-08
  -7.44999981      -1.77013870E-08
  -7.40000010       5.01154069E-08
  -7.34999990       1.11542583E-07
  -7.30000019       1.04136006E-07
  -7.25000000      -3.89042576E-09
  -7.19999981      -1.66248597E-07
  -7.15000010      -2.61795378E-07
  -7.09999990      -1.70297909E-07
  -7.05000019       1.17067188E-07
  -7.00000000       4.40192792E-07
  -6.94999981       5.40727001E-07
  -6.90000010       2.47940392E-07
  -6.84999990      -3.43088772E-07
  -6.80000019      -8.60634543E-07
  -6.75000000      -8.77252376E-07
  -6.69999981      -2.43864093E-07
  -6.65000010       7.13893542E-07
  -6.59999990       1.33723552E-06
  -6.55000019       1.07754659E-06
  -6.50000000      -5.41644312E-08
  -6.44999981      -1.39033239E-06
  -6.40000010      -1.99637543E-06
  -6.34999990      -1.31164029E-06
  -6.30000019       4.15738867E-07
  -6.25000000       2.23181155E-06
  -6.19999981       3.05411322E-06
  -6.15000010       2.31292211E-06
  -6.09999990       2.36526660E-07
  -6.05000019      -2.32000252E-06
  -6.00000000      -4.26613087E-06
  -5.94999981      -4.61507807E-06
  -5.90000010      -2.75497382E-06
  -5.84999990       1.17386048E-06
  -5.80000019       5.82883740E-06
  -5.75000000       8.64833964E-06
  -5.69999981       6.90978050E-06
  -5.65000010      -1.96935403E-07
  -5.59999990      -9.78155094E-06
  -5.55000019      -1.56908900E-05
  -5.50000000      -1.20563127E-05
  -5.44999981       1.71169438E-06
  -5.40000010       1.83181819E-05
  -5.34999990       2.56884523E-05
  -5.30000019       1.52777939E-05
  -5.25000000      -9.73596070E-06
  -5.19999981      -3.34322940E-05
  -5.15000010      -3.64148727E-05
  -5.09999990      -1.06145972E-05
  -5.05000019       3.11465665E-05
  -5.00000000       6.00683707E-05
  -4.94999981       5.02937146E-05
  -4.90000010      -2.21080512E-07
  -4.84999990      -6.31251824E-05
  -4.80000019      -9.53813797E-05
  -4.75000000      -6.89980079E-05
  -4.69999981       5.94153880E-06
  -4.65000010       8.36350737E-05
  -4.59999990       1.11891648E-04
  -4.55000019       6.94163100E-05
  -4.50000000      -1.62319557E-05
  -4.44999981      -8.53219390E-05
  -4.40000010      -8.76785998E-05
  -4.34999990      -2.01816129E-05
  -4.30000019       6.81241218E-05
  -4.25000000       1.08999287E-04
  -4.19999981       6.38299243E-05
  -4.15000010      -4.64926488E-05
  -4.09999990      -1.52710345E-04
  -4.05000019      -1.82386822E-04
  -4.00000000      -1.08045460E-04
  -3.95000005       3.45333647E-05
  -3.90000010       1.69201812E-04
  -3.84999990       2.26517368E-04
  -3.79999995       1.83158030E-04
  -3.75000000       6.98515287E-05
  -3.70000005      -5.29260178E-05
  -3.65000010      -1.31742490E-04
  -3.59999990      -1.45507132E-04
  -3.54999995      -1.07474858E-04
  -3.50000000      -4.93054613E-05
  -3.45000005      -1.74722072E-06
  -3.40000010       1.67006401E-05
  -3.34999990       1.74566071E-06
  -3.29999995      -3.84324449E-05
  -3.25000000      -8.38960041E-05
  -3.20000005      -1.04258994E-04
  -3.15000010      -6.65536427E-05
  -3.09999990       4.73958571E-05
  -3.04999995       2.20392292E-04
  -3.00000000       3.90792993E-04
  -2.95000005       4.69069171E-04
  -2.90000010       3.81233578E-04
  -2.84999990       1.20450153E-04
  -2.79999995      -2.26163233E-04
  -2.75000000      -5.03849296E-04
  -2.70000005      -5.70111442E-04
  -2.65000010      -3.89805646E-04
  -2.59999990      -8.28724296E-05
  -2.54999995       1.23192585E-04
  -2.50000000       2.84128200E-05
  -2.45000005      -3.91601614E-04
  -2.40000010      -9.28731519E-04
  -2.34999990      -1.23939454E-03
  -2.29999995      -1.05917291E-03
  -2.25000000      -4.03711514E-04
  -2.20000005       3.92113929E-04
  -2.15000010       8.53817444E-04
  -2.09999990       6.72429276E-04
  -2.04999995      -6.46249318E-05
  -2.00000000      -8.91752483E-04
  -1.95000005      -1.25014130E-03
  -1.89999998      -8.66741757E-04
  -1.85000002       3.16641817E-05
  -1.79999995       8.35389365E-04
  -1.75000000       9.44369356E-04
  -1.70000005       1.81068113E-04
  -1.64999998      -1.06314395E-03
  -1.60000002      -2.06458289E-03
  -1.54999995      -2.24115327E-03
  -1.50000000      -1.54618954E-03
  -1.45000005      -5.08613710E-04
  -1.39999998       1.18503216E-04
  -1.35000002      -1.29686785E-04
  -1.29999995      -1.10334659E-03
  -1.25000000      -2.12549930E-03
  -1.20000005      -2.44558183E-03
  -1.14999998      -1.76240725E-03
  -1.10000002      -4.65875637E-04
  -1.04999995       5.74840989E-04
  -1.00000000       5.53403748E-04
 -0.949999988      -7.44868070E-04
 -0.899999976      -2.77177128E-03
 -0.850000024      -4.52427939E-03
 -0.800000012      -5.14763314E-03
 -0.750000000      -4.45592962E-03
 -0.699999988      -3.03940172E-03
 -0.649999976      -1.88911380E-03
 -0.600000024      -1.77987269E-03
 -0.550000012      -2.80784187E-03
 -0.500000000      -4.37455904E-03
 -0.449999988      -5.61098335E-03
 -0.400000006      -5.94483223E-03
 -0.349999994      -5.43131866E-03
 -0.300000012      -4.64764098E-03
 -0.250000000      -4.26335912E-03
 -0.200000003      -4.61459951E-03
 -0.150000006      -5.57522057E-03
 -0.100000001      -6.76900474E-03
  -5.00000007E-02  -7.90429860E-03
   0.00000000      -8.94361362E-03
   5.00000007E-02  -9.99254361E-03
  0.100000001      -1.10525759E-02
  0.150000006      -1.19046420E-02
  0.200000003      -1.22656226E-02
  0.250000000      -1.20951533E-02
  0.300000012      -1.17611326E-02
  0.349999994      -1.18628768E-02
  0.400000006      -1.28022339E-02
  0.449999988      -1.44403726E-02
  0.500000000      -1.61547530E-02
  0.550000012      -1.73074063E-02
  0.600000024      -1.77862160E-02
  0.649999976      -1.81785133E-02
  0.699999988      -1.93884913E-02
  0.750000000      -2.19381358E-02
  0.800000012      -2.54632253E-02
  0.850000024      -2.88090799E-02
  0.899999976      -3.07132732E-02
  0.949999988      -3.06402072E-02
   1.00000000      -2.92125270E-02
   1.04999995      -2.79450528E-02
   1.10000002      -2.84328889E-02
   1.14999998      -3.14723887E-02
   1.20000005      -3.66088226E-02
   1.25000000      -4.23403755E-02
   1.29999995      -4.68549281E-02
   1.35000002      -4.89267483E-02
   1.39999998      -4.85454425E-02
   1.45000005      -4.69750091E-02
   1.50000000      -4.61865515E-02
   1.54999995      -4.78962213E-02
   1.60000002      -5.26669286E-02
   1.64999998      -5.95657378E-02
   1.70000005      -6.66228160E-02
   1.75000000      -7.18888864E-02
   1.79999995      -7.44900629E-02
   1.85000002      -7.50299022E-02
   1.89999998      -7.50856027E-02
   1.95000005      -7.61565045E-02
   2.00000000      -7.88100585E-02
   2.04999995      -8.26133117E-02
   2.09999990      -8.68232399E-02
   2.15000010      -9.12047327E-02
   2.20000005      -9.62432697E-02
   2.25000000     -0.102534480    
   2.29999995     -0.109866142    
   2.34999990     -0.116851009    
   2.40000010     -0.121597178    
   2.45000005     -0.123068996    
   2.50000000     -0.122147925    
   2.54999995     -0.121492386    
   2.59999990     -0.124101713    
   2.65000010     -0.131435633    
   2.70000005     -0.142330974    
   2.75000000     -0.153490156    
   2.79999995     -0.161314309    
   2.84999990     -0.163996264    
   2.90000010     -0.162622064    
   2.95000005     -0.160620138    
   3.00000000     -0.161852166    
   3.04999995     -0.168404847    
   3.09999990     -0.179321334    
   3.15000010     -0.191037476    
   3.20000005     -0.199387327    
   3.25000000     -0.202129722    
   3.29999995     -0.200507507    
   3.34999990     -0.198729560    
   3.40000010     -0.201420486    
   3.45000005     -0.210453823    
   3.50000000     -0.223269552    
   3.54999995     -0.234100342    
   3.59999990     -0.237679020    
   3.65000010     -0.233110741    
   3.70000005     -0.225103706    
   3.75000000     -0.221296504    
   3.79999995     -0.227156594    
   3.84999990     -0.241918012    
   3.90000010     -0.258625299    
   3.95000005     -0.268587291    
   4.00000000     -0.267291844    
   4.05000019     -0.257559627    
   4.09999990     -0.247559339    
   4.15000010     -0.245026648    
   4.19999981     -0.251876831    
   4.25000000     -0.263147861    
   4.30000019     -0.270964622    
   4.34999990     -0.270443529    
   4.40000010     -0.263062537    
   4.44999981     -0.255073607    
   4.50000000     -0.252401114    
   4.55000019     -0.256108224    
   4.59999990     -0.261887699    
   4.65000010     -0.263744801    
   4.69999981     -0.258767903    
   4.75000000     -0.249201775    
   4.80000019     -0.240373701    
   4.84999990     -0.236359283    
   4.90000010     -0.236920312    
   4.94999981     -0.238001376    
   5.00000000     -0.235112041    
   5.05000019     -0.226735428    
   5.09999990     -0.215155110    
   5.15000010     -0.204351619    
   5.19999981     -0.196921200    
   5.25000000     -0.192465425    
   5.30000019     -0.188411996    
   5.34999990     -0.182218060    
   5.40000010     -0.173036024    
   5.44999981     -0.161730349    
   5.50000000     -0.149685621    
   5.55000019     -0.137706921    
   5.59999990     -0.125888631    
   5.65000010     -0.114215814    
   5.69999981     -0.103002012    
   5.75000000      -9.26150084E-02
   5.80000019      -8.28235596E-02
   5.84999990      -7.25639984E-02
   5.90000010      -6.05188124E-02
   5.94999981      -4.60668318E-02
   6.00000000      -2.97592115E-02
   6.05000019      -1.29105225E-02
   6.09999990       3.27650574E-03
   6.15000010       1.82513855E-02
   6.19999981       3.19491066E-02
   6.25000000       4.43376414E-02
   6.30000019       5.54055646E-02
   6.34999990       6.57567307E-02
   6.40000010       7.71199018E-02
   6.44999981       9.18482244E-02
   6.50000000      0.111298896    
   6.55000019      0.134202242    
   6.59999990      0.156581447    
   6.65000010      0.173823506    
   6.69999981      0.183757350    
   6.75000000      0.188502461    
   6.80000019      0.193477497    
   6.84999990      0.203997046    
   6.90000010      0.221773550    
   6.94999981      0.243839294    
   7.00000000      0.264676422    
   7.05000019      0.279978365    
   7.09999990      0.289308190    
   7.15000010      0.295847356    
   7.19999981      0.303664744    
   7.25000000      0.314724773    
   7.30000019      0.327848732    
   7.34999990      0.340173662    
   7.40000010      0.349707007    
   7.44999981      0.356880099    
   7.50000000      0.363976002    
   7.55000019      0.373051673    
   7.59999990      0.384098589    
   7.65000010      0.394883454    
   7.69999981      0.402541161    
   7.75000000      0.405683547    
   7.80000019      0.405480713    
   7.84999990      0.404985338    
   7.90000010      0.407212675    
   7.94999981      0.413261145    
   8.00000000      0.421623766    
   8.05000019      0.429037333    
   8.10000038      0.432316273    
   8.14999962      0.430133641    
   8.19999981      0.423808992    
   8.25000000      0.416692197    
   8.30000019      0.412409842    
   8.35000038      0.412818134    
   8.39999962      0.416749209    
   8.44999981      0.420375794    
   8.50000000      0.419250876    
   8.55000019      0.411071002    
   8.60000038      0.397531122    
   8.64999962      0.383852571    
   8.69999981      0.375816315    
   8.75000000      0.375833899    
   8.80000019      0.380626798    
   8.85000038      0.382506251    
   8.89999962      0.374069095    
   8.94999981      0.353586733    
   9.00000000      0.327299476    
   9.05000019      0.306369543    
   9.10000038      0.299772114    
   9.14999962      0.307629138    
   9.19999981      0.319899917    
   9.25000000      0.322140068    
   9.30000019      0.305071503    
   9.35000038      0.271494895    
   9.39999962      0.235302374    
   9.44999981      0.212623775    
   9.50000000      0.210904121    
   9.55000019      0.223631024    
   9.60000038      0.234721974    
   9.64999962      0.229664326    
   9.69999981      0.205457464    
   9.75000000      0.172170177    
   9.80000019      0.145120487    
   9.85000038      0.133687198    
   9.89999962      0.135170102    
   9.94999981      0.138043031    
   10.0000000      0.131586283    
   10.0500002      0.114062861    
   10.1000004       9.31084231E-02
   10.1499996       7.85070062E-02
   10.1999998       7.36768171E-02
   10.2500000       7.29845539E-02
   10.3000002       6.69273213E-02
   10.3500004       5.05976565E-02
   10.3999996       2.82009244E-02
   10.4499998       9.83591843E-03
   10.5000000       3.27213202E-03
   10.5500002       7.55836256E-03
   10.6000004       1.36446934E-02
   10.6499996       1.13543114E-02
   10.6999998      -3.02265608E-03
   10.7500000      -2.44181473E-02
   10.8000002      -4.33050916E-02
   10.8500004      -5.27428314E-02
   10.8999996      -5.26021160E-02
   10.9499998      -4.83430289E-02
   11.0000000      -4.62870449E-02
   11.0500002      -4.95914742E-02
   11.1000004      -5.75995296E-02
   11.1499996      -6.78574741E-02
   11.1999998      -7.81409666E-02
   11.2500000      -8.68019387E-02
   11.3000002      -9.21453014E-02
   11.3500004      -9.26542431E-02
   11.3999996      -8.85802582E-02
   11.4499998      -8.32337961E-02
   11.5000000      -8.18333253E-02
   11.5500002      -8.78738314E-02
   11.6000004      -9.97634307E-02
   11.6499996     -0.111037031    
   11.6999998     -0.114769764    
   11.7500000     -0.109019980    
   11.8000002      -9.87395495E-02
   11.8500004      -9.21954662E-02
   11.8999996      -9.45482850E-02
   11.9499998     -0.103821374    
   12.0000000     -0.112645254    
   12.0500002     -0.114326671    
   12.1000004     -0.108141035    
   12.1499996      -9.94829237E-02
   12.1999998      -9.49871540E-02
   12.2500000      -9.70028713E-02
   12.3000002     -0.102140203    
   12.3500004     -0.104828022    
   12.3999996     -0.102394216    
   12.4499998      -9.70626846E-02
   12.5000000      -9.33147520E-02
   12.5500002      -9.33658034E-02
   12.6000004      -9.51038972E-02
   12.6499996      -9.43576545E-02
   12.6999998      -8.92195776E-02
   12.7500000      -8.22307765E-02
   12.8000002      -7.82733187E-02
   12.8500004      -8.00609142E-02
   12.8999996      -8.53906199E-02
   12.9499998      -8.87359828E-02
   13.0000000      -8.58273804E-02
   13.0500002      -7.72032216E-02
   13.1000004      -6.77006021E-02
   13.1499996      -6.24843910E-02
   13.1999998      -6.31396025E-02
   13.2500000      -6.70160055E-02
   13.3000002      -6.99398965E-02
   13.3500004      -6.95469379E-02
   13.3999996      -6.63753226E-02
   13.4499998      -6.23057894E-02
   13.5000000      -5.84105104E-02
   13.5500002      -5.44449165E-02
   13.6000004      -5.01623303E-02
   13.6499996      -4.66048121E-02
   13.6999998      -4.56152819E-02
   13.7500000      -4.78631929E-02
   13.8000002      -5.14839068E-02
   13.8500004      -5.30450009E-02
   13.8999996      -5.02667688E-02
   13.9499998      -4.40300070E-02
   14.0000000      -3.76923680E-02
   14.0500002      -3.42474207E-02
   14.1000004      -3.39611992E-02
   14.1499996      -3.46842259E-02
   14.1999998      -3.44087966E-02
   14.2500000      -3.33896242E-02
   14.3000002      -3.35695520E-02
   14.3500004      -3.58395427E-02
   14.3999996      -3.80762741E-02
   14.4499998      -3.64060439E-02
   14.5000000      -2.89905313E-02
   14.5500002      -1.87996831E-02
   14.6000004      -1.22580780E-02
   14.6499996      -1.42713701E-02
   14.6999998      -2.37337016E-02
   14.7500000      -3.36936079E-02
   14.8000002      -3.65152545E-02
   14.8500004      -2.99039539E-02
   14.8999996      -1.86643805E-02
   14.9499998      -1.06232595E-02
   15.0000000      -1.02154994E-02
   15.0500002      -1.52643509E-02
   15.1000004      -1.96044724E-02
   15.1499996      -1.89672690E-02
   15.1999998      -1.46981515E-02
   15.2500000      -1.19852526E-02
   15.3000002      -1.43991960E-02
   15.3500004      -1.99685059E-02
   15.3999996      -2.25984398E-02
   15.4499998      -1.76839381E-02
   15.5000000      -6.82042306E-03
   15.5500002       2.79918895E-03
   15.6000004       4.01089480E-03
   15.6499996      -4.42700926E-03
   15.6999998      -1.66729577E-02
   15.7500000      -2.42629051E-02
   15.8000002      -2.23597810E-02
   15.8500004      -1.27478214E-02
   15.8999996      -1.63967442E-03
   15.9499998       5.23809856E-03
   16.0000000       6.04364928E-03
   16.0499992       2.52855383E-03
   16.1000004      -2.56953901E-03
   16.1499996      -7.46701518E-03
   16.2000008      -1.11441799E-02
   16.2500000      -1.22441128E-02
   16.2999992      -9.19279363E-03
   16.3500004      -1.94695476E-03
   16.3999996       6.57960307E-03
   16.4500008       1.16166081E-02
   16.5000000       9.98575147E-03
   16.5499992       3.02509055E-03
   16.6000004      -3.97608243E-03
   16.6499996      -5.83055895E-03
   16.7000008      -1.63570582E-03
   16.7500000       4.69719013E-03
   16.7999992       8.16139765E-03
   16.8500004       7.25612370E-03
   16.8999996       5.15838945E-03
   16.9500008       6.29584212E-03
   17.0000000       1.15571013E-02
   17.0499992       1.68534741E-02
   17.1000004       1.67226586E-02
   17.1499996       9.82881710E-03
   17.2000008       1.12259202E-03
   17.2500000      -1.77134480E-03
   17.2999992       4.91952151E-03
   17.3500004       1.74489208E-02
   17.3999996       2.72282884E-02
   17.4500008       2.77595464E-02
   17.5000000       1.98953114E-02
   17.5499992       1.09044379E-02
   17.6000004       8.25016852E-03
   17.6499996       1.35608837E-02
   17.7000008       2.19118390E-02
   17.7500000       2.66780313E-02
   17.7999992       2.53450908E-02
   17.8500004       2.11364012E-02
   17.8999996       1.94023494E-02
   17.9500008       2.24885494E-02
   18.0000000       2.78788302E-02
   18.0499992       3.10242791E-02
   18.1000004       2.98190750E-02
   18.1499996       2.63790600E-02
   18.2000008       2.46621110E-02
   18.2500000       2.65589543E-02
   18.2999992       3.03805955E-02
   18.3500004       3.30473445E-02
   18.3999996       3.34873237E-02
   18.4500008       3.36099565E-02
   18.5000000       3.58403064E-02
   18.5499992       3.98896337E-02
   18.6000004       4.23951969E-02
   18.6499996       4.01979722E-02
   18.7000008       3.41365673E-02
   18.7500000       2.92997044E-02
   18.7999992       3.08831446E-02
   18.8500004       3.92061174E-02
   18.8999996       4.87051569E-02
   18.9500008       5.23299016E-02
   19.0000000       4.76953760E-02
   19.0499992       3.93973626E-02
   19.1000004       3.51388939E-02
   19.1499996       3.89478132E-02
   19.2000008       4.75841351E-02
   19.2500000       5.34864888E-02
   19.2999992       5.16736880E-02
   19.3500004       4.43265475E-02
   19.3999996       3.88113074E-02
   19.4500008       4.08876725E-02
   19.5000000       4.92969304E-02
   19.5499992       5.67311607E-02
   19.6000004       5.63826561E-02
   19.6499996       4.81663086E-02
   19.7000008       3.89738902E-02
   19.7500000       3.67081948E-02
   19.7999992       4.34287153E-02
   19.8500004       5.36601096E-02
   19.8999996       5.92105649E-02
   19.9500008       5.60760424E-02
   20.0000000       4.73811626E-02
   20.0499992       4.01150137E-02
   20.1000004       3.89906392E-02
   20.1499996       4.29935902E-02
   20.2000008       4.72877324E-02
   20.2500000       4.80992161E-02
   20.2999992       4.57746647E-02
   20.3500004       4.34479378E-02
   20.3999996       4.31973115E-02
   20.4500008       4.38380949E-02
   20.5000000       4.25215624E-02
   20.5499992       3.82666811E-02
   20.6000004       3.35521102E-02
   20.6499996       3.21193412E-02
   20.7000008       3.50993611E-02
   20.7500000       3.94499190E-02
   20.7999992       4.05149646E-02
   20.8500004       3.63937914E-02
   20.8999996       2.98444442E-02
   20.9500008       2.57014539E-02
   21.0000000       2.61746589E-02
   21.0499992       2.86189504E-02
   21.1000004       2.81181969E-02
   21.1499996       2.25416608E-02
   21.2000008       1.51322475E-02
   21.2500000       1.18327048E-02
   21.2999992       1.55810071E-02
   21.3500004       2.29437873E-02
   21.3999996       2.65626796E-02
   21.4500008       2.15376597E-02
   21.5000000       1.00194979E-02
   21.5499992      -3.35657824E-04
   21.6000004      -2.88577983E-03
   21.6499996       2.27787811E-03
   21.7000008       8.58053658E-03
   21.7500000       8.96988995E-03
   21.7999992       2.21359218E-03
   21.8500004      -6.24629483E-03
   21.8999996      -9.61100310E-03
   21.9500008      -6.24957215E-03
   22.0000000      -1.33775815E-03
   22.0499992      -2.02120864E-03
   22.1000004      -1.05223665E-02
   22.1499996      -2.15941537E-02
   22.2000008      -2.68342551E-02
   22.2500000      -2.21419837E-02
   22.2999992      -1.16858771E-02
   22.3500004      -4.77999123E-03
   22.3999996      -8.29165429E-03
   22.4500008      -2.10561492E-02
   22.5000000      -3.49198543E-02
   22.5499992      -4.12861519E-02
   22.6000004      -3.75390798E-02
   22.6499996      -2.82606687E-02
   22.7000008      -2.08990239E-02
   22.7500000      -2.00646352E-02
   22.7999992      -2.51016989E-02
   22.8500004      -3.20936516E-02
   22.8999996      -3.75885740E-02
   22.9500008      -4.05370146E-02
   23.0000000      -4.14390676E-02
   23.0499992      -4.06157151E-02
   23.1000004      -3.79325226E-02
   23.1499996      -3.41169722E-02
   23.2000008      -3.16183008E-02
   23.2500000      -3.32518630E-02
   23.2999992      -3.94115970E-02
   23.3500004      -4.66873236E-02
   23.3999996      -4.99031991E-02
   23.4500008      -4.63799797E-02
   23.5000000      -3.87023836E-02
   23.5499992      -3.31291817E-02
   23.6000004      -3.45577635E-02
   23.6499996      -4.22623716E-02
   23.7000008      -5.02592400E-02
   23.7500000      -5.22101074E-02
   23.7999992      -4.67206314E-02
   23.8500004      -3.84377167E-02
   23.8999996      -3.40079516E-02
   23.9500008      -3.64794843E-02
   24.0000000      -4.30353470E-02
   24.0499992      -4.78808694E-02
   24.1000004      -4.74872850E-02
   24.1499996      -4.34139967E-02
   24.2000008      -4.03263643E-02
   24.2500000      -4.13015597E-02
   24.2999992      -4.49240170E-02
   24.3500004      -4.68508862E-02
   24.3999996      -4.42580394E-02
   24.4500008      -3.88664119E-02
   24.5000000      -3.55997942E-02
   24.5499992      -3.80424410E-02
   24.6000004      -4.49002460E-02
   24.6499996      -5.08133247E-02
   24.7000008      -5.09157740E-02
   24.7500000      -4.51191328E-02
   24.7999992      -3.83124761E-02
   24.8500004      -3.62903997E-02
   24.8999996      -4.09537256E-02
   24.9500008      -4.88701425E-02
   25.0000000      -5.42671569E-02
   25.0499992      -5.37357591E-02
   25.1000004      -4.86749224E-02
   25.1499996      -4.37078103E-02
   25.2000008      -4.27915789E-02
   25.2500000      -4.64254282E-02
   25.2999992      -5.19884005E-02
   25.3500004      -5.63538261E-02
   25.3999996      -5.82183748E-02
   25.4500008      -5.83618134E-02
   25.5000000      -5.82358502E-02
   25.5499992      -5.86483404E-02
   25.6000004      -5.97195029E-02
   25.6499996      -6.16385043E-02
   25.7000008      -6.48977011E-02
   25.7500000      -6.94898665E-02
   25.7999992      -7.40443990E-02
   25.8500004      -7.63086453E-02
   25.8999996      -7.51017481E-02
   25.9500008      -7.20875189E-02
   26.0000000      -7.13492408E-02
   26.0499992      -7.64770284E-02
   26.1000004      -8.72914940E-02
   26.1499996      -9.91338938E-02
   26.2000008     -0.105830729    
   26.2500000     -0.104349129    
   26.2999992      -9.74649340E-02
   26.3500004      -9.20932665E-02
   26.3999996      -9.43393186E-02
   26.4500008     -0.105020732    
   26.5000000     -0.119119853    
   26.5499992     -0.129550323    
   26.6000004     -0.132279068    
   26.6499996     -0.128924847    
   26.7000008     -0.125094563    
   26.7500000     -0.126057342    
   26.7999992     -0.133190498    
   26.8500004     -0.143664896    
   26.8999996     -0.153108299    
   26.9500008     -0.158820853    
   27.0000000     -0.161124736    
   27.0499992     -0.162282825    
   27.1000004     -0.164368033    
   27.1499996     -0.167951122    
   27.2000008     -0.172376871    
   27.2500000     -0.176915482    
   27.2999992     -0.181519717    
   27.3500004     -0.186584160    
   27.3999996     -0.192177474    
   27.4500008     -0.197664380    
   27.5000000     -0.202132002    
   27.5499992     -0.205185786    
   27.6000004     -0.207327545    
   27.6499996     -0.209557936    
   27.7000008     -0.212588012    
   27.7500000     -0.216373384    
   27.7999992     -0.220326975    
   27.8500004     -0.223914906    
   27.8999996     -0.227032036    
   27.9500008     -0.229848310    
   28.0000000     -0.232386261    
   28.0499992     -0.234352276    
   28.1000004     -0.235446453    
   28.1499996     -0.235833213    
   28.2000008     -0.236223802    
   28.2500000     -0.237366796    
   28.2999992     -0.239347249    
   28.3500004     -0.241366386    
   28.3999996     -0.242300227    
   28.4500008     -0.241618991    
   28.5000000     -0.239848703    
   28.5499992     -0.238097310    
   28.6000004     -0.237007916    
   28.6499996     -0.236088753    
   28.7000008     -0.234115526    
   28.7500000     -0.230355263    
   28.7999992     -0.225522205    
   28.8500004     -0.221463293    
   28.8999996     -0.219619393    
   28.9500008     -0.219476029    
   29.0000000     -0.218451306    
   29.0499992     -0.213616431    
   29.1000004     -0.204077557    
   29.1499996     -0.192088366    
   29.2000008     -0.181779221    
   29.2500000     -0.176241949    
   29.2999992     -0.175131291    
   29.3500004     -0.174703270    
   29.3999996     -0.170389518    
   29.4500008     -0.160016939    
   29.5000000     -0.145247713    
   29.5499992     -0.130195946    
   29.6000004     -0.118372753    
   29.6499996     -0.110356167    
   29.7000008     -0.103874132    
   29.7500000      -9.59796458E-02
   29.7999992      -8.53775591E-02
   29.8500004      -7.30376095E-02
   29.8999996      -6.08274341E-02
   29.9500008      -4.95848358E-02
   30.0000000      -3.83861251E-02
   30.0499992      -2.55633071E-02
   30.1000004      -1.04329521E-02
   30.1499996       5.87146590E-03
   30.2000008       2.11938992E-02
   30.2500000       3.40491980E-02
   30.2999992       4.47687618E-02
   30.3500004       5.52213900E-02
   30.3999996       6.74648806E-02
   30.4500008       8.24579969E-02
   30.5000000       9.96884778E-02
   30.5499992      0.117686644    
   30.6000004      0.134801060    
   30.6499996      0.149764329    
   30.7000008      0.162069872    
   30.7500000      0.172331542    
   30.7999992      0.182430416    
   30.8500004      0.194922134    
   30.8999996      0.211548463    
   30.9500008      0.231660873    
   31.0000000      0.251959890    
   31.0499992      0.268306226    
   31.1000004      0.278684109    
   31.1499996      0.285074443    
   31.2000008      0.292423904    
   31.2500000      0.305082291    
   31.2999992      0.323327959    
   31.3500004      0.342876077    
   31.3999996      0.358051538    
   31.4500008      0.366270542    
   31.5000000      0.370195538    
   31.5499992      0.375672668    
   31.6000004      0.387009770    
   31.6499996      0.403438509    
   31.7000008      0.419712752    
   31.7500000      0.430385202    
   31.7999992      0.434230447    
   31.8500004      0.435158640    
   31.8999996      0.438910246    
   31.9500008      0.448331952    
   32.0000000      0.461145580    
   32.0499992      0.471950889    
   32.0999985      0.476662755    
   32.1500015      0.475676745    
   32.2000008      0.473295301    
   32.2500000      0.474126667    
   32.2999992      0.479541212    
   32.3499985      0.486950397    
   32.4000015      0.492163748    
   32.4500008      0.492641419    
   32.5000000      0.489059567    
   32.5499992      0.484296560    
   32.5999985      0.481060892    
   32.6500015      0.480150014    
   32.7000008      0.480403394    
   32.7500000      0.479898751    
   32.7999992      0.477202684    