  -10.0000000       0.00000000    
  -9.94999981       0.00000000    
  -9.89999962       0.00000000    
  -9.85000038       0.00000000    
  -9.80000019       0.00000000    
  -9.75000000       0.00000000    
  -9.69999981       0.00000000    
  -9.64999962       0.00000000    
  -9.60000038       0.00000000    
  -9.55000019      -3.30885357E-29
  -9.50000000      -4.84759119E-28
  -9.44999981      -9.41728051E-27
  -9.39999962      -7.93993616E-26
  -9.35000038      -3.47878464E-25
  -9.30000019      -8.84747343E-25
  -9.25000000      -1.40936795E-24
  -9.19999981      -2.29036652E-24
  -9.14999962      -7.41422281E-24
  -9.10000038      -1.97027872E-23
  -9.05000019      -1.39316007E-23
  -9.00000000       7.89126783E-23
  -8.94999981       2.36029808E-22
  -8.89999962       6.64688046E-24
  -8.85000038      -1.42777038E-21
  -8.80000019      -3.54259686E-21
  -8.75000000      -1.47131843E-21
  -8.69999981       1.25678842E-20
  -8.64999962       3.46862713E-20
  -8.60000038       2.69140192E-20
  -8.55000019      -7.31015244E-20
  -8.50000000      -2.57175493E-19
  -8.44999981      -3.00483103E-19
  -8.39999962       2.10874200E-19
  -8.35000038       1.38281148E-18
  -8.30000019       2.17653863E-18
  -8.25000000       2.94647292E-19
  -8.19999981      -5.69343990E-18
  -8.14999962      -1.21527184E-17
  -8.10000038      -8.35214273E-18
  -8.05000019       1.63617864E-17
  -8.00000000       5.43800545E-17
  -7.94999981       6.45901070E-17
  -7.90000010      -1.11340975E-17
  -7.84999990      -1.81928476E-16
  -7.80000019      -3.27442820E-16
  -7.75000000      -2.04263398E-16
  -7.69999981       3.61368475E-16
  -7.65000010       1.14291776E-15
  -7.59999990       1.34378114E-15
  -7.55000019       6.23033223E-18
  -7.50000000      -2.90058767E-15
  -7.44999981      -5.40570667E-15
  -7.40000010      -3.88316452E-15
  -7.34999990       4.13640832E-15
  -7.30000019       1.57043059E-14
  -7.25000000       2.05672881E-14
  -7.19999981       6.27236834E-15
  -7.15000010      -2.92082812E-14
  -7.09999990      -6.53001890E-14
  -7.05000019      -6.17713956E-14
  -7.00000000       1.31208444E-14
  -6.94999981       1.39484236E-13
  -6.90000010       2.23630481E-13
  -6.84999990       1.39189238E-13
  -6.80000019      -1.62347065E-13
  -6.75000000      -5.37218273E-13
  -6.69999981      -6.51944481E-13
  -6.65000010      -1.89074681E-13
  -6.59999990       8.11009734E-13
  -6.55000019       1.73217094E-12
  -6.50000000       1.60230000E-12
  -6.44999981      -1.73432205E-13
  -6.40000010      -2.96722369E-12
  -6.34999990      -4.74968329E-12
  -6.30000019      -3.18062525E-12
  -6.25000000       2.32049623E-12
  -6.19999981       8.95993783E-12
  -6.15000010       1.12445019E-11
  -6.09999990       4.60584869E-12
  -6.05000019      -9.83681626E-12
  -6.00000000      -2.32525405E-11
  -5.94999981      -2.31391468E-11
  -5.90000010      -2.77256300E-12
  -5.84999990       2.99344959E-11
  -5.80000019       5.24996747E-11
  -5.75000000       4.09385408E-11
  -5.69999981      -1.00050792E-11
  -5.65000010      -7.42623393E-11
  -5.59999990      -1.03729532E-10
  -5.55000019      -6.02357261E-11
  -5.50000000       4.85059527E-11
  -5.44999981       1.58195124E-10
  -5.40000010       1.80747611E-10
  -5.34999990       6.82748025E-11
  -5.30000019      -1.34583095E-10
  -5.25000000      -2.96992375E-10
  -5.19999981      -2.79978568E-10
  -5.15000010      -4.41542011E-11
  -5.09999990       2.91178082E-10
  -5.05000019       4.97987873E-10
  -5.00000000       3.87377547E-10
  -4.94999981      -3.63133898E-11
  -4.90000010      -5.33341982E-10
  -4.84999990      -7.55683571E-10
  -4.80000019      -4.82398399E-10
  -4.75000000       1.92309460E-10
  -4.69999981       8.67000971E-10
  -4.65000010       1.06519160E-09
  -4.59999990       5.60110736E-10
  -4.55000019      -4.25638302E-10
  -4.50000000      -1.30290168E-09
  -4.44999981      -1.46033152E-09
  -4.40000010      -6.68787914E-10
  -4.34999990       7.14128978E-10
  -4.30000019       1.89079619E-09
  -4.25000000       2.06372053E-09
  -4.19999981       9.30915178E-10
  -4.15000010      -1.04851916E-09
  -4.09999990      -2.79667534E-09
  -4.05000019      -3.14468229E-09
  -4.00000000      -1.52196677E-09
  -3.95000005       1.54210644E-09
  -3.90000010       4.44201076E-09
  -3.84999990       5.19694732E-09
  -3.79999995       2.63041322E-09
  -3.75000000      -2.56240518E-09
  -3.70000005      -7.63414398E-09
  -3.65000010      -8.98076546E-09
  -3.59999990      -4.40608527E-09
  -3.54999995       4.78800599E-09
  -3.50000000       1.35177158E-08
  -3.45000005       1.53430761E-08
  -3.40000010       6.76182266E-09
  -3.34999990      -9.23244059E-09
  -3.29999995      -2.32955450E-08
  -3.25000000      -2.46990712E-08
  -3.20000005      -8.87189699E-09
  -3.15000010       1.74334946E-08
  -3.09999990       3.79804703E-08
  -3.04999995       3.64967967E-08
  -3.00000000       8.67375594E-09
  -2.95000005      -3.16652908E-08
  -2.90000010      -5.83534501E-08
  -2.84999990      -4.92109180E-08
  -2.79999995      -3.17916582E-09
  -2.75000000       5.43477938E-08
  -2.70000005       8.45351096E-08
  -2.65000010       6.06489081E-08
  -2.59999990      -1.02508686E-08
  -2.54999995      -8.62088712E-08
  -2.50000000      -1.14474766E-07
  -2.45000005      -6.75813467E-08
  -2.40000010       3.29581589E-08
  -2.34999990       1.24598117E-07
  -2.29999995       1.42411096E-07
  -2.25000000       6.48671872E-08
  -2.20000005      -6.53910561E-08
  -2.15000010      -1.64020136E-07
  -2.09999990      -1.59814974E-07
  -2.04999995      -4.62482426E-08
  -2.00000000       1.07617481E-07
  -1.95000005       1.98784903E-07
  -1.89999998       1.59748282E-07
  -1.85000002       8.59000870E-09
  -1.79999995      -1.57525463E-07
  -1.75000000      -2.25061527E-07
  -1.70000005      -1.42302682E-07
  -1.64999998       4.14701518E-08
  -1.60000002       2.05642635E-07
  -1.54999995       2.38953419E-07
  -1.50000000       1.16185035E-07
  -1.45000005      -8.33016998E-08
  -1.39999998      -2.29342092E-07
  -1.35000002      -2.29793955E-07
  -1.29999995      -9.16632388E-08
  -1.25000000       8.83509585E-08
  -1.20000005       1.95327772E-07
  -1.14999998       1.75923475E-07
  -1.10000002       6.79723513E-08
  -1.04999995      -3.91995592E-08
  -1.00000000      -7.91479238E-08
 -0.949999988      -5.66286609E-08
 -0.899999976      -3.15609014E-08
 -0.850000024      -5.41774341E-08
 -0.800000012      -1.09008603E-07
 -0.750000000      -1.20341099E-07
 -0.699999988      -2.11696563E-08
 -0.649999976       1.69228770E-07
 -0.600000024       3.29692540E-07
 -0.550000012       3.11480363E-07
 -0.500000000       5.83834918E-08
 -0.449999988      -3.17531601E-07
 -0.400000006      -5.75306842E-07
 -0.349999994      -4.93386949E-07
 -0.300000012      -3.78824367E-08
 -0.250000000       5.67166808E-07
 -0.200000003       9.35647279E-07
 -0.150000006       7.47632498E-07
 -0.100000001      -1.65674887E-08
  -5.00000007E-02  -9.89284899E-07
   0.00000000      -1.56433669E-06
   5.00000007E-02  -1.24119765E-06
  0.100000001       1.01913766E-08
  0.150000006       1.59959427E-06
  0.200000003       2.54497286E-06
  0.250000000       2.03710738E-06
  0.300000012       4.93930692E-08
  0.349999994      -2.42771034E-06
  0.400000006      -3.81333325E-06
  0.449999988      -2.91031870E-06
  0.500000000       1.37218493E-07
  0.550000012       3.62706942E-06
  0.600000024       5.18712523E-06
  0.649999976       3.37515348E-06
  0.699999988      -1.06404298E-06
  0.750000000      -5.33354114E-06
  0.800000012      -6.30976683E-06
  0.850000024      -2.84070779E-06
  0.899999976       3.07051823E-06
  0.949999988       7.32870603E-06
   1.00000000       6.59878060E-06
   1.04999995       9.70215524E-07
   1.10000002      -5.71792225E-06
   1.14999998      -8.48019408E-06
   1.20000005      -5.00109127E-06
   1.25000000       2.28772592E-06
   1.29999995       7.77727109E-06
   1.35000002       7.01463614E-06
   1.39999998       4.84496297E-07
   1.45000005      -6.41730958E-06
   1.50000000      -7.61858246E-06
   1.54999995      -1.63312427E-06
   1.60000002       6.63002311E-06
   1.64999998       9.54564348E-06
   1.70000005       3.39770349E-06
   1.75000000      -7.57582484E-06
   1.79999995      -1.37621691E-05
   1.85000002      -8.11067639E-06
   1.89999998       6.85035957E-06
   1.95000005       1.94074746E-05
   2.00000000       1.74292290E-05
   2.04999995      -8.16124327E-07
   2.09999990      -2.30141577E-05
   2.15000010      -3.08121525E-05
   2.20000005      -1.45365620E-05
   2.25000000       1.69591131E-05
   2.29999995       4.05579740E-05
   2.34999990       3.58647667E-05
   2.40000010       2.51255051E-06
   2.45000005      -3.66688000E-05
   2.50000000      -5.12168481E-05
   2.54999995      -2.68856693E-05
   2.59999990       2.08721358E-05
   2.65000010       5.61126508E-05
   2.70000005       4.93265143E-05
   2.75000000       1.96586052E-06
   2.79999995      -5.17061635E-05
   2.84999990      -6.92008325E-05
   2.90000010      -3.33383214E-05
   2.95000005       3.17324448E-05
   3.00000000       7.66099474E-05
   3.04999995       6.44873653E-05
   3.09999990       1.79881067E-06
   3.15000010      -6.38759593E-05
   3.20000005      -7.95567030E-05
   3.25000000      -2.97367606E-05
   3.29999995       4.81138886E-05
   3.34999990       9.03355758E-05
   3.40000010       5.76443490E-05
   3.45000005      -3.01161854E-05
   3.50000000      -1.04979263E-04
   3.54999995      -1.02589249E-04
   3.59999990      -1.57834311E-05
   3.65000010       9.38543235E-05
   3.70000005       1.39844502E-04
   3.75000000       7.92206556E-05
   3.79999995      -4.82196119E-05
   3.84999990      -1.44608348E-04
   3.90000010      -1.28463376E-04
   3.95000005      -2.79303595E-06
   4.00000000       1.39313750E-04
   4.05000019       1.82014119E-04
   4.09999990       7.89454425E-05
   4.15000010      -1.02342114E-04
   4.19999981      -2.24347765E-04
   4.25000000      -1.84383185E-04
   4.30000019      -6.00464261E-07
   4.34999990       1.92339125E-04
   4.40000010       2.42506809E-04
   4.44999981       1.02483842E-04
   4.50000000      -1.23617283E-04
   4.55000019      -2.53017904E-04
   4.59999990      -1.68129802E-04
   4.65000010       8.01642309E-05
   4.69999981       2.98328494E-04
   4.75000000       2.96218932E-04
   4.80000019       4.48009523E-05
   4.84999990      -2.82949593E-04
   4.90000010      -4.32668749E-04
   4.94999981      -2.67620431E-04
   5.00000000       1.09128363E-04
   5.05000019       4.16494673E-04
   5.09999990       4.07394313E-04
   5.15000010       7.16856521E-05
   5.19999981      -3.35842138E-04
   5.25000000      -4.80668095E-04
   5.30000019      -2.14833184E-04
   5.34999990       2.84995709E-04
   5.40000010       6.30662020E-04
   5.44999981       5.16853353E-04
   5.50000000      -2.51756137E-05
   5.55000019      -6.21461892E-04
   5.59999990      -8.21197638E-04
   5.65000010      -4.43386729E-04
   5.69999981       2.64001341E-04
   5.75000000       7.89508049E-04
   5.80000019       7.38037517E-04
   5.84999990       1.39684664E-04
   5.90000010      -5.56475017E-04
   5.94999981      -8.13191815E-04
   6.00000000      -4.16938914E-04
   6.05000019       3.45788227E-04
   6.09999990       8.92092299E-04
   6.15000010       7.81729876E-04
   6.19999981       6.05379100E-05
   6.25000000      -7.58640992E-04
   6.30000019      -1.07145228E-03
   6.34999990      -6.35228876E-04
   6.40000010       2.43215181E-04
   6.44999981       9.30932409E-04
   6.50000000       9.38372279E-04
   6.55000019       2.82339141E-04
   6.59999990      -5.31248923E-04
   6.65000010      -8.91349569E-04
   6.69999981      -5.41893241E-04
   6.75000000       2.29086087E-04
   6.80000019       8.13037565E-04
   6.84999990       7.47194979E-04
   6.90000010       7.00713426E-05
   6.94999981      -7.04026374E-04
   7.00000000      -9.73118877E-04
   7.05000019      -5.07308461E-04
   7.09999990       3.67256522E-04
   7.15000010       1.00437878E-03
   7.19999981       9.20467777E-04
   7.25000000       1.63530131E-04
   7.30000019      -7.12778594E-04
   7.34999990      -1.05766370E-03
   7.40000010      -6.12848729E-04
   7.44999981       2.85310933E-04
   7.50000000       9.50906659E-04
   7.55000019       8.66410963E-04
   7.59999990       8.54042664E-05
   7.65000010      -7.93275656E-04
   7.69999981      -1.07220467E-03
   7.75000000      -4.94205102E-04
   7.80000019       5.38658642E-04
   7.84999990       1.24810624E-03
   7.90000010       1.06590113E-03
   7.94999981       8.05109230E-05
   8.00000000      -1.00754155E-03
   8.05000019      -1.40173547E-03
   8.10000038      -8.12079292E-04
   8.14999962       3.18843173E-04
   8.19999981       1.15027046E-03
   8.25000000       1.08670956E-03
   8.30000019       2.30615668E-04
   8.35000038      -7.10386550E-04
   8.39999962      -9.90342814E-04
   8.44999981      -4.16150142E-04
   8.50000000       5.08282683E-04
   8.55000019       1.00026524E-03
   8.60000038       6.40723214E-04
   8.64999962      -2.82697671E-04
   8.69999981      -1.01243565E-03
   8.75000000      -9.44287051E-04
   8.80000019      -1.25583698E-04
   8.85000038       7.81028881E-04
   8.89999962       1.03996519E-03
   8.94999981       4.45497863E-04
   9.00000000      -5.10574493E-04
   9.05000019      -1.04252109E-03
   9.10000038      -7.11158442E-04
   9.14999962       2.23906623E-04
   9.19999981       1.02164038E-03
   9.25000000       1.05913857E-03
   9.30000019       3.18015838E-04
   9.35000038      -6.29548391E-04
   9.39999962      -1.09842001E-03
   9.44999981      -8.20288784E-04
   9.50000000      -9.86250889E-05
   9.55000019       5.02687180E-04
   9.60000038       6.36126671E-04
   9.64999962       3.97376658E-04
   9.69999981       1.40297925E-04
   9.75000000       9.25346467E-05
   9.80000019       1.45211976E-04
   9.85000038       1.02481245E-05
   9.89999962      -4.20196302E-04
   9.94999981      -8.75955098E-04
   10.0000000      -8.93123797E-04
   10.0500002      -2.45997624E-04
   10.1000004       7.62983807E-04
   10.1499996       1.44783605E-03
   10.1999998       1.24656828E-03
   10.2500000       1.93553147E-04
   10.3000002      -1.04458467E-03
   10.3500004      -1.62670936E-03
   10.3999996      -1.14858639E-03
   10.4499998       6.01896318E-05
   10.5000000       1.17921550E-03
   10.5500002       1.48610189E-03
   10.6000004       8.43219226E-04
   10.6499996      -2.60943838E-04
   10.6999998      -1.10318942E-03
   10.7500000      -1.22530223E-03
   10.8000002      -6.79674908E-04
   10.8500004       1.05048661E-04
   10.8999996       6.71515649E-04
   10.9499998       8.11831909E-04
   11.0000000       6.06090238E-04
   11.0500002       2.65349838E-04
   11.1000004      -4.74981134E-05
   11.1499996      -2.82139634E-04
   11.1999998      -4.46806371E-04
   11.2500000      -5.29816840E-04
   11.3000002      -4.81613475E-04
   11.3500004      -2.62968388E-04
   11.3999996       9.64622814E-05
   11.4499998       4.82276548E-04
   11.5000000       7.31769484E-04
   11.5500002       7.00034085E-04
   11.6000004       3.32018099E-04
   11.6499996      -2.79845379E-04
   11.6999998      -8.84384906E-04
   11.7500000      -1.14864181E-03
   11.8000002      -8.30629666E-04
   11.8500004       2.74324157E-05
   11.8999996       1.02859712E-03
   11.9499998       1.58397330E-03
   12.0000000       1.26660895E-03
   12.0500002       1.41172117E-04
   12.1000004      -1.18839473E-03
   12.1499996      -1.90870394E-03
   12.1999998      -1.52334722E-03
   12.2500000      -2.16607295E-04
   12.3000002       1.22601062E-03
   12.3500004       1.91703765E-03
   12.3999996       1.45142851E-03
   12.4499998       1.65569596E-04
   12.5000000      -1.11009320E-03
   12.5500002      -1.61964924E-03
   12.6000004      -1.16052222E-03
   12.6499996      -1.47041777E-04
   12.6999998       7.45520461E-04
   12.7500000       1.05951959E-03
   12.8000002       7.99636357E-04
   12.8500004       3.03758366E-04
   12.8999996      -9.67716041E-05
   12.9499998      -3.21527914E-04
   13.0000000      -4.99552349E-04
   13.0500002      -7.20372424E-04
   13.1000004      -8.42128065E-04
   13.1499996      -5.68401068E-04
   13.1999998       2.41360904E-04
   13.2500000       1.29811512E-03
   13.3000002       1.93372124E-03
   13.3500004       1.52368448E-03
   13.3999996       1.17770869E-05
   13.4499998      -1.87718729E-03
   13.5000000      -2.97933514E-03
   13.5500002      -2.43437174E-03
   13.6000004      -3.40598839E-04
   13.6499996       2.17316533E-03
   13.6999998       3.58840171E-03
   13.7500000       2.97120935E-03
   13.8000002       6.24492415E-04
   13.8500004      -2.05835258E-03
   13.8999996      -3.47496360E-03
   13.9499998      -2.84314645E-03
   14.0000000      -6.72593538E-04
   14.0500002       1.63368753E-03
   14.1000004       2.74069211E-03
   14.1499996       2.21252022E-03
   14.1999998       6.52940827E-04
   14.2500000      -8.62844638E-04
   14.3000002      -1.56591239E-03
   14.3500004      -1.39054959E-03
   14.3999996      -7.75627617E-04
   14.4499998      -1.59943709E-04
   14.5000000       3.38592974E-04
   14.5500002       8.16096377E-04
   14.6000004       1.24722917E-03
   14.6499996       1.33768795E-03
   14.6999998       7.69719016E-04
   14.7500000      -3.83076840E-04
   14.8000002      -1.51961599E-03
   14.8500004      -1.87872304E-03
   14.8999996      -1.15294801E-03
   14.9499998       1.96414825E-04
   15.0000000       1.25429954E-03
   15.0500002       1.37343199E-03
   15.1000004       6.83546008E-04
   15.1499996      -7.69926919E-05
   15.1999998      -2.69149226E-04
   15.2500000       4.95101413E-05
   15.3000002       2.16855246E-04
   15.3500004      -3.06757021E-04
   15.3999996      -1.26205105E-03
   15.4499998      -1.67223217E-03
   15.5000000      -7.20855722E-04
   15.5500002       1.32253254E-03
   15.6000004       3.04048415E-03
   15.6499996       2.89354310E-03
   15.6999998       5.69258234E-04
   15.7500000      -2.51799752E-03
   15.8000002      -4.13875608E-03
   15.8500004      -2.95594893E-03
   15.8999996       3.34865792E-04
   15.9499998       3.42231477E-03
   16.0000000       4.09997907E-03
   16.0499992       1.94788480E-03
   16.1000004      -1.37238100E-03
   16.1499996      -3.43994866E-03
   16.2000008      -2.93353596E-03
   16.2500000      -5.36182080E-04
   16.2999992       1.77866896E-03
   16.3500004       2.39822268E-03
   16.3999996       1.25648046E-03
   16.4500008      -3.61624756E-04
   16.5000000      -1.09012472E-03
   16.5499992      -6.37104444E-04
   16.6000004       1.59291987E-04
   16.6499996       3.07686772E-04
   16.7000008      -3.18110135E-04
   16.7500000      -8.88448616E-04
   16.7999992      -5.12180151E-04
   16.8500004       7.68260797E-04
   16.8999996       1.86865916E-03
   16.9500008       1.60370115E-03
   17.0000000      -1.55772432E-04
   17.0499992      -2.18957174E-03
   17.1000004      -2.84168823E-03
   17.1499996      -1.40836777E-03
   17.2000008       1.18718715E-03
   17.2500000       3.04606999E-03
   17.2999992       2.76807323E-03
   17.3500004       5.50735625E-04
   17.3999996      -1.97369861E-03
   17.4500008      -3.01118474E-03
   17.5000000      -1.95107178E-03
   17.5499992       2.64766335E-04
   17.6000004       1.96886901E-03
   17.6499996       2.06282944E-03
   17.7000008       7.50549778E-04
   17.7500000      -7.87540979E-04
   17.7999992      -1.41037640E-03
   17.8500004      -8.64883477E-04
   17.8999996       1.60000782E-04
   17.9500008       7.14982045E-04
   18.0000000       3.90266156E-04
   18.0499992      -4.03826649E-04
   18.1000004      -8.45617848E-04
   18.1499996      -4.24736791E-04
   18.2000008       6.08161907E-04
   18.2500000       1.41187408E-03
   18.2999992       1.21405139E-03
   18.3500004      -3.84874365E-05
   18.3999996      -1.54326507E-03
   18.4500008      -2.16821325E-03
   18.5000000      -1.30275066E-03
   18.5499992       5.88192779E-04
   18.6000004       2.18186318E-03
   18.6499996       2.22702231E-03
   18.7000008       5.48165408E-04
   18.7500000      -1.67655223E-03
   18.7999992      -2.70155049E-03
   18.8500004      -1.57483108E-03
   18.8999996       9.76426119E-04
   18.9500008       2.94848811E-03
   19.0000000       2.59151380E-03
   19.0499992      -8.00095368E-05
   19.1000004      -3.08684446E-03
   19.1499996      -3.92931141E-03
   19.2000008      -1.63874240E-03
   19.2500000       2.24523200E-03
   19.2999992       4.71518468E-03
   19.3500004       3.66514875E-03
   19.3999996      -2.99384934E-04
   19.4500008      -4.18037269E-03
   19.5000000      -4.91222460E-03
   19.5499992      -1.86096167E-03
   19.6000004       2.58496450E-03
   19.6499996       4.90088854E-03
   19.7000008       3.28938174E-03
   19.7500000      -8.49450997E-04
   19.7999992      -4.08978667E-03
   19.8500004      -3.83135607E-03
   19.8999996      -4.38592106E-04
   19.9500008       3.12934211E-03
   20.0000000       3.86300427E-03
   20.0499992       1.24043284E-03
   20.1000004      -2.39546038E-03
   20.1499996      -3.89990956E-03
   20.2000008      -2.02002493E-03
   20.2500000       1.59113668E-03
   20.2999992       3.85801261E-03
   20.3500004       2.92195147E-03
   20.3999996      -3.48071422E-04
   20.4500008      -3.20626074E-03
   20.5000000      -3.40662943E-03
   20.5499992      -1.01220910E-03
   20.6000004       1.85110490E-03
   20.6499996       2.93447985E-03
   20.7000008       1.71717291E-03
   20.7500000      -3.93091963E-04
   20.7999992      -1.51371979E-03
   20.8500004      -9.62087128E-04
   20.8999996       3.35986231E-04
   20.9500008       9.23071464E-04
   21.0000000       2.40079404E-04
   21.0499992      -9.33630276E-04
   21.1000004      -1.34173268E-03
   21.1499996      -4.96007153E-04
   21.2000008       8.92829150E-04
   21.2500000       1.63749722E-03
   21.2999992       1.17966719E-03
   21.3500004       1.53130368E-05
   21.3999996      -8.84211855E-04
   21.4500008      -9.94089874E-04
   21.5000000      -5.79597952E-04
   21.5499992      -2.09727004E-04
   21.6000004      -5.97817743E-05
   21.6499996       2.03397794E-04
   21.7000008       8.44783848E-04
   21.7500000       1.49140868E-03
   21.7999992       1.31738442E-03
   21.8500004      -6.80810408E-05
   21.8999996      -1.92213641E-03
   21.9500008      -2.72481306E-03
   22.0000000      -1.47497829E-03
   22.0499992       1.20861933E-03
   22.1000004       3.32171097E-03
   22.1499996       3.04700667E-03
   22.2000008       3.78784694E-04
   22.2500000      -2.68767215E-03
   22.2999992      -3.70869227E-03
   22.3500004      -1.83477788E-03
   22.3999996       1.42616010E-03
   22.4500008       3.43756797E-03
   22.5000000       2.63402285E-03
   22.5499992      -1.96324327E-04
   22.6000004      -2.64347857E-03
   22.6499996      -2.75666709E-03
   22.7000008      -6.50200120E-04
   22.7500000       1.72679476E-03
   22.7999992       2.37359805E-03
   22.8500004       9.50895890E-04
   22.8999996      -1.06038514E-03
   22.9500008      -1.79901486E-03
   23.0000000      -7.00032862E-04
   23.0499992       1.08342897E-03
   23.1000004       1.80882646E-03
   23.1499996       7.36597227E-04
   23.2000008      -1.23856915E-03
   23.2500000      -2.40697386E-03
   23.2999992      -1.71710469E-03
   23.3500004       3.80752201E-04
   23.3999996       2.35446915E-03
   23.4500008       2.80232076E-03
   23.5000000       1.42925722E-03
   23.5499992      -8.76091130E-04
   23.6000004      -2.72838026E-03
   23.6499996      -3.07636335E-03
   23.7000008      -1.69024232E-03
   23.7500000       7.77445850E-04
   23.7999992       3.04495497E-03
   23.8500004       3.72883002E-03
   23.8999996       2.11253972E-03
   23.9500008      -1.16814312E-03
   24.0000000      -4.14186949E-03
   24.0499992      -4.59858589E-03
   24.1000004      -1.77690166E-03
   24.1499996       2.65814434E-03
   24.2000008       5.45857660E-03
   24.2500000       4.20110160E-03
   24.2999992      -5.26364485E-04
   24.3500004      -5.16033219E-03
   24.3999996      -5.79849211E-03
   24.4500008      -1.51907513E-03
   24.5000000       4.46520327E-03
   24.5499992       7.13206874E-03
   24.6000004       3.82375508E-03
   24.6499996      -3.20512732E-03
   24.7000008      -8.27518944E-03
   24.7500000      -6.88143494E-03
   24.7999992       3.43390217E-04
   24.8500004       7.79455528E-03
   24.8999996       9.33034159E-03
   24.9500008       3.41655244E-03
   25.0000000      -5.38695510E-03
   25.0499992      -1.00185415E-02
   25.1000004      -6.70754630E-03
   25.1499996       1.87181833E-03
   25.2000008       8.77992716E-03
   25.2500000       8.53188988E-03
   25.2999992       1.56655826E-03
   25.3500004      -6.25483459E-03
   25.3999996      -8.61652941E-03
   25.4500008      -3.93571565E-03
   25.5000000       3.55449365E-03
   25.5499992       7.57299596E-03
   25.6000004       5.06590959E-03
   25.6499996      -1.46873470E-03
   25.7000008      -6.37865998E-03
   25.7500000      -5.71077457E-03
   25.7999992      -3.46410758E-04
   25.8500004       5.05046360E-03
   25.8999996       6.09633839E-03
   25.9500008       2.20054109E-03
   26.0000000      -3.27110081E-03
   26.0499992      -5.98717853E-03
   26.1000004      -4.08409769E-03
   26.1499996       6.94202608E-04
   26.2000008       4.71277907E-03
   26.2500000       5.28907590E-03
   26.2999992       2.38810270E-03
   26.3500004      -1.79424370E-03
   26.3999996      -4.58854064E-03
   26.4500008      -4.48146602E-03
   26.5000000      -1.72121148E-03
   26.5499992       2.05203448E-03
   26.6000004       4.67739115E-03
   26.6499996       4.50681429E-03
   26.7000008       1.36533577E-03
   26.7500000      -3.02577461E-03
   26.7999992      -5.75493881E-03
   26.8500004      -4.57500340E-03
   26.8999996       1.82005708E-04
   26.9500008       5.29916491E-03
   27.0000000       6.75077457E-03
   27.0499992       2.93136877E-03
   27.1000004      -3.59315309E-03
   27.1499996      -7.67348660E-03
   27.2000008      -5.66487154E-03
   27.2500000       1.25110464E-03
   27.2999992       7.57800508E-03
   27.3500004       7.86372181E-03
   27.3999996       1.45465299E-03
   27.4500008      -6.53980998E-03
   27.5000000      -9.27486457E-03
   27.5499992      -4.03908454E-03
   27.6000004       5.08540776E-03
   27.6499996       1.03483461E-02
   27.7000008       6.87140226E-03
   27.7500000      -2.92898831E-03
   27.7999992      -1.10184243E-02
   27.8500004      -1.03666987E-02
   27.8999996      -1.00459578E-03
   27.9500008       9.71388910E-03
   28.0000000       1.30463941E-02
   28.0499992       6.10326463E-03
   28.1000004      -5.68630686E-03
   28.1499996      -1.29781850E-02
   28.2000008      -1.01122186E-02
   28.2500000       4.02037869E-04
   28.2999992       1.01244505E-02
   28.3500004       1.16143283E-02
   28.3999996       4.24532685E-03
   28.4500008      -5.72053296E-03
   28.5000000      -1.05064493E-02
   28.5499992      -6.97250385E-03
   28.6000004       1.38821045E-03
   28.6499996       7.79333804E-03
   28.7000008       7.68819591E-03
   28.7500000       1.90956076E-03
   28.7999992      -4.63164831E-03
   28.8500004      -7.11758155E-03
   28.8999996      -4.28197067E-03
   28.9500008       1.25555089E-03
   29.0000000       5.42354817E-03
   29.0499992       5.62943285E-03
   29.1000004       2.12853332E-03
   29.1499996      -2.61342688E-03
   29.2000008      -5.63368946E-03
   29.2500000      -5.09847142E-03
   29.2999992      -1.20516482E-03
   29.3500004       3.83668346E-03
   29.3999996       6.82707690E-03
   29.4500008       5.42450137E-03
   29.5000000      -3.85953681E-05
   29.5499992      -6.17901888E-03
   29.6000004      -8.48476402E-03
   29.6499996      -4.65953210E-03
   29.7000008       3.09957634E-03
   29.7500000       9.13800579E-03
   29.7999992       8.49178061E-03
   29.8500004       1.09761406E-03
   29.8999996      -7.59428320E-03
   29.9500008      -1.06308032E-02
   30.0000000      -5.25390822E-03
   30.0499992       4.48411750E-03
   30.1000004       1.07239019E-02
   30.1499996       8.24135356E-03
   30.2000008      -1.02645345E-03
   30.2500000      -9.39014740E-03
   30.2999992      -9.79907997E-03
   30.3500004      -1.87008071E-03
   30.3999996       7.67479790E-03
   30.4500008       1.06767192E-02
   30.5000000       4.52441815E-03
   30.5499992      -5.56893228E-03
   30.6000004      -1.10060954E-02
   30.6499996      -7.15945149E-03
   30.7000008       2.69753230E-03
   30.7500000       1.02389092E-02
   30.7999992       9.20023769E-03
   30.8500004       6.12298318E-04
   30.8999996      -8.25406145E-03
   30.9500008      -1.01492107E-02
   31.0000000      -3.83773004E-03
   31.0499992       5.19456808E-03
   31.1000004       9.62201320E-03
   31.1499996       6.33434625E-03
   31.2000008      -1.42832461E-03
   31.2500000      -7.27850059E-03
   31.2999992      -7.07112625E-03
   31.3500004      -1.84094498E-03
   31.3999996       3.78006673E-03
   31.4500008       5.72655676E-03
   31.5000000       3.46222217E-03
   31.5499992      -4.20906727E-04
   31.6000004      -2.93148914E-03
   31.6499996      -2.96889571E-03
   31.7000008      -1.42470840E-03
   31.7500000       2.96441460E-04
   31.7999992       1.47692382E-03
   31.8500004       1.99789740E-03
   31.8999996       1.65422529E-03
   31.9500008       1.42276287E-04
   32.0000000      -2.11234344E-03
   32.0499992      -3.50059965E-03
   32.0999985      -2.26185378E-03
   32.1500015       1.56877108E-03
   32.2000008       5.33204153E-03
   32.2500000       5.47346985E-03
   32.2999992       8.13362421E-04
   32.3499985      -5.62916882E-03
   32.4000015      -8.48534610E-03
   32.4500008      -4.55469126E-03
   32.5000000       3.84983909E-03
   32.5499992       1.01028448E-02
   32.5999985       8.58410075E-03
   32.6500015      -2.27276352E-04
   32.7000008      -9.53379460E-03
   32.7500000      -1.15619628E-02
   32.7999992      -4.19250038E-03