  -10.0000000         4.05489174E-31
  -9.94999981         1.21646748E-30
  -9.89999962         1.27185075E-30
  -9.85000038         2.47651739E-31
  -9.80000019        -9.18738831E-31
  -9.75000000        -1.75017097E-30
  -9.69999981        -1.63058990E-30
  -9.64999962         6.84143648E-32
  -9.60000038         1.72969442E-30
  -9.55000019         1.75299836E-30
  -9.50000000         3.53980211E-31
  -9.44999981        -1.86496580E-30
  -9.39999962        -3.37185044E-30
  -9.35000038        -2.59822601E-30
  -9.30000019        -1.82011159E-31
  -9.25000000         3.01255730E-30
  -9.19999981         7.53159355E-30
  -9.14999962         1.20777978E-29
  -9.10000038        -7.93819723E-30
  -9.05000019        -1.38369316E-28
  -9.00000000        -3.89824784E-28
  -8.94999981        -1.19881688E-28
  -8.89999962         2.06794494E-27
  -8.85000038         4.56872530E-27
  -8.80000019        -5.38448605E-27
  -8.75000000        -4.60842033E-26
  -8.69999981        -8.59602069E-26
  -8.64999962         3.62104011E-26
  -8.60000038         4.98971631E-25
  -8.55000019         9.12159076E-25
  -8.50000000        -3.22791750E-25
  -8.44999981        -4.76275639E-24
  -8.39999962        -8.87078190E-24
  -8.35000038         8.95212569E-25
  -8.30000019         3.84324513E-23
  -8.25000000         8.12073484E-23
  -8.19999981         3.32619793E-23
  -8.14999962        -2.19470671E-22
  -8.10000038        -5.78462387E-22
  -8.05000019        -4.68743119E-22
  -8.00000000         9.34799011E-22
  -7.94999981         3.45433976E-21
  -7.90000010         4.19301972E-21
  -7.84999990        -2.03829420E-21
  -7.80000019        -1.69380482E-20
  -7.75000000        -2.89063984E-20
  -7.69999981        -1.04492080E-20
  -7.65000010         6.00971724E-20
  -7.59999990         1.50657171E-19
  -7.55000019         1.42136332E-19
  -7.50000000        -1.10814931E-19
  -7.44999981        -5.82031524E-19
  -7.40000010        -8.56368663E-19
  -7.34999990        -2.10343073E-19
  -7.30000019         1.71218001E-18
  -7.25000000         3.84010452E-18
  -7.19999981         3.30338217E-18
  -7.15000010        -2.79675928E-18
  -7.09999990        -1.32827314E-17
  -7.05000019        -1.93625081E-17
  -7.00000000        -7.28797818E-18
  -6.94999981         2.90439591E-17
  -6.90000010         7.09858013E-17
  -6.84999990         7.11720096E-17
  -6.80000019        -1.74604659E-17
  -6.75000000        -1.81254794E-16
  -6.69999981        -2.97653836E-16
  -6.65000010        -1.72736898E-16
  -6.59999990         2.94531726E-16
  -6.55000019         8.96007651E-16
  -6.50000000         1.05682702E-15
  -6.44999981         1.57211036E-16
  -6.40000010        -1.79104439E-15
  -6.34999990        -3.57672706E-15
  -6.30000019        -3.07980396E-15
  -6.25000000         1.16092038E-15
  -6.19999981         7.77470790E-15
  -6.15000010         1.16878807E-14
  -6.09999990         6.56997124E-15
  -6.05000019        -9.42103756E-15
  -6.00000000        -2.81993989E-14
  -5.94999981        -3.26245887E-14
  -5.90000010        -7.44324612E-15
  -5.84999990         4.37877782E-14
  -5.80000019         8.89633758E-14
  -5.75000000         7.97043434E-14
  -5.69999981        -1.19566146E-14
  -5.65000010        -1.53024227E-13
  -5.59999990        -2.42527596E-13
  -5.55000019        -1.65535500E-13
  -5.50000000         1.07185169E-13
  -5.44999981         4.42117561E-13
  -5.40000010         5.73820288E-13
  -5.34999990         2.73993745E-13
  -5.30000019        -4.23549867E-13
  -5.25000000        -1.11813499E-12
  -5.19999981        -1.21161197E-12
  -5.15000010        -3.32422403E-13
  -5.09999990         1.24100578E-12
  -5.05000019         2.52544079E-12
  -5.00000000         2.35031092E-12
  -4.94999981         2.42554159E-13
  -4.90000010        -2.91660055E-12
  -4.84999990        -5.08659477E-12
  -4.80000019        -4.25319762E-12
  -4.75000000         1.34347379E-14
  -4.69999981         5.73064339E-12
  -4.65000010         9.24612817E-12
  -4.59999990         7.40643658E-12
  -4.55000019        -9.12908732E-14
  -4.50000000        -9.78882687E-12
  -4.44999981        -1.58885648E-11
  -4.40000010        -1.34533504E-11
  -4.34999990        -1.63984364E-12
  -4.30000019         1.49161759E-11
  -4.25000000         2.75076212E-11
  -4.19999981         2.71836668E-11
  -4.15000010         9.63546430E-12
  -4.09999990        -2.07517163E-11
  -4.05000019        -4.99018708E-11
  -4.00000000        -5.82708118E-11
  -3.95000005        -3.09537534E-11
  -3.90000010         2.94710090E-11
  -3.84999990         9.53617324E-11
  -3.79999995         1.21350152E-10
  -3.75000000         7.00498062E-11
  -3.70000005        -5.44124190E-11
  -3.65000010        -1.89079391E-10
  -3.59999990        -2.34654240E-10
  -3.54999995        -1.19097371E-10
  -3.50000000         1.31811104E-10
  -3.45000005         3.73788500E-10
  -3.40000010         4.13039797E-10
  -3.34999990         1.44723733E-10
  -3.29999995        -3.27619848E-10
  -3.25000000        -6.99724889E-10
  -3.20000005        -6.43055775E-10
  -3.15000010        -6.40786035E-11
  -3.09999990         7.40776274E-10
  -3.04999995         1.19917065E-09
  -3.00000000         8.40660874E-10
  -2.95000005        -2.89285346E-10
  -2.90000010        -1.50941804E-09
  -2.84999990        -1.86586058E-09
  -2.79999995        -8.24955215E-10
  -2.75000000         1.17429677E-09
  -2.70000005         2.79854095E-09
  -2.65000010         2.64229660E-09
  -2.59999990         3.33700317E-10
  -2.54999995        -2.88955238E-09
  -2.50000000        -4.73427786E-09
  -2.45000005        -3.38533912E-09
  -2.40000010         9.49005208E-10
  -2.34999990         5.69298697E-09
  -2.29999995         7.31742977E-09
  -2.25000000         3.82414234E-09
  -2.20000005        -3.37377237E-09
  -2.15000010        -9.75168213E-09
  -2.09999990        -1.03946762E-08
  -2.04999995        -3.58710306E-09
  -2.00000000         7.25367499E-09
  -1.95000005         1.50720272E-08
  -1.89999998         1.36427429E-08
  -1.85000002         2.26335994E-09
  -1.79999995        -1.27392461E-08
  -1.75000000        -2.13469278E-08
  -1.70000005        -1.64241793E-08
  -1.64999998         7.05480507E-10
  -1.60000002         1.98685264E-08
  -1.54999995         2.79251910E-08
  -1.50000000         1.76567152E-08
  -1.45000005        -6.26290220E-09
  -1.39999998        -2.88984427E-08
  -1.35000002        -3.41990223E-08
  -1.29999995        -1.61856537E-08
  -1.25000000         1.54957043E-08
  -1.20000005         4.03437568E-08
  -1.14999998         4.00513720E-08
  -1.10000002         1.16470060E-08
  -1.04999995        -2.85478343E-08
  -1.00000000        -5.40396776E-08
 -0.949999988        -4.54615332E-08
 -0.899999976        -4.81214890E-09
 -0.850000024         4.36710117E-08
 -0.800000012         6.79779291E-08
 -0.750000000         4.95229742E-08
 -0.699999988        -3.05112202E-09
 -0.649999976        -5.76272257E-08
 -0.600000024        -7.86394949E-08
 -0.550000012        -5.06673636E-08
 -0.500000000         1.03663940E-08
 -0.449999988         6.66071927E-08
 -0.400000006         8.26075635E-08
 -0.349999994         4.84357194E-08
 -0.300000012        -1.40785552E-08
 -0.250000000        -6.61087753E-08
 -0.200000003        -7.72781021E-08
 -0.150000006        -4.43071961E-08
 -0.100000001         9.31771726E-09
  -5.00000007E-02     5.10515115E-08
   0.00000000         6.07189463E-08
   5.00000007E-02     4.05223872E-08
  0.100000001         8.25855651E-09
  0.150000006        -1.85188220E-08
  0.200000003        -3.36038113E-08
  0.250000000        -4.03248954E-08
  0.300000012        -4.08897165E-08
  0.349999994        -2.92785582E-08
  0.400000006         3.12028958E-09
  0.449999988         5.25875485E-08
  0.500000000         9.36595583E-08
  0.550000012         8.90985064E-08
  0.600000024         1.82816517E-08
  0.649999976        -9.53436512E-08
  0.699999988        -1.83365842E-07
  0.750000000        -1.69249461E-07
  0.800000012        -2.57809400E-08
  0.850000024         1.86394615E-07
  0.899999976         3.35511970E-07
  0.949999988         2.94448171E-07
   1.00000000         3.51699292E-08
   1.04999995        -3.23219552E-07
   1.10000002        -5.60159094E-07
   1.14999998        -4.83370400E-07
   1.20000005        -6.97688378E-08
   1.25000000         4.80035453E-07
   1.29999995         8.31078694E-07
   1.35000002         7.14829298E-07
   1.39999998         1.23753964E-07
   1.45000005        -6.36621337E-07
   1.50000000        -1.10005578E-06
   1.54999995        -9.26426651E-07
   1.60000002        -1.47507052E-07
   1.64999998         8.03486046E-07
   1.70000005         1.32999196E-06
   1.75000000         1.05075628E-06
   1.79999995         7.73775994E-08
   1.85000002        -1.01105979E-06
   1.89999998        -1.51172765E-06
   1.95000005        -1.05693869E-06
   2.00000000         1.14777691E-07
   2.04999995         1.27584701E-06
   2.09999990         1.66394068E-06
   2.15000010         9.86386908E-07
   2.20000005        -3.64645700E-07
   2.25000000        -1.54500287E-06
   2.29999995        -1.79841015E-06
   2.34999990        -9.48266575E-07
   2.40000010         4.88116768E-07
   2.45000005         1.63837387E-06
   2.50000000         1.83481643E-06
   2.54999995         1.01773946E-06
   2.59999990        -2.75762119E-07
   2.65000010        -1.30056924E-06
   2.70000005        -1.57727391E-06
   2.75000000        -1.12480814E-06
   2.79999995        -3.29470566E-07
   2.84999990         3.94700436E-07
   2.90000010         8.63268895E-07
   2.95000005         1.11074382E-06
   3.00000000         1.17786067E-06
   3.04999995         9.46778528E-07
   3.09999990         2.28451484E-07
   3.15000010        -9.40385803E-07
   3.20000005        -2.07441394E-06
   3.25000000        -2.38444773E-06
   3.29999995        -1.31014860E-06
   3.34999990         9.03829402E-07
   3.40000010         3.08599238E-06
   3.45000005         3.72637487E-06
   3.50000000         2.01054786E-06
   3.54999995        -1.39700217E-06
   3.59999990        -4.48657784E-06
   3.65000010        -5.06097194E-06
   3.70000005        -2.26866564E-06
   3.75000000         2.54389670E-06
   3.79999995         6.40347116E-06
   3.84999990         6.52909648E-06
   3.90000010         2.29137208E-06
   3.95000005        -4.05685432E-06
   4.00000000        -8.55387862E-06
   4.05000019        -8.01803162E-06
   4.09999990        -2.27226769E-06
   4.15000010         5.45200965E-06
   4.19999981         1.03682141E-05
   4.25000000         9.16513363E-06
   4.30000019         2.25402596E-06
   4.34999990        -6.31214243E-06
   4.40000010        -1.12969092E-05
   4.44999981        -9.57603697E-06
   4.50000000        -2.13746034E-06
   4.55000019         6.52183189E-06
   4.59999990         1.12105472E-05
   4.65000010         9.24699816E-06
   4.69999981         2.02108799E-06
   4.75000000        -6.00272324E-06
   4.80000019        -1.01078776E-05
   4.84999990        -8.14746727E-06
   4.90000010        -1.66003758E-06
   4.94999981         5.26790927E-06
   5.00000000         8.55278631E-06
   5.05000019         6.48642344E-06
   5.09999990         5.91653475E-07
   5.15000010        -5.41230884E-06
   5.19999981        -7.84489475E-06
   5.25000000        -5.21150923E-06
   5.30000019         9.23611765E-07
   5.34999990         6.82695782E-06
   5.40000010         8.79413346E-06
   5.44999981         5.43793749E-06
   5.50000000        -1.33440039E-06
   5.55000019        -7.38196968E-06
   5.59999990        -8.93854758E-06
   5.65000010        -5.16606497E-06
   5.69999981         1.15038097E-06
   5.75000000         5.48846356E-06
   5.80000019         4.91967057E-06
   5.84999990         4.58641352E-07
   5.90000010        -3.54662598E-06
   5.94999981        -2.86086424E-06
   6.00000000         2.86477484E-06
   6.05000019         9.15861801E-06
   6.09999990         9.89527507E-06
   6.15000010         2.50224798E-06
   6.19999981        -8.98187136E-06
   6.25000000        -1.60704203E-05
   6.30000019        -1.23180316E-05
   6.34999990         6.99951840E-07
   6.40000010         1.32125533E-05
   6.44999981         1.41930705E-05
   6.50000000         7.81788799E-07
   6.55000019        -1.74763827E-05
   6.59999990        -2.42601236E-05
   6.65000010        -9.10681956E-06
   6.69999981         2.22208109E-05
   6.75000000         4.87381840E-05
   6.80000019         4.79288501E-05
   6.84999990         1.33171670E-05
   6.90000010        -3.75086383E-05
   6.94999981        -7.22907716E-05
   7.00000000        -6.59919024E-05
   7.05000019        -1.99064325E-05
   7.09999990         3.69882291E-05
   7.15000010         6.71820162E-05
   7.19999981         5.14475905E-05
   7.25000000         3.56194414E-06
   7.30000019        -3.91078756E-05
   7.34999990        -4.33381501E-05
   7.40000010        -5.72256613E-06
   7.44999981         4.36709379E-05
   7.50000000         6.35380493E-05
   7.55000019         3.33178541E-05
   7.59999990        -2.95316750E-05
   7.65000010        -8.12042417E-05
   7.69999981        -8.40973589E-05
   7.75000000        -3.55127231E-05
   7.80000019         2.99923267E-05
   7.84999990         6.71630623E-05
   7.90000010         5.49940269E-05
   7.94999981         1.22069177E-05
   8.00000000        -1.95881403E-05
   8.05000019        -1.17238060E-05
   8.10000038         2.61881869E-05
   8.14999962         5.31654587E-05
   8.19999981         3.20079016E-05
   8.25000000        -3.53958712E-05
   8.30000019        -1.03382503E-04
   8.35000038        -1.15153256E-04
   8.39999962        -4.91250794E-05
   8.44999981         5.83781148E-05
   8.50000000         1.35069567E-04
   8.55000019         1.25377992E-04
   8.60000038         3.41958039E-05
   8.64999962        -7.37832888E-05
   8.69999981        -1.21231118E-04
   8.75000000        -7.67357124E-05
   8.80000019         2.07920239E-05
   8.85000038         9.22900363E-05
   8.89999962         8.10679994E-05
   8.94999981        -1.68646272E-06
   9.00000000        -8.52274534E-05
   9.05000019        -9.62216727E-05
   9.10000038        -1.96502733E-05
   9.14999962         8.56188490E-05
   9.19999981         1.31946072E-04
   9.25000000         7.42556003E-05
   9.30000019        -4.99377893E-05
   9.35000038        -1.45823476E-04
   9.39999962        -1.34944596E-04
   9.44999981        -1.97293539E-05
   9.50000000         1.13883529E-04
   9.55000019         1.61279255E-04
   9.60000038         8.25379248E-05
   9.64999962        -6.26249603E-05
   9.69999981        -1.58194627E-04
   9.75000000        -1.23373073E-04
   9.80000019         1.96045203E-05
   9.85000038         1.57808565E-04
   9.89999962         1.74167973E-04
   9.94999981         4.28893291E-05
   10.0000000        -1.43034005E-04
   10.0500002        -2.37587359E-04
   10.1000004        -1.54475900E-04
   10.1499996         5.98671068E-05
   10.1999998         2.53376638E-04
   10.2500000         2.79588741E-04
   10.3000002         1.09975801E-04
   10.3500004        -1.39882934E-04
   10.3999996        -2.93475168E-04
   10.4499998        -2.45042582E-04
   10.5000000        -3.82783655E-05
   10.5500002         1.69150066E-04
   10.6000004         2.27801895E-04
   10.6499996         1.10723762E-04
   10.6999998        -7.08001025E-05
   10.7500000        -1.61237753E-04
   10.8000002        -8.89065268E-05
   10.8500004         7.56776353E-05
   10.8999996         1.80908406E-04
   10.9499998         1.24863916E-04
   11.0000000        -5.33936436E-05
   11.0500002        -2.02202908E-04
   11.1000004        -1.85643512E-04
   11.1499996        -6.12124813E-06
   11.1999998         1.85190467E-04
   11.2500000         2.10412094E-04
   11.3000002         2.30091391E-05
   11.3500004        -2.33082174E-04
   11.3999996        -3.25794303E-04
   11.4499998        -1.29111824E-04
   11.5000000         2.48974102E-04
   11.5500002         5.20997331E-04
   11.6000004         4.34299989E-04
   11.6499996        -1.39196809E-05
   11.6999998        -5.38097811E-04
   11.7500000        -7.51821557E-04
   11.8000002        -4.55351576E-04
   11.8500004         1.93538785E-04
   11.8999996         7.67248159E-04
   11.9499998         8.63928406E-04
   12.0000000         3.99440585E-04
   12.0500002        -3.23201413E-04
   12.1000004        -8.24012561E-04
   12.1499996        -7.84953183E-04
   12.1999998        -2.68188684E-04
   12.2500000         3.44911095E-04
   12.3000002         6.40307320E-04
   12.3500004         4.65344288E-04
   12.3999996         1.46877146E-05
   12.4499998        -3.43943451E-04
   12.5000000        -3.57726472E-04
   12.5500002        -6.56922639E-05
   12.6000004         2.61350884E-04
   12.6499996         3.53746989E-04
   12.6999998         1.55300077E-04
   12.7500000        -1.49771309E-04
   12.8000002        -3.05014226E-04
   12.8500004        -1.99271672E-04
   12.8999996         4.59197800E-05
   12.9499998         1.87282465E-04
   13.0000000         7.35711437E-05
   13.0500002        -2.14856860E-04
   13.1000004        -4.18342621E-04
   13.1499996        -3.05779045E-04
   13.1999998         1.24483733E-04
   13.2500000         6.12145115E-04
   13.3000002         8.06443335E-04
   13.3500004         5.21573471E-04
   13.3999996        -1.11009133E-04
   13.4499998        -7.10907392E-04
   13.5000000        -8.97896651E-04
   13.5500002        -5.51269448E-04
   13.6000004         1.02200444E-04
   13.6499996         6.36397628E-04
   13.6999998         7.11606233E-04
   13.7500000         3.02876899E-04
   13.8000002        -2.87004397E-04
   13.8500004        -6.40335144E-04
   13.8999996        -5.16272208E-04
   13.9499998        -1.74688175E-05
   14.0000000         4.87543410E-04
   14.0500002         6.32740208E-04
   14.1000004         3.21947271E-04
   14.1499996        -2.00511946E-04
   14.1999998        -5.32501086E-04
   14.2500000        -4.19160991E-04
   14.3000002         4.68833823E-05
   14.3500004         4.86890756E-04
   14.3999996         5.22410206E-04
   14.4499998         7.54557841E-05
   14.5000000        -5.48540091E-04
   14.5500002        -8.70080024E-04
   14.6000004        -5.91782795E-04
   14.6499996         1.62690165E-04
   14.6999998         9.11292154E-04
   14.7500000         1.14130741E-03
   14.8000002         6.68585359E-04
   14.8500004        -2.29961035E-04
   14.8999996        -1.00125663E-03
   14.9499998        -1.18169736E-03
   15.0000000        -6.86600979E-04
   15.0500002         1.63665056E-04
   15.1000004         8.71298602E-04
   15.1499996         1.06698158E-03
   15.1999998         6.96100877E-04
   15.2500000        -8.30349279E-07
   15.3000002        -6.55368669E-04
   15.3500004        -9.59970872E-04
   15.3999996        -7.87510537E-04
   15.4499998        -2.22842762E-04
   15.5000000         4.73752763E-04
   15.5500002         9.60501144E-04
   15.6000004         9.60544334E-04
   15.6499996         4.21694334E-04
   15.6999998        -4.03612066E-04
   15.7500000        -1.05265994E-03
   15.8000002        -1.11530721E-03
   15.8500004        -5.16434899E-04
   15.8999996         3.91921727E-04
   15.9499998         1.03573571E-03
   16.0000000         1.00901804E-03
   16.0499992         3.69005429E-04
   16.1000004        -4.01145953E-04
   16.1499996        -7.53959350E-04
   16.2000008        -4.94328269E-04
   16.2500000         8.04512674E-05
   16.2999992         4.39613825E-04
   16.3500004         2.70835473E-04
   16.3999996        -2.50417681E-04
   16.4500008        -6.09274139E-04
   16.5000000        -4.04816907E-04
   16.5499992         2.72779987E-04
   16.6000004         8.77092243E-04
   16.6499996         8.48944066E-04
   16.7000008         1.10190289E-04
   16.7500000        -8.16728454E-04
   16.7999992        -1.19358045E-03
   16.8500004        -6.64496387E-04
   16.8999996         4.21142875E-04
   16.9500008         1.24586828E-03
   17.0000000         1.15506630E-03
   17.0499992         1.84524746E-04
   17.1000004        -9.44755157E-04
   17.1499996        -1.37375051E-03
   17.2000008        -7.69455219E-04
   17.2500000         4.16080526E-04
   17.2999992         1.29393139E-03
   17.3500004         1.21759262E-03
   17.3999996         2.62890622E-04
   17.4500008        -8.53045087E-04
   17.5000000        -1.33023888E-03
   17.5499992        -8.75771279E-04
   17.6000004         1.19839380E-04
   17.6499996         9.21574712E-04
   17.7000008         1.00913038E-03
   17.7500000         4.22079203E-04
   17.7999992        -3.38960177E-04
   17.8500004        -7.28501938E-04
   17.8999996        -5.42956521E-04
   17.9500008        -2.71383306E-06
   18.0000000         4.76767513E-04
   18.0499992         6.01397827E-04
   18.1000004         3.59368860E-04
   18.1499996        -4.67414102E-05
   18.2000008        -3.82602680E-04
   18.2500000        -5.14932093E-04
   18.2999992        -4.26394108E-04
   18.3500004        -1.67606733E-04
   18.3999996         1.69653358E-04
   18.4500008         4.46844148E-04
   18.5000000         5.04055584E-04
   18.5499992         2.59245367E-04
   18.6000004        -1.78707705E-04
   18.6499996        -5.12843020E-04
   18.7000008        -4.42921359E-04
   18.7500000         7.06353312E-05
   18.7999992         6.88907108E-04
   18.8500004         8.82048276E-04
   18.8999996         3.41116887E-04
   18.9500008        -6.94640563E-04
   19.0000000        -1.50330993E-03
   19.0499992        -1.37048902E-03
   19.1000004        -1.76411093E-04
   19.1499996         1.39084517E-03
   19.2000008         2.23515695E-03
   19.2500000         1.63727242E-03
   19.2999992        -1.46902559E-04
   19.3500004        -1.96796074E-03
   19.3999996        -2.55345926E-03
   19.4500008        -1.43604679E-03
   19.5000000         6.58538775E-04
   19.5499992         2.29144585E-03
   19.6000004         2.33706157E-03
   19.6499996         8.01001384E-04
   19.7000008        -1.19014084E-03
   19.7500000        -2.22740602E-03
   19.7999992        -1.65364868E-03
   19.8500004        -1.01423839E-05
   19.8999996         1.43020996E-03
   19.9500008         1.65932218E-03
   20.0000000         6.74133131E-04
   20.0499992        -6.02695101E-04
   20.1000004        -1.12143066E-03
   20.1499996        -5.55429317E-04
   20.2000008         4.82148433E-04
   20.2500000         1.00369356E-03
   20.2999992         5.00978844E-04
   20.3500004        -6.27256406E-04
   20.3999996        -1.41691160E-03
   20.4500008        -1.14878162E-03
   20.5000000         5.13431769E-05
   20.5499992         1.30934548E-03
   20.6000004         1.69806776E-03
   20.6499996         9.51841881E-04
   20.7000008        -3.65808548E-04
   20.7500000        -1.33510877E-03
   20.7999992        -1.37279427E-03
   20.8500004        -5.92592813E-04
   20.8999996         3.91864887E-04
   20.9500008         9.78952972E-04
   21.0000000         9.58007644E-04
   21.0499992         5.05140284E-04
   21.1000004        -8.16895626E-05
   21.1499996        -5.96702856E-04
   21.2000008        -9.21053637E-04
   21.2500000        -9.16687422E-04
   21.2999992        -4.49831306E-04
   21.3500004         4.07913147E-04
   21.3999996         1.22901087E-03
   21.4500008         1.40302756E-03
   21.5000000         6.16633683E-04
   21.5499992        -7.46769772E-04
   21.6000004        -1.73000572E-03
   21.6499996        -1.49148633E-03
   21.7000008        -5.92548677E-05
   21.7500000         1.53177790E-03
   21.7999992         1.96671369E-03
   21.8500004         7.43025681E-04
   21.8999996        -1.28287065E-03
   21.9500008        -2.45441357E-03
   22.0000000        -1.63776649E-03
   22.0499992         7.43885001E-04
   22.1000004         2.88684783E-03
   22.1499996         2.97041843E-03
   22.2000008         6.68449909E-04
   22.2500000        -2.44461908E-03
   22.2999992        -4.01364826E-03
   22.3500004        -2.72826222E-03
   22.3999996         5.91877731E-04
   22.4500008         3.55621241E-03
   22.5000000         4.00752062E-03
   22.5499992         1.66195887E-03
   22.6000004        -1.70514744E-03
   22.6499996        -3.65527649E-03
   22.7000008        -2.93741631E-03
   22.7500000        -3.38744518E-04
   22.7999992         2.07302929E-03
   22.8500004         2.62372219E-03
   22.8999996         1.24755921E-03
   22.9500008        -6.71316870E-04
   23.0000000        -1.57477497E-03
   23.0499992        -9.89606022E-04
   23.1000004         2.50751822E-04
   23.1499996         8.94483645E-04
   23.2000008         4.10061242E-04
   23.2500000        -6.19496743E-04
   23.2999992        -1.12177338E-03
   23.3500004        -5.52285172E-04
   23.3999996         6.21097453E-04
   23.4500008         1.36609212E-03
   23.5000000         1.02308940E-03
   23.5499992        -1.19909782E-04
   23.6000004        -1.10604742E-03
   23.6499996        -1.15982187E-03
   23.7000008        -3.38332902E-04
   23.7500000         5.75557700E-04
   23.7999992         8.05005140E-04
   23.8500004         2.59295950E-04
   23.8999996        -4.36910079E-04
   23.9500008        -5.60799439E-04
   24.0000000         2.55236155E-05
   24.0499992         7.47740502E-04
   24.1000004         8.55278166E-04
   24.1499996         1.29859487E-04
   24.2000008        -8.76210106E-04
   24.2500000        -1.29508181E-03
   24.2999992        -7.00814300E-04
   24.3500004         4.90849372E-04
   24.3999996         1.33657642E-03
   24.4500008         1.13907503E-03
   24.5000000         3.30873263E-05
   24.5499992        -1.10786536E-03
   24.6000004        -1.37119181E-03
   24.6499996        -5.39576751E-04
   24.7000008         7.35276146E-04
   24.7500000         1.45380420E-03
   24.7999992         1.05975196E-03
   24.8500004        -1.30265078E-04
   24.8999996        -1.18918298E-03
   24.9500008        -1.31186994E-03
   25.0000000        -4.33741108E-04
   25.0499992         7.41755590E-04
   25.1000004         1.30972266E-03
   25.1499996         8.66837217E-04
   25.2000008        -1.97768502E-04
   25.2500000        -1.03476190E-03
   25.2999992        -1.01161026E-03
   25.3500004        -1.97205140E-04
   25.3999996         7.18261173E-04
   25.4500008         9.90136643E-04
   25.5000000         4.15689021E-04
   25.5499992        -5.11707854E-04
   25.6000004        -1.00475026E-03
   25.6499996        -6.16085134E-04
   25.7000008         3.98516568E-04
   25.7500000         1.27049908E-03
   25.7999992         1.30566047E-03
   25.8500004         4.09673783E-04
   25.8999996        -8.44313879E-04
   25.9500008        -1.63484155E-03
   26.0000000        -1.45992346E-03
   26.0499992        -4.36867384E-04
   26.1000004         8.37310043E-04
   26.1499996         1.69470336E-03
   26.2000008         1.75267016E-03
   26.2500000         1.02196401E-03
   26.2999992        -1.88689548E-04
   26.3500004        -1.40966731E-03
   26.3999996        -2.11575348E-03
   26.4500008        -1.87151448E-03
   26.5000000        -5.82047389E-04
   26.5499992         1.27174717E-03
   26.6000004         2.69211503E-03
   26.6499996         2.67746043E-03
   26.7000008         9.61747253E-04
   26.7500000        -1.58058072E-03
   26.7999992        -3.32610356E-03
   26.8500004        -2.98126950E-03
   26.8999996        -6.08793169E-04
   26.9500008         2.25184881E-03
   27.0000000         3.60792526E-03
   27.0499992         2.49311258E-03
   27.1000004        -2.48967030E-04
   27.1499996        -2.56632059E-03
   27.2000008        -2.78198533E-03
   27.2500000        -9.11161886E-04
   27.2999992         1.38034800E-03
   27.3500004         2.17418745E-03
   27.3999996         9.06647532E-04
   27.4500008        -1.17334817E-03
   27.5000000        -2.10607424E-03
   27.5499992        -9.56028816E-04
   27.6000004         1.32133695E-03
   27.6499996         2.66627735E-03
   27.7000008         1.71511166E-03
   27.7500000        -9.35706426E-04
   27.7999992        -3.13369860E-03
   27.8500004        -2.95425742E-03
   27.8999996        -3.66373657E-04
   27.9500008         2.65803537E-03
   28.0000000         3.72456782E-03
   28.0499992         1.97792053E-03
   28.1000004        -1.19961076E-03
   28.1499996        -3.33257997E-03
   28.2000008        -2.86661717E-03
   28.2500000        -3.66924767E-04
   28.2999992         2.05948297E-03
   28.3500004         2.56198365E-03
   28.3999996         1.01336755E-03
   28.4500008        -1.05062476E-03
   28.5000000        -1.86429755E-03
   28.5499992        -9.32495983E-04
   28.6000004         6.79061457E-04
   28.6499996         1.41984795E-03
   28.7000008         6.64346328E-04
   28.7500000        -7.97742105E-04
   28.7999992        -1.55921397E-03
   28.8500004        -8.95890291E-04
   28.8999996         6.10245741E-04
   28.9500008         1.63782935E-03
   29.0000000         1.31675554E-03
   29.0499992        -3.89408488E-05
   29.1000004        -1.26852992E-03
   29.1499996        -1.40612200E-03
   29.2000008        -4.71723208E-04
   29.2500000         6.49627822E-04
   29.2999992         1.05060113E-03
   29.3500004         5.62418252E-04
   29.3999996        -2.18277084E-04
   29.4500008        -5.73100173E-04
   29.5000000        -3.21369880E-04
   29.5499992         1.02280872E-04
   29.6000004         1.57379793E-04
   29.6499996        -2.42170878E-04
   29.7000008        -6.53917261E-04
   29.7500000        -5.56435436E-04
   29.7999992         1.31513792E-04
   29.8500004         9.48403496E-04
   29.8999996         1.27474812E-03
   29.9500008         8.36269523E-04
   30.0000000        -1.08540109E-04
   30.0499992        -1.00119272E-03
   30.1000004        -1.37522991E-03
   30.1499996        -1.08498533E-03
   30.2000008        -2.80321139E-04
   30.2500000         7.19362521E-04
   30.2999992         1.50116440E-03
   30.3500004         1.62681716E-03
   30.3999996         8.27981043E-04
   30.4500008        -6.96328119E-04