  -10.0000000         1.53754827E-29
  -9.94999981         1.53754827E-29
  -9.89999962        -1.54633051E-29
  -9.85000038        -2.83816351E-29
  -9.80000019        -1.12080005E-29
  -9.75000000        -5.97281920E-30
  -9.69999981         1.62785196E-29
  -9.64999962         4.12185571E-29
  -9.60000038         1.91904189E-29
  -9.55000019        -1.33353229E-27
  -9.50000000        -1.67702599E-26
  -9.44999981        -3.40610442E-25
  -9.39999962        -2.45873350E-24
  -9.35000038        -8.28040944E-24
  -9.30000019        -1.31943163E-23
  -9.25000000        -7.79043058E-24
  -9.19999981        -2.74489138E-23
  -9.14999962        -1.77505429E-22
  -9.10000038        -3.14041790E-22
  -9.05000019         5.44892304E-22
  -9.00000000         3.16889641E-21
  -8.94999981         3.11573936E-21
  -8.89999962        -1.22911769E-20
  -8.85000038        -4.50852305E-20
  -8.80000019        -3.95077810E-20
  -8.75000000         1.22358831E-19
  -8.69999981         4.39208865E-19
  -8.64999962         4.45528370E-19
  -8.60000038        -7.56409107E-19
  -8.55000019        -3.24420815E-18
  -8.50000000        -4.11876264E-18
  -8.44999981         2.38642413E-18
  -8.39999962         1.80678547E-17
  -8.35000038         2.88095890E-17
  -8.30000019         2.93953644E-18
  -8.25000000        -7.82150951E-17
  -8.19999981        -1.61309378E-16
  -8.14999962        -9.70617172E-17
  -8.10000038         2.49085470E-16
  -8.05000019         7.39473527E-16
  -8.00000000         7.81260733E-16
  -7.94999981        -3.72859774E-16
  -7.90000010        -2.65609394E-15
  -7.84999990        -4.17567211E-15
  -7.80000019        -1.64493385E-15
  -7.75000000         6.57210958E-15
  -7.69999981         1.60531853E-14
  -7.65000010         1.52086968E-14
  -7.59999990        -7.17431994E-15
  -7.55000019        -4.63277047E-14
  -7.50000000        -6.99446740E-14
  -7.44999981        -3.02597438E-14
  -7.40000010         9.11621378E-14
  -7.34999990         2.29620766E-13
  -7.30000019         2.33092788E-13
  -7.25000000        -3.85773600E-14
  -7.19999981        -5.33218435E-13
  -7.15000010        -8.86002589E-13
  -7.09999990        -5.57675650E-13
  -7.05000019         6.98827335E-13
  -7.00000000         2.29686886E-12
  -6.94999981         2.75766259E-12
  -6.90000010         6.08168355E-13
  -6.84999990        -3.98584464E-12
  -6.80000019        -8.07561656E-12
  -6.75000000        -6.91917964E-12
  -6.69999981         2.33021675E-12
  -6.65000010         1.61845936E-11
  -6.59999990         2.38186450E-11
  -6.55000019         1.30276649E-11
  -6.50000000        -1.82224270E-11
  -6.44999981        -5.28067590E-11
  -6.40000010        -5.89448768E-11
  -6.34999990        -1.23537500E-11
  -6.30000019         7.51155735E-11
  -6.25000000         1.44929221E-10
  -6.19999981         1.20649268E-10
  -6.15000010        -2.92653540E-11
  -6.09999990        -2.36280162E-10
  -6.05000019        -3.41426748E-10
  -6.00000000        -1.95204478E-10
  -5.94999981         1.99737699E-10
  -5.90000010         6.14924500E-10
  -5.84999990         6.93359647E-10
  -5.80000019         2.09253365E-10
  -5.75000000        -6.71694755E-10
  -5.69999981        -1.36605405E-09
  -5.65000010        -1.20424626E-09
  -5.59999990         2.55487784E-11
  -5.55000019         1.71421699E-09
  -5.50000000         2.63547895E-09
  -5.44999981         1.75208870E-09
  -5.40000010        -8.50010395E-10
  -5.34999990        -3.64893515E-09
  -5.30000019        -4.46540938E-09
  -5.25000000        -2.03093653E-09
  -5.19999981         2.71158607E-09
  -5.15000010         6.72145273E-09
  -5.09999990         6.69179112E-09
  -5.05000019         1.58048519E-09
  -5.00000000        -6.00497785E-09
  -4.94999981        -1.09426956E-08
  -4.90000010        -8.93843133E-09
  -4.84999990         4.49446348E-11
  -4.80000019         1.08865299E-08
  -4.75000000         1.61017155E-08
  -4.69999981         1.08858327E-08
  -4.65000010        -2.95821967E-09
  -4.59999990        -1.72448402E-08
  -4.55000019        -2.21847802E-08
  -4.50000000        -1.29055211E-08
  -4.44999981         6.60830857E-09
  -4.40000010         2.50530707E-08
  -4.34999990         3.02631342E-08
  -4.30000019         1.68030461E-08
  -4.25000000        -9.88644278E-09
  -4.19999981        -3.54256500E-08
  -4.15000010        -4.37516903E-08
  -4.09999990        -2.61744084E-08
  -4.05000019         1.22543184E-08
  -4.00000000         5.26552384E-08
  -3.95000005         6.99087295E-08
  -3.90000010         4.60871732E-08
  -3.84999990        -1.58906239E-08
  -3.79999995        -8.67719550E-08
  -3.75000000        -1.20940882E-07
  -3.70000005        -8.19280572E-08
  -3.65000010         2.80631927E-08
  -3.59999990         1.54924493E-07
  -3.54999995         2.12840234E-07
  -3.50000000         1.36348390E-07
  -3.45000005        -6.33357189E-08
  -3.40000010        -2.79915156E-07
  -3.34999990        -3.59855932E-07
  -3.29999995        -2.02668474E-07
  -3.25000000         1.46528805E-07
  -3.20000005         4.86560680E-07
  -3.15000010         5.65656251E-07
  -3.09999990         2.56220488E-07
  -3.04999995        -3.15571242E-07
  -3.00000000        -7.97353266E-07
  -2.95000005        -8.16206125E-07
  -2.90000010        -2.51321609E-07
  -2.84999990         6.17020817E-07
  -2.79999995         1.22425718E-06
  -2.75000000         1.07683138E-06
  -2.70000005         1.30668838E-07
  -2.65000010        -1.08612630E-06
  -2.59999990        -1.74989430E-06
  -2.54999995        -1.28845340E-06
  -2.50000000         1.57829930E-07
  -2.45000005         1.71795489E-06
  -2.40000010         2.30367050E-06
  -2.34999990         1.36195035E-06
  -2.29999995        -6.49450783E-07
  -2.25000000        -2.45236174E-06
  -2.20000005        -2.75802063E-06
  -2.15000010        -1.18714195E-06
  -2.09999990         1.35537789E-06
  -2.04999995         3.18730963E-06
  -2.00000000         2.96731218E-06
  -1.95000005         6.79340530E-07
  -1.89999998        -2.24082646E-06
  -1.85000002        -3.80547681E-06
  -1.79999995        -2.83908730E-06
  -1.75000000         1.37702500E-07
  -1.70000005         3.17267313E-06
  -1.64999998         4.17821866E-06
  -1.60000002         2.38863618E-06
  -1.54999995        -1.05625816E-06
  -1.50000000        -3.85450130E-06
  -1.45000005        -4.12492045E-06
  -1.39999998        -1.71662725E-06
  -1.35000002         1.69857742E-06
  -1.29999995         3.82663166E-06
  -1.25000000         3.37387223E-06
  -1.20000005         9.05147829E-07
  -1.14999998        -1.68128724E-06
  -1.10000002        -2.63672723E-06
  -1.04999995        -1.65016468E-06
  -1.00000000         5.22043955E-08
 -0.949999988         8.48536899E-07
 -0.899999976         1.54120514E-07
 -0.850000024        -1.05887545E-06
 -0.800000012        -1.13445844E-06
 -0.750000000         6.81216989E-07
 -0.699999988         3.28588931E-06
 -0.649999976         4.33033256E-06
 -0.600000024         2.08844085E-06
 -0.550000012        -2.81693997E-06
 -0.500000000        -7.30728971E-06
 -0.449999988        -7.72970634E-06
 -0.400000006        -2.58148634E-06
 -0.349999994         5.85825001E-06
 -0.300000012         1.23619920E-05
 -0.250000000         1.18401204E-05
 -0.200000003         2.89929403E-06
 -0.150000006        -1.04196870E-05
 -0.100000001        -2.01483090E-05
  -5.00000007E-02    -1.87606038E-05
   0.00000000        -4.24156087E-06
   5.00000007E-02     1.71673346E-05
  0.100000001         3.28885872E-05
  0.150000006         3.06876937E-05
  0.200000003         7.12687006E-06
  0.250000000        -2.74423310E-05
  0.300000012        -5.20660324E-05
  0.349999994        -4.70168816E-05
  0.400000006        -8.40667690E-06
  0.449999988         4.45274563E-05
  0.500000000         7.73729116E-05
  0.550000012         6.22197622E-05
  0.600000024         1.80528971E-07
  0.649999976        -7.26599101E-05
  0.699999988        -1.04905397E-04
  0.750000000        -6.58711651E-05
  0.800000012         2.68243712E-05
  0.850000024         1.11938389E-04
  0.899999976         1.24509577E-04
  0.949999988         4.58133327E-05
   1.00000000        -7.50211912E-05
   1.04999995        -1.50128588E-04
   1.10000002        -1.17396077E-04
   1.14999998         6.91155856E-06
   1.20000005         1.32264569E-04
   1.25000000         1.59300325E-04
   1.29999995         6.02835389E-05
   1.35000002        -9.07990689E-05
   1.39999998        -1.70416766E-04
   1.45000005        -1.05657789E-04
   1.50000000         5.76115490E-05
   1.54999995         1.81819036E-04
   1.60000002         1.48724372E-04
   1.64999998        -3.20933541E-05
   1.70000005        -2.13847146E-04
   1.75000000        -2.25137876E-04
   1.79999995        -2.23500556E-05
   1.85000002         2.48421304E-04
   1.89999998         3.50077346E-04
   1.95000005         1.52268374E-04
   2.00000000        -2.31378101E-04
   2.04999995        -4.98470559E-04
   2.09999990        -3.89519468E-04
   2.15000010         7.75299195E-05
   2.20000005         5.73468860E-04
   2.25000000         6.86414365E-04
   2.29999995         2.57649430E-04
   2.34999990        -4.45293175E-04
   2.40000010        -8.88805545E-04
   2.45000005        -6.78576122E-04
   2.50000000         9.65097206E-05
   2.54999995         8.76713486E-04
   2.59999990         1.03372533E-03
   2.65000010         3.76140204E-04
   2.70000005        -6.47403765E-04
   2.75000000        -1.24709832E-03
   2.79999995        -9.00039391E-04
   2.84999990         1.99906906E-04
   2.90000010         1.23429403E-03
   2.95000005         1.36853056E-03
   3.00000000         4.26890940E-04
   3.04999995        -9.11260955E-04
   3.09999990        -1.59589690E-03
   3.15000010        -1.03109819E-03
   3.20000005         4.03662794E-04
   3.25000000         1.58876565E-03
   3.29999995         1.52490963E-03
   3.34999990         1.63798919E-04
   3.40000010        -1.47150247E-03
   3.45000005        -2.03878502E-03
   3.50000000        -9.55488300E-04
   3.54999995         1.05122570E-03
   3.59999990         2.42093485E-03
   3.65000010         1.96464290E-03
   3.70000005        -1.24791288E-04
   3.75000000        -2.30004289E-03
   3.79999995        -2.79746531E-03
   3.84999990        -1.05818640E-03
   3.90000010         1.70355604E-03
   3.95000005         3.32274288E-03
   4.00000000         2.36120680E-03
   4.05000019        -6.53132796E-04
   4.09999990        -3.46908206E-03
   4.15000010        -3.78120341E-03
   4.19999981        -1.09749346E-03
   4.25000000         2.69664102E-03
   4.30000019         4.65397956E-03
   4.34999990         3.06247571E-03
   4.40000010        -1.05752412E-03
   4.44999981        -4.54571797E-03
   4.50000000        -4.50068759E-03
   4.55000019        -6.76266092E-04
   4.59999990         4.07411763E-03
   4.65000010         5.86243207E-03
   4.69999981         2.86901300E-03
   4.75000000        -2.95171118E-03
   4.80000019        -7.10874330E-03
   4.84999990        -6.00742362E-03
   4.90000010         1.44729484E-05
   4.94999981         6.58817263E-03
   5.00000000         8.48814659E-03
   5.05000019         3.81325418E-03
   5.09999990        -4.17555263E-03
   5.15000010        -9.25675966E-03
   5.19999981        -7.05069769E-03
   5.25000000         1.25467405E-03
   5.30000019         9.38133709E-03
   5.34999990         1.06162159E-02
   5.40000010         3.21191782E-03
   5.44999981        -7.76678696E-03
   5.50000000        -1.39198322E-02
   5.55000019        -9.93700698E-03
   5.59999990         1.94551551E-03
   5.65000010         1.31694740E-02
   5.69999981         1.51329841E-02
   5.75000000         5.89553872E-03
   5.80000019        -7.94951245E-03
   5.84999990        -1.59831662E-02
   5.90000010        -1.18639013E-02
   5.94999981         1.58946903E-03
   6.00000000         1.42523199E-02
   6.05000019         1.62494015E-02
   6.09999990         5.59720118E-03
   6.15000010        -1.00103347E-02
   6.19999981        -1.88291501E-02
   6.25000000        -1.39282299E-02
   6.30000019         1.42335251E-03
   6.34999990         1.60295647E-02
   6.40000010         1.91066768E-02
   6.44999981         8.39273538E-03
   6.50000000        -8.10337346E-03
   6.55000019        -1.81393586E-02
   6.59999990        -1.44016985E-02
   6.65000010         4.02511887E-06
   6.69999981         1.39739206E-02
   6.75000000         1.68458354E-02
   6.80000019         6.48907665E-03
   6.84999990        -9.11856070E-03
   6.90000010        -1.79268941E-02
   6.94999981        -1.29793761E-02
   7.00000000         2.24471069E-03
   7.05000019         1.63483098E-02
   7.09999990         1.85445473E-02
   7.15000010         6.86341058E-03
   7.19999981        -1.02192899E-02
   7.25000000        -1.99776962E-02
   7.30000019        -1.49810379E-02
   7.34999990         1.22010952E-03
   7.40000010         1.65262036E-02
   7.44999981         1.93132404E-02
   7.50000000         7.26092746E-03
   7.55000019        -1.06089255E-02
   7.59999990        -2.05498263E-02
   7.65000010        -1.45193078E-02
   7.69999981         3.39380652E-03
   7.75000000         1.96829084E-02
   7.80000019         2.15175226E-02
   7.84999990         6.73583429E-03
   7.90000010        -1.40792318E-02
   7.94999981        -2.52995826E-02
   8.00000000        -1.81087516E-02
   8.05000019         2.47681723E-03
   8.10000038         2.11764164E-02
   8.14999962         2.40186695E-02
   8.19999981         9.14155599E-03
   8.25000000        -1.17585314E-02
   8.30000019        -2.24770065E-02
   8.35000038        -1.50762042E-02
   8.39999962         3.96559667E-03
   8.44999981         1.90172624E-02
   8.50000000         1.78925917E-02
   8.55000019         1.69050356E-03
   8.60000038        -1.61365569E-02
   8.64999962        -2.08099335E-02
   8.69999981        -8.34093243E-03
   8.75000000         1.11309737E-02
   8.80000019         2.16657296E-02
   8.85000038         1.46305552E-02
   8.89999962        -4.24864143E-03
   8.94999981        -1.95226986E-02
   9.00000000        -1.87438410E-02
   9.05000019        -2.59822956E-03
   9.10000038         1.57708917E-02
   9.14999962         2.15559155E-02
   9.19999981         1.03225838E-02
   9.25000000        -8.78933724E-03
   9.30000019        -2.07809657E-02
   9.35000038        -1.70286242E-02
   9.39999962        -1.64745050E-03
   9.44999981         1.27949426E-02
   9.50000000         1.60468966E-02
   9.55000019         7.97915179E-03
   9.60000038        -2.65810057E-03
   9.64999962        -6.91580726E-03
   9.69999981        -3.42231779E-03
   9.75000000         1.41810603E-03
   9.80000019         6.17809477E-04
   9.85000038        -5.98715991E-03
   9.89999962        -1.10931462E-02
   9.94999981        -6.94854278E-03
   10.0000000         6.38113823E-03
   10.0500002         1.94765497E-02
   10.1000004         2.07116492E-02
   10.1499996         6.48786407E-03
   10.1999998        -1.46053843E-02
   10.2500000        -2.74552554E-02
   10.3000002        -2.19802856E-02
   10.3500004        -1.27254333E-03
   10.3999996         2.03671437E-02
   10.4499998         2.79726535E-02
   10.5000000         1.68564115E-02
   10.5500002        -4.45158407E-03
   10.6000004        -2.11681165E-02
   10.6499996        -2.30332054E-02
   10.6999998        -1.08175538E-02
   10.7500000         5.77128585E-03
   10.8000002         1.60149187E-02
   10.8500004         1.54564921E-02
   10.8999996         7.30725564E-03
   10.9499998        -1.68482237E-03
   11.0000000        -6.65459409E-03
   11.0500002        -7.08768424E-03
   11.1000004        -5.38930250E-03
   11.1499996        -3.77961574E-03
   11.1999998        -2.55860714E-03
   11.2500000        -7.02882651E-04
   11.3000002         2.39998056E-03
   11.3500004         5.94948791E-03
   11.3999996         8.14145245E-03
   11.4499998         7.31624151E-03
   11.5000000         2.96284514E-03
   11.5500002        -3.87857156E-03
   11.6000004        -1.06563922E-02
   11.6499996        -1.38566671E-02
   11.6999998        -1.04595087E-02
   11.7500000        -1.72066444E-04
   11.8000002         1.29529964E-02
   11.8500004         2.14468203E-02
   11.8999996         1.85599271E-02
   11.9499998         3.47739062E-03
   12.0000000        -1.63608901E-02
   12.0500002        -2.86965985E-02
   12.1000004        -2.43394934E-02
   12.1499996        -4.26162733E-03
   12.1999998         1.97703913E-02
   12.2500000         3.23958546E-02
   12.3000002         2.50940323E-02
   12.3500004         2.39285920E-03
   12.3999996        -2.10015532E-02
   12.4499998        -3.02912071E-02
   12.5000000        -2.06059068E-02
   12.5500002         2.37159955E-04
   12.6000004         1.80368982E-02
   12.6499996         2.24027913E-02
   12.6999998         1.32835396E-02
   12.7500000        -6.36154437E-04
   12.8000002        -9.63069871E-03
   12.8500004        -1.01219863E-02
   12.8999996        -5.92155103E-03
   12.9499998        -3.18117859E-03
   13.0000000        -4.06948430E-03
   13.0500002        -4.83740540E-03
   13.1000004        -3.31499268E-06
   13.1499996         1.11019043E-02
   13.1999998         2.15319656E-02
   13.2500000         2.10154243E-02
   13.3000002         4.60683834E-03
   13.3500004        -2.10141148E-02
   13.3999996        -3.96882519E-02
   13.4499998        -3.61941047E-02
   13.5000000        -8.11110623E-03
   13.5500002         2.99326126E-02
   13.6000004         5.40284291E-02
   13.6499996         4.67068516E-02
   13.6999998         9.84659139E-03
   13.7500000        -3.48675773E-02
   13.8000002        -5.94189428E-02
   13.8500004        -4.81163785E-02
   13.8999996        -8.42283480E-03
   13.9499998         3.40709314E-02
   14.0000000         5.30861318E-02
   14.0500002         3.92077714E-02
   14.1000004         4.83058952E-03
   14.1499996        -2.62742322E-02
   14.1999998        -3.62862945E-02
   14.2500000        -2.43292302E-02
   14.3000002        -3.71462153E-03
   14.3500004         1.07029863E-02
   14.3999996         1.37403356E-02
   14.4499998         1.07828658E-02
   14.5000000         9.31715593E-03
   14.5500002         1.02481330E-02
   14.6000004         7.57514918E-03
   14.6499996        -3.58528388E-03
   14.6999998        -1.91862080E-02
   14.7500000        -2.73623019E-02
   14.8000002        -1.86395235E-02
   14.8500004         3.94805428E-03
   14.8999996         2.51239967E-02
   14.9499998         2.91653071E-02
   15.0000000         1.34867709E-02
   15.0500002        -8.57474003E-03
   15.1000004        -1.91210303E-02
   15.1499996        -1.15476353E-02
   15.1999998         3.63498251E-03
   15.2500000         9.02044494E-03
   15.3000002        -2.28611752E-03
   15.3500004        -1.85921825E-02
   15.3999996        -1.96618866E-02
   15.4499998         3.04221152E-03
   15.5000000         3.47086005E-02
   15.5500002         4.68234420E-02
   15.6000004         2.19830796E-02
   15.6499996        -2.74316147E-02
   15.6999998        -6.49474710E-02
   15.7500000        -5.81255853E-02
   15.8000002        -6.74077030E-03
   15.8500004         5.35734333E-02
   15.8999996         7.74765164E-02
   15.9499998         4.57963049E-02
   16.0000000        -1.83225423E-02
   16.0499992        -6.70140758E-02
   16.1000004        -6.52143136E-02
   16.1499996        -1.75569206E-02
   16.2000008         3.70613895E-02
   16.2500000         5.78963533E-02
   16.2999992         3.42655331E-02
   16.3500004        -9.04498529E-03
   16.3999996        -3.55749428E-02
   16.4500008        -2.82119736E-02
   16.5000000        -7.72972824E-04
   16.5499992         1.81237385E-02
   16.6000004         1.25032635E-02
   16.6499996        -7.53742596E-03
   16.7000008        -1.77481882E-02
   16.7500000        -4.67182696E-03
   16.7999992         2.03185380E-02
   16.8500004         3.12835686E-02
   16.8999996         1.28273312E-02
   16.9500008        -2.33883597E-02
   17.0000000        -4.67552580E-02
   17.0499992        -3.41617763E-02
   17.1000004         8.44877958E-03
   17.1499996         4.89136465E-02
   17.2000008         5.45728803E-02
   17.2500000         1.93593018E-02
   17.2999992        -3.06263976E-02
   17.3500004        -5.77771962E-02
   17.3999996        -4.26415540E-02
   17.4500008         1.60427997E-03
   17.5000000         4.08790149E-02
   17.5499992         4.74330969E-02
   17.6000004         2.02282369E-02
   17.6499996        -1.68875661E-02
   17.7000008        -3.58005837E-02
   17.7500000        -2.57385597E-02
   17.7999992         8.68622330E-04
   17.8500004         2.09569521E-02
   17.8999996         1.99623220E-02
   17.9500008         2.05854583E-03
   18.0000000        -1.53413508E-02
   18.0499992        -1.68044418E-02
   18.1000004        -1.20419508E-03
   18.1499996         1.79655775E-02
   18.2000008         2.37126853E-02
   18.2500000         9.21758078E-03
   18.2999992        -1.61738731E-02
   18.3500004        -3.31469253E-02
   18.3999996        -2.66922880E-02
   18.4500008         1.60529336E-03
   18.5000000         3.26826125E-02
   18.5499992         4.26274650E-02
   18.6000004         2.09256783E-02
   18.6499996        -1.92014929E-02
   18.7000008        -4.80080731E-02
   18.7500000        -4.10424285E-02
   18.7999992         3.44477667E-06
   18.8500004         4.50570770E-02
   18.8999996         5.69288060E-02
   18.9500008         2.16855463E-02
   19.0000000        -3.65039483E-02
   19.0499992        -7.10378364E-02
   19.1000004        -4.97706234E-02
   19.1499996         1.59290489E-02
   19.2000008         7.59481564E-02
   19.2500000         7.98029304E-02
   19.2999992         1.92007851E-02
   19.3500004        -6.12980686E-02
   19.3999996        -9.74789932E-02
   19.4500008        -5.77076972E-02
   19.5000000         2.89164055E-02
   19.5499992         9.38702375E-02
   19.6000004         8.45345929E-02
   19.6499996         8.18831939E-03
   19.7000008        -7.29530007E-02
   19.7500000        -9.28287581E-02
   19.7999992        -3.64591740E-02
   19.8500004         4.77361791E-02
   19.8999996         8.90316293E-02
   19.9500008         5.41101769E-02
   20.0000000        -2.54435651E-02
   20.0499992        -8.10720772E-02
   20.1000004        -6.61602840E-02
   20.1499996         4.86914162E-03
   20.2000008         7.03442991E-02
   20.2500000         7.50598311E-02
   20.2999992         1.68895219E-02
   20.3500004        -5.33798784E-02
   20.3999996        -7.71274343E-02
   20.4500008        -3.75411883E-02
   20.5000000         2.87897307E-02
   20.5499992         6.61378801E-02
   20.6000004         4.76917662E-02
   20.6499996        -4.66238149E-03
   20.7000008        -4.37303111E-02
   20.7500000        -3.97566855E-02
   20.7999992        -3.81592405E-03
   20.8500004         2.68998761E-02
   20.8999996         2.52655260E-02
   20.9500008        -2.48147105E-03
   21.0000000        -2.61152405E-02
   21.0499992        -2.19969675E-02
   21.1000004         5.19875623E-03
   21.1499996         2.89768633E-02
   21.2000008         2.74254307E-02
   21.2500000         3.22804996E-03
   21.2999992        -2.09842380E-02
   21.3500004        -2.53865682E-02
   21.3999996        -1.06420591E-02
   21.4500008         5.97243151E-03
   21.5000000         1.00247208E-02
   21.5499992         3.88934184E-03
   21.6000004         1.21108873E-03
   21.6499996         8.90574511E-03
   21.7000008         1.72316190E-02
   21.7500000         9.93615389E-03
   21.7999992        -1.54132536E-02
   21.8500004        -3.92062701E-02
   21.8999996        -3.53790857E-02
   21.9500008         1.77883555E-03
   22.0000000         4.63990010E-02
   22.0499992         5.97156025E-02
   22.1000004         2.47421172E-02
   22.1499996        -3.46279591E-02
   22.2000008        -7.03344718E-02
   22.2500000        -5.06294891E-02
   22.2999992         1.07524684E-02
   22.3500004         6.40621111E-02
   22.3999996         6.51732087E-02
   22.4500008         1.35127483E-02
   22.5000000        -4.71711829E-02
   22.5499992        -6.64864108E-02
   22.6000004        -3.04407831E-02
   22.6499996         2.78451815E-02
   22.7000008         5.82555048E-02
   22.7500000         3.74744907E-02
   22.7999992        -1.25599522E-02
   22.8500004        -4.63493541E-02
   22.8999996        -3.59852500E-02
   22.9500008         5.65240439E-03
   23.0000000         3.88179645E-02
   23.0499992         3.37184705E-02
   23.1000004        -3.67470970E-03
   23.1499996        -3.88297029E-02
   23.2000008        -4.03049514E-02
   23.2500000        -6.65396685E-03
   23.2999992         3.41626443E-02
   23.3500004         4.96968850E-02
   23.3999996         2.89800670E-02
   23.4500008        -1.15459431E-02
   23.5000000        -4.36506495E-02
   23.5499992        -4.81831394E-02
   23.6000004        -2.48541646E-02
   23.6499996         1.21072223E-02
   23.7000008         4.38475981E-02
   23.7500000         5.43014035E-02
   23.7999992         3.51043865E-02
   23.8500004        -8.90691392E-03
   23.8999996        -5.60061038E-02
   23.9500008        -7.45107681E-02
   24.0000000        -4.34031971E-02
   24.0499992         2.56361030E-02
   24.1000004         8.67746994E-02
   24.1499996         8.95015076E-02
   24.2000008         2.14605462E-02
   24.2500000        -7.20851123E-02
   24.2999992       -0.116444848    
   24.3500004        -6.78289980E-02
   24.3999996         4.32818644E-02
   24.4500008        0.128283232    
   24.5000000        0.110745430    
   24.5499992        -4.91664931E-03
   24.6000004       -0.128280446    
   24.6499996       -0.153237090    
   24.7000008        -4.91513908E-02
   24.7500000        0.105906799    
   24.7999992        0.184098810    
   24.8500004        0.114331700    
   24.8999996        -5.33747077E-02
   24.9500008       -0.184113503    
   25.0000000       -0.168677509    
   25.0499992        -1.64556522E-02
   25.1000004        0.149593085    
   25.1499996        0.194055527    
   25.2000008         8.18412751E-02
   25.2500000        -9.29589644E-02
   25.2999992       -0.186631337    
   25.3500004       -0.125916585    
   25.3999996         3.31886299E-02
   25.4500008        0.156107813    
   25.5000000        0.144239321    
   25.5499992         1.50257275E-02
   25.6000004       -0.118279554    
   25.6499996       -0.145623058    
   25.7000008        -5.10449819E-02
   25.7500000         8.00240040E-02
   25.7999992        0.137894511    
   25.8500004         8.02649409E-02
   25.8999996        -3.85193489E-02
   25.9500008       -0.119448304    
   26.0000000       -0.102053203    
   26.0499992        -8.15610494E-03
   26.1000004         8.43866244E-02
   26.1499996        0.108049564    
   26.2000008         5.42706475E-02
   26.2500000        -3.00521683E-02
   26.2999992        -8.54602605E-02
   26.3500004        -8.19433928E-02
   26.3999996        -3.05564832E-02
   26.4500008         3.36148366E-02
   26.5000000         7.55261183E-02
   26.5499992         7.48149604E-02
   26.6000004         3.08066681E-02
   26.6499996        -3.60562019E-02
   26.7000008        -8.80568177E-02
   26.7500000        -8.71622637E-02
   26.7999992        -2.30293795E-02
   26.8500004         6.84961677E-02
   26.8999996        0.120590247    
   26.9500008         8.41788948E-02
   27.0000000        -2.50738543E-02
   27.0499992       -0.126724795    
   27.1000004       -0.134138167    
   27.1499996        -2.97404956E-02
   27.2000008        0.109401472    
   27.2500000        0.167206764    
   27.2999992         8.64641517E-02
   27.3500004        -7.44043589E-02
   27.3999996       -0.181764990    
   27.4500008       -0.138132185    
   27.5000000         2.88008284E-02
   27.5499992        0.181087911    
   27.6000004        0.184257209    
   27.6499996         2.58017480E-02
   27.7000008       -0.166281715    
   27.7500000       -0.227185503    
   27.7999992        -9.65926051E-02
   27.8500004        0.124225646    
   27.8999996        0.252637058    
   27.9500008        0.177484736    
   28.0000000        -4.49772850E-02
   28.0499992       -0.235184640    
   28.1000004       -0.238593608    
   28.1499996        -5.33638112E-02
   28.2000008        0.169656143    
   28.2500000        0.252882123    
   28.2999992        0.136503100    
   28.3500004        -7.82389864E-02
   28.3999996       -0.218268737    
   28.4500008       -0.180714726    
   28.5000000        -9.17606987E-03
   28.5499992        0.152631298    
   28.6000004        0.182468742    
   28.6499996         7.22198188E-02
   28.7000008        -7.89002553E-02
   28.7500000       -0.153507471    
   28.7999992       -0.107022122    
   28.8500004         1.01898350E-02
   28.8999996        0.105154268    
   28.9500008        0.116051361    
   29.0000000         4.85863090E-02
   29.0499992        -4.23004553E-02
   29.1000004        -9.79163125E-02
   29.1499996        -9.02511328E-02
   29.2000008        -2.89484821E-02
   29.2500000         5.05287796E-02
   29.2999992        0.103871331    
   29.3500004         9.63309854E-02
   29.3999996         2.30708085E-02
   29.4500008        -7.80502930E-02
   29.5000000       -0.139261901    
   29.5499992       -0.106342845    
   29.6000004         1.28899999E-02
   29.6499996        0.138889968    
   29.7000008        0.171485782    
   29.7500000         7.13214502E-02
   29.7999992        -9.58555415E-02
   29.8500004       -0.199743316    
   29.8999996       -0.148857936    
   29.9500008         2.65902318E-02
   30.0000000        0.188835412    
   30.0499992        0.201851159    
   30.1000004         4.82225530E-02
   30.1499996       -0.148821160    
   30.2000008       -0.224279061    
   30.2500000       -0.111585878    
   30.2999992         9.66634229E-02
   30.3500004        0.224067226    
   30.3999996        0.160699144    
   30.4500008        -4.08446714E-02