  -10.0000000         1.00000002E-24
  -9.94999981         1.00000002E-24
  -9.89999962         1.00000012E-24
  -9.85000038         1.00000022E-24
  -9.80000019         1.00000022E-24
  -9.75000000         1.00000022E-24
  -9.69999981         1.00000012E-24
  -9.64999962         1.00000002E-24
  -9.60000038         1.00000002E-24
  -9.55000019         4.06103030E-24
  -9.50000000        -1.80188453E-22
  -9.44999981        -1.40757655E-21
  -9.39999962        -2.56313525E-21
  -9.35000038         1.10009658E-20
  -9.30000019         6.65676894E-20
  -9.25000000         1.11527922E-19
  -9.19999981        -1.68960403E-19
  -9.14999962        -1.17393338E-18
  -9.10000038        -2.07287822E-18
  -9.05000019         9.23637420E-19
  -9.00000000         1.21770954E-17
  -8.94999981         2.51021605E-17
  -8.89999962         9.48372581E-18
  -8.85000038        -7.16074374E-17
  -8.80000019        -1.89352760E-16
  -8.75000000        -1.72170815E-16
  -8.69999981         2.17663473E-16
  -8.64999962         9.41922025E-16
  -8.60000038         1.32089060E-15
  -8.55000019         2.94260543E-16
  -8.50000000        -2.32353991E-15
  -8.44999981        -4.61080860E-15
  -8.39999962        -3.60694920E-15
  -8.35000038         5.86596680E-16
  -8.30000019         2.05938866E-15
  -8.25000000        -4.57738341E-15
  -8.19999981        -8.86861876E-15
  -8.14999962         2.01779223E-14
  -8.10000038         9.88918217E-14
  -8.05000019         1.58495152E-13
  -8.00000000         2.15044335E-14
  -7.94999981        -4.51012166E-13
  -7.90000010        -1.03508283E-12
  -7.84999990        -9.30702889E-13
  -7.80000019         8.30939050E-13
  -7.75000000         4.14498297E-12
  -7.69999981         6.52369391E-12
  -7.65000010         3.51213026E-12
  -7.59999990        -7.73039271E-12
  -7.55000019        -2.29386492E-11
  -7.50000000        -2.83991702E-11
  -7.44999981        -7.83631146E-12
  -7.40000010         4.10450597E-11
  -7.34999990         9.11698009E-11
  -7.30000019         9.06060921E-11
  -7.25000000        -1.74430587E-12
  -7.19999981        -1.64228631E-10
  -7.15000010        -2.88266161E-10
  -7.09999990        -2.27137878E-10
  -7.05000019         8.38877856E-11
  -7.00000000         5.13233900E-10
  -6.94999981         7.42822359E-10
  -6.90000010         4.63138083E-10
  -6.84999990        -3.37223138E-10
  -6.80000019        -1.21924337E-09
  -6.75000000        -1.48953794E-09
  -6.69999981        -7.14004966E-10
  -6.65000010         8.04974420E-10
  -6.59999990         2.05549866E-09
  -6.55000019         2.00949501E-09
  -6.50000000         5.48974199E-10
  -6.44999981        -1.20698185E-09
  -6.40000010        -1.71238701E-09
  -6.34999990        -5.05131881E-10
  -6.30000019         9.38347067E-10
  -6.25000000         2.26139385E-10
  -6.19999981        -3.34386785E-09
  -6.15000010        -6.79471812E-09
  -6.09999990        -4.71969619E-09
  -6.05000019         5.82015236E-09
  -6.00000000         2.01084518E-08
  -5.94999981         2.57623149E-08
  -5.90000010         1.08233733E-08
  -5.84999990        -2.39211975E-08
  -5.80000019        -5.84503468E-08
  -5.75000000        -6.20831599E-08
  -5.69999981        -1.61927698E-08
  -5.65000010         6.35787742E-08
  -5.59999990         1.26028496E-07
  -5.55000019         1.13751703E-07
  -5.50000000         9.22795262E-09
  -5.44999981        -1.36196377E-07
  -5.40000010        -2.21254879E-07
  -5.34999990        -1.61483200E-07
  -5.30000019         3.72369158E-08
  -5.25000000         2.57463597E-07
  -5.19999981         3.33721630E-07
  -5.15000010         1.71675964E-07
  -5.09999990        -1.59653126E-07
  -5.05000019        -4.43712480E-07
  -5.00000000        -4.52635021E-07
  -4.94999981        -1.21708169E-07
  -4.90000010         3.68142480E-07
  -4.84999990         6.82666837E-07
  -4.80000019         5.61078480E-07
  -4.75000000         2.38519746E-08
  -4.69999981        -6.02053831E-07
  -4.65000010        -8.86175258E-07
  -4.59999990        -6.00052886E-07
  -4.55000019         9.60148370E-08
  -4.50000000         7.39954487E-07
  -4.44999981         8.87990836E-07
  -4.40000010         4.42637685E-07
  -4.34999990        -2.62301427E-07
  -4.30000019        -7.01300564E-07
  -4.25000000        -5.54941721E-07
  -4.19999981         3.60886574E-08
  -4.15000010         5.68980283E-07
  -4.09999990         5.70392615E-07
  -4.05000019        -1.48474282E-08
  -4.00000000        -7.50586878E-07
  -3.95000005        -1.02984507E-06
  -3.90000010        -5.54218332E-07
  -3.84999990         4.05536895E-07
  -3.79999995         1.19102242E-06
  -3.75000000         1.25699216E-06
  -3.70000005         6.00502062E-07
  -3.65000010        -2.37442194E-07
  -3.59999990        -6.22107166E-07
  -3.54999995        -3.74280404E-07
  -3.50000000         4.83640363E-08
  -3.45000005        -6.34918536E-08
  -3.40000010        -9.86157033E-07
  -3.34999990        -2.14385341E-06
  -3.29999995        -2.38212101E-06
  -3.25000000        -8.43682471E-07
  -3.20000005         2.16798185E-06
  -3.15000010         5.06010019E-06
  -3.09999990         5.82281427E-06
  -3.04999995         3.42334033E-06
  -3.00000000        -1.24879432E-06
  -2.95000005        -5.67718416E-06
  -2.90000010        -7.23445464E-06
  -2.84999990        -4.97945666E-06
  -2.79999995        -4.50577005E-07
  -2.75000000         3.25978658E-06
  -2.70000005         3.67573830E-06
  -2.65000010         8.76922968E-07
  -2.59999990        -2.30489604E-06
  -2.54999995        -2.23929010E-06
  -2.50000000         2.57305146E-06
  -2.45000005         9.70718975E-06
  -2.40000010         1.37590150E-05
  -2.34999990         9.82552683E-06
  -2.29999995        -2.62698222E-06
  -2.25000000        -1.83045158E-05
  -2.20000005        -2.85113547E-05
  -2.15000010        -2.63332568E-05
  -2.09999990        -1.13143142E-05
  -2.04999995         9.67553933E-06
  -2.00000000         2.63419861E-05
  -1.95000005         3.13121236E-05
  -1.89999998         2.46750988E-05
  -1.85000002         1.34439451E-05
  -1.79999995         6.09670133E-06
  -1.75000000         5.94275571E-06
  -1.70000005         8.18352419E-06
  -1.64999998         3.17040758E-06
  -1.60000002        -1.60267628E-05
  -1.54999995        -4.69728839E-05
  -1.50000000        -7.71514024E-05
  -1.45000005        -9.03124892E-05
  -1.39999998        -7.60641415E-05
  -1.35000002        -3.63542531E-05
  -1.29999995         1.56782335E-05
  -1.25000000         6.39222490E-05
  -1.20000005         9.91633788E-05
  -1.14999998         1.23978709E-04
  -1.10000002         1.49418003E-04
  -1.04999995         1.85910554E-04
  -1.00000000         2.34858380E-04
 -0.949999988         2.86898197E-04
 -0.899999976         3.28132301E-04
 -0.850000024         3.49992362E-04
 -0.800000012         3.55760509E-04
 -0.750000000         3.59008554E-04
 -0.699999988         3.74808733E-04
 -0.649999976         4.09637374E-04
 -0.600000024         4.56896960E-04
 -0.550000012         5.01192582E-04
 -0.500000000         5.28526260E-04
 -0.449999988         5.35567233E-04
 -0.400000006         5.31901722E-04
 -0.349999994         5.34120540E-04
 -0.300000012         5.56229963E-04
 -0.250000000         6.03159715E-04
 -0.200000003         6.71475660E-04
 -0.150000006         7.55794870E-04
 -0.100000001         8.55096383E-04
  -5.00000007E-02     9.73436632E-04
   0.00000000         1.11437589E-03
   5.00000007E-02     1.27399631E-03
  0.100000001         1.43919745E-03
  0.150000006         1.59416860E-03
  0.200000003         1.73113868E-03
  0.250000000         1.85707444E-03
  0.300000012         1.98995625E-03
  0.349999994         2.14594719E-03
  0.400000006         2.32663448E-03
  0.449999988         2.51714629E-03
  0.500000000         2.69892998E-03
  0.550000012         2.86962767E-03
  0.600000024         3.05511826E-03
  0.649999976         3.30191944E-03
  0.699999988         3.65103525E-03
  0.750000000         4.10864456E-03
  0.800000012         4.63422015E-03
  0.850000024         5.15760062E-03
  0.899999976         5.61795197E-03
  0.949999988         6.00159913E-03
   1.00000000         6.35393150E-03
   1.04999995         6.75555365E-03
   1.10000002         7.27569684E-03
   1.14999998         7.93160498E-03
   1.20000005         8.68018158E-03
   1.25000000         9.44818929E-03
   1.29999995         1.01823853E-02
   1.35000002         1.08874729E-02
   1.39999998         1.16269663E-02
   1.45000005         1.24858422E-02
   1.50000000         1.35187423E-02
   1.54999995         1.47171589E-02
   1.60000002         1.60167608E-02
   1.64999998         1.73398145E-02
   1.70000005         1.86447836E-02
   1.75000000         1.99509878E-02
   1.79999995         2.13233884E-02
   1.85000002         2.28296183E-02
   1.89999998         2.44996175E-02
   1.95000005         2.63152514E-02
   2.00000000         2.82352641E-02
   2.04999995         3.02353352E-02
   2.09999990         3.23324986E-02
   2.15000010         3.45752686E-02
   2.20000005         3.70070301E-02
   2.25000000         3.96313258E-02
   2.29999995         4.24075052E-02
   2.34999990         4.52831089E-02
   2.40000010         4.82409671E-02
   2.45000005         5.13255894E-02
   2.50000000         5.46261892E-02
   2.54999995         5.82242720E-02
   2.59999990         6.21407107E-02
   2.65000010         6.63202181E-02
   2.70000005         7.06666261E-02
   2.75000000         7.51073807E-02
   2.79999995         7.96446279E-02
   2.84999990         8.43585730E-02
   2.90000010         8.93613845E-02
   2.95000005         9.47329924E-02
   3.00000000        0.100481421    
   3.04999995        0.106551856    
   3.09999990        0.112874269    
   3.15000010        0.119414456    
   3.20000005        0.126193956    
   3.25000000        0.133269519    
   3.29999995        0.140692323    
   3.34999990        0.148479357    
   3.40000010        0.156617522    
   3.45000005        0.165092841    
   3.50000000        0.173918664    
   3.54999995        0.183136791    
   3.59999990        0.192789257    
   3.65000010        0.202882186    
   3.70000005        0.213372350    
   3.75000000        0.224191383    
   3.79999995        0.235294417    
   3.84999990        0.246700138    
   3.90000010        0.258491546    
   3.95000005        0.270773202    
   4.00000000        0.283610910    
   4.05000019        0.296993256    
   4.09999990        0.310841441    
   4.15000010        0.325061142    
   4.19999981        0.339602321    
   4.25000000        0.354487270    
   4.30000019        0.369789213    
   4.34999990        0.385577977    
   4.40000010        0.401871651    
   4.44999981        0.418627918    
   4.50000000        0.435779601    
   4.55000019        0.453287810    
   4.59999990        0.471172363    
   4.65000010        0.489497095    
   4.69999981        0.508318961    
   4.75000000        0.527637482    
   4.80000019        0.547381401    
   4.84999990        0.567443073    
   4.90000010        0.587738514    
   4.94999981        0.608252645    
   5.00000000        0.629040420    
   5.05000019        0.650182486    
   5.09999990        0.671727598    
   5.15000010        0.693656325    
   5.19999981        0.715889573    
   5.25000000        0.738330603    
   5.30000019        0.760910153    
   5.34999990        0.783605158    
   5.40000010        0.806422889    
   5.44999981        0.829367816    
   5.50000000        0.852418423    
   5.55000019        0.875531137    
   5.59999990        0.898665130    
   5.65000010        0.921805263    
   5.69999981        0.944959104    
   5.75000000        0.968126535    
   5.80000019        0.991263807    
   5.84999990         1.01427174    
   5.90000010         1.03702545    
   5.94999981         1.05943084    
   6.00000000         1.08147025    
   6.05000019         1.10320008    
   6.09999990         1.12469590    
   6.15000010         1.14597428    
   6.19999981         1.16694927    
   6.25000000         1.18745387    
   6.30000019         1.20732141    
   6.34999990         1.22647142    
   6.40000010         1.24494016    
   6.44999981         1.26283073    
   6.50000000         1.28021252    
   6.55000019         1.29704165    
   6.59999990         1.31315756    
   6.65000010         1.32836151    
   6.69999981         1.34252214    
   6.75000000         1.35563576    
   6.80000019         1.36780238    
   6.84999990         1.37913525    
   6.90000010         1.38966990    
   6.94999981         1.39933336    
   7.00000000         1.40798330    
   7.05000019         1.41548002    
   7.09999990         1.42173886    
   7.15000010         1.42673147    
   7.19999981         1.43045628    
   7.25000000         1.43291175    
   7.30000019         1.43409872    
   7.34999990         1.43404186    
   7.40000010         1.43279302    
   7.44999981         1.43040144    
   7.50000000         1.42686248    
   7.55000019         1.42209160    
   7.59999990         1.41595149    
   7.65000010         1.40832675    
   7.69999981         1.39919317    
   7.75000000         1.38863158    
   7.80000019         1.37677336    
   7.84999990         1.36371410    
   7.90000010         1.34945905    
   7.94999981         1.33393621    
   8.00000000         1.31706643    
   8.05000019         1.29883397    
   8.10000038         1.27930880    
   8.14999962         1.25860536    
   8.19999981         1.23681247    
   8.25000000         1.21394432    
   8.30000019         1.18994510    
   8.35000038         1.16473997    
   8.39999962         1.13829696    
   8.44999981         1.11066306    
   8.50000000         1.08195865    
   8.55000019         1.05233991    
   8.60000038         1.02195084    
   8.64999962        0.990882397    
   8.69999981        0.959152043    
   8.75000000        0.926711619    
   8.80000019        0.893483222    
   8.85000038        0.859417379    
   8.89999962        0.824546814    
   8.94999981        0.789007664    
   9.00000000        0.753005624    
   9.05000019        0.716738939    
   9.10000038        0.680318534    
   9.14999962        0.643736839    
   9.19999981        0.606908619    
   9.25000000        0.569761336    
   9.30000019        0.532317698    
   9.35000038        0.494713098    
   9.39999962        0.457138896    
   9.44999981        0.419749796    
   9.50000000        0.382602334    
   9.55000019        0.345667094    
   9.60000038        0.308902562    
   9.64999962        0.272333920    
   9.69999981        0.236076146    
   9.75000000        0.200285211    
   9.80000019        0.165076628    
   9.85000038        0.130476281    
   9.89999962         9.64424536E-02
   9.94999981         6.29410297E-02
   10.0000000         3.00124139E-02
   10.0500002        -2.22537643E-03
   10.1000004        -3.36407050E-02
   10.1499996        -6.41663447E-02
   10.1999998        -9.38245207E-02
   10.2500000       -0.122674122    
   10.3000002       -0.150721788    
   10.3500004       -0.177873045    
   10.3999996       -0.203971714    
   10.4499998       -0.228903309    
   10.5000000       -0.252680063    
   10.5500002       -0.275432736    
   10.6000004       -0.297305077    
   10.6499996       -0.318328112    
   10.6999998       -0.338373989    
   10.7500000       -0.357231677    
   10.8000002       -0.374751449    
   10.8500004       -0.390948445    
   10.8999996       -0.405984521    
   10.9499998       -0.420043677    
   11.0000000       -0.433198065    
   11.0500002       -0.445367992    
   11.1000004       -0.456400961    
   11.1499996       -0.466199845    
   11.1999998       -0.474794865    
   11.2500000       -0.482307166    
   11.3000002       -0.488846004    
   11.3500004       -0.494433045    
   11.3999996       -0.499017894    
   11.4499998       -0.502562404    
   11.5000000       -0.505109012    
   11.5500002       -0.506765544    
   11.6000004       -0.507617235    
   11.6499996       -0.507649183    
   11.6999998       -0.506757259    
   11.7500000       -0.504848897    
   11.8000002       -0.501951694    
   11.8500004       -0.498234719    
   11.8999996       -0.493916333    
   11.9499998       -0.489130229    
   12.0000000       -0.483856767    
   12.0500002       -0.477973193    
   12.1000004       -0.471377283    
   12.1499996       -0.464078933    
   12.1999998       -0.456188172    
   12.2500000       -0.447820127    
   12.3000002       -0.439010590    
   12.3500004       -0.429720789    
   12.3999996       -0.419926882    
   12.4499998       -0.409707248    
   12.5000000       -0.399239659    
   12.5500002       -0.388698012    
   12.6000004       -0.378130078    
   12.6499996       -0.367422104    
   12.6999998       -0.356388658    
   12.7500000       -0.344923615    
   12.8000002       -0.333096206    
   12.8500004       -0.321118265    
   12.8999996       -0.309208840    
   12.9499998       -0.297460735    
   13.0000000       -0.285806894    
   13.0500002       -0.274102956    
   13.1000004       -0.262256294    
   13.1499996       -0.250303507    
   13.1999998       -0.238387182    
   13.2500000       -0.226661235    
   13.3000002       -0.215199903    
   13.3500004       -0.203971148    
   13.3999996       -0.192880780    
   13.4499998       -0.181844637    
   13.5000000       -0.170838818    
   13.5500002       -0.159904629    
   13.6000004       -0.149119452    
   13.6499996       -0.138560683    
   13.6999998       -0.128282830    
   13.7500000       -0.118311025    
   13.8000002       -0.108644217    
   13.8500004        -9.92613956E-02
   13.8999996        -9.01293457E-02
   13.9499998        -8.12134668E-02
   14.0000000        -7.24913701E-02
   14.0500002        -6.39655218E-02
   14.1000004        -5.56684621E-02
   14.1499996        -4.76542860E-02
   14.1999998        -3.99749577E-02
   14.2500000        -3.26495022E-02
   14.3000002        -2.56441161E-02
   14.3500004        -1.88821442E-02
   14.3999996        -1.22879921E-02
   14.4499998        -5.84276998E-03
   14.5000000         3.88468790E-04
   14.5500002         6.28745696E-03
   14.6000004         1.17613608E-02
   14.6499996         1.68171953E-02
   14.6999998         2.15724856E-02
   14.7500000         2.61842068E-02
   14.8000002         3.07419989E-02
   14.8500004         3.52059640E-02
   14.8999996         3.94401886E-02
   14.9499998         4.33184281E-02
   15.0000000         4.68182676E-02
   15.0500002         5.00277542E-02
   15.1000004         5.30616753E-02
   15.1499996         5.59621900E-02
   15.1999998         5.86722456E-02
   15.2500000         6.11048937E-02
   15.3000002         6.32435605E-02
   15.3500004         6.51771277E-02
   15.3999996         6.70308992E-02
   15.4499998         6.88516051E-02
   15.5000000         7.05531463E-02
   15.5500002         7.19813108E-02
   15.6000004         7.30487481E-02
   15.6499996         7.38215894E-02
   15.6999998         7.44737014E-02
   15.7500000         7.51392767E-02
   15.8000002         7.57895708E-02
   15.8500004         7.62473568E-02
   15.8999996         7.63378218E-02
   15.9499998         7.60529190E-02
   16.0000000         7.55858794E-02
   16.0499992         7.51957819E-02
   16.1000004         7.50041828E-02
   16.1499996         7.48871416E-02
   16.2000008         7.45524913E-02
   16.2500000         7.37451985E-02
   16.2999992         7.24244863E-02
   16.3500004         7.07830191E-02
   16.3999996         6.91051632E-02
   16.4500008         6.75795227E-02
   16.5000000         6.62003607E-02
   16.5499992         6.48090094E-02
   16.6000004         6.32186085E-02
   16.6499996         6.13210872E-02
   16.7000008         5.91151901E-02
   16.7500000         5.66681512E-02
   16.7999992         5.40632717E-02
   16.8500004         5.13694100E-02
   16.8999996         4.86288443E-02
   16.9500008         4.58448827E-02
   17.0000000         4.29696627E-02
   17.0499992         3.99145111E-02
   17.1000004         3.65955755E-02
   17.1499996         3.29907872E-02
   17.2000008         2.91602947E-02
   17.2500000         2.52042767E-02
   17.2999992         2.11860631E-02
   17.3500004         1.70840304E-02
   17.3999996         1.28144985E-02
   17.4500008         8.30481574E-03
   17.5000000         3.54965171E-03
   17.5499992        -1.40000379E-03
   17.6000004        -6.50046021E-03
   17.6499996        -1.17654605E-02
   17.7000008        -1.72509588E-02
   17.7500000        -2.29903813E-02
   17.7999992        -2.89503429E-02
   17.8500004        -3.50603387E-02
   17.8999996        -4.12944667E-02
   17.9500008        -4.77223992E-02
   18.0000000        -5.44659905E-02
   18.0499992        -6.15870319E-02
   18.1000004        -6.90078437E-02
   18.1499996        -7.65512288E-02
   18.2000008        -8.40830430E-02
   18.2500000        -9.16402340E-02
   18.2999992        -9.94262397E-02
   18.3500004       -0.107664630    
   18.3999996       -0.116427422    
   18.4500008       -0.125582486    
   18.5000000       -0.134904057    
   18.5499992       -0.144248813    
   18.6000004       -0.153645515    
   18.6499996       -0.163228691    
   18.7000008       -0.173091263    
   18.7500000       -0.183203101    
   18.7999992       -0.193473294    
   18.8500004       -0.203888386    
   18.8999996       -0.214577004    
   18.9500008       -0.225715071    
   19.0000000       -0.237343401    
   19.0499992       -0.249270618    
   19.1000004       -0.261176497    
   19.1499996       -0.272854328    
   19.2000008       -0.284392715    
   19.2500000       -0.296129018    
   19.2999992       -0.308392555    
   19.3500004       -0.321239382    
   19.3999996       -0.334397703    
   19.4500008       -0.347474158    
   19.5000000       -0.360254824    
   19.5499992       -0.372857928    
   19.6000004       -0.385619372    
   19.6499996       -0.398812950    
   19.7000008       -0.412436098    
   19.7500000       -0.426224440    
   19.7999992       -0.439864725    
   19.8500004       -0.453219384    
   19.8999996       -0.466386855    
   19.9500008       -0.479573697    
   20.0000000       -0.492907971    
   20.0499992       -0.506350636    
   20.1000004       -0.519758344    
   20.1499996       -0.533016086    
   20.2000008       -0.546115458    
   20.2500000       -0.559123218    
   20.2999992       -0.572086692    
   20.3500004       -0.584970593    
   20.3999996       -0.597672522    
   20.4500008       -0.610090792    
   20.5000000       -0.622179925    
   20.5499992       -0.633956671    
   20.6000004       -0.645469606    
   20.6499996       -0.656766117    
   20.7000008       -0.667871475    
   20.7500000       -0.678771675    
   20.7999992       -0.689397275    
   20.8500004       -0.699630737    
   20.8999996       -0.709357917    
   20.9500008       -0.718546867    
   21.0000000       -0.727286875    
   21.0499992       -0.735729337    
   21.1000004       -0.743950844    
   21.1499996       -0.751843333    
   21.2000008       -0.759145498    
   21.2500000       -0.765622616    
   21.2999992       -0.771266103    
   21.3500004       -0.776335597    
   21.3999996       -0.781179845    
   21.4500008       -0.785953641    
   21.5000000       -0.790461242    
   21.5499992       -0.794270813    
   21.6000004       -0.797029555    
   21.6499996       -0.798734784    
   21.7000008       -0.799736857    
   21.7500000       -0.800464034    
   21.7999992       -0.801086426    
   21.8500004       -0.801387608    
   21.8999996       -0.800942719    
   21.9500008       -0.799452007    
   22.0000000       -0.796959102    
   22.0499992       -0.793788910    
   22.1000004       -0.790276587    
   22.1499996       -0.786519825    
   22.2000008       -0.782346368    
   22.2500000       -0.777494669    
   22.2999992       -0.771834135    
   22.3500004       -0.765443563    
   22.3999996       -0.758509099    
   22.4500008       -0.751159012    
   22.5000000       -0.743383884    
   22.5499992       -0.735089600    
   22.6000004       -0.726207554    
   22.6499996       -0.716752827    
   22.7000008       -0.706793904    
   22.7500000       -0.696392357    
   22.7999992       -0.685584724    
   22.8500004       -0.674413025    
   22.8999996       -0.662945449    
   22.9500008       -0.651238263    
   23.0000000       -0.639268577    
   23.0499992       -0.626922071    
   23.1000004       -0.614082456    
   23.1499996       -0.600763321    
   23.2000008       -0.587155640    
   23.2500000       -0.573519230    
   23.2999992       -0.559990704    
   23.3500004       -0.546473682    
   23.3999996       -0.532727063    
   23.4500008       -0.518594205    
   23.5000000       -0.504177511    
   23.5499992       -0.489792675    
   23.6000004       -0.475723475    
   23.6499996       -0.461984426    
   23.7000008       -0.448306352    
   23.7500000       -0.434374541    
   23.7999992       -0.420124531    
   23.8500004       -0.405836940    
   23.8999996       -0.391939580    
   23.9500008       -0.378677040    
   24.0000000       -0.365929246    
   24.0499992       -0.353334546    
   24.1000004       -0.340613723    
   24.1499996       -0.327817202    
   24.2000008       -0.315288156    
   24.2500000       -0.303379416    
   24.2999992       -0.292173386    
   24.3500004       -0.281442851    
   24.3999996       -0.270876497    
   24.4500008       -0.260364026    
   24.5000000       -0.250094324    
   24.5499992       -0.240391403    
   24.6000004       -0.231441870    
   24.6499996       -0.223154068    
   24.7000008       -0.215261862    
   24.7500000       -0.207572117    
   24.7999992       -0.200136662    
   24.8500004       -0.193208009    
   24.8999996       -0.187028497    
   24.9500008       -0.181637302    
   25.0000000       -0.176850408    
   25.0499992       -0.172414243    
   25.1000004       -0.168196574    
   25.1499996       -0.164267704    
   25.2000008       -0.160830572    
   25.2500000       -0.158076316    
   25.2999992       -0.156076029    
   25.3500004       -0.154764354    
   25.3999996       -0.153993398    
   25.4500008       -0.153605193    
   25.5000000       -0.153491452    
   25.5499992       -0.153635159    
   25.6000004       -0.154126927    
   25.6499996       -0.155132964    
   25.7000008       -0.156804681    
   25.7500000       -0.159169525    
   25.7999992       -0.162083611    
   25.8500004       -0.165302590    
   25.8999996       -0.168638855    
   25.9500008       -0.172089770    
   26.0000000       -0.175828502    
   26.0499992       -0.180055708    
   26.1000004       -0.184830695    
   26.1499996       -0.190024957    
   26.2000008       -0.195437267    
   26.2500000       -0.200965866    
   26.2999992       -0.206678689    
   26.3500004       -0.212714866    
   26.3999996       -0.219109997    
   26.4500008       -0.225716084    
   26.5000000       -0.232305765    
   26.5499992       -0.238776803    
   26.6000004       -0.245265678    
   26.6499996       -0.252046615    
   26.7000008       -0.259283394    
   26.7500000       -0.266847193    
   26.7999992       -0.274374723    
   26.8500004       -0.281540036    
   26.8999996       -0.288318753    
   26.9500008       -0.295016110    
   27.0000000       -0.302019000    
   27.0499992       -0.309467077    
   27.1000004       -0.317114174    
   27.1499996       -0.324498057    
   27.2000008       -0.331284642    
   27.2500000       -0.337510228    
   27.2999992       -0.343531668    
   27.3500004       -0.349734366    
   27.3999996       -0.356237292    
   27.4500008       -0.362821966    
   27.5000000       -0.369118750    
   27.5499992       -0.374880910    
   27.6000004       -0.380126119    
   27.6499996       -0.385057688    
   27.7000008       -0.389863133    
   27.7500000       -0.394570351    
   27.7999992       -0.399064898    
   27.8500004       -0.403221577    
   27.8999996       -0.407014519    
   27.9500008       -0.410512030    
   28.0000000       -0.413778722    
   28.0499992       -0.416790307    
   28.1000004       -0.419442177    
   28.1499996       -0.421638668    
   28.2000008       -0.423376650    
   28.2500000       -0.424747825    
   28.2999992       -0.425860912    
   28.3500004       -0.426754057    
   28.3999996       -0.427368194    
   28.4500008       -0.427593887    
   28.5000000       -0.427346855    
   28.5499992       -0.426613688    
   28.6000004       -0.425447524    
   28.6499996       -0.423931688    
   28.7000008       -0.422141105    
   28.7500000       -0.420113951    
   28.7999992       -0.417831391    
   28.8500004       -0.415210456    
   28.8999996       -0.412128508    
   28.9500008       -0.408487052    
   29.0000000       -0.404287666    
   29.0499992       -0.399662167    
   29.1000004       -0.394814938    
   29.1499996       -0.389899045    
   29.2000008       -0.384908557    
   29.2500000       -0.379674017    
   29.2999992       -0.373974442    
   29.3500004       -0.367689371    
   29.3999996       -0.360877246    
   29.4500008       -0.353724152    
   29.5000000       -0.346409112    
   29.5499992       -0.338995636    
   29.6000004       -0.331428885    
   29.6499996       -0.323622406    
   29.7000008       -0.315543950    
   29.7500000       -0.307221293    
   29.7999992       -0.298675746    
   29.8500004       -0.289866120    
   29.8999996       -0.280716747    
   29.9500008       -0.271216720    
   30.0000000       -0.261492550    
   30.0499992       -0.251761675    
   30.1000004       -0.242177710    
   30.1499996       -0.232687056    
   30.2000008       -0.223033622    
   30.2500000       -0.212937132    
   30.2999992       -0.202321395    
   30.3500004       -0.191408038    
   30.3999996       -0.180582970    
   30.4500008       -0.170122251    