  -10.0000000         4.09037757E-31
  -9.94999981         1.22711322E-30
  -9.89999962         1.28549335E-30
  -9.85000038         2.77860063E-31
  -9.80000019        -6.27473994E-31
  -9.75000000        -1.19950124E-30
  -9.69999981        -1.41314649E-30
  -9.64999962        -5.21860529E-31
  -9.60000038         3.06103275E-23
  -9.55000019        -1.81188461E-21
  -9.50000000        -1.41163735E-20
  -9.44999981        -2.38294676E-20
  -9.39999962         1.24085415E-19
  -9.35000038         6.91308287E-19
  -9.30000019         1.00526929E-18
  -9.25000000        -2.35528120E-18
  -9.19999981        -1.28546125E-17
  -9.14999962        -1.90391765E-17
  -9.10000038         2.09757055E-17
  -9.05000019         1.42499728E-16
  -9.00000000         2.41785211E-16
  -8.94999981        -2.69337187E-17
  -8.89999962        -9.67095950E-16
  -8.85000038        -1.98836495E-15
  -8.80000019        -1.00563394E-15
  -8.75000000         4.07016187E-15
  -8.69999981         1.11409286E-14
  -8.64999962         1.10322721E-14
  -8.60000038        -6.47661254E-15
  -8.55000019        -3.64443041E-14
  -8.50000000        -4.90506920E-14
  -8.44999981        -1.28340950E-14
  -8.39999962         5.19740501E-14
  -8.35000038         5.66633769E-14
  -8.30000019        -5.16397973E-14
  -8.25000000        -1.09280078E-13
  -8.19999981         2.47553063E-13
  -8.14999962         1.07760437E-12
  -8.10000038         1.38317222E-12
  -8.05000019        -7.73873804E-13
  -8.00000000        -6.09507280E-12
  -7.94999981        -1.05658728E-11
  -7.90000010        -4.79690810E-12
  -7.84999990         1.86602175E-11
  -7.80000019         5.07568536E-11
  -7.75000000         5.69275391E-11
  -7.69999981        -6.32852755E-12
  -7.65000010        -1.42540854E-10
  -7.59999990        -2.64507777E-10
  -7.55000019        -2.06687736E-10
  -7.50000000         1.51023374E-10
  -7.44999981         6.94442226E-10
  -7.40000010         9.90060922E-10
  -7.34999990         4.95610164E-10
  -7.30000019        -9.29141042E-10
  -7.25000000        -2.54834709E-09
  -7.19999981        -2.86521851E-09
  -7.15000010        -6.29092500E-10
  -7.09999990         3.72153930E-09
  -7.05000019         7.40371764E-09
  -7.00000000         6.58934551E-09
  -6.94999981        -5.00957720E-10
  -6.90000010        -1.08004548E-08
  -6.84999990        -1.68238135E-08
  -6.80000019        -1.15231469E-08
  -6.75000000         5.05238518E-09
  -6.69999981         2.29451249E-08
  -6.65000010         2.76950374E-08
  -6.59999990         1.20452075E-08
  -6.55000019        -1.50652451E-08
  -6.50000000        -3.21647668E-08
  -6.44999981        -2.26136105E-08
  -6.40000010         7.01849867E-09
  -6.34999990         2.65073385E-08
  -6.30000019         7.31271221E-09
  -6.25000000        -4.28221476E-08
  -6.19999981        -7.02085714E-08
  -6.15000010        -1.37582870E-08
  -6.09999990         1.26148691E-07
  -6.05000019         2.48281481E-07
  -6.00000000         1.99421621E-07
  -5.94999981        -9.28507831E-08
  -5.90000010        -4.96835071E-07
  -5.84999990        -6.92737160E-07
  -5.80000019        -3.81619628E-07
  -5.75000000         4.22575681E-07
  -5.69999981         1.25661916E-06
  -5.65000010         1.42221268E-06
  -5.59999990         5.01729232E-07
  -5.55000019        -1.16800561E-06
  -5.50000000        -2.49948084E-06
  -5.44999981        -2.30482829E-06
  -5.40000010        -2.52868347E-07
  -5.34999990         2.58491764E-06
  -5.30000019         4.18946775E-06
  -5.25000000         2.96484723E-06
  -5.19999981        -8.57876159E-07
  -5.15000010        -4.93374728E-06
  -5.09999990        -6.15388399E-06
  -5.05000019        -2.92981872E-06
  -5.00000000         3.22004303E-06
  -4.94999981         8.20777495E-06
  -4.90000010         8.04374940E-06
  -4.84999990         1.92936045E-06
  -4.80000019        -6.58814861E-06
  -4.75000000        -1.16313231E-05
  -4.69999981        -9.10027211E-06
  -4.65000010         2.00098036E-08
  -4.59999990         9.82190068E-06
  -4.55000019         1.34000738E-05
  -4.50000000         7.91975981E-06
  -4.44999981        -2.97316774E-06
  -4.40000010        -1.15029225E-05
  -4.34999990        -1.14393833E-05
  -4.30000019        -2.92640357E-06
  -4.25000000         7.37389200E-06
  -4.19999981         1.12392199E-05
  -4.15000010         5.34303899E-06
  -4.09999990        -5.83827750E-06
  -4.05000019        -1.32097948E-05
  -4.00000000        -1.01499763E-05
  -3.95000005         1.96368615E-06
  -3.90000010         1.43538191E-05
  -3.84999990         1.74524066E-05
  -3.79999995         8.51455206E-06
  -3.75000000        -5.90520267E-06
  -3.70000005        -1.49443422E-05
  -3.65000010        -1.22260917E-05
  -3.59999990        -1.36838173E-06
  -3.54999995         6.70471218E-06
  -3.50000000         3.10788619E-06
  -3.45000005        -1.03452085E-05
  -3.40000010        -2.08036126E-05
  -3.34999990        -1.39596368E-05
  -3.29999995         1.30017106E-05
  -3.25000000         4.55010268E-05
  -3.20000005         5.90378258E-05
  -3.15000010         3.65483247E-05
  -3.09999990        -1.63675941E-05
  -3.04999995        -7.07160798E-05
  -3.00000000        -9.10052404E-05
  -2.95000005        -5.98566075E-05
  -2.90000010         6.97727091E-06
  -2.84999990         6.78387805E-05
  -2.79999995         8.23924202E-05
  -2.75000000         4.12631452E-05
  -2.70000005        -2.38286357E-05
  -2.65000010        -5.98063416E-05
  -2.59999990        -3.11621334E-05
  -2.54999995         4.87794678E-05
  -2.50000000         1.19464799E-04
  -2.45000005         1.11859634E-04
  -2.40000010         1.18335004E-06
  -2.34999990        -1.63859979E-04
  -2.29999995        -2.81300425E-04
  -2.25000000        -2.58843735E-04
  -2.20000005        -8.02874129E-05
  -2.15000010         1.71970387E-04
  -2.09999990         3.60087957E-04
  -2.04999995         3.76562995E-04
  -2.00000000         2.16365836E-04
  -1.95000005        -1.66688860E-05
  -1.89999998        -1.78681788E-04
  -1.85000002        -1.85783967E-04
  -1.79999995        -7.50118925E-05
  -1.75000000         2.08682195E-05
  -1.70000005        -2.77234867E-05
  -1.64999998        -2.42102862E-04
  -1.60000002        -5.01432922E-04
  -1.54999995        -6.11246389E-04
  -1.50000000        -4.33396082E-04
  -1.45000005         1.08725762E-05
  -1.39999998         5.39582339E-04
  -1.35000002         9.17423749E-04
  -1.29999995         1.00276503E-03
  -1.25000000         8.34851584E-04
  -1.20000005         6.00564759E-04
  -1.14999998         5.02546143E-04
  -1.10000002         6.19318336E-04
  -1.04999995         8.54403770E-04
  -1.00000000         1.00987637E-03
 -0.949999988         9.32739116E-04
 -0.899999976         6.30941940E-04
 -0.850000024         2.76282488E-04
 -0.800000012         9.01618114E-05
 -0.750000000         1.90481980E-04
 -0.699999988         5.06288197E-04
 -0.649999976         8.20882502E-04
 -0.600000024         9.15552024E-04
 -0.550000012         7.16293114E-04
 -0.500000000         3.43746826E-04
 -0.449999988         3.37549245E-05
 -0.400000006        -1.44665810E-05
 -0.349999994         2.43281844E-04
 -0.300000012         6.90391578E-04
 -0.250000000         1.15245662E-03
 -0.200000003         1.52635085E-03
 -0.150000006         1.83620781E-03
 -0.100000001         2.17641820E-03
  -5.00000007E-02     2.59279506E-03
   0.00000000         3.00559541E-03
   5.00000007E-02     3.24821589E-03
  0.100000001         3.20172426E-03
  0.150000006         2.91941408E-03
  0.200000003         2.62905937E-03
  0.250000000         2.58817570E-03
  0.300000012         2.88872584E-03
  0.349999994         3.36678093E-03
  0.400000006         3.71199241E-03
  0.449999988         3.72295547E-03
  0.500000000         3.52481450E-03
  0.550000012         3.56188207E-03
  0.600000024         4.32291487E-03
  0.649999976         5.95916715E-03
  0.699999988         8.06724932E-03
  0.750000000         9.83184483E-03
  0.800000012         1.04895569E-02
  0.850000024         9.83732007E-03
  0.899999976         8.43998883E-03
  0.949999988         7.35979527E-03
   1.00000000         7.53954379E-03
   1.04999995         9.21764784E-03
   1.10000002         1.17605086E-02
   1.14999998         1.40448539E-02
   1.20000005         1.51658468E-02
   1.25000000         1.50220329E-02
   1.29999995         1.43928295E-02
   1.35000002         1.44458106E-02
   1.39999998         1.59836952E-02
   1.45000005         1.89177562E-02
   1.50000000         2.23131664E-02
   1.54999995         2.49801874E-02
   1.60000002         2.62265429E-02
   1.64999998         2.62801982E-02
   1.70000005         2.61117071E-02
   1.75000000         2.67860424E-02
   1.79999995         2.87863333E-02
   1.85000002         3.17623056E-02
   1.89999998         3.48563232E-02
   1.95000005         3.73564698E-02
   2.00000000         3.92008424E-02
   2.04999995         4.09723558E-02
   2.09999990         4.33993489E-02
   2.15000010         4.67453264E-02
   2.20000005         5.05605526E-02
   2.25000000         5.40046990E-02
   2.29999995         5.65178320E-02
   2.34999990         5.83346412E-02
   2.40000010         6.04248270E-02
   2.45000005         6.38522506E-02
   2.50000000         6.89868107E-02
   2.54999995         7.51452371E-02
   2.59999990         8.09595212E-02
   2.65000010         8.52591172E-02
   2.70000005         8.78715888E-02
   2.75000000         8.97799805E-02
   2.79999995         9.25118700E-02
   2.84999990         9.71675962E-02
   2.90000010        0.103744201    
   2.95000005        0.111200310    
   3.00000000        0.118188523    
   3.04999995        0.123928450    
   3.09999990        0.128626093    
   3.15000010        0.133196920    
   3.20000005        0.138550699    
   3.25000000        0.144983619    
   3.29999995        0.152098462    
   3.34999990        0.159251988    
   3.40000010        0.166134760    
   3.45000005        0.173011452    
   3.50000000        0.180439368    
   3.54999995        0.188705787    
   3.59999990        0.197453782    
   3.65000010        0.205830917    
   3.70000005        0.213091850    
   3.75000000        0.219220623    
   3.79999995        0.225087717    
   3.84999990        0.231971234    
   3.90000010        0.240730509    
   3.95000005        0.251193553    
   4.00000000        0.262200713    
   4.05000019        0.272305697    
   4.09999990        0.280678868    
   4.15000010        0.287608385    
   4.19999981        0.294260979    
   4.25000000        0.301868975    
   4.30000019        0.310907334    
   4.34999990        0.320824742    
   4.40000010        0.330499500    
   4.44999981        0.339079440    
   4.50000000        0.346598893    
   4.55000019        0.353927761    
   4.59999990        0.362093151    
   4.65000010        0.371465772    
   4.69999981        0.381403476    
   4.75000000        0.390624315    
   4.80000019        0.398055971    
   4.84999990        0.403571010    
   4.90000010        0.408095777    
   4.94999981        0.413018346    
   5.00000000        0.419298053    
   5.05000019        0.426872164    
   5.09999990        0.434738278    
   5.15000010        0.441619903    
   5.19999981        0.446743250    
   5.25000000        0.450206548    
   5.30000019        0.452745795    
   5.34999990        0.455127388    
   5.40000010        0.457626998    
   5.44999981        0.459956020    
   5.50000000        0.461633325    
   5.55000019        0.462466717    
   5.59999990        0.462741226    
   5.65000010        0.462939352    
   5.69999981        0.463212758    
   5.75000000        0.463047564    
   5.80000019        0.461451977    
   5.84999990        0.457616121    
   5.90000010        0.451590657    
   5.94999981        0.444447070    
   6.00000000        0.437692136    
   6.05000019        0.432255685    
   6.09999990        0.427741468    
   6.15000010        0.422534168    
   6.19999981        0.414796114    
   6.25000000        0.403721899    
   6.30000019        0.390175253    
   6.34999990        0.376188725    
   6.40000010        0.363594621    
   6.44999981        0.352723807    
   6.50000000        0.342109144    
   6.55000019        0.329450369    
   6.59999990        0.313198477    
   6.65000010        0.293644309    
   6.69999981        0.272742420    
   6.75000000        0.252804369    
   6.80000019        0.234995171    
   6.84999990        0.218675300    
   6.90000010        0.201983139    
   6.94999981        0.183135152    
   7.00000000        0.161467180    
   7.05000019        0.137555376    
   7.09999990        0.112514213    
   7.15000010         8.71748626E-02
   7.19999981         6.18016496E-02
   7.25000000         3.64239439E-02
   7.30000019         1.13007138E-02
   7.34999990        -1.30575690E-02
   7.40000010        -3.64041850E-02
   7.44999981        -5.93052469E-02
   7.50000000        -8.30988064E-02
   7.55000019       -0.109110296    
   7.59999990       -0.137647122    
   7.65000010       -0.167581990    
   7.69999981       -0.196950480    
   7.75000000       -0.224197894    
   7.80000019       -0.249175727    
   7.84999990       -0.273144096    
   7.90000010       -0.297778308    
   7.94999981       -0.323925376    
   8.00000000       -0.351022393    
   8.05000019       -0.377575934    
   8.10000038       -0.402285308    
   8.14999962       -0.424961865    
   8.19999981       -0.446609586    
   8.25000000       -0.468674034    
   8.30000019       -0.492044926    
   8.35000038       -0.516482472    
   8.39999962       -0.540769219    
   8.44999981       -0.563383102    
   8.50000000       -0.583230793    
   8.55000019       -0.600076675    
   8.60000038       -0.614574850    
   8.64999962       -0.627988100    
   8.69999981       -0.641708314    
   8.75000000       -0.656688333    
   8.80000019       -0.672941804    
   8.85000038       -0.689363778    
   8.89999962       -0.704096973    
   8.94999981       -0.715411782    
   9.00000000       -0.722687066    
   9.05000019       -0.726870835    
   9.10000038       -0.730020583    
   9.14999962       -0.734099030    
   9.19999981       -0.739754319    
   9.25000000       -0.745908976    
   9.30000019       -0.750483096    
   9.35000038       -0.751788199    
   9.39999962       -0.749633372    
   9.44999981       -0.745365918    
   9.50000000       -0.740827322    
   9.55000019       -0.736998022    
   9.60000038       -0.733331800    
   9.64999962       -0.728264213    
   9.69999981       -0.720487177    
   9.75000000       -0.709995151    
   9.80000019       -0.698089182    
   9.85000038       -0.686341763    
   9.89999962       -0.675352514    
   9.94999981       -0.664300263    
   10.0000000       -0.651663959    
   10.0500002       -0.636531174    
   10.1000004       -0.619409740    
   10.1499996       -0.601838231    
   10.1999998       -0.585077822    
   10.2500000       -0.568972766    
   10.3000002       -0.551989317    
   10.3500004       -0.532499373    
   10.3999996       -0.510302663    
   10.4499998       -0.487083405    
   10.5000000       -0.465294093    
   10.5500002       -0.446249843    
   10.6000004       -0.428953618    
   10.6499996       -0.410689116    
   10.6999998       -0.389035672    
   10.7500000       -0.363774925    
   10.8000002       -0.337167710    
   10.8500004       -0.312330544    
   10.8999996       -0.290952504    
   10.9499998       -0.272135735    
   11.0000000       -0.253243178    
   11.0500002       -0.232028723    
   11.1000004       -0.208318502    
   11.1499996       -0.183938712    
   11.1999998       -0.161072984    
   11.2500000       -0.140511349    
   11.3000002       -0.121258579    
   11.3500004       -0.101719074    
   11.3999996        -8.12936425E-02
   11.4499998        -6.09110594E-02
   11.5000000        -4.20309901E-02
   11.5500002        -2.50818375E-02
   11.6000004        -8.83668754E-03
   11.6499996         8.59916024E-03
   11.6999998         2.80027576E-02
   11.7500000         4.80556227E-02
   11.8000002         6.61414489E-02
   11.8500004         8.03533047E-02
   11.8999996         9.10444930E-02
   11.9499998        0.100595742    
   12.0000000        0.111570425    
   12.0500002        0.124794669    
   12.1000004        0.138942644    
   12.1499996        0.151891425    
   12.1999998        0.162588313    
   12.2500000        0.171775863    
   12.3000002        0.180993229    
   12.3500004        0.190836921    
   12.3999996        0.200135544    
   12.4499998        0.206872016    
   12.5000000        0.210091993    
   12.5500002        0.211095795    
   12.6000004        0.212759152    
   12.6499996        0.217414126    
   12.6999998        0.224984780    
   12.7500000        0.232924059    
   12.8000002        0.238053009    
   12.8500004        0.238873899    
   12.8999996        0.236575678    
   12.9499998        0.234019756    
   13.0000000        0.233578071    
   13.0500002        0.235506043    
   13.1000004        0.237994626    
   13.1499996        0.238691300    
   13.1999998        0.236422732    
   13.2500000        0.231872976    
   13.3000002        0.226901025    
   13.3500004        0.223191306    
   13.3999996        0.221265420    
   13.4499998        0.220419765    
   13.5000000        0.219399884    
   13.5500002        0.217193440    
   13.6000004        0.213439360    
   13.6499996        0.208366260    
   13.6999998        0.202496707    
   13.7500000        0.196386158    
   13.8000002        0.190496251    
   13.8500004        0.185148612    
   13.8999996        0.180479169    
   13.9499998        0.176379755    
   14.0000000        0.172479436    
   14.0500002        0.168228984    
   14.1000004        0.163112298    
   14.1499996        0.156935081    
   14.1999998        0.150047868    
   14.2500000        0.143308386    
   14.3000002        0.137673572    
   14.3500004        0.133561239    
   14.3999996        0.130393744    
   14.4499998        0.126764610    
   14.5000000        0.121302269    
   14.5500002        0.113728918    
   14.6000004        0.105297387    
   14.6499996         9.81112644E-02
   14.6999998         9.36701074E-02
   14.7500000         9.16951075E-02
   14.8000002         9.02175456E-02
   14.8500004         8.69818702E-02
   14.8999996         8.11246336E-02
   14.9499998         7.37807602E-02
   15.0000000         6.70932084E-02
   15.0500002         6.24340437E-02
   15.1000004         5.93443438E-02
   15.1499996         5.61056919E-02
   15.1999998         5.14270328E-02
   15.2500000         4.57131155E-02
   15.3000002         4.07222696E-02
   15.3500004         3.78733687E-02
   15.3999996         3.67447957E-02
   15.4499998         3.52224447E-02
   15.5000000         3.12970132E-02
   15.5500002         2.49560680E-02
   15.6000004         1.84028428E-02
   15.6499996         1.42494719E-02
   15.6999998         1.31768268E-02
   15.7500000         1.31587032E-02
   15.8000002         1.10808313E-02
   15.8500004         5.48256468E-03
   15.8999996        -1.94439304E-03
   15.9499998        -7.51942163E-03
   16.0000000        -8.57138354E-03
   16.0499992        -5.81706641E-03
   16.1000004        -3.08641163E-03
   16.1499996        -4.51695966E-03
   16.2000008        -1.14194602E-02
   16.2500000        -2.12800168E-02
   16.2999992        -2.96217985E-02
   16.3500004        -3.31931785E-02
   16.3999996        -3.20349932E-02
   16.4500008        -2.90480908E-02
   16.5000000        -2.77050901E-02
   16.5499992        -2.98174527E-02
   16.6000004        -3.48792486E-02
   16.6499996        -4.10342067E-02
   16.7000008        -4.65293564E-02
   16.7500000        -5.05191945E-02
   16.7999992        -5.29873781E-02
   16.8500004        -5.43442369E-02
   16.8999996        -5.52452728E-02
   16.9500008        -5.65918237E-02
   17.0000000        -5.93037158E-02
   17.0499992        -6.37408793E-02
   17.1000004        -6.92372620E-02
   17.1499996        -7.43528530E-02
   17.2000008        -7.78651088E-02
   17.2500000        -7.97422975E-02
   17.2999992        -8.12024772E-02
   17.3500004        -8.37156549E-02
   17.3999996        -8.77921507E-02
   17.4500008        -9.26484838E-02
   17.5000000        -9.70481932E-02
   17.5499992       -0.100501120    
   17.6000004       -0.103654563    
   17.6499996       -0.107504979    
   17.7000008       -0.112249196    
   17.7500000       -0.116993822    
   17.7999992       -0.120699562    
   17.8500004       -0.123441271    
   17.8999996       -0.126620620    
   17.9500008       -0.131715238    
   18.0000000       -0.138646349    
   18.0499992       -0.145418510    
   18.1000004       -0.149641931    
   18.1499996       -0.150751993    
   18.2000008       -0.150890023    
   18.2500000       -0.153431952    
   18.2999992       -0.160243958    
   18.3500004       -0.170011789    
   18.3999996       -0.179178640    
   18.4500008       -0.184766486    
   18.5000000       -0.186663300    
   18.5499992       -0.187414572    
   18.6000004       -0.189798683    
   18.6499996       -0.194457293    
   18.7000008       -0.199744105    
   18.7500000       -0.203820318    
   18.7999992       -0.206852853    
   18.8500004       -0.211037189    
   18.8999996       -0.218266830    
   18.9500008       -0.227663904    
   19.0000000       -0.235555381    
   19.0499992       -0.238330841    
   19.1000004       -0.235836968    
   19.1499996       -0.232162148    
   19.2000008       -0.232746869    
   19.2500000       -0.239998221    
   19.2999992       -0.251103342    
   19.3500004       -0.260051340    
   19.3999996       -0.262347639    
   19.4500008       -0.258571088    
   19.5000000       -0.253837824    
   19.5499992       -0.253645241    
   19.6000004       -0.259550035    
   19.6499996       -0.268167406    
   19.7000008       -0.274114937    
   19.7500000       -0.274286419    
   19.7999992       -0.269949526    
   19.8500004       -0.265221357    
   19.8999996       -0.263543576    
   19.9500008       -0.265211284    
   20.0000000       -0.267769158    
   20.0499992       -0.268504024    
   20.1000004       -0.266654134    
   20.1499996       -0.263570726    
   20.2000008       -0.261071473    
   20.2500000       -0.259712994    
   20.2999992       -0.258474499    
   20.3500004       -0.255857915    
   20.3999996       -0.251201481    
   20.4500008       -0.245074168    
   20.5000000       -0.238658920    
   20.5499992       -0.232896045    
   20.6000004       -0.228093147    
   20.6499996       -0.224017933    
   20.7000008       -0.220055208    
   20.7500000       -0.215258285    
   20.7999992       -0.208590746    
   20.8500004       -0.199605599    
   20.8999996       -0.189160898    
   20.9500008       -0.179289266    
   21.0000000       -0.171824858    
   21.0499992       -0.166640103    
   21.1000004       -0.161139980    
   21.1499996       -0.151946694    
   21.2000008       -0.137793481    
   21.2500000       -0.121206053    
   21.2999992       -0.107130021    
   21.3500004        -9.91383046E-02
   21.3999996        -9.61807892E-02
   21.4500008        -9.28142369E-02
   21.5000000        -8.31715167E-02
   21.5499992        -6.56836703E-02
   21.6000004        -4.46407683E-02
   21.6499996        -2.70733144E-02
   21.7000008        -1.72926970E-02
   21.7500000        -1.34962993E-02
   21.7999992        -9.23622120E-03
   21.8500004         1.43717928E-03
   21.8999996         1.93559825E-02
   21.9500008         3.98358740E-02
   22.0000000         5.66307008E-02
   22.0499992         6.68248236E-02
   22.1000004         7.26908892E-02
   22.1499996         7.93026984E-02
   22.2000008         9.02524069E-02
   22.2500000        0.105123021    
   22.2999992        0.120511346    
   22.3500004        0.133250445    
   22.3999996        0.142845109    
   22.4500008        0.151251748    
   22.5000000        0.160694316    
   22.5499992        0.171762928    
   22.6000004        0.183367223    
   22.6499996        0.194136500    
   22.7000008        0.203603938    
   22.7500000        0.212090716    
   22.7999992        0.219792858    
   22.8500004        0.226393178    
   22.8999996        0.231747925    
   22.9500008        0.236768141    
   23.0000000        0.243161693    
   23.0499992        0.251861513    
   23.1000004        0.261586994    
   23.1499996        0.269267827    
   23.2000008        0.272441059    
   23.2500000        0.271649092    
   23.2999992        0.270455092    
   23.3500004        0.272635877    
   23.3999996        0.278794646    
   23.4500008        0.285495579    
   23.5000000        0.288015455    
   23.5499992        0.284540564    
   23.6000004        0.278082162    
   23.6499996        0.274171084    
   23.7000008        0.276098907    
   23.7500000        0.281818271    
   23.7999992        0.285375923    
   23.8500004        0.281849593    
   23.8999996        0.271599293    
   23.9500008        0.260103464    
   24.0000000        0.253425002    
   24.0499992        0.253155351    
   24.1000004        0.255173385    
   24.1499996        0.253255367    
   24.2000008        0.244377792    
   24.2500000        0.231147870    
   24.2999992        0.219365790    
   24.3500004        0.212968782    
   24.3999996        0.210788116    
   24.4500008        0.207821250    
   24.5000000        0.199726015    
   24.5499992        0.186524570    
   24.6000004        0.172373399    
   24.6499996        0.161800131    
   24.7000008        0.155819386    
   24.7500000        0.151252061    
   24.7999992        0.143640965    
   24.8500004        0.131081432    
   24.8999996        0.115707055    
   24.9500008        0.101780936    
   25.0000000         9.22305733E-02
   25.0499992         8.65383223E-02
   25.1000004         8.14654827E-02
   25.1499996         7.36600608E-02
   25.2000008         6.19138516E-02
   25.2500000         4.75454368E-02
   25.2999992         3.31195854E-02
   25.3500004         2.08262168E-02
   25.3999996         1.15914037E-02
   25.4500008         5.01941750E-03
   25.5000000        -2.99584673E-04
   25.5499992        -6.35489775E-03
   25.6000004        -1.49781071E-02
   25.6499996        -2.67772842E-02
   25.7000008        -4.03654650E-02
   25.7500000        -5.27892560E-02
   25.7999992        -6.13305829E-02
   25.8500004        -6.55525923E-02
   25.8999996        -6.78719282E-02
   25.9500008        -7.18963668E-02
   26.0000000        -7.96591863E-02
   26.0499992        -9.00219828E-02
   26.1000004        -9.96925682E-02
   26.1499996       -0.106065646    
   26.2000008       -0.109409191    
   26.2500000       -0.112414286    
   26.2999992       -0.117489792    
   26.3500004       -0.124312840    
   26.3999996       -0.130012125    
   26.4500008       -0.131957725    
   26.5000000       -0.130607128    
   26.5499992       -0.129599109    
   26.6000004       -0.132698342    
   26.6499996       -0.140177563    
   26.7000008       -0.148005858    
   26.7500000       -0.150913402    
   26.7999992       -0.146928430    
   26.8500004       -0.139439955    
   26.8999996       -0.134760842    
   26.9500008       -0.137002453    
   27.0000000       -0.144509539    
   27.0499992       -0.150951728    
   27.1000004       -0.150309578    
   27.1499996       -0.141704664    
   27.2000008       -0.130122066    
   27.2500000       -0.122470535    
   27.2999992       -0.122241236    
   27.3500004       -0.127056316    
   27.3999996       -0.130876094    
   27.4500008       -0.128814399    
   27.5000000       -0.120589331    
   27.5499992       -0.110073514    
   27.6000004       -0.101767659    
   27.6499996        -9.73701850E-02
   27.7000008        -9.51266140E-02
   27.7500000        -9.20175314E-02
   27.7999992        -8.65121186E-02
   27.8500004        -7.94963762E-02
   27.8999996        -7.29047358E-02
   27.9500008        -6.76417649E-02
   28.0000000        -6.27827719E-02
   28.0499992        -5.66349849E-02
   28.1000004        -4.84839417E-02
   28.1499996        -3.93450707E-02
   28.2000008        -3.10917608E-02
   28.2500000        -2.48426665E-02
   28.2999992        -2.00627875E-02
   28.3500004        -1.50728915E-02
   28.3999996        -8.39797035E-03
   28.4500008         2.13569961E-04
   28.5000000         9.80177429E-03
   28.5499992         1.89928189E-02
   28.6000004         2.68200226E-02
   28.6499996         3.30642872E-02
   28.7000008         3.81769463E-02
   28.7500000         4.30968069E-02
   28.7999992         4.90350276E-02
   28.8500004         5.70292026E-02
   28.8999996         6.72342703E-02
   28.9500008         7.84081295E-02
   29.0000000         8.82486403E-02
   29.0499992         9.47270915E-02
   29.1000004         9.76312533E-02
   29.1499996         9.90639552E-02
   29.2000008        0.102250300    
   29.2500000        0.109340973    
   29.2999992        0.119846188    
   29.3500004        0.130972162    
   29.3999996        0.139652595    
   29.4500008        0.144681454    
   29.5000000        0.147284895    
   29.5499992        0.149802193    
   29.6000004        0.153732181    
   29.6499996        0.158849150    
   29.7000008        0.164011255    
   29.7500000        0.168681875    
   29.7999992        0.173551470    
   29.8500004        0.179590181    
   29.8999996        0.186494127    
   29.9500008        0.192242175    
   30.0000000        0.194550529    
   30.0499992        0.193148255    
   30.1000004        0.190746248    
   30.1499996        0.191440925    
   30.2000008        0.197499260    
   30.2500000        0.207122415    
   30.2999992        0.215291023    
   30.3500004        0.217384294    
   30.3999996        0.212857783    
   30.4500008        0.205961436    