  -10.0000000         1.00000002E-24
  -9.94999981         1.00000002E-24
  -9.89999962         1.00000002E-24
  -9.85000038         1.00000012E-24
  -9.80000019         1.00000022E-24
  -9.75000000         1.00000022E-24
  -9.69999981         1.00000022E-24
  -9.64999962         1.00000022E-24
  -9.60000038         1.00000022E-24
  -9.55000019         1.10119251E-20
  -9.50000000         8.54288614E-19
  -9.44999981         8.45195448E-18
  -9.39999962         3.87036055E-17
  -9.35000038         9.00777386E-17
  -9.30000019         2.97736945E-17
  -9.25000000        -5.22167542E-16
  -9.19999981        -1.84541205E-15
  -9.14999962        -2.76345219E-15
  -9.10000038         7.97067850E-16
  -9.05000019         1.33645875E-14
  -9.00000000         2.93668051E-14
  -8.94999981         2.01037290E-14
  -8.89999962        -5.74454628E-14
  -8.85000038        -2.02292935E-13
  -8.80000019        -2.81658486E-13
  -8.75000000        -2.63820931E-14
  -8.69999981         7.43822321E-13
  -8.64999962         1.69449860E-12
  -8.60000038         1.75764655E-12
  -8.55000019        -2.57015627E-13
  -8.50000000        -4.10687977E-12
  -8.44999981        -6.80891888E-12
  -8.39999962        -3.77434629E-12
  -8.35000038         6.57068627E-12
  -8.30000019         1.75204087E-11
  -8.25000000         1.47926237E-11
  -8.19999981        -1.20204810E-11
  -8.14999962        -5.26386955E-11
  -8.10000038        -7.13753986E-11
  -8.05000019        -3.11543846E-11
  -8.00000000         6.09149536E-11
  -7.94999981         1.28128730E-10
  -7.90000010         6.91977170E-11
  -7.84999990        -1.26093400E-10
  -7.80000019        -2.81549756E-10
  -7.75000000        -9.93799626E-11
  -7.69999981         5.62650482E-10
  -7.65000010         1.36921530E-09
  -7.59999990         1.49158319E-09
  -7.55000019         1.52514140E-10
  -7.50000000        -2.47236254E-09
  -7.44999981        -4.74200901E-09
  -7.40000010        -4.24250146E-09
  -7.34999990         2.69531175E-10
  -7.30000019         6.91175739E-09
  -7.25000000         1.06831317E-08
  -7.19999981         6.52271526E-09
  -7.15000010        -5.94172844E-09
  -7.09999990        -1.96568237E-08
  -7.05000019        -2.29715234E-08
  -7.00000000        -7.95010990E-09
  -6.94999981         2.10477573E-08
  -6.90000010         4.61225937E-08
  -6.84999990         4.58417908E-08
  -6.80000019         1.18137118E-08
  -6.75000000        -4.02216571E-08
  -6.69999981        -7.59115082E-08
  -6.65000010        -6.46080593E-08
  -6.59999990        -4.52216353E-09
  -6.55000019         6.91154725E-08
  -6.50000000         1.03232487E-07
  -6.44999981         6.36990478E-08
  -6.40000010        -3.58007348E-08
  -6.34999990        -1.35938478E-07
  -6.30000019        -1.66964767E-07
  -6.25000000        -9.43646086E-08
  -6.19999981         5.62163756E-08
  -6.15000010         2.11046739E-07
  -6.09999990         2.87508641E-07
  -6.05000019         2.34699414E-07
  -6.00000000         5.55083730E-08
  -5.94999981        -1.91913728E-07
  -5.90000010        -4.05999486E-07
  -5.84999990        -4.67411127E-07
  -5.80000019        -2.88613421E-07
  -5.75000000         1.15472723E-07
  -5.69999981         5.76220657E-07
  -5.65000010         8.06450828E-07
  -5.59999990         5.56527141E-07
  -5.55000019        -1.71704386E-07
  -5.50000000        -1.01256217E-06
  -5.44999981        -1.37733571E-06
  -5.40000010        -8.41392819E-07
  -5.34999990         4.54482233E-07
  -5.30000019         1.72745217E-06
  -5.25000000         1.98226189E-06
  -5.19999981         7.53856511E-07
  -5.15000010        -1.36096696E-06
  -5.09999990        -2.88762999E-06
  -5.05000019        -2.42242618E-06
  -5.00000000         2.27026092E-07
  -4.94999981         3.58440957E-06
  -4.90000010         5.25639689E-06
  -4.84999990         3.56230157E-06
  -4.80000019        -1.05612128E-06
  -4.75000000        -5.97583585E-06
  -4.69999981        -7.95592223E-06
  -4.65000010        -5.38168160E-06
  -4.59999990         4.07585730E-07
  -4.55000019         5.80748247E-06
  -4.50000000         7.34921559E-06
  -4.44999981         4.18428590E-06
  -4.40000010        -1.18297851E-06
  -4.34999990        -4.58357499E-06
  -4.30000019        -3.20113941E-06
  -4.25000000         2.22883887E-06
  -4.19999981         7.69878989E-06
  -4.15000010         8.61183071E-06
  -4.09999990         3.04952391E-06
  -4.05000019        -6.65920197E-06
  -4.00000000        -1.51891554E-05
  -3.95000005        -1.74637444E-05
  -3.90000010        -1.17358168E-05
  -3.84999990        -5.43563033E-07
  -3.79999995         1.09159191E-05
  -3.75000000         1.77722395E-05
  -3.70000005         1.79010694E-05
  -3.65000010         1.24796316E-05
  -3.59999990         4.72681359E-06
  -3.54999995        -2.07108837E-06
  -3.50000000        -6.02067712E-06
  -3.45000005        -7.00163173E-06
  -3.40000010        -6.19538787E-06
  -3.34999990        -5.33155389E-06
  -3.29999995        -6.02081263E-06
  -3.25000000        -9.17479883E-06
  -3.20000005        -1.44104242E-05
  -3.15000010        -1.96007131E-05
  -3.09999990        -2.10657927E-05
  -3.04999995        -1.48611125E-05
  -3.00000000         9.73469582E-07
  -2.95000005         2.42182196E-05
  -2.90000010         4.78804031E-05
  -2.84999990         6.23415617E-05
  -2.79999995         5.99253653E-05
  -2.75000000         3.97251752E-05
  -2.70000005         9.54038114E-06
  -2.65000010        -1.72860018E-05
  -2.59999990        -2.94401834E-05
  -2.54999995        -2.55732375E-05
  -2.50000000        -1.71209340E-05
  -2.45000005        -2.27319797E-05
  -2.40000010        -5.62811001E-05
  -2.34999990        -1.15605078E-04
  -2.29999995        -1.80220450E-04
  -2.25000000        -2.21522219E-04
  -2.20000005        -2.20591450E-04
  -2.15000010        -1.82310789E-04
  -2.09999990        -1.35209804E-04
  -2.04999995        -1.15068033E-04
  -2.00000000        -1.41672470E-04
  -1.95000005        -2.04243319E-04
  -1.89999998        -2.66686489E-04
  -1.85000002        -2.90917349E-04
  -1.79999995        -2.63520051E-04
  -1.75000000        -2.07378602E-04
  -1.70000005        -1.69083418E-04
  -1.64999998        -1.89272017E-04
  -1.60000002        -2.75397790E-04
  -1.54999995        -3.95729963E-04
  -1.50000000        -4.99512593E-04
  -1.45000005        -5.50348661E-04
  -1.39999998        -5.50374156E-04
  -1.35000002        -5.38498687E-04
  -1.29999995        -5.63342997E-04
  -1.25000000        -6.48833287E-04
  -1.20000005        -7.75892695E-04
  -1.14999998        -8.93391203E-04
  -1.10000002        -9.52133385E-04
  -1.04999995        -9.39979102E-04
  -1.00000000        -8.94650177E-04
 -0.949999988        -8.84640031E-04
 -0.899999976        -9.69138113E-04
 -0.850000024        -1.16181758E-03
 -0.800000012        -1.42156542E-03
 -0.750000000        -1.67657947E-03
 -0.699999988        -1.86715694E-03
 -0.649999976        -1.98051869E-03
 -0.600000024        -2.05606804E-03
 -0.550000012        -2.15850584E-03
 -0.500000000        -2.33685155E-03
 -0.449999988        -2.59596040E-03
 -0.400000006        -2.89794896E-03
 -0.349999994        -3.19044432E-03
 -0.300000012        -3.44108348E-03
 -0.250000000        -3.65521200E-03
 -0.200000003        -3.86742176E-03
 -0.150000006        -4.11667209E-03
 -0.100000001        -4.42494219E-03
  -5.00000007E-02    -4.79356945E-03
   0.00000000        -5.21536963E-03
   5.00000007E-02    -5.68793109E-03
  0.100000001        -6.21462567E-03
  0.150000006        -6.79319119E-03
  0.200000003        -7.40509247E-03
  0.250000000        -8.01975559E-03
  0.300000012        -8.61460902E-03
  0.349999994        -9.19586793E-03
  0.400000006        -9.80089232E-03
  0.449999988        -1.04760854E-02
  0.500000000        -1.12449238E-02
  0.550000012        -1.20915566E-02
  0.600000024        -1.29756648E-02
  0.649999976        -1.38701834E-02
  0.699999988        -1.47935236E-02
  0.750000000        -1.58090387E-02
  0.800000012        -1.69873387E-02
  0.850000024        -1.83553565E-02
  0.899999976        -1.98682416E-02
  0.949999988        -2.14266870E-02
   1.00000000        -2.29322724E-02
   1.04999995        -2.43479572E-02
   1.10000002        -2.57267989E-02
   1.14999998        -2.71912552E-02
   1.20000005        -2.88740303E-02
   1.25000000        -3.08521129E-02
   1.29999995        -3.31080295E-02
   1.35000002        -3.55375744E-02
   1.39999998        -3.80007029E-02
   1.45000005        -4.03921418E-02
   1.50000000        -4.26982380E-02
   1.54999995        -4.50108275E-02
   1.60000002        -4.74878699E-02
   1.64999998        -5.02775013E-02
   1.70000005        -5.34444079E-02
   1.75000000        -5.69397695E-02
   1.79999995        -6.06333166E-02
   1.85000002        -6.43888190E-02
   1.89999998        -6.81363493E-02
   1.95000005        -7.18973801E-02
   2.00000000        -7.57519528E-02
   2.04999995        -7.97783136E-02
   2.09999990        -8.40132311E-02
   2.15000010        -8.84606540E-02
   2.20000005        -9.31337997E-02
   2.25000000        -9.80851054E-02
   2.29999995       -0.103387341    
   2.34999990       -0.109071724    
   2.40000010       -0.115072347    
   2.45000005       -0.121231303    
   2.50000000       -0.127379134    
   2.54999995       -0.133446082    
   2.59999990       -0.139528483    
   2.65000010       -0.145856425    
   2.70000005       -0.152672142    
   2.75000000       -0.160089463    
   2.79999995       -0.168020934    
   2.84999990       -0.176220626    
   2.90000010       -0.184420407    
   2.95000005       -0.192482874    
   3.00000000       -0.200482666    
   3.04999995       -0.208668366    
   3.09999990       -0.217323318    
   3.15000010       -0.226600587    
   3.20000005       -0.236427084    
   3.25000000       -0.246539265    
   3.29999995       -0.256639868    
   3.34999990       -0.266589642    
   3.40000010       -0.276512504    
   3.45000005       -0.286731631    
   3.50000000       -0.297558159    
   3.54999995       -0.309059143    
   3.59999990       -0.320968688    
   3.65000010       -0.332827210    
   3.70000005       -0.344279557    
   3.75000000       -0.355337143    
   3.79999995       -0.366408765    
   3.84999990       -0.378052592    
   3.90000010       -0.390600681    
   3.95000005       -0.403915435    
   4.00000000       -0.417459756    
   4.05000019       -0.430644780    
   4.09999990       -0.443215579    
   4.15000010       -0.455400288    
   4.19999981       -0.467717707    
   4.25000000       -0.480587572    
   4.30000019       -0.494032413    
   4.34999990       -0.507684410    
   4.40000010       -0.521077454    
   4.44999981       -0.533991396    
   4.50000000       -0.546585262    
   4.55000019       -0.559231520    
   4.59999990       -0.572195888    
   4.65000010       -0.585420072    
   4.69999981       -0.598570287    
   4.75000000       -0.611296892    
   4.80000019       -0.623490334    
   4.84999990       -0.635333657    
   4.90000010       -0.647125244    
   4.94999981       -0.659024775    
   5.00000000       -0.670925081    
   5.05000019       -0.682536304    
   5.09999990       -0.693599343    
   5.15000010       -0.704052508    
   5.19999981       -0.714034736    
   5.25000000       -0.723744631    
   5.30000019       -0.733281255    
   5.34999990       -0.742585957    
   5.40000010       -0.751503468    
   5.44999981       -0.759889841    
   5.50000000       -0.767676532    
   5.55000019       -0.774858117    
   5.59999990       -0.781446636    
   5.65000010       -0.787446260    
   5.69999981       -0.792867482    
   5.75000000       -0.797745883    
   5.80000019       -0.802128732    
   5.84999990       -0.806028485    
   5.90000010       -0.809385896    
   5.94999981       -0.812081456    
   6.00000000       -0.813993454    
   6.05000019       -0.815057755    
   6.09999990       -0.815284550    
   6.15000010       -0.814730108    
   6.19999981       -0.813459337    
   6.25000000       -0.811534762    
   6.30000019       -0.809024751    
   6.34999990       -0.805993319    
   6.40000010       -0.802448571    
   6.44999981       -0.798281848    
   6.50000000       -0.793265402    
   6.55000019       -0.787153721    
   6.59999990       -0.779845715    
   6.65000010       -0.771494091    
   6.69999981       -0.762460411    
   6.75000000       -0.753115714    
   6.80000019       -0.743609488    
   6.84999990       -0.733769834    
   6.90000010       -0.723212779    
   6.94999981       -0.711594403    
   7.00000000       -0.698828459    
   7.05000019       -0.685124397    
   7.09999990       -0.670828223    
   7.15000010       -0.656193197    
   7.19999981       -0.641245544    
   7.25000000       -0.625829756    
   7.30000019       -0.609775007    
   7.34999990       -0.593044341    
   7.40000010       -0.575755239    
   7.44999981       -0.558071315    
   7.50000000       -0.540066898    
   7.55000019       -0.521675825    
   7.59999990       -0.502764940    
   7.65000010       -0.483268291    
   7.69999981       -0.463276744    
   7.75000000       -0.443012357    
   7.80000019       -0.422705948    
   7.84999990       -0.402462959    
   7.90000010       -0.382208139    
   7.94999981       -0.361743927    
   8.00000000       -0.340884268    
   8.05000019       -0.319582283    
   8.10000038       -0.297979057    
   8.14999962       -0.276347607    
   8.19999981       -0.254962713    
   8.25000000       -0.233965755    
   8.30000019       -0.213295802    
   8.35000038       -0.192729786    
   8.39999962       -0.172019288    
   8.44999981       -0.151057392    
   8.50000000       -0.129979610    
   8.55000019       -0.109126247    
   8.60000038        -8.88656005E-02
   8.64999962        -6.93690851E-02
   8.69999981        -5.04810624E-02
   8.75000000        -3.17918472E-02
   8.80000019        -1.29024964E-02
   8.85000038         6.26864936E-03
   8.89999962         2.53493264E-02
   8.94999981         4.36781831E-02
   9.00000000         6.07090890E-02
   9.05000019         7.64061436E-02
   9.10000038         9.13421437E-02
   9.14999962        0.106380582    
   9.19999981        0.122106038    
   9.25000000        0.138375521    
   9.30000019        0.154326454    
   9.35000038        0.168886989    
   9.39999962        0.181475863    
   9.44999981        0.192413062    
   9.50000000        0.202732548    
   9.55000019        0.213499352    
   9.60000038        0.225095019    
   9.64999962        0.236974284    
   9.69999981        0.248065948    
   9.75000000        0.257524371    
   9.80000019        0.265285671    
   9.85000038        0.272036850    
   9.89999962        0.278652608    
   9.94999981        0.285550296    
   10.0000000        0.292452425    
   10.0500002        0.298705012    
   10.1000004        0.303857505    
   10.1499996        0.308019280    
   10.1999998        0.311716765    
   10.2500000        0.315398902    
   10.3000002        0.319026381    
   10.3500004        0.322097003    
   10.3999996        0.324082285    
   10.4499998        0.324904203    
   10.5000000        0.325048655    
   10.5500002        0.325217247    
   10.6000004        0.325799882    
   10.6499996        0.326588690    
   10.6999998        0.326949894    
   10.7500000        0.326300651    
   10.8000002        0.324514240    
   10.8500004        0.321964979    
   10.8999996        0.319226474    
   10.9499998        0.316690534    
   11.0000000        0.314384997    
   11.0500002        0.312065154    
   11.1000004        0.309436917    
   11.1499996        0.306316853    
   11.1999998        0.302656263    
   11.2500000        0.298498899    
   11.3000002        0.293967128    
   11.3500004        0.289277911    
   11.3999996        0.284703910    
   11.4499998        0.280431211    
   11.5000000        0.276394933    
   11.5500002        0.272256434    
   11.6000004        0.267604470    
   11.6499996        0.262266994    
   11.6999998        0.256486058    
   11.7500000        0.250783622    
   11.8000002        0.245590925    
   11.8500004        0.240926251    
   11.8999996        0.236388028    
   11.9499998        0.231478721    
   12.0000000        0.226000592    
   12.0500002        0.220200822    
   12.1000004        0.214554802    
   12.1499996        0.209379897    
   12.1999998        0.204606190    
   12.2500000        0.199882999    
   12.3000002        0.194905490    
   12.3500004        0.189665988    
   12.3999996        0.184420824    
   12.4499998        0.179429859    
   12.5000000        0.174723178    
   12.5500002        0.170107812    
   12.6000004        0.165390924    
   12.6499996        0.160593837    
   12.6999998        0.155946240    
   12.7500000        0.151663616    
   12.8000002        0.147720382    
   12.8500004        0.143839404    
   12.8999996        0.139719695    
   12.9499998        0.135303646    
   13.0000000        0.130845293    
   13.0500002        0.126717076    
   13.1000004        0.123120427    
   13.1499996        0.119943060    
   13.1999998        0.116868578    
   13.2500000        0.113626204    
   13.3000002        0.110165760    
   13.3500004        0.106634349    
   13.3999996        0.103216641    
   13.4499998        0.100002959    
   13.5000000         9.69882086E-02
   13.5500002         9.41572413E-02
   13.6000004         9.15338919E-02
   13.6499996         8.91315416E-02
   13.6999998         8.68698657E-02
   13.7500000         8.45738947E-02
   13.8000002         8.20912644E-02
   13.8500004         7.94314221E-02
   13.8999996         7.67876506E-02
   13.9499998         7.44019002E-02
   14.0000000         7.23820552E-02
   14.0500002         7.06329569E-02
   14.1000004         6.89594224E-02
   14.1499996         6.72373995E-02
   14.1999998         6.54881224E-02
   14.2500000         6.37922287E-02
   14.3000002         6.21478893E-02
   14.3500004         6.04396239E-02
   14.3999996         5.85715398E-02
   14.4499998         5.66366464E-02
   14.5000000         5.49274758E-02
   14.5500002         5.37264943E-02
   14.6000004         5.30350506E-02
   14.6499996         5.24943061E-02
   14.6999998         5.16103990E-02
   14.7500000         5.01283705E-02
   14.8000002         4.82462235E-02
   14.8500004         4.64753769E-02
   14.8999996         4.52497341E-02
   14.9499998         4.46048044E-02
   15.0000000         4.41906154E-02
   15.0500002         4.35932539E-02
   15.1000004         4.26748097E-02
   15.1499996         4.16373201E-02
   15.1999998         4.07746844E-02
   15.2500000         4.01607342E-02
   15.3000002         3.95730175E-02
   15.3500004         3.87249812E-02
   15.3999996         3.75850759E-02
   15.4499998         3.64721902E-02
   15.5000000         3.58166769E-02
   15.5500002         3.57834473E-02
   15.6000004         3.60887796E-02
   15.6499996         3.61820273E-02
   15.6999998         3.56513411E-02
   15.7500000         3.45246643E-02
   15.8000002         3.32333371E-02
   15.8500004         3.22899483E-02
   15.8999996         3.19512673E-02
   15.9499998         3.21126692E-02
   16.0000000         3.24605890E-02
   16.0499992         3.27065662E-02
   16.1000004         3.27111632E-02
   16.1499996         3.24574225E-02
   16.2000008         3.19805518E-02
   16.2500000         3.13610286E-02
   16.2999992         3.07668131E-02
   16.3500004         3.04375552E-02
   16.3999996         3.05530038E-02
   16.4500008         3.10712550E-02
   16.5000000         3.17006148E-02
   16.5499992         3.20773646E-02
   16.6000004         3.20307463E-02
   16.6499996         3.17119472E-02
   16.7000008         3.14638466E-02
   16.7500000         3.15367542E-02
   16.7999992         3.19004692E-02
   16.8500004         3.23196389E-02
   16.8999996         3.26148234E-02
   16.9500008         3.28535661E-02
   17.0000000         3.32787372E-02
   17.0499992         3.40352803E-02
   17.1000004         3.49632241E-02
   17.1499996         3.56805027E-02
   17.2000008         3.59118693E-02
   17.2500000         3.57744023E-02
   17.2999992         3.57427113E-02
   17.3500004         3.62919383E-02
   17.3999996         3.75109315E-02
   17.4500008         3.90206426E-02
   17.5000000         4.02756482E-02
   17.5499992         4.09954600E-02
   17.6000004         4.13621515E-02
   17.6499996         4.18300368E-02
   17.7000008         4.27309275E-02
   17.7500000         4.40233909E-02
   17.7999992         4.53860126E-02
   17.8500004         4.65396047E-02
   17.8999996         4.74913903E-02
   17.9500008         4.84906100E-02
   18.0000000         4.97647598E-02
   18.0499992         5.13009019E-02
   18.1000004         5.28728440E-02
   18.1499996         5.42684495E-02
   18.2000008         5.54854795E-02
   18.2500000         5.67122176E-02
   18.2999992         5.81308380E-02
   18.3500004         5.97524308E-02
   18.3999996         6.14460669E-02
   18.4500008         6.31155595E-02
   18.5000000         6.48224652E-02
   18.5499992         6.67123646E-02
   18.6000004         6.88155219E-02
   18.6499996         7.09418505E-02
   18.7000008         7.28125423E-02
   18.7500000         7.43313357E-02
   18.7999992         7.57330135E-02
   18.8500004         7.74340183E-02
   18.8999996         7.96853080E-02
   18.9500008         8.23335201E-02
   19.0000000         8.49247947E-02
   19.0499992         8.70827213E-02
   19.1000004         8.88326913E-02
   19.1499996         9.05773118E-02
   19.2000008         9.27352235E-02
   19.2500000         9.53643024E-02
   19.2999992         9.81113464E-02
   19.3500004        0.100537337    
   19.3999996        0.102523729    
   19.4500008        0.104386695    
   19.5000000        0.106589995    
   19.5499992        0.109314695    
   19.6000004        0.112278178    
   19.6499996        0.114971682    
   19.7000008        0.117106996    
   19.7500000        0.118873797    
   19.7999992        0.120779544    
   19.8500004        0.123216890    
   19.8999996        0.126139745    
   19.9500008        0.129121527    
   20.0000000        0.131724760    
   20.0499992        0.133845866    
   20.1000004        0.135746717    
   20.1499996        0.137780979    
   20.2000008        0.140089139    
   20.2500000        0.142531499    
   20.2999992        0.144881532    
   20.3500004        0.147059366    
   20.3999996        0.149174079    
   20.4500008        0.151356339    
   20.5000000        0.153577551    
   20.5499992        0.155656368    
   20.6000004        0.157450125    
   20.6499996        0.159030199    
   20.7000008        0.160647810    
   20.7500000        0.162506685    
   20.7999992        0.164560392    
   20.8500004        0.166540444    
   20.8999996        0.168199271    
   20.9500008        0.169537321    
   21.0000000        0.170789555    
   21.0499992        0.172177836    
   21.1000004        0.173670575    
   21.1499996        0.174995482    
   21.2000008        0.175910577    
   21.2500000        0.176477984    
   21.2999992        0.177062094    
   21.3500004        0.178022906    
   21.3999996        0.179371729    
   21.4500008        0.180714250    
   21.5000000        0.181557715    
   21.5499992        0.181724474    
   21.6000004        0.181504175    
   21.6499996        0.181403026    
   21.7000008        0.181709409    
   21.7500000        0.182262808    
   21.7999992        0.182627961    
   21.8500004        0.182508007    
   21.8999996        0.182013273    
   21.9500008        0.181539595    
   22.0000000        0.181373209    
   22.0499992        0.181395173    
   22.1000004        0.181169540    
   22.1499996        0.180345505    
   22.2000008        0.179009229    
   22.2500000        0.177656382    
   22.2999992        0.176791519    
   22.3500004        0.176495165    
   22.3999996        0.176332951    
   22.4500008        0.175687730    
   22.5000000        0.174236655    
   22.5499992        0.172183722    
   22.6000004        0.170078889    
   22.6499996        0.168399066    
   22.7000008        0.167237505    
   22.7500000        0.166317195    
   22.7999992        0.165256828    
   22.8500004        0.163835749    
   22.8999996        0.162064314    
   22.9500008        0.160075054    
   23.0000000        0.157993823    
   23.0499992        0.155910060    
   23.1000004        0.153917760    
   23.1499996        0.152114496    
   23.2000008        0.150514439    
   23.2500000        0.148965210    
   23.2999992        0.147198528    
   23.3500004        0.145025685    
   23.3999996        0.142524078    
   23.4500008        0.140026346    
   23.5000000        0.137879178    
   23.5499992        0.136155531    
   23.6000004        0.134573519    
   23.6499996        0.132713154    
   23.7000008        0.130362168    
   23.7500000        0.127696991    
   23.7999992        0.125139356    
   23.8500004        0.123008735    
   23.8999996        0.121268921    
   23.9500008        0.119581699    
   24.0000000        0.117608577    
   24.0499992        0.115287900    
   24.1000004        0.112849258    
   24.1499996        0.110572755    
   24.2000008        0.108528808    
   24.2500000        0.106538534    
   24.2999992        0.104378238    
   24.3500004        0.102020949    
   24.3999996         9.96773988E-02
   24.4500008         9.75938141E-02
   24.5000000         9.57980528E-02
   24.5499992         9.40400288E-02
   24.6000004         9.19941887E-02
   24.6499996         8.95479694E-02
   24.7000008         8.69151503E-02
   24.7500000         8.44653994E-02
   24.7999992         8.24138373E-02
   24.8500004         8.06382596E-02
   24.8999996         7.87791908E-02
   24.9500008         7.65326992E-02
   25.0000000         7.38863498E-02
   25.0499992         7.11087435E-02
   25.1000004         6.85193017E-02
   25.1499996         6.62420914E-02
   25.2000008         6.41390383E-02
   25.2500000         6.19489253E-02
   25.2999992         5.94900884E-02
   25.3500004         5.67589886E-02
   25.3999996         5.38744591E-02
   25.4500008         5.09538688E-02
   25.5000000         4.80400547E-02
   25.5499992         4.51173522E-02
   25.6000004         4.21596095E-02
   25.6499996         3.91401313E-02
   25.7000008         3.60031202E-02
   25.7500000         3.26600224E-02
   25.7999992         2.90530324E-02
   25.8500004         2.52407473E-02
   25.8999996         2.14046724E-02
   25.9500008         1.77265797E-02
   26.0000000         1.42124481E-02
   26.0499992         1.06196329E-02
   26.1000004         6.58569578E-03
   26.1499996         1.89114956E-03
   26.2000008        -3.34535073E-03
   26.2500000        -8.71364865E-03
   26.2999992        -1.37921143E-02
   26.3500004        -1.84593108E-02
   26.3999996        -2.29961164E-02
   26.4500008        -2.78927404E-02
   26.5000000        -3.35033052E-02
   26.5499992        -3.98074985E-02
   26.6000004        -4.64509800E-02
   26.6499996        -5.30192927E-02
   26.7000008        -5.93292415E-02
   26.7500000        -6.55271262E-02
   26.7999992        -7.19468147E-02
   26.8500004        -7.88614228E-02
   26.8999996        -8.63200203E-02
   26.9500008        -9.41673964E-02
   27.0000000       -0.102194063    
   27.0499992       -0.110280186    
   27.1000004       -0.118434250    
   27.1499996       -0.126731426    
   27.2000008       -0.135232374    
   27.2500000       -0.143954143    
   27.2999992       -0.152898192    
   27.3500004       -0.162085518    
   27.3999996       -0.171553567    
   27.4500008       -0.181318045    
   27.5000000       -0.191342130    
   27.5499992       -0.201548591    
   27.6000004       -0.211867765    
   27.6499996       -0.222280204    
   27.7000008       -0.232818648    
   27.7500000       -0.243532017    
   27.7999992       -0.254446149    
   27.8500004       -0.265553027    
   27.8999996       -0.276829362    
   27.9500008       -0.288257688    
   28.0000000       -0.299826294    
   28.0499992       -0.311511785    
   28.1000004       -0.323269546    
   28.1499996       -0.335051477    
   28.2000008       -0.346839637    
   28.2500000       -0.358663768    
   28.2999992       -0.370578021    
   28.3500004       -0.382610530    
   28.3999996       -0.394726902    
   28.4500008       -0.406842917    
   28.5000000       -0.418879569    
   28.5499992       -0.430814207    
   28.6000004       -0.442680746    
   28.6499996       -0.454515308    
   28.7000008       -0.466295600    
   28.7500000       -0.477933228    
   28.7999992       -0.489336103    
   28.8500004       -0.500491023    
   28.8999996       -0.511489749    
   28.9500008       -0.522458017    
   29.0000000       -0.533433080    
   29.0499992       -0.544286847    
   29.1000004       -0.554773450    
   29.1499996       -0.564682484    
   29.2000008       -0.573989809    
   29.2500000       -0.582884848    
   29.2999992       -0.591640055    
   29.3500004       -0.600408494    
   29.3999996       -0.609099030    
   29.4500008       -0.617423117    
   29.5000000       -0.625080228    
   29.5499992       -0.631943405    
   29.6000004       -0.638110816    
   29.6499996       -0.643796802    
   29.7000008       -0.649157107    
   29.7500000       -0.654186130    
   29.7999992       -0.658751726    
   29.8500004       -0.662719727    
   29.8999996       -0.666051209    
   29.9500008       -0.668795884    
   30.0000000       -0.671000957    
   30.0499992       -0.672628462    
   30.1000004       -0.673560262    
   30.1499996       -0.673684776    
   30.2000008       -0.672989309    
   30.2500000       -0.671574831    
   30.2999992       -0.669581890    
   30.3500004       -0.667087197    
   30.3999996       -0.664049745    
   30.4500008       -0.660337150    