  -10.0000000         2.72466496E-31
  -9.94999981         8.17399463E-31
  -9.89999962         1.32405257E-30
  -9.85000038         1.28745746E-30
  -9.80000019         4.81837768E-31
  -9.75000000        -4.62338009E-31
  -9.69999981        -9.11534931E-31
  -9.64999962        -1.03576494E-30
  -9.60000038         2.08108196E-22
  -9.55000019         1.12984319E-22
  -9.50000000        -6.54175868E-21
  -9.44999981        -1.92159533E-20
  -9.39999962         5.37310806E-20
  -9.35000038         4.13718338E-19
  -9.30000019         7.00441550E-19
  -9.25000000        -1.45296735E-18
  -9.19999981        -9.19910868E-18
  -9.14999962        -1.64871472E-17
  -9.10000038         5.00668312E-18
  -9.05000019         8.68823399E-17
  -9.00000000         1.76892640E-16
  -8.94999981         5.17521712E-17
  -8.89999962        -5.36347033E-16
  -8.85000038        -1.31897578E-15
  -8.80000019        -1.02676243E-15
  -8.75000000         1.87141575E-15
  -8.69999981         6.63581450E-15
  -8.64999962         8.12756827E-15
  -8.60000038        -2.34938670E-16
  -8.55000019        -1.70586591E-14
  -8.50000000        -2.63369462E-14
  -8.44999981        -9.60177575E-15
  -8.39999962         2.29845863E-14
  -8.35000038         2.02061590E-14
  -8.30000019        -5.20650078E-14
  -8.25000000        -1.00914733E-13
  -8.19999981         1.00566819E-13
  -8.14999962         6.33186212E-13
  -8.10000038         9.65686840E-13
  -8.05000019        -8.35472506E-14
  -8.00000000        -3.21153954E-12
  -7.94999981        -6.56303657E-12
  -7.90000010        -4.87433444E-12
  -7.84999990         7.13080983E-12
  -7.80000019         2.67708425E-11
  -7.75000000         3.69511262E-11
  -7.69999981         1.21621567E-11
  -7.65000010        -5.73558284E-11
  -7.59999990        -1.35945533E-10
  -7.55000019        -1.39843914E-10
  -7.50000000         9.20633101E-12
  -7.44999981         2.87409846E-10
  -7.40000010         5.06007070E-10
  -7.34999990         3.82563065E-10
  -7.30000019        -2.27511066E-10
  -7.25000000        -1.07373155E-09
  -7.19999981        -1.48737156E-09
  -7.15000010        -7.76969988E-10
  -7.09999990         1.09790554E-09
  -7.05000019         3.09431125E-09
  -7.00000000         3.47332230E-09
  -6.94999981         1.07491083E-09
  -6.90000010        -3.31210348E-09
  -6.84999990        -6.77752743E-09
  -6.80000019        -6.04485217E-09
  -6.75000000        -3.13119197E-10
  -6.69999981         7.10439707E-09
  -6.65000010         1.04219859E-08
  -6.59999990         5.97690208E-09
  -6.55000019        -3.64230046E-09
  -6.50000000        -1.02542819E-08
  -6.44999981        -6.68272992E-09
  -6.40000010         5.24478638E-09
  -6.34999990         1.32065772E-08
  -6.30000019         3.83849752E-09
  -6.25000000        -2.21221956E-08
  -6.19999981        -4.27560174E-08
  -6.15000010        -2.76334635E-08
  -6.09999990         3.32935706E-08
  -6.05000019         1.06721835E-07
  -6.00000000         1.25635239E-07
  -5.94999981         3.79700325E-08
  -5.90000010        -1.34943235E-07
  -5.84999990        -2.82030186E-07
  -5.80000019        -2.62413380E-07
  -5.75000000        -1.86010407E-08
  -5.69999981         3.38433324E-07
  -5.65000010         5.59322928E-07
  -5.59999990         4.17461223E-07
  -5.55000019        -9.29872925E-08
  -5.50000000        -6.80088249E-07
  -5.44999981        -9.02008765E-07
  -5.40000010        -4.83296219E-07
  -5.34999990         4.15591018E-07
  -5.30000019         1.21097810E-06
  -5.25000000         1.25412726E-06
  -5.19999981         3.29703511E-07
  -5.15000010        -1.07379992E-06
  -5.09999990        -1.98850898E-06
  -5.05000019        -1.61316700E-06
  -5.00000000         4.24457625E-08
  -4.94999981         2.01556554E-06
  -4.90000010         2.94596884E-06
  -4.84999990         2.01442572E-06
  -4.80000019        -3.90818059E-07
  -4.75000000        -2.81300913E-06
  -4.69999981        -3.65656956E-06
  -4.65000010        -2.29516831E-06
  -4.59999990         4.42117454E-07
  -4.55000019         2.80141853E-06
  -4.50000000         3.31176034E-06
  -4.44999981         1.80891925E-06
  -4.40000010        -4.79781306E-07
  -4.34999990        -1.86284876E-06
  -4.30000019        -1.44043781E-06
  -4.25000000         2.47119829E-07
  -4.19999981         1.65711594E-06
  -4.15000010         1.42681847E-06
  -4.09999990        -5.93634013E-07
  -4.05000019        -3.21194716E-06
  -4.00000000        -4.71431213E-06
  -3.95000005        -3.97805934E-06
  -3.90000010        -1.07150231E-06
  -3.84999990         2.97015049E-06
  -3.79999995         6.82027894E-06
  -3.75000000         9.33934643E-06
  -3.70000005         9.56599342E-06
  -3.65000010         6.56620296E-06
  -3.59999990        -2.41983543E-07
  -3.54999995        -1.01163396E-05
  -3.50000000        -2.00574050E-05
  -3.45000005        -2.50870889E-05
  -3.40000010        -2.03953077E-05
  -3.34999990        -4.62161461E-06
  -3.29999995         1.77772617E-05
  -3.25000000         3.72198192E-05
  -3.20000005         4.33254645E-05
  -3.15000010         3.09640127E-05
  -3.09999990         4.36667460E-06
  -3.04999995        -2.39147266E-05
  -3.00000000        -3.95782881E-05
  -2.95000005        -3.53219002E-05
  -2.90000010        -1.62408141E-05
  -2.84999990         2.43876434E-06
  -2.79999995         5.12578890E-06
  -2.75000000        -1.23196523E-05
  -2.70000005        -3.67489556E-05
  -2.65000010        -4.33988243E-05
  -2.59999990        -1.17037780E-05
  -2.54999995         5.75674494E-05
  -2.50000000         1.35587761E-04
  -2.45000005         1.76326983E-04
  -2.40000010         1.41714205E-04
  -2.34999990         2.75291168E-05
  -2.29999995        -1.26657775E-04
  -2.25000000        -2.52666010E-04
  -2.20000005        -2.88336101E-04
  -2.15000010        -2.12624960E-04
  -2.09999990        -5.95720448E-05
  -2.04999995         9.91794514E-05
  -2.00000000         1.94380846E-04
  -1.95000005         1.97691654E-04
  -1.89999998         1.34439775E-04
  -1.85000002         6.24054155E-05
  -1.79999995         3.09904426E-05
  -1.75000000         4.89314880E-05
  -1.70000005         8.32492369E-05
  -1.64999998         8.98980070E-05
  -1.60000002         5.26233634E-05
  -1.54999995        -1.32563878E-06
  -1.50000000        -2.41405232E-05
  -1.45000005         5.40858446E-06
  -1.39999998         4.75565103E-05
  -1.35000002         1.29238033E-05
  -1.29999995        -1.78420160E-04
  -1.25000000        -5.26786956E-04
  -1.20000005        -9.24945460E-04
  -1.14999998        -1.20399124E-03
  -1.10000002        -1.23421790E-03
  -1.04999995        -1.01695326E-03
  -1.00000000        -6.98474643E-04
 -0.949999988        -4.83086944E-04
 -0.899999976        -4.93042171E-04
 -0.850000024        -6.69500849E-04
 -0.800000012        -7.93116284E-04
 -0.750000000        -6.27498608E-04
 -0.699999988        -1.00521873E-04
 -0.649999976         6.00507017E-04
 -0.600000024         1.09920371E-03
 -0.550000012         1.03957183E-03
 -0.500000000         3.09844152E-04
 -0.449999988        -8.64890637E-04
 -0.400000006        -2.02944572E-03
 -0.349999994        -2.74451612E-03
 -0.300000012        -2.81895534E-03
 -0.250000000        -2.38402025E-03
 -0.200000003        -1.77185726E-03
 -0.150000006        -1.29189366E-03
 -0.100000001        -1.06228399E-03
  -5.00000007E-02    -1.00424420E-03
   0.00000000        -9.81948455E-04
   5.00000007E-02    -9.63120488E-04
  0.100000001        -1.06631604E-03
  0.150000006        -1.45679899E-03
  0.200000003        -2.17940495E-03
  0.250000000        -3.07373772E-03
  0.300000012        -3.85624822E-03
  0.349999994        -4.31904430E-03
  0.400000006        -4.49203420E-03
  0.449999988        -4.62946994E-03
  0.500000000        -5.01136528E-03
  0.550000012        -5.69959311E-03
  0.600000024        -6.44006999E-03
  0.649999976        -6.80773566E-03
  0.699999988        -6.51290920E-03
  0.750000000        -5.65774366E-03
  0.800000012        -4.75159939E-03
  0.850000024        -4.45598504E-03
  0.899999976        -5.21752844E-03
  0.949999988        -7.02370517E-03
   1.00000000        -9.42637958E-03
   1.04999995        -1.17930649E-02
   1.10000002        -1.36052966E-02
   1.14999998        -1.46270180E-02
   1.20000005        -1.48952138E-02
   1.25000000        -1.46223512E-02
   1.29999995        -1.41297476E-02
   1.35000002        -1.38382688E-02
   1.39999998        -1.42284473E-02
   1.45000005        -1.56728532E-02
   1.50000000        -1.81722976E-02
   1.54999995        -2.11883131E-02
   1.60000002        -2.37912647E-02
   1.64999998        -2.51582637E-02
   1.70000005        -2.51623224E-02
   1.75000000        -2.46266015E-02
   1.79999995        -2.49583106E-02
   1.85000002        -2.72872429E-02
   1.89999998        -3.16405818E-02
   1.95000005        -3.67621370E-02
   2.00000000        -4.08078171E-02
   2.04999995        -4.25360128E-02
   2.09999990        -4.21976186E-02
   2.15000010        -4.14585583E-02
   2.20000005        -4.23286818E-02
   2.25000000        -4.57973368E-02
   2.29999995        -5.11461794E-02
   2.34999990        -5.64763322E-02
   2.40000010        -6.01148792E-02
   2.45000005        -6.18822537E-02
   2.50000000        -6.32449612E-02
   2.54999995        -6.61739111E-02
   2.59999990        -7.15245456E-02
   2.65000010        -7.81948045E-02
   2.70000005        -8.38114247E-02
   2.75000000        -8.65542740E-02
   2.79999995        -8.67843181E-02
   2.84999990        -8.71501341E-02
   2.90000010        -9.08938348E-02
   2.95000005        -9.94495898E-02
   3.00000000       -0.111096777    
   3.04999995       -0.121811278    
   3.09999990       -0.127908215    
   3.15000010       -0.128683984    
   3.20000005       -0.127111495    
   3.25000000       -0.127936929    
   3.29999995       -0.134405077    
   3.34999990       -0.145934552    
   3.40000010       -0.158494368    
   3.45000005       -0.167520329    
   3.50000000       -0.171306863    
   3.54999995       -0.172347501    
   3.59999990       -0.175515845    
   3.65000010       -0.184316769    
   3.70000005       -0.197981060    
   3.75000000       -0.211708561    
   3.79999995       -0.220105901    
   3.84999990       -0.221417859    
   3.90000010       -0.219355658    
   3.95000005       -0.220898747    
   4.00000000       -0.231368065    
   4.05000019       -0.250233024    
   4.09999990       -0.270849109    
   4.15000010       -0.284659117    
   4.19999981       -0.287146717    
   4.25000000       -0.281355560    
   4.30000019       -0.276273280    
   4.34999990       -0.280913144    
   4.40000010       -0.298049212    
   4.44999981       -0.322005242    
   4.50000000       -0.342224836    
   4.55000019       -0.350344330    
   4.59999990       -0.345955908    
   4.65000010       -0.337027401    
   4.69999981       -0.334578544    
   4.75000000       -0.345199674    
   4.80000019       -0.366541684    
   4.84999990       -0.388899386    
   4.90000010       -0.401814401    
   4.94999981       -0.401159853    
   5.00000000       -0.391855061    
   5.05000019       -0.384395331    
   5.09999990       -0.387649357    
   5.15000010       -0.402899921    
   5.19999981       -0.423154712    
   5.25000000       -0.438049614    
   5.30000019       -0.440846592    
   5.34999990       -0.432709187    
   5.40000010       -0.421482503    
   5.44999981       -0.416081041    
   5.50000000       -0.420529634    
   5.55000019       -0.431721717    
   5.59999990       -0.442165792    
   5.65000010       -0.445472002    
   5.69999981       -0.440573454    
   5.75000000       -0.431835890    
   5.80000019       -0.425308079    
   5.84999990       -0.424089402    
   5.90000010       -0.426237136    
   5.94999981       -0.426583439    
   6.00000000       -0.420902342    
   6.05000019       -0.409221649    
   6.09999990       -0.395833522    
   6.15000010       -0.386072278    
   6.19999981       -0.382304132    
   6.25000000       -0.382084548    
   6.30000019       -0.379787922    
   6.34999990       -0.370493829    
   6.40000010       -0.353348881    
   6.44999981       -0.332087368    
   6.50000000       -0.312452883    
   6.55000019       -0.298399359    
   6.59999990       -0.289672911    
   6.65000010       -0.282272875    
   6.69999981       -0.271271706    
   6.75000000       -0.253977358    
   6.80000019       -0.231395245    
   6.84999990       -0.207245871    
   6.90000010       -0.185423911    
   6.94999981       -0.167636156    
   7.00000000       -0.152604312    
   7.05000019       -0.137081295    
   7.09999990       -0.117856979    
   7.15000010        -9.35345963E-02
   7.19999981        -6.52070045E-02
   7.25000000        -3.58649790E-02
   7.30000019        -8.95082485E-03
   7.34999990         1.32690724E-02
   7.40000010         3.08560915E-02
   7.44999981         4.63818535E-02
   7.50000000         6.39423728E-02
   7.55000019         8.72597247E-02
   7.59999990        0.117651559    
   7.65000010        0.152949557    
   7.69999981        0.188191682    
   7.75000000        0.218025640    
   7.80000019        0.239661813    
   7.84999990        0.254650056    
   7.90000010        0.268236935    
   7.94999981        0.286458403    
   8.00000000        0.312612802    
   8.05000019        0.345293492    
   8.10000038        0.379267156    
   8.14999962        0.408678025    
   8.19999981        0.430529535    
   8.25000000        0.446210861    
   8.30000019        0.460180551    
   8.35000038        0.476854175    
   8.39999962        0.497891486    
   8.44999981        0.521647215    
   8.50000000        0.544885755    
   8.55000019        0.565239847    
   8.60000038        0.582520425    
   8.64999962        0.598085225    
   8.69999981        0.613105178    
   8.75000000        0.627394676    
   8.80000019        0.639838517    
   8.85000038        0.649926662    
   8.89999962        0.658833444    
   8.94999981        0.668819726    
   9.00000000        0.681245565    
   9.05000019        0.694890857    
   9.10000038        0.706271529    
   9.14999962        0.712079048    
   9.19999981        0.711967409    
   9.25000000        0.709321260    
   9.30000019        0.709031940    
   9.35000038        0.713720858    
   9.39999962        0.721342087    
   9.44999981        0.726306379    
   9.50000000        0.723615766    
   9.55000019        0.712985098    
   9.60000038        0.699634194    
   9.64999962        0.690789104    
   9.69999981        0.690254867    
   9.75000000        0.695134521    
   9.80000019        0.697399318    
   9.85000038        0.689455867    
   9.89999962        0.669751942    
   9.94999981        0.644237816    
   10.0000000        0.622435153    
   10.0500002        0.610834479    
   10.1000004        0.608370125    
   10.1499996        0.607255936    
   10.1999998        0.598572612    
   10.2500000        0.578553021    
   10.3000002        0.551054776    
   10.3500004        0.524540007    
   10.3999996        0.505873084    
   10.4499998        0.495475441    
   10.5000000        0.487271726    
   10.5500002        0.473326504    
   10.6000004        0.449718565    
   10.6499996        0.419418067    
   10.6999998        0.390181005    
   10.7500000        0.369045883    
   10.8000002        0.357357383    
   10.8500004        0.349778563    
   10.8999996        0.337918133    
   10.9499998        0.316031843    
   11.0000000        0.284917653    
   11.0500002        0.251430511    
   11.1000004        0.224017993    
   11.1499996        0.207287624    
   11.1999998        0.199157998    
   11.2500000        0.192359060    
   11.3000002        0.179181695    
   11.3500004        0.156323433    
   11.3999996        0.126746297    
   11.4499998         9.75117609E-02
   11.5000000         7.51775429E-02
   11.5500002         6.18208908E-02
   11.6000004         5.41658401E-02
   11.6499996         4.61306795E-02
   11.6999998         3.28877605E-02
   11.7500000         1.37086483E-02
   11.8000002        -8.09676759E-03
   11.8500004        -2.77793817E-02
   11.8999996        -4.23045084E-02
   11.9499998        -5.19547276E-02
   12.0000000        -5.95803969E-02
   12.0500002        -6.83638752E-02
   12.1000004        -7.98032656E-02
   12.1499996        -9.31734666E-02
   12.1999998       -0.106491275    
   12.2500000       -0.117997818    
   12.3000002       -0.127063051    
   12.3500004       -0.134107530    
   12.3999996       -0.139943525    
   12.4499998       -0.145222843    
   12.5000000       -0.150343850    
   12.5500002       -0.155637190    
   12.6000004       -0.161426336    
   12.6499996       -0.167795971    
   12.6999998       -0.174296856    
   12.7500000       -0.179962948    
   12.8000002       -0.183771759    
   12.8500004       -0.185277849    
   12.8999996       -0.184963018    
   12.9499998       -0.184029743    
   13.0000000       -0.183764219    
   13.0500002       -0.184877321    
   13.1000004       -0.187200859    
   13.1499996       -0.189852208    
   13.1999998       -0.191705734    
   13.2500000       -0.191898987    
   13.3000002       -0.190162882    
   13.3500004       -0.186888009    
   13.3999996       -0.182934657    
   13.4499998       -0.179266423    
   13.5000000       -0.176551819    
   13.5500002       -0.174911276    
   13.6000004       -0.173933834    
   13.6499996       -0.172937304    
   13.6999998       -0.171297058    
   13.7500000       -0.168650150    
   13.8000002       -0.164917693    
   13.8500004       -0.160252243    
   13.8999996       -0.155035794    
   13.9499998       -0.149903402    
   14.0000000       -0.145619482    
   14.0500002       -0.142698601    
   14.1000004       -0.140939027    
   14.1499996       -0.139279217    
   14.1999998       -0.136287242    
   14.2500000       -0.131119475    
   14.3000002       -0.124296263    
   14.3500004       -0.117606379    
   14.3999996       -0.113021970    
   14.4499998       -0.111298919    
   14.5000000       -0.111298881    
   14.5500002       -0.110628866    
   14.6000004       -0.107227728    
   14.6499996       -0.100783572    
   14.6999998        -9.29587111E-02
   14.7500000        -8.62754136E-02
   14.8000002        -8.24875087E-02
   14.8500004        -8.15745965E-02
   14.8999996        -8.19486082E-02
   14.9499998        -8.15576091E-02
   15.0000000        -7.90396854E-02
   15.0500002        -7.42562935E-02
   15.1000004        -6.81250319E-02
   15.1499996        -6.21015988E-02
   15.1999998        -5.76368794E-02
   15.2500000        -5.56716435E-02
   15.3000002        -5.61496466E-02
   15.3500004        -5.77536672E-02
   15.3999996        -5.82651384E-02
   15.4499998        -5.56974784E-02
   15.5000000        -4.96833511E-02
   15.5500002        -4.20877561E-02
   15.6000004        -3.61066014E-02
   15.6499996        -3.41931917E-02
   15.6999998        -3.62269580E-02
   15.7500000        -3.94096486E-02
   15.8000002        -4.01798934E-02
   15.8500004        -3.68233621E-02
   15.8999996        -3.07665430E-02
   15.9499998        -2.54658461E-02
   16.0000000        -2.36974042E-02
   16.0499992        -2.53844131E-02
   16.1000004        -2.77144928E-02
   16.1499996        -2.74546500E-02
   16.2000008        -2.35703867E-02
   16.2500000        -1.80078372E-02
   16.2999992        -1.40271541E-02
   16.3500004        -1.35043226E-02
   16.3999996        -1.54455053E-02
   16.4500008        -1.69044733E-02
   16.5000000        -1.54743334E-02
   16.5499992        -1.12500936E-02
   16.6000004        -6.67170715E-03
   16.6499996        -4.46459930E-03
   16.7000008        -5.43975411E-03
   16.7500000        -7.93094840E-03
   16.7999992        -9.20733716E-03
   16.8500004        -7.58860679E-03
   16.8999996        -3.54445470E-03
   16.9500008         9.54681891E-04
   17.0000000         4.09750734E-03
   17.0499992         5.46330353E-03
   17.1000004         5.94096677E-03
   17.1499996         6.64708065E-03
   17.2000008         7.91558344E-03
   17.2500000         9.19022039E-03
   17.2999992         9.75856557E-03
   17.3500004         9.56963468E-03
   17.3999996         9.42390133E-03
   17.4500008         1.04422485E-02
   17.5000000         1.32910563E-02
   17.5499992         1.77203976E-02
   17.6000004         2.26360634E-02
   17.6499996         2.65716873E-02
   17.7000008         2.83185858E-02
   17.7500000         2.75248103E-02
   17.7999992         2.50682887E-02
   17.8500004         2.29254812E-02
   17.8999996         2.33378392E-02
   17.9500008         2.74983589E-02
   18.0000000         3.45192850E-02
   18.0499992         4.15639728E-02
   18.1000004         4.53944057E-02
   18.1499996         4.45136167E-02
   18.2000008         4.04140912E-02
   18.2500000         3.68623435E-02
   18.2999992         3.75066064E-02
   18.3500004         4.33984995E-02
   18.3999996         5.22018932E-02
   18.4500008         5.96974157E-02
   18.5000000         6.25364706E-02
   18.5499992         6.03274405E-02
   18.6000004         5.56978881E-02
   18.6499996         5.24742454E-02
   18.7000008         5.33657111E-02
   18.7500000         5.86479679E-02
   18.7999992         6.64113313E-02
   18.8500004         7.38441125E-02
   18.8999996         7.85936788E-02
   18.9500008         7.95920566E-02
   19.0000000         7.72957653E-02
   19.0499992         7.35082254E-02
   19.1000004         7.08044544E-02
   19.1499996         7.14968890E-02
   19.2000008         7.63901770E-02
   19.2500000         8.40395689E-02
   19.2999992         9.12524983E-02
   19.3500004         9.48549137E-02
   19.3999996         9.37185436E-02
   19.4500008         8.96066949E-02
   19.5000000         8.60830992E-02
   19.5499992         8.61402377E-02
   19.6000004         9.02287588E-02
   19.6499996         9.61185098E-02
   19.7000008        0.100638948    
   19.7500000        0.101926006    
   19.7999992        0.100496382    
   19.8500004         9.84891430E-02
   19.8999996         9.78720412E-02
   19.9500008         9.91049856E-02
   20.0000000        0.101185530    
   20.0499992        0.102769643    
   20.1000004        0.103260547    
   20.1499996        0.103000298    
   20.2000008        0.102631666    
   20.2500000        0.102406070    
   20.2999992        0.102098845    
   20.3500004        0.101477094    
   20.3999996        0.100705929    
   20.4500008        0.100210734    
   20.5000000        0.100142926    
   20.5499992        0.100052670    
   20.6000004         9.91863310E-02
   20.6499996         9.71839130E-02
   20.7000008         9.45096388E-02
   20.7500000         9.21590179E-02
   20.7999992         9.08550918E-02
   20.8500004         9.04344097E-02
   20.8999996         8.99620205E-02
   20.9500008         8.84636566E-02
   21.0000000         8.56372789E-02
   21.0499992         8.19755495E-02
   21.1000004         7.82944858E-02
   21.1499996         7.51564801E-02
   21.2000008         7.26532713E-02
   21.2500000         7.05747083E-02
   21.2999992         6.86259195E-02
   21.3500004         6.64339811E-02
   21.3999996         6.34716898E-02
   21.4500008         5.92301078E-02
   21.5000000         5.37051894E-02
   21.5499992         4.77818772E-02
   21.6000004         4.29611579E-02
   21.6499996         4.03695256E-02
   21.7000008         3.97293419E-02
   21.7500000         3.92245054E-02
   21.7999992         3.65946069E-02
   21.8500004         3.07506286E-02
   21.8999996         2.26457845E-02
   21.9500008         1.46370651E-02
   22.0000000         8.78840033E-03
   22.0499992         5.46046766E-03
   22.1000004         3.29986890E-03
   22.1499996         5.49928518E-04
   22.2000008        -3.50736361E-03
   22.2500000        -8.21570493E-03
   22.2999992        -1.25045385E-02
   22.3500004        -1.61481220E-02
   22.3999996        -2.00885721E-02
   22.4500008        -2.55055670E-02
   22.5000000        -3.25299725E-02
   22.5499992        -3.98691706E-02
   22.6000004        -4.57770638E-02
   22.6499996        -4.95282449E-02
   22.7000008        -5.20424396E-02
   22.7500000        -5.50538115E-02
   22.7999992        -5.95578589E-02
   22.8500004        -6.49629384E-02
   22.8999996        -6.97519407E-02
   22.9500008        -7.30608702E-02
   23.0000000        -7.56866038E-02
   23.0499992        -7.94998109E-02
   23.1000004        -8.56865942E-02
   23.1499996        -9.33824480E-02
   23.2000008       -0.100034095    
   23.2500000       -0.103369072    
   23.2999992       -0.103405915    
   23.3500004       -0.102771781    
   23.3999996       -0.104907267    
   23.4500008       -0.111462407    
   23.5000000       -0.120898716    
   23.5499992       -0.129424110    
   23.6000004       -0.133612975    
   23.6499996       -0.132805079    
   23.7000008       -0.129578233    
   23.7500000       -0.128022999    
   23.7999992       -0.131085038    
   23.8500004       -0.138779745    
   23.8999996       -0.148352802    
   23.9500008       -0.156111196    
   24.0000000       -0.159646183    
   24.0499992       -0.159091264    
   24.1000004       -0.156797260    
   24.1499996       -0.155785620    
   24.2000008       -0.157979444    
   24.2500000       -0.163231120    
   24.2999992       -0.169636384    
   24.3500004       -0.174865574    
   24.3999996       -0.177653164    
   24.4500008       -0.178500950    
   24.5000000       -0.179154322    
   24.5499992       -0.181235552    
   24.6000004       -0.185023963    
   24.6499996       -0.189295843    
   24.7000008       -0.192361087    
   24.7500000       -0.193500653    
   24.7999992       -0.193651423    
   24.8500004       -0.194738984    
   24.8999996       -0.198136508    
   24.9500008       -0.203472212    
   25.0000000       -0.208782807    
   25.0499992       -0.211957142    
   25.1000004       -0.212368414    
   25.1499996       -0.211414307    
   25.2000008       -0.211531535    
   25.2500000       -0.214438230    
   25.2999992       -0.219933987    
   25.3500004       -0.226111412    
   25.3999996       -0.230732009    
   25.4500008       -0.232689872    
   25.5000000       -0.232545644    
   25.5499992       -0.231916100    
   25.6000004       -0.232342124    
   25.6499996       -0.234487101    
   25.7000008       -0.238079548    
   25.7500000       -0.242383346    
   25.7999992       -0.246689752    
   25.8500004       -0.250513494    
   25.8999996       -0.253549010    
   25.9500008       -0.255620062    
   26.0000000       -0.256740749    
   26.0499992       -0.257195085    
   26.1000004       -0.257492989    
   26.1499996       -0.258189201    
   26.2000008       -0.259689838    
   26.2500000       -0.262151629    
   26.2999992       -0.265453547    
   26.3500004       -0.269167513    
   26.3999996       -0.272553921    
   26.4500008       -0.274730504    
   26.5000000       -0.275098115    
   26.5499992       -0.273831755    
   26.6000004       -0.272022188    
   26.6499996       -0.271175385    
   26.7000008       -0.272261560    
   26.7500000       -0.274964929    
   26.7999992       -0.277773887    
   26.8500004       -0.278965801    
   26.8999996       -0.277809530    
   26.9500008       -0.275066316    
   27.0000000       -0.272377759    
   27.0499992       -0.271008849    
   27.1000004       -0.270940900    
   27.1499996       -0.271016598    
   27.2000008       -0.269969881    
   27.2500000       -0.267452985    
   27.2999992       -0.264212102    
   27.3500004       -0.261320263    
   27.3999996       -0.259175181    
   27.4500008       -0.257136852    
   27.5000000       -0.254094332    
   27.5499992       -0.249447927    
   27.6000004       -0.243660286    
   27.6499996       -0.237923577    
   27.7000008       -0.233240202    
   27.7500000       -0.229669824    
   27.7999992       -0.226308674    
   27.8500004       -0.221956536    
   27.8999996       -0.215920597    
   27.9500008       -0.208381474    
   28.0000000       -0.200152218    
   28.0499992       -0.192101583    
   28.1000004       -0.184668258    
   28.1499996       -0.177727684    
   28.2000008       -0.170796305    
   28.2500000       -0.163381159    
   28.2999992       -0.155258089    
   28.3500004       -0.146542042    
   28.3999996       -0.137515977    
   28.4500008       -0.128320426    
   28.5000000       -0.118733577    
   28.5499992       -0.108275123    
   28.6000004        -9.66634750E-02
   28.6499996        -8.43175426E-02
   28.7000008        -7.24088326E-02
   28.7500000        -6.22046702E-02
   28.7999992        -5.40285818E-02
   28.8500004        -4.66466695E-02
   28.8999996        -3.77591625E-02
   28.9500008        -2.54858490E-02
   29.0000000        -9.84984078E-03
   29.0499992         6.94839191E-03
   29.1000004         2.18748506E-02
   29.1499996         3.31658721E-02
   29.2000008         4.16244194E-02
   29.2500000         5.00561334E-02
   29.2999992         6.12095110E-02
   29.3500004         7.57825300E-02
   29.3999996         9.20283198E-02
   29.4500008        0.107219927    
   29.5000000        0.119754061    
   29.5499992        0.130209118    
   29.6000004        0.140599176    
   29.6499996        0.152578712    
   29.7000008        0.166163623    
   29.7500000        0.179982066    
   29.7999992        0.192695737    
   29.8500004        0.204246596    
   29.8999996        0.215826511    
   29.9500008        0.228658229    
   30.0000000        0.242736369    
   30.0499992        0.256676883    
   30.1000004        0.268804431    
   30.1499996        0.278523713    
   30.2000008        0.286808610    
   30.2500000        0.295447558    
   30.2999992        0.305732518    
   30.3500004        0.317658991    
   30.3999996        0.330162525    
   30.4500008        0.342011631    