  -10.0000000       0.00000000    
  -9.94999981       0.00000000    
  -9.89999962       0.00000000    
  -9.85000038       0.00000000    
  -9.80000019       0.00000000    
  -9.75000000       0.00000000    
  -9.69999981       0.00000000    
  -9.64999962       0.00000000    
  -9.60000038       3.06102833E-23
  -9.55000019      -1.81188461E-21
  -9.50000000      -1.41163768E-20
  -9.44999981      -2.38294740E-20
  -9.39999962       1.24085441E-19
  -9.35000038       6.91308287E-19
  -9.30000019       1.00526929E-18
  -9.25000000      -2.35528140E-18
  -9.19999981      -1.28546117E-17
  -9.14999962      -1.90391798E-17
  -9.10000038       2.09756989E-17
  -9.05000019       1.42499767E-16
  -9.00000000       2.41785290E-16
  -8.94999981      -2.69336211E-17
  -8.89999962      -9.67096056E-16
  -8.85000038      -1.98836559E-15
  -8.80000019      -1.00563426E-15
  -8.75000000       4.07016357E-15
  -8.69999981       1.11409303E-14
  -8.64999962       1.10322713E-14
  -8.60000038      -6.47661636E-15
  -8.55000019      -3.64443108E-14
  -8.50000000      -4.90507022E-14
  -8.44999981      -1.28340899E-14
  -8.39999962       5.19740772E-14
  -8.35000038       5.66634142E-14
  -8.30000019      -5.16397905E-14
  -8.25000000      -1.09280152E-13
  -8.19999981       2.47552982E-13
  -8.14999962       1.07760437E-12
  -8.10000038       1.38317233E-12
  -8.05000019      -7.73873207E-13
  -8.00000000      -6.09507280E-12
  -7.94999981      -1.05658746E-11
  -7.90000010      -4.79691070E-12
  -7.84999990       1.86602175E-11
  -7.80000019       5.07568536E-11
  -7.75000000       5.69275391E-11
  -7.69999981      -6.32852494E-12
  -7.65000010      -1.42540854E-10
  -7.59999990      -2.64507777E-10
  -7.55000019      -2.06687750E-10
  -7.50000000       1.51023374E-10
  -7.44999981       6.94442281E-10
  -7.40000010       9.90061033E-10
  -7.34999990       4.95610220E-10
  -7.30000019      -9.29141042E-10
  -7.25000000      -2.54834731E-09
  -7.19999981      -2.86521873E-09
  -7.15000010      -6.29092167E-10
  -7.09999990       3.72153997E-09
  -7.05000019       7.40371808E-09
  -7.00000000       6.58934596E-09
  -6.94999981      -5.00957609E-10
  -6.90000010      -1.08004539E-08
  -6.84999990      -1.68238135E-08
  -6.80000019      -1.15231487E-08
  -6.75000000       5.05238384E-09
  -6.69999981       2.29451249E-08
  -6.65000010       2.76950392E-08
  -6.59999990       1.20452119E-08
  -6.55000019      -1.50652451E-08
  -6.50000000      -3.21647775E-08
  -6.44999981      -2.26136212E-08
  -6.40000010       7.01849423E-09
  -6.34999990       2.65073510E-08
  -6.30000019       7.31273886E-09
  -6.25000000      -4.28221334E-08
  -6.19999981      -7.02085927E-08
  -6.15000010      -1.37583376E-08
  -6.09999990       1.26148663E-07
  -6.05000019       2.48281509E-07
  -6.00000000       1.99421706E-07
  -5.94999981      -9.28506978E-08
  -5.90000010      -4.96835128E-07
  -5.84999990      -6.92737331E-07
  -5.80000019      -3.81619742E-07
  -5.75000000       4.22575596E-07
  -5.69999981       1.25661927E-06
  -5.65000010       1.42221290E-06
  -5.59999990       5.01729460E-07
  -5.55000019      -1.16800550E-06
  -5.50000000      -2.49948084E-06
  -5.44999981      -2.30482829E-06
  -5.40000010      -2.52868290E-07
  -5.34999990       2.58491787E-06
  -5.30000019       4.18946775E-06
  -5.25000000       2.96484700E-06
  -5.19999981      -8.57876046E-07
  -5.15000010      -4.93374773E-06
  -5.09999990      -6.15388535E-06
  -5.05000019      -2.92981940E-06
  -5.00000000       3.22004303E-06
  -4.94999981       8.20777495E-06
  -4.90000010       8.04375031E-06
  -4.84999990       1.92936136E-06
  -4.80000019      -6.58814861E-06
  -4.75000000      -1.16313240E-05
  -4.69999981      -9.10027393E-06
  -4.65000010       2.00096792E-08
  -4.59999990       9.82190249E-06
  -4.55000019       1.34000757E-05
  -4.50000000       7.91975981E-06
  -4.44999981      -2.97316797E-06
  -4.40000010      -1.15029225E-05
  -4.34999990      -1.14393824E-05
  -4.30000019      -2.92640175E-06
  -4.25000000       7.37389519E-06
  -4.19999981       1.12392227E-05
  -4.15000010       5.34303672E-06
  -4.09999990      -5.83828296E-06
  -4.05000019      -1.32098012E-05
  -4.00000000      -1.01499791E-05
  -3.95000005       1.96368887E-06
  -3.90000010       1.43538255E-05
  -3.84999990       1.74524139E-05
  -3.79999995       8.51455570E-06
  -3.75000000      -5.90520222E-06
  -3.70000005      -1.49443458E-05
  -3.65000010      -1.22260981E-05
  -3.59999990      -1.36838798E-06
  -3.54999995       6.70470990E-06
  -3.50000000       3.10789051E-06
  -3.45000005      -1.03452003E-05
  -3.40000010      -2.08036054E-05
  -3.34999990      -1.39596305E-05
  -3.29999995       1.30017070E-05
  -3.25000000       4.55010231E-05
  -3.20000005       5.90378258E-05
  -3.15000010       3.65483247E-05
  -3.09999990      -1.63675977E-05
  -3.04999995      -7.07160943E-05
  -3.00000000      -9.10052622E-05
  -2.95000005      -5.98566294E-05
  -2.90000010       6.97726318E-06
  -2.84999990       6.78387805E-05
  -2.79999995       8.23924420E-05
  -2.75000000       4.12631598E-05
  -2.70000005      -2.38286302E-05
  -2.65000010      -5.98063452E-05
  -2.59999990      -3.11621479E-05
  -2.54999995       4.87794605E-05
  -2.50000000       1.19464799E-04
  -2.45000005       1.11859648E-04
  -2.40000010       1.18337675E-06
  -2.34999990      -1.63859950E-04
  -2.29999995      -2.81300425E-04
  -2.25000000      -2.58843793E-04
  -2.20000005      -8.02875074E-05
  -2.15000010       1.71970314E-04
  -2.09999990       3.60087928E-04
  -2.04999995       3.76563083E-04
  -2.00000000       2.16365981E-04
  -1.95000005      -1.66687460E-05
  -1.89999998      -1.78681745E-04
  -1.85000002      -1.85784040E-04
  -1.79999995      -7.50120307E-05
  -1.75000000       2.08681104E-05
  -1.70000005      -2.77234758E-05
  -1.64999998      -2.42102760E-04
  -1.60000002      -5.01432747E-04
  -1.54999995      -6.11246331E-04
  -1.50000000      -4.33396170E-04
  -1.45000005       1.08722006E-05
  -1.39999998       5.39581757E-04
  -1.35000002       9.17423458E-04
  -1.29999995       1.00276538E-03
  -1.25000000       8.34852399E-04
  -1.20000005       6.00565458E-04
  -1.14999998       5.02546027E-04
  -1.10000002       6.19317463E-04
  -1.04999995       8.54402781E-04
  -1.00000000       1.00987591E-03
 -0.949999988       9.32739757E-04
 -0.899999976       6.30943512E-04
 -0.850000024       2.76284030E-04
 -0.800000012       9.01620879E-05
 -0.750000000       1.90480525E-04
 -0.699999988       5.06285869E-04
 -0.649999976       8.20880814E-04
 -0.600000024       9.15552373E-04
 -0.550000012       7.16295792E-04
 -0.500000000       3.43750376E-04
 -0.449999988       3.37571437E-05
 -0.400000006      -1.44669693E-05
 -0.349999994       2.43278235E-04
 -0.300000012       6.90385932E-04
 -0.250000000       1.15245266E-03
 -0.200000003       1.52635132E-03
 -0.150000006       1.83621340E-03
 -0.100000001       2.17642565E-03
  -5.00000007E-02   2.59280042E-03
   0.00000000       3.00559727E-03
   5.00000007E-02   3.24821379E-03
  0.100000001       3.20171914E-03
  0.150000006       2.91940826E-03
  0.200000003       2.62905587E-03
  0.250000000       2.58817617E-03
  0.300000012       2.88872980E-03
  0.349999994       3.36678722E-03
  0.400000006       3.71199567E-03
  0.449999988       3.72295035E-03
  0.500000000       3.52480519E-03
  0.550000012       3.56187578E-03
  0.600000024       4.32291487E-03
  0.649999976       5.95917413E-03
  0.699999988       8.06726143E-03
  0.750000000       9.83186439E-03
  0.800000012       1.04895830E-02
  0.850000024       9.83734056E-03
  0.899999976       8.43999069E-03
  0.949999988       7.35976920E-03
   1.00000000       7.53950048E-03
   1.04999995       9.21761151E-03
   1.10000002       1.17605012E-02
   1.14999998       1.40448827E-02
   1.20000005       1.51658859E-02
   1.25000000       1.50220534E-02
   1.29999995       1.43928165E-02
   1.35000002       1.44457780E-02
   1.39999998       1.59836709E-02
   1.45000005       1.89177636E-02
   1.50000000       2.23132018E-02
   1.54999995       2.49802135E-02
   1.60000002       2.62265224E-02
   1.64999998       2.62801312E-02
   1.70000005       2.61116158E-02
   1.75000000       2.67859567E-02
   1.79999995       2.87862960E-02
   1.85000002       3.17623466E-02
   1.89999998       3.48564722E-02
   1.95000005       3.73566933E-02
   2.00000000       3.92010659E-02
   2.04999995       4.09725308E-02
   2.09999990       4.33994271E-02
   2.15000010       4.67452593E-02
   2.20000005       5.05603775E-02
   2.25000000       5.40045090E-02
   2.29999995       5.65176345E-02
   2.34999990       5.83344549E-02
   2.40000010       6.04246557E-02
   2.45000005       6.38521314E-02
   2.50000000       6.89868182E-02
   2.54999995       7.51453266E-02
   2.59999990       8.09596255E-02
   2.65000010       8.52591395E-02
   2.70000005       8.78715292E-02
   2.75000000       8.97799209E-02
   2.79999995       9.25119668E-02
   2.84999990       9.71679315E-02
   2.90000010      0.103744529    
   2.95000005      0.111200325    
   3.00000000      0.118188106    
   3.04999995      0.123927668    
   3.09999990      0.128625289    
   3.15000010      0.133196488    
   3.20000005      0.138550907    
   3.25000000      0.144984469    
   3.29999995      0.152099311    
   3.34999990      0.159252360    
   3.40000010      0.166134641    
   3.45000005      0.173011079    
   3.50000000      0.180439144    
   3.54999995      0.188705906    
   3.59999990      0.197454125    
   3.65000010      0.205831200    
   3.70000005      0.213091969    
   3.75000000      0.219220549    
   3.79999995      0.225087598    
   3.84999990      0.231971338    
   3.90000010      0.240730703    
   3.95000005      0.251193762    
   4.00000000      0.262200892    
   4.05000019      0.272305727    
   4.09999990      0.280678719    
   4.15000010      0.287608385    
   4.19999981      0.294261307    
   4.25000000      0.301869273    
   4.30000019      0.310907155    
   4.34999990      0.320823789    
   4.40000010      0.330497622    
   4.44999981      0.339077055    
   4.50000000      0.346596688    
   4.55000019      0.353926420    
   4.59999990      0.362092972    
   4.65000010      0.371466309    
   4.69999981      0.381404459    
   4.75000000      0.390625685    
   4.80000019      0.398058027    
   4.84999990      0.403573483    
   4.90000010      0.408098102    
   4.94999981      0.413019985    
   5.00000000      0.419298291    
   5.05000019      0.426870972    
   5.09999990      0.434736013    
   5.15000010      0.441618621    
   5.19999981      0.446744412    
   5.25000000      0.450209290    
   5.30000019      0.452748001    
   5.34999990      0.455126673    
   5.40000010      0.457623452    
   5.44999981      0.459951222    
   5.50000000      0.461629450    
   5.55000019      0.462465912    
   5.59999990      0.462742895    
   5.65000010      0.462941706    
   5.69999981      0.463214189    
   5.75000000      0.463046402    
   5.80000019      0.461448222    
   5.84999990      0.457611412    
   5.90000010      0.451587677    
   5.94999981      0.444448113    
   6.00000000      0.437698692    
   6.05000019      0.432266623    
   6.09999990      0.427752942    
   6.15000010      0.422543049    
   6.19999981      0.414799631    
   6.25000000      0.403719425    
   6.30000019      0.390170097    
   6.34999990      0.376185000    
   6.40000010      0.363595128    
   6.44999981      0.352728277    
   6.50000000      0.342115253    
   6.55000019      0.329456270    
   6.59999990      0.313201040    
   6.65000010      0.293642104    
   6.69999981      0.272737682    
   6.75000000      0.252799392    
   6.80000019      0.234990835    
   6.84999990      0.218672931    
   6.90000010      0.201983392    
   6.94999981      0.183136031    
   7.00000000      0.161469385    
   7.05000019      0.137560129    
   7.09999990      0.112521954    
   7.15000010       8.71845484E-02
   7.19999981       6.18089251E-02
   7.25000000       3.64291295E-02
   7.30000019       1.13068707E-02
   7.34999990      -1.30508281E-02
   7.40000010      -3.63990441E-02
   7.44999981      -5.93052693E-02
   7.50000000      -8.31065327E-02
   7.55000019     -0.109124437    
   7.59999990     -0.137662873    
   7.65000010     -0.167594641    
   7.69999981     -0.196958423    
   7.75000000     -0.224200740    
   7.80000019     -0.249172658    
   7.84999990     -0.273135662    
   7.90000010     -0.297766536    
   7.94999981     -0.323911726    
   8.00000000     -0.351009846    
   8.05000019     -0.377564698    
   8.10000038     -0.402274072    
   8.14999962     -0.424951911    
   8.19999981     -0.446603745    
   8.25000000     -0.468675941    
   8.30000019     -0.492052823    
   8.35000038     -0.516489327    
   8.39999962     -0.540768325    
   8.44999981     -0.563371539    
   8.50000000     -0.583210111    
   8.55000019     -0.600054681    
   8.60000038     -0.614562452    
   8.64999962     -0.627990961    
   8.69999981     -0.641723931    
   8.75000000     -0.656708598    
   8.80000019     -0.672958076    
   8.85000038     -0.689372361    
   8.89999962     -0.704100490    
   8.94999981     -0.715414524    
   9.00000000     -0.722691476    
   9.05000019     -0.726876140    
   9.10000038     -0.730023146    
   9.14999962     -0.734095752    
   9.19999981     -0.739744186    
   9.25000000     -0.745894074    
   9.30000019     -0.750466585    
   9.35000038     -0.751771808    
   9.39999962     -0.749617636    
   9.44999981     -0.745352089    
   9.50000000     -0.740819395    
   9.55000019     -0.737001061    
   9.60000038     -0.733348489    
   9.64999962     -0.728291929    
   9.69999981     -0.720517695    
   9.75000000     -0.710017860    
   9.80000019     -0.698095441    
   9.85000038     -0.686328471    
   9.89999962     -0.675323844    
   9.94999981     -0.664265454    
   10.0000000     -0.651633322    
   10.0500002     -0.636512458    
   10.1000004     -0.619406402    
   10.1499996     -0.601849318    
   10.1999998     -0.585098982    
   10.2500000     -0.568997920    
   10.3000002     -0.552012086    
   10.3500004     -0.532514453    
   10.3999996     -0.510306835    
   10.4499998     -0.487076223    
   10.5000000     -0.465277970    
   10.5500002     -0.446230084    
   10.6000004     -0.428936422    
   10.6499996     -0.410679132    
   10.6999998     -0.389033854    
   10.7500000     -0.363777965    
   10.8000002     -0.337169886    
   10.8500004     -0.312326729    
   10.8999996     -0.290941864    
   10.9499998     -0.272122890    
   11.0000000     -0.253237098    
   11.0500002     -0.232038409    
   11.1000004     -0.208347544    
   11.1499996     -0.183982834    
   11.1999998     -0.161120817    
   11.2500000     -0.140549198    
   11.3000002     -0.121275105    
   11.3500004     -0.101708353    
   11.3999996      -8.12563971E-02
   11.4499998      -6.08547404E-02
   11.5000000      -4.19686846E-02
   11.5500002      -2.50290055E-02
   11.6000004      -8.80785007E-03
   11.6499996       8.59653391E-03
   11.6999998       2.79715732E-02
   11.7500000       4.80078720E-02
   11.8000002       6.60937876E-02
   11.8500004       8.03197175E-02
   11.8999996       9.10309479E-02
   11.9499998      0.100599207    
   12.0000000      0.111581296    
   12.0500002      0.124801628    
   12.1000004      0.138937905    
   12.1499996      0.151872531    
   12.1999998      0.162556767    
   12.2500000      0.171737328    
   12.3000002      0.180958301    
   12.3500004      0.190819383    
   12.3999996      0.200147867    
   12.4499998      0.206918448    
   12.5000000      0.210163236    
   12.5500002      0.211171538    
   12.6000004      0.212817699    
   12.6499996      0.217442036    
   12.6999998      0.224981844    
   12.7500000      0.232900530    
   12.8000002      0.238021076    
   12.8500004      0.238840997    
   12.8999996      0.236543506    
   12.9499998      0.233989269    
   13.0000000      0.233554080    
   13.0500002      0.235495374    
   13.1000004      0.238000259    
   13.1499996      0.238705620    
   13.1999998      0.236427680    
   13.2500000      0.231850207    
   13.3000002      0.226845533    
   13.3500004      0.223119378    
   13.3999996      0.221209168    
   13.4499998      0.220409498    
   13.5000000      0.219445705    
   13.5500002      0.217278168    
   13.6000004      0.213526979    
   13.6499996      0.208420500    
   13.6999998      0.202498496    
   13.7500000      0.196339905    
   13.8000002      0.190423682    
   13.8500004      0.185076073    
   13.8999996      0.180426478    
   13.9499998      0.176356584    
   14.0000000      0.172487587    
   14.0500002      0.168265209    
   14.1000004      0.163168550    
   14.1499996      0.156996951    
   14.1999998      0.150095597    
   14.2500000      0.143322900    
   14.3000002      0.137645930    
   14.3500004      0.133499622    
   14.3999996      0.130322173    
   14.4499998      0.126712859    
   14.5000000      0.121291779    
   14.5500002      0.113762155    
   14.6000004      0.105356567    
   14.6499996       9.81670991E-02
   14.6999998       9.36958343E-02
   14.7500000       9.16788802E-02
   14.8000002       9.01672915E-02
   14.8500004       8.69207978E-02
   14.8999996       8.10801908E-02
   14.9499998       7.37722367E-02
   15.0000000       6.71236590E-02
   15.0500002       6.24900833E-02
   15.1000004       5.94034679E-02
   15.1499996       5.61476015E-02
   15.1999998       5.14424592E-02
   15.2500000       4.57059368E-02
   15.3000002       4.07039151E-02
   15.3500004       3.78536806E-02
   15.3999996       3.67261469E-02
   15.4499998       3.52010652E-02
   15.5000000       3.12701650E-02
   15.5500002       2.49288306E-02
   15.6000004       1.83880553E-02
   15.6499996       1.42592406E-02
   15.6999998       1.32115893E-02
   15.7500000       1.32027240E-02
   15.8000002       1.11096576E-02
   15.8500004       5.47893671E-03
   15.8999996      -1.97727000E-03
   15.9499998      -7.55791925E-03
   16.0000000      -8.58665723E-03
   16.0499992      -5.79494005E-03
   16.1000004      -3.03746178E-03
   16.1499996      -4.46849316E-03
   16.2000008      -1.13954376E-02
   16.2500000      -2.12845113E-02
   16.2999992      -2.96389982E-02
   16.3500004      -3.32040079E-02
   16.3999996      -3.20357308E-02
   16.4500008      -2.90540550E-02
   16.5000000      -2.77342033E-02
   16.5499992      -2.98666079E-02
   16.6000004      -3.49154323E-02
   16.6499996      -4.10135128E-02
   16.7000008      -4.64333370E-02
   16.7500000      -5.03808372E-02
   16.7999992      -5.28826825E-02
   16.8500004      -5.43486103E-02
   16.8999996      -5.53815961E-02
   16.9500008      -5.68068735E-02
   17.0000000      -5.94929270E-02
   17.0499992      -6.38082251E-02
   17.1000004      -6.91517517E-02
   17.1499996      -7.41651729E-02
   17.2000008      -7.76751861E-02
   17.2500000      -7.96412826E-02
   17.2999992      -8.12268928E-02
   17.3500004      -8.38390887E-02
   17.3999996      -8.79517496E-02
   17.4500008      -9.27821398E-02
   17.5000000      -9.71182659E-02
   17.5499992     -0.100497298    
   17.6000004     -0.103585757    
   17.6499996     -0.107393250    
   17.7000008     -0.112128526    
   17.7500000     -0.116905607    
   17.7999992     -0.120678023    
   17.8500004     -0.123493776    
   17.8999996     -0.126718670    
   17.9500008     -0.131807923    
   18.0000000     -0.138691038    
   18.0499992     -0.145407185    
   18.1000004     -0.149602503    
   18.1499996     -0.150722861    
   18.2000008     -0.150888577    
   18.2500000     -0.153443202    
   18.2999992     -0.160238937    
   18.3500004     -0.169978574    
   18.3999996     -0.179137245    
   18.4500008     -0.184752464    
   18.5000000     -0.186693698    
   18.5499992     -0.187467322    
   18.6000004     -0.189826906    
   18.6499996     -0.194429159    
   18.7000008     -0.199674383    
   18.7500000     -0.203764126    
   18.7999992     -0.206862867    
   18.8500004     -0.211118326    
   18.8999996     -0.218368232    
   18.9500008     -0.227717519    
   19.0000000     -0.235530332    
   19.0499992     -0.238256752    
   19.1000004     -0.235776410    
   19.1499996     -0.232154444    
   19.2000008     -0.232772380    
   19.2500000     -0.239998430    
   19.2999992     -0.251041204    
   19.3500004     -0.259959072    
   19.3999996     -0.262314469    
   19.4500008     -0.258671999    
   19.5000000     -0.254058301    
   19.5499992     -0.253867537    
   19.6000004     -0.259622902    
   19.6499996     -0.268013418    
   19.7000008     -0.273796082    
   19.7500000     -0.273974061    
   19.7999992     -0.269815803    
   19.8500004     -0.265330076    
   19.8999996     -0.263816118    
   19.9500008     -0.265488088    
   20.0000000     -0.267918229    
   20.0499992     -0.268494576    
   20.1000004     -0.266549438    
   20.1499996     -0.263457119    
   20.2000008     -0.260991156    
   20.2500000     -0.259651542    
   20.2999992     -0.258402526    
   20.3500004     -0.255782098    
   20.3999996     -0.251172006    
   20.4500008     -0.245140791    
   20.5000000     -0.238815323    
   20.5499992     -0.233068168    
   20.6000004     -0.228185624    
   20.6499996     -0.223982409    
   20.7000008     -0.219926625    
   20.7500000     -0.215127170    
   20.7999992     -0.208534405    
   20.8500004     -0.199633986    
   20.8999996     -0.189219832    
   20.9500008     -0.179313898    
   21.0000000     -0.171795994    
   21.0499992     -0.166597024    
   21.1000004     -0.161138639    
   21.1499996     -0.152002797    
   21.2000008     -0.137864560    
   21.2500000     -0.121227667    
   21.2999992     -0.107075363    
   21.3500004      -9.90467221E-02
   21.3999996      -9.61270556E-02
   21.4500008      -9.28462297E-02
   21.5000000      -8.32670331E-02
   21.5499992      -6.57662898E-02
   21.6000004      -4.46447879E-02
   21.6499996      -2.70005409E-02
   21.7000008      -1.72115937E-02
   21.7500000      -1.34813897E-02
   21.7999992      -9.29999724E-03
   21.8500004       1.35820208E-03
   21.8999996       1.93472505E-02
   21.9500008       3.99268940E-02
   22.0000000       5.67599796E-02
   22.0499992       6.68835118E-02
   22.1000004       7.26139098E-02
   22.1499996       7.91321248E-02
   22.2000008       9.01147798E-02
   22.2500000      0.105132647    
   22.2999992      0.120676741    
   22.3500004      0.133460149    
   22.3999996      0.142948002    
   22.4500008      0.151172981    
   22.5000000      0.160491616    
   22.5499992      0.171579823    
   22.6000004      0.183322892    
   22.6499996      0.194237530    
   22.7000008      0.203748807    
   22.7500000      0.212162331    
   22.7999992      0.219757229    
   22.8500004      0.226319954    
   22.8999996      0.231739685    
   22.9500008      0.236858889    
   23.0000000      0.243275911    
   23.0499992      0.251872718    
   23.1000004      0.261430889    
   23.1499996      0.269014418    
   23.2000008      0.272256225    
   23.2500000      0.271671355    
   23.2999992      0.270686477    
   23.3500004      0.272934407    
   23.3999996      0.278976440    
   23.4500008      0.285468102    
   23.5000000      0.287837684    
   23.5499992      0.284363955    
   23.6000004      0.278025806    
   23.6499996      0.274233818    
   23.7000008      0.276175678    
   23.7500000      0.281803250    
   23.7999992      0.285262108    
   23.8500004      0.281736076    
   23.8999996      0.271603703    
   23.9500008      0.260257274    
   24.0000000      0.253637731    
   24.0499992      0.253281474    
   24.1000004      0.255127251    
   24.1499996      0.253078192    
   24.2000008      0.244203389    
   24.2500000      0.231094807    
   24.2999992      0.219446212    
   24.3500004      0.213087589    
   24.3999996      0.210828185    
   24.4500008      0.207743347    
   24.5000000      0.199600279    
   24.5499992      0.186469376    
   24.6000004      0.172455281    
   24.6499996      0.161976516    
   24.7000008      0.155969679    
   24.7500000      0.151271120    
   24.7999992      0.143519506    
   24.8500004      0.130909905    
   24.8999996      0.115603343    
   24.9500008      0.101802081    
   25.0000000       9.23374072E-02
   25.0499992       8.66357237E-02
   25.1000004       8.14811513E-02
   25.1499996       7.35974759E-02
   25.2000008       6.18405789E-02
   25.2500000       4.75314856E-02
   25.2999992       3.31791528E-02
   25.3500004       2.09096521E-02
   25.3999996       1.16298310E-02
   25.4500008       4.98284446E-03
   25.5000000      -3.79549485E-04
   25.5499992      -6.41378807E-03
   25.6000004      -1.49726523E-02
   25.6499996      -2.67194863E-02
   25.7000008      -4.03094031E-02
   25.7500000      -5.27833514E-02
   25.7999992      -6.13760538E-02
   25.8500004      -6.56032860E-02
   25.8999996      -6.78749681E-02
   25.9500008      -7.18391016E-02
   26.0000000      -7.95825645E-02
   26.0499992      -8.99885520E-02
   26.1000004      -9.97343808E-02
   26.1499996     -0.106155850    
   26.2000008     -0.109482177    
   26.2500000     -0.112418473    
   26.2999992     -0.117430642    
   26.3500004     -0.124249242    
   26.3999996     -0.130006492    
   26.4500008     -0.132020354    
   26.5000000     -0.130682603    
   26.5499992     -0.129609182    
   26.6000004     -0.132608876    
   26.6499996     -0.140034780    
   26.7000008     -0.147909760    
   26.7500000     -0.150945246    
   26.7999992     -0.147086173    
   26.8500004     -0.139633536    
   26.8999996     -0.134873286    
   26.9500008     -0.136970848    
   27.0000000     -0.144365191    
   27.0499992     -0.150790527    
   27.1000004     -0.150219426    
   27.1499996     -0.141707212    
   27.2000008     -0.130170688    
   27.2500000     -0.122501999    
   27.2999992     -0.122233354    
   27.3500004     -0.127042204    
   27.3999996     -0.130907133    
   27.4500008     -0.128906295    
   27.5000000     -0.120699458    
   27.5499992     -0.110130765    
   27.6000004     -0.101729527    
   27.6499996      -9.72593501E-02
   27.7000008      -9.50146988E-02
   27.7500000      -9.19685885E-02
   27.7999992      -8.65338370E-02
   27.8500004      -7.95390680E-02
   27.8999996      -7.29083642E-02
   27.9500008      -6.75913617E-02
   28.0000000      -6.27239197E-02
   28.0499992      -5.66360205E-02
   28.1000004      -4.85774130E-02
   28.1499996      -3.94937098E-02
   28.2000008      -3.12090069E-02
   28.2500000      -2.48534512E-02
   28.2999992      -1.99584328E-02
   28.3500004      -1.49176968E-02
   28.3999996      -8.28462187E-03
   28.4500008       2.25678727E-04
   28.5000000       9.72326752E-03
   28.5499992       1.88905839E-02
   28.6000004       2.67670341E-02
   28.6499996       3.30896303E-02
   28.7000008       3.82518396E-02
   28.7500000       4.31605764E-02
   28.7999992       4.90388349E-02
   28.8500004       5.69665134E-02
   28.8999996       6.71397224E-02
   28.9500008       7.83310086E-02
   29.0000000       8.82233009E-02
   29.0499992       9.47586894E-02
   29.1000004       9.77028981E-02
   29.1499996       9.91541743E-02
   29.2000008      0.102343008    
   29.2500000      0.109422296    
   29.2999992      0.119894378    
   29.3500004      0.130957454    
   29.3999996      0.139554441    
   29.4500008      0.144513994    
   29.5000000      0.147107333    
   29.5499992      0.149696812    
   29.6000004      0.153758481    
   29.6499996      0.159003660    
   29.7000008      0.164221898    
   29.7500000      0.168846413    
   29.7999992      0.173597887    
   29.8500004      0.179516733    
   29.8999996      0.186361924    
   29.9500008      0.192128211    
   30.0000000      0.194495857    
   30.0499992      0.193141386    
   30.1000004      0.190749392    
   30.1499996      0.191432402    
   30.2000008      0.197494686    
   30.2500000      0.207154319    
   30.2999992      0.215369284    
   30.3500004      0.217475757    
   30.3999996      0.212906584    
   30.4500008      0.205936253    
   30.5000000      0.202629939    
   30.5499992      0.206241369    
   30.6000004      0.214673609    
   30.6499996      0.222075239    
   30.7000008      0.223368615    
   30.7500000      0.218140200    
   30.7999992      0.210820526    
   30.8500004      0.207067832    
   30.8999996      0.209309787    
   30.9500008      0.215017140    
   31.0000000      0.219000176    
   31.0499992      0.217731714    
   31.1000004      0.212113112    
   31.1499996      0.206480488    
   31.2000008      0.204803258    
   31.2500000      0.207320482    
   31.2999992      0.210421830    
   31.3500004      0.209822744    
   31.3999996      0.204330295    
   31.4500008      0.197022110    
   31.5000000      0.192821160    
   31.5499992      0.194431588    
   31.6000004      0.199954987    
   31.6499996      0.204158902    
   31.7000008      0.202449411    
   31.7500000      0.194463789    
   31.7999992      0.184508622    
   31.8500004      0.178508386    
   31.8999996      0.179753169    
   31.9500008      0.186559215    
   32.0000000      0.193467438    
   32.0499992      0.195031732    
   32.0999985      0.189499274    
   32.1500015      0.179907709    
   32.2000008      0.171986952    
   32.2500000      0.170370042    
   32.2999992      0.175614208    
   32.3499985      0.183899775    
   32.4000015      0.189541519    
   32.4500008      0.188704073    
   32.5000000      0.181963339    
   32.5499992      0.174021646    
   32.5999985      0.170634717    
   32.6500015      0.174657077    
   32.7000008      0.183882028    
   32.7500000      0.192364022    
   32.7999992      0.194575176    