  -10.0000000         1.00000002E-24
  -9.94999981         1.00000002E-24
  -9.89999962         1.00000012E-24
  -9.85000038         1.00000022E-24
  -9.80000019         1.00000022E-24
  -9.75000000         1.00000022E-24
  -9.69999981         1.00000012E-24
  -9.64999962         1.00000002E-24
  -9.60000038         1.00000012E-24
  -9.55000019         1.00000022E-24
  -9.50000000         1.00000032E-24
  -9.44999981         1.00000032E-24
  -9.39999962         1.00000012E-24
  -9.35000038         9.99999921E-25
  -9.30000019         9.99999921E-25
  -9.25000000         1.00000002E-24
  -9.19999981         1.00000022E-24
  -9.14999962         1.00000071E-24
  -9.10000038         1.00000130E-24
  -9.05000019         9.99999822E-25
  -9.00000000         9.99987496E-25
  -8.94999981         9.99960872E-25
  -8.89999962         9.99975565E-25
  -8.85000038         1.00016765E-24
  -8.80000019         1.00043241E-24
  -8.75000000         9.99629255E-25
  -8.69999981         9.95823987E-25
  -8.64999962         9.91033235E-25
  -8.60000038         9.99445056E-25
  -8.55000019         1.04093036E-24
  -8.50000000         1.09066094E-24
  -8.44999981         1.00865126E-24
  -8.39999962         6.14385235E-25
  -8.35000038         1.21572981E-25
  -8.30000019         7.03906551E-25
  -8.25000000         3.96481807E-24
  -8.19999981         8.82464143E-24
  -8.14999962         7.29101615E-24
  -8.10000038        -1.31224266E-23
  -8.05000019        -5.05552208E-23
  -8.00000000        -5.99967341E-23
  -7.94999981         4.29246892E-23
  -7.90000010         2.85437240E-22
  -7.84999990         4.62226648E-22
  -7.80000019         8.16078500E-23
  -7.75000000        -1.23157813E-21
  -7.69999981        -2.80903205E-21
  -7.65000010        -2.27649879E-21
  -7.59999990         3.20068572E-21
  -7.55000019         1.27892180E-20
  -7.50000000         1.74143184E-20
  -7.44999981         1.70772488E-21
  -7.40000010        -4.07888350E-20
  -7.34999990        -8.39291377E-20
  -7.30000019        -6.18231429E-20
  -7.25000000         8.72888674E-20
  -7.19999981         3.22187314E-19
  -7.15000010         4.17627077E-19
  -7.09999990         4.25113772E-20
  -7.05000019        -9.10646135E-19
  -7.00000000        -1.89373944E-18
  -6.94999981        -1.63944395E-18
  -6.90000010         1.01065651E-18
  -6.84999990         5.45913603E-18
  -6.80000019         8.12785767E-18
  -6.75000000         3.71308928E-18
  -6.69999981        -9.99762252E-18
  -6.65000010        -2.60522949E-17
  -6.59999990        -2.72713110E-17
  -6.55000019         3.40088092E-18
  -6.50000000         6.23294621E-17
  -6.44999981         1.09083583E-16
  -6.40000010         7.80505656E-17
  -6.34999990        -7.00208653E-17
  -6.30000019        -2.79622120E-16
  -6.25000000        -3.78001264E-16
  -6.19999981        -1.63530087E-16
  -6.15000010         3.99469552E-16
  -6.09999990         1.00525807E-15
  -6.05000019         1.05646661E-15
  -6.00000000         6.31542935E-17
  -5.94999981        -1.76347326E-15
  -5.90000010        -3.19930464E-15
  -5.84999990        -2.50779774E-15
  -5.80000019         1.17947326E-15
  -5.75000000         6.38854018E-15
  -5.69999981         9.14990739E-15
  -5.65000010         5.19287821E-15
  -5.59999990        -6.15251656E-15
  -5.55000019        -1.90598812E-14
  -5.50000000        -2.27060649E-14
  -5.44999981        -8.34136278E-15
  -5.40000010         2.15056905E-14
  -5.34999990         4.90406665E-14
  -5.30000019         4.89050667E-14
  -5.25000000         6.68567933E-15
  -5.19999981        -6.29084390E-14
  -5.15000010        -1.14475527E-13
  -5.09999990        -9.61506740E-14
  -5.05000019         9.62506154E-15
  -5.00000000         1.56393412E-13
  -4.94999981         2.44656183E-13
  -4.90000010         1.80648817E-13
  -4.84999990        -4.70038911E-14
  -4.80000019        -3.28010649E-13
  -4.75000000        -4.72323678E-13
  -4.69999981        -3.26667187E-13
  -4.65000010         1.00740685E-13
  -4.59999990         5.97945630E-13
  -4.55000019         8.41384417E-13
  -4.50000000         5.88816593E-13
  -4.44999981        -1.37498303E-13
  -4.40000010        -1.00003989E-12
  -4.34999990        -1.48283328E-12
  -4.30000019        -1.16402417E-12
  -4.25000000         8.78433306E-15
  -4.19999981         1.58673801E-12
  -4.15000010         2.72715119E-12
  -4.09999990         2.55028442E-12
  -4.05000019         6.51979284E-13
  -4.00000000        -2.43990288E-12
  -3.95000005        -5.17510167E-12
  -3.90000010        -5.53527840E-12
  -3.84999990        -2.22800055E-12
  -3.79999995         4.00089467E-12
  -3.75000000         9.90701444E-12
  -3.70000005         1.10058759E-11
  -3.65000010         4.46577324E-12
  -3.59999990        -7.90206355E-12
  -3.54999995        -1.89996525E-11
  -3.50000000        -1.98117998E-11
  -3.45000005        -5.81854053E-12
  -3.40000010         1.75670520E-11
  -3.34999990         3.54854375E-11
  -3.29999995         3.20394232E-11
  -3.25000000         2.72345146E-12
  -3.20000005        -3.79330664E-11
  -3.15000010        -6.15821283E-11
  -3.09999990        -4.43409268E-11
  -3.04999995         1.24955081E-11
  -3.00000000         7.55761426E-11
  -2.95000005         9.65615921E-11
  -2.90000010         4.66476024E-11
  -2.84999990        -5.43802121E-11
  -2.79999995        -1.39938464E-10
  -2.75000000        -1.36875733E-10
  -2.70000005        -2.25087848E-11
  -2.65000010         1.42978365E-10
  -2.59999990         2.41720893E-10
  -2.54999995         1.76348408E-10
  -2.50000000        -4.72343518E-11
  -2.45000005        -2.97079389E-10
  -2.40000010        -3.85768278E-10
  -2.34999990        -2.02178857E-10
  -2.29999995         1.83530441E-10
  -2.25000000         5.29564170E-10
  -2.20000005         5.65944680E-10
  -2.15000010         1.92186878E-10
  -2.09999990        -4.09223488E-10
  -2.04999995        -8.47280690E-10
  -2.00000000        -7.67933828E-10
  -1.95000005        -1.21913216E-10
  -1.89999998         7.39268979E-10
  -1.85000002         1.24236110E-09
  -1.79999995         9.65604929E-10
  -1.75000000        -3.15635330E-11
  -1.70000005        -1.16908783E-09
  -1.64999998        -1.67398151E-09
  -1.60000002        -1.09853981E-09
  -1.54999995         3.12871090E-10
  -1.50000000         1.69397929E-09
  -1.45000005         2.07854267E-09
  -1.39999998         1.06768905E-09
  -1.35000002        -8.11301748E-10
  -1.29999995        -2.35221354E-09
  -1.25000000        -2.42986697E-09
  -1.20000005        -8.02642952E-10
  -1.14999998         1.60450886E-09
  -1.10000002         3.20249427E-09
  -1.04999995         2.76920953E-09
  -1.00000000         3.47710749E-10
 -0.949999988        -2.63475819E-09
 -0.899999976        -4.19844293E-09
 -0.850000024        -3.11597326E-09
 -0.800000012         1.68658351E-10
 -0.750000000         3.68182018E-09
 -0.699999988         5.12095610E-09
 -0.649999976         3.37670825E-09
 -0.600000024        -6.41766806E-10
 -0.550000012        -4.48724080E-09
 -0.500000000        -5.70850300E-09
 -0.449999988        -3.45060136E-09
 -0.400000006         9.52216306E-10
 -0.349999994         4.81015539E-09
 -0.300000012         5.79578918E-09
 -0.250000000         3.40230000E-09
 -0.200000003        -8.15088552E-10
 -0.150000006        -4.32551017E-09
 -0.100000001        -5.24580823E-09
  -5.00000007E-02    -3.39373818E-09
   0.00000000        -1.40657083E-10
   5.00000007E-02     2.67815636E-09
  0.100000001         3.91158217E-09
  0.150000006         3.50401219E-09
  0.200000003         2.05969952E-09
  0.250000000         1.43630940E-10
  0.300000012        -1.97279015E-09
  0.349999994        -3.94534094E-09
  0.400000006        -4.90064567E-09
  0.449999988        -3.63331165E-09
  0.500000000         3.58109403E-10
  0.550000012         5.73264458E-09
  0.600000024         9.26795973E-09
  0.649999976         7.56080976E-09
  0.699999988        -2.66405314E-10
  0.750000000        -1.07757741E-08
  0.800000012        -1.71913506E-08
  0.850000024        -1.33538682E-08
  0.899999976         1.44811152E-09
  0.949999988         2.01973318E-08
   1.00000000         3.08929273E-08
   1.04999995         2.37143247E-08
   1.10000002        -1.42902512E-09
   1.14999998        -3.23015854E-08
   1.20000005        -4.97660650E-08
   1.25000000        -3.92784685E-08
   1.29999995        -1.76252002E-09
   1.35000002         4.38294023E-08
   1.39999998         6.97204072E-08
   1.45000005         5.62047973E-08
   1.50000000         6.05827521E-09
   1.54999995        -5.38007860E-08
   1.60000002        -8.65843930E-08
   1.64999998        -6.85514934E-08
   1.70000005        -6.23578345E-09
   1.75000000         6.44477112E-08
   1.79999995         9.88398412E-08
   1.85000002         7.21854647E-08
   1.89999998        -2.26614683E-09
   1.95000005        -7.89872985E-08
   2.00000000        -1.07959991E-07
   2.04999995        -6.75095109E-08
   2.09999990         1.96247179E-08
   2.15000010         9.88845628E-08
   2.20000005         1.18263408E-07
   2.25000000         6.24199856E-08
   2.29999995        -3.62368837E-08
   2.34999990        -1.17421031E-07
   2.40000010        -1.31063544E-07
   2.45000005        -6.86093600E-08
   2.50000000         3.27738370E-08
   2.54999995         1.14872293E-07
   2.59999990         1.34547790E-07
   2.65000010         8.72960797E-08
   2.70000005         4.49086235E-09
   2.75000000        -7.04313052E-08
   2.79999995        -1.07989941E-07
   2.84999990        -1.03378348E-07
   2.90000010        -6.85198884E-08
   2.95000005        -1.70514536E-08
   3.00000000         4.25545004E-08
   3.04999995         1.00734610E-07
   3.09999990         1.37232348E-07
   3.15000010         1.23579767E-07
   3.20000005         4.31937721E-08
   3.25000000        -8.38616288E-08
   3.29999995        -1.95251005E-07
   3.34999990        -2.14876493E-07
   3.40000010        -1.04868057E-07
   3.45000005         9.37227540E-08
   3.50000000         2.67769423E-07
   3.54999995         2.94777522E-07
   3.59999990         1.28069175E-07
   3.65000010        -1.53880293E-07
   3.70000005        -3.78028034E-07
   3.75000000        -3.80746854E-07
   3.79999995        -1.23638358E-07
   3.84999990         2.59600256E-07
   3.90000010         5.29271290E-07
   3.95000005         4.88737498E-07
   4.00000000         1.23585878E-07
   4.05000019        -3.66650369E-07
   4.09999990        -6.78217248E-07
   4.15000010        -5.93877132E-07
   4.19999981        -1.33016314E-07
   4.25000000         4.42944327E-07
   4.30000019         7.83497057E-07
   4.34999990         6.68346900E-07
   4.40000010         1.52282823E-07
   4.44999981        -4.61344001E-07
   4.50000000        -8.05320951E-07
   4.55000019        -6.75090064E-07
   4.59999990        -1.53137691E-07
   4.65000010         4.45964730E-07
   4.69999981         7.71562100E-07
   4.75000000         6.48073467E-07
   4.80000019         1.71289798E-07
   4.84999990        -3.62714303E-07
   4.90000010        -6.43457042E-07
   4.94999981        -5.28718090E-07
   5.00000000        -1.16666065E-07
   5.05000019         3.26560524E-07
   5.09999990         5.31976241E-07
   5.15000010         3.85725855E-07
   5.19999981        -9.25469656E-09
   5.25000000        -3.98763689E-07
   5.30000019        -5.30405600E-07
   5.34999990        -3.06402512E-07
   5.40000010         1.52290184E-07
   5.44999981         5.73010823E-07
   5.50000000         6.96083930E-07
   5.55000019         4.39570783E-07
   5.59999990        -4.21130792E-08
   5.65000010        -4.54283963E-07
   5.69999981        -5.58719535E-07
   5.75000000        -3.39245872E-07
   5.80000019        -9.87317250E-09
   5.84999990         1.52721157E-07
   5.90000010         3.59909045E-08
   5.94999981        -2.01941475E-07
   6.00000000        -2.50095525E-07
   6.05000019         8.45360404E-08
   6.09999990         6.65766322E-07
   6.15000010         1.07406356E-06
   6.19999981         9.15991109E-07
   6.25000000         1.75876394E-07
   6.30000019        -6.91051014E-07
   6.34999990        -1.05592665E-06
   6.40000010        -6.21055733E-07
   6.44999981         2.65328680E-07
   6.50000000         7.98251222E-07
   6.55000019         3.43507452E-07
   6.59999990        -9.49387072E-07
   6.65000010        -2.08250481E-06
   6.69999981        -1.86006889E-06
   6.75000000         1.39576386E-07
   6.80000019         3.01374916E-06
   6.84999990         4.93246125E-06
   6.90000010         4.34546610E-06
   6.94999981         1.18159767E-06
   7.00000000        -2.88361116E-06
   7.05000019        -5.41759346E-06
   7.09999990        -4.87425450E-06
   7.15000010        -1.71876991E-06
   7.19999981         1.84394787E-06
   7.25000000         3.42598923E-06
   7.30000019         2.20014226E-06
   7.34999990        -4.84798647E-07
   7.40000010        -2.13367275E-06
   7.44999981        -1.05705521E-06
   7.50000000         2.23342136E-06
   7.55000019         5.29674935E-06
   7.59999990         5.56520627E-06
   7.65000010         2.34358185E-06
   7.69999981        -2.55521763E-06
   7.75000000        -6.06615413E-06
   7.80000019        -6.10649022E-06
   7.84999990        -3.06692141E-06
   7.90000010         6.09816084E-07
   7.94999981         2.43248155E-06
   8.00000000         1.83050781E-06
   8.05000019         4.73667427E-07
   8.10000038         6.58127419E-07
   8.14999962         3.09248639E-06
   8.19999981         5.97467351E-06
   8.25000000         6.29327633E-06
   8.30000019         2.43508566E-06
   8.35000038        -4.04497405E-06
   8.39999962        -9.08023958E-06
   8.44999981        -8.95748235E-06
   8.50000000        -3.24242865E-06
   8.55000019         4.54947440E-06
   8.60000038         9.29537055E-06
   8.64999962         7.96905442E-06
   8.69999981         1.91704135E-06
   8.75000000        -4.15405702E-06
   8.80000019        -5.75652984E-06
   8.85000038        -2.07485459E-06
   8.89999962         3.47247351E-06
   8.94999981         6.03194576E-06
   9.00000000         3.30382727E-06
   9.05000019        -2.49079926E-06
   9.10000038        -6.31834064E-06
   9.14999962        -4.45582600E-06
   9.19999981         2.24354494E-06
   9.25000000         8.73878162E-06
   9.30000019         9.66910557E-06
   9.35000038         3.74500200E-06
   9.39999962        -4.91324181E-06
   9.44999981        -9.74945669E-06
   9.50000000        -6.88617683E-06
   9.55000019         1.63889672E-06
   9.60000038         9.24175038E-06
   9.64999962         9.89268938E-06
   9.69999981         2.97925362E-06
   9.75000000        -5.92677361E-06
   9.80000019        -9.35805292E-06
   9.85000038        -3.96632004E-06
   9.89999962         6.42280474E-06
   9.94999981         1.34504789E-05
   10.0000000         1.07117376E-05
   10.0500002        -8.52921971E-07
   10.1000004        -1.30469980E-05
   10.1499996        -1.63005116E-05
   10.1999998        -7.06028732E-06
   10.2500000         9.03715500E-06
   10.3000002         2.08985857E-05
   10.3500004         2.00347349E-05
   10.3999996         6.91028981E-06
   10.4499998        -9.31278464E-06
   10.5000000        -1.75939676E-05
   10.5500002        -1.31406214E-05
   10.6000004        -6.78961044E-07
   10.6499996         9.63956882E-06
   10.6999998         1.03934144E-05
   10.7500000         2.55955729E-06
   10.8000002        -5.73036004E-06
   10.8500004        -6.33109357E-06
   10.8999996         1.83740462E-06
   10.9499998         1.17597474E-05
   11.0000000         1.43237958E-05
   11.0500002         6.42038231E-06
   11.1000004        -5.89649608E-06
   11.1499996        -1.21439680E-05
   11.1999998        -6.50861921E-06
   11.2500000         6.37508128E-06
   11.3000002         1.45325903E-05
   11.3500004         8.67599374E-06
   11.3999996        -8.77562798E-06
   11.4499998        -2.39034362E-05
   11.5000000        -2.16868084E-05
   11.5500002         9.93976641E-07
   11.6000004         3.04129262E-05
   11.6499996         4.44239777E-05
   11.6999998         2.90209555E-05
   11.7500000        -9.38580706E-06
   11.8000002        -4.61611999E-05
   11.8500004        -5.49209690E-05
   11.8999996        -2.68073218E-05
   11.9499998         2.18038494E-05
   12.0000000         5.95855345E-05
   12.0500002         6.17479091E-05
   12.1000004         2.72653906E-05
   12.1499996        -2.06533459E-05
   12.1999998        -5.12299302E-05
   12.2500000        -4.74722146E-05
   12.3000002        -1.67388189E-05
   12.3500004         1.65585207E-05
   12.3999996         2.97956103E-05
   12.4499998         1.80272909E-05
   12.5000000        -4.59873445E-06
   12.5500002        -1.77453530E-05
   12.6000004        -1.11679592E-05
   12.6499996         8.38973665E-06
   12.6999998         2.42067399E-05
   12.7500000         2.39197452E-05
   12.8000002         9.22961044E-06
   12.8500004        -6.58167801E-06
   12.8999996        -1.06975567E-05
   12.9499998        -1.98969951E-06
   13.0000000         8.03068997E-06
   13.0500002         5.36741118E-06
   13.1000004        -1.34550028E-05
   13.1499996        -3.64668558E-05
   13.1999998        -4.40329131E-05
   13.2500000        -2.40184854E-05
   13.3000002         1.71815936E-05
   13.3500004         5.66258459E-05
   13.3999996         6.93389447E-05
   13.4499998         4.55249319E-05
   13.5000000        -1.75179684E-06
   13.5500002        -4.42647397E-05
   13.6000004        -5.68787400E-05
   13.6499996        -3.40446968E-05
   13.6999998         6.76102309E-06
   13.7500000         3.71159294E-05
   13.8000002         3.70487141E-05
   13.8500004         8.41548717E-06
   13.8999996        -2.69848024E-05
   13.9499998        -4.32117413E-05
   14.0000000        -2.87316871E-05
   14.0500002         5.54260032E-06
   14.1000004         3.45423359E-05
   14.1499996         3.77373290E-05
   14.1999998         1.44911410E-05
   14.2500000        -1.55127818E-05
   14.3000002        -2.74249614E-05
   14.3500004        -1.08244385E-05
   14.3999996         2.12641189E-05
   14.4499998         4.14165879E-05
   14.5000000         2.88096962E-05
   14.5500002        -1.34374231E-05
   14.6000004        -5.81983077E-05
   14.6499996        -7.26157014E-05
   14.6999998        -4.19292955E-05
   14.7500000         1.85135068E-05
   14.8000002         7.22014520E-05
   14.8500004         8.53720412E-05
   14.8999996         4.92053478E-05
   14.9499998        -1.47536166E-05
   15.0000000        -6.89643857E-05
   15.0500002        -8.34137172E-05
   15.1000004        -5.25978794E-05
   15.1499996         3.71614942E-06
   15.1999998         5.41002737E-05
   15.2500000         7.33262423E-05
   15.3000002         5.40172441E-05
   15.3500004         7.78936919E-06
   15.3999996        -4.19798416E-05
   15.4499998        -7.09616943E-05
   15.5000000        -6.42641244E-05
   15.5500002        -2.35864100E-05
   15.6000004         3.17859995E-05
   15.6499996         7.24680285E-05
   15.6999998         7.39554307E-05
   15.7500000         3.21068183E-05
   15.8000002        -3.13105666E-05
   15.8500004        -7.94239022E-05
   15.8999996        -8.29540513E-05
   15.9499998        -4.02317237E-05
   16.0000000         2.06195218E-05
   16.0499992         6.06700960E-05
   16.1000004         5.75200720E-05
   16.1499996         2.05554970E-05
   16.2000008        -1.78758637E-05
   16.2500000        -2.88773317E-05
   16.2999992        -9.83073642E-06
   16.3500004         1.50840497E-05
   16.3999996         1.72528107E-05
   16.4500008        -9.95772098E-06
   16.5000000        -4.36746050E-05
   16.5499992        -5.04394156E-05
   16.6000004        -1.63966051E-05
   16.6499996         3.72698159E-05
   16.7000008         6.84978004E-05
   16.7500000         4.82888427E-05
   16.7999992        -1.31750521E-05
   16.8500004        -7.10692111E-05
   16.8999996        -7.96246895E-05
   16.9500008        -2.89549153E-05
   17.0000000         4.49621512E-05
   17.0499992         8.65517213E-05
   17.1000004         6.34146345E-05
   17.1499996        -7.92379706E-06
   17.2000008        -7.39604220E-05
   17.2500000        -8.48693235E-05
   17.2999992        -3.23523745E-05
   17.3500004         4.45238184E-05
   17.3999996         8.94068871E-05
   17.4500008         7.08128719E-05
   17.5000000         4.10235907E-06
   17.5499992        -6.22110238E-05
   17.6000004        -8.34747698E-05
   17.6499996        -5.02270850E-05
   17.7000008         8.68270308E-06
   17.7500000         5.06859542E-05
   17.7999992         5.08906269E-05
   17.8500004         1.67899361E-05
   17.8999996        -2.19595750E-05
   17.9500008        -3.75057170E-05
   18.0000000        -2.22309573E-05
   18.0499992         1.01710366E-05
   18.1000004         3.79088306E-05
   18.1499996         4.61079180E-05
   18.2000008         3.32346863E-05
   18.2500000         7.84765143E-06
   18.2999992        -1.82585227E-05
   18.3500004        -3.47917558E-05
   18.3999996        -3.50191913E-05
   18.4500008        -1.78264145E-05
   18.5000000         9.66522566E-06
   18.5499992         3.25791443E-05
   18.6000004         3.55897610E-05
   18.6499996         1.47083692E-05
   18.7000008        -1.56945425E-05
   18.7500000        -2.95837635E-05
   18.7999992        -8.63100468E-06
   18.8500004         3.93069458E-05
   18.8999996         7.95738160E-05
   18.9500008         7.34186324E-05
   19.0000000         1.01097721E-05
   19.0499992        -7.69123653E-05
   19.1000004        -1.26939136E-04
   19.1499996        -9.45534703E-05
   19.2000008         1.21453859E-05
   19.2500000         1.28962231E-04
   19.2999992         1.75872628E-04
   19.3500004         1.14271978E-04
   19.3999996        -2.09234513E-05
   19.4500008        -1.41073935E-04
   19.5000000        -1.64528145E-04
   19.5499992        -7.52200576E-05
   19.6000004         6.46164335E-05
   19.6499996         1.58486102E-04
   19.7000008         1.44716571E-04
   19.7500000         3.94720082E-05
   19.7999992        -7.80240225E-05
   19.8500004        -1.25892853E-04
   19.8999996        -7.90382546E-05
   19.9500008         1.71281390E-05
   20.0000000         8.68939605E-05
   20.0499992         8.45414470E-05
   20.1000004         2.66244479E-05
   20.1499996        -2.76016199E-05
   20.2000008        -2.89184845E-05
   20.2500000         2.06132227E-05
   20.2999992         7.14508787E-05
   20.3500004         7.07111103E-05
   20.3999996         8.72523560E-06
   20.4500008        -7.09800588E-05
   20.5000000        -1.06152926E-04
   20.5499992        -6.58457357E-05
   20.6000004         2.47816261E-05
   20.6499996         1.03961043E-04
   20.7000008         1.19965815E-04
   20.7500000         6.73801842E-05
   20.7999992        -1.35450564E-05
   20.8500004        -6.98992371E-05
   20.8999996        -7.28043378E-05
   20.9500008        -3.07127448E-05
   21.0000000         2.50909616E-05
   21.0499992         6.50880174E-05
   21.1000004         7.56049849E-05
   21.1499996         5.69190561E-05
   21.2000008         1.59347001E-05
   21.2500000        -3.51863055E-05
   21.2999992        -7.57340458E-05
   21.3500004        -8.01694405E-05
   21.3999996        -3.49427319E-05
   21.4500008         4.27316372E-05
   21.5000000         1.05360014E-04
   21.5499992         1.04394996E-04
   21.6000004         3.06830298E-05
   21.6499996        -6.86055719E-05
   21.7000008        -1.18465599E-04
   21.7500000        -7.45310535E-05
   21.7999992         3.47122041E-05
   21.8500004         1.22140322E-04
   21.8999996         1.09014756E-04
   21.9500008        -6.14674718E-06
   22.0000000        -1.36426606E-04
   22.0499992        -1.69923398E-04
   22.1000004        -6.20380888E-05
   22.1499996         1.18761403E-04
   22.2000008         2.35003754E-04
   22.2500000         1.85606405E-04
   22.2999992        -9.45815918E-06
   22.3500004        -2.15758424E-04
   22.3999996        -2.82284396E-04
   22.4500008        -1.56570648E-04
   22.5000000         7.33368361E-05
   22.5499992         2.44181429E-04
   22.6000004         2.39532717E-04
   22.6499996         7.36666698E-05
   22.7000008        -1.25994935E-04
   22.7500000        -2.20074944E-04
   22.7999992        -1.59869363E-04
   22.8500004        -1.27720105E-05
   22.8999996         1.02502876E-04
   22.9500008         1.11983907E-04
   23.0000000         3.53711803E-05
   23.0499992        -4.54935944E-05
   23.1000004        -6.35894248E-05
   23.1499996        -2.04184125E-05
   23.2000008         2.58589407E-05
   23.2500000         2.05877077E-05
   23.2999992        -3.60907434E-05
   23.3500004        -9.15896453E-05
   23.3999996        -9.13192634E-05
   23.4500008        -2.94799083E-05
   23.5000000         4.52899549E-05
   23.5499992         7.28290397E-05
   23.6000004         3.32989803E-05
   23.6499996        -3.77757024E-05
   23.7000008        -8.26832111E-05
   23.7500000        -7.16089926E-05
   23.7999992        -2.51274359E-05
   23.8500004         8.89152489E-06
   23.8999996         8.02157729E-07
   23.9500008        -3.47994865E-05
   24.0000000        -5.52777783E-05
   24.0499992        -3.22471205E-05
   24.1000004         1.94962759E-05
   24.1499996         5.32806989E-05
   24.2000008         3.24822176E-05
   24.2500000        -3.43403117E-05
   24.2999992        -9.70259644E-05
   24.3500004        -1.04421757E-04
   24.3999996        -4.79410301E-05
   24.4500008         2.92358873E-05
   24.5000000         6.59664729E-05
   24.5499992         3.25446090E-05
   24.6000004        -4.48200663E-05
   24.6499996        -1.04574588E-04
   24.7000008        -9.87777530E-05
   24.7500000        -3.10469659E-05
   24.7999992         4.66026795E-05
   24.8500004         7.49282262E-05
   24.8999996         3.35761652E-05
   24.9500008        -4.39900687E-05
   25.0000000        -9.76108204E-05
   25.0499992        -8.73641766E-05
   25.1000004        -2.34352610E-05
   25.1499996         4.36080954E-05
   25.2000008         6.32484662E-05
   25.2500000         2.38312459E-05
   25.2999992        -4.02277365E-05
   25.3500004        -7.73297870E-05
   25.3999996        -5.99482410E-05
   25.4500008        -5.50366394E-06
   25.5000000         3.90654204E-05
   25.5499992         3.60652375E-05
   25.6000004        -1.21053654E-05
   25.6499996        -6.44097890E-05
   25.7000008        -7.37138762E-05
   25.7500000        -2.45581286E-05
   25.7999992         5.33360399E-05
   25.8500004         1.06007916E-04
   25.8999996         9.43034174E-05
   25.9500008         2.15765303E-05
   26.0000000        -6.91807363E-05
   26.0499992        -1.24415805E-04
   26.1000004        -1.12867456E-04
   26.1499996        -4.06848012E-05
   26.2000008         5.66028793E-05
   26.2500000         1.34582209E-04
   26.2999992         1.58799274E-04
   26.3500004         1.15713236E-04
   26.3999996         1.78325499E-05
   26.4500008        -9.58621167E-05
   26.5000000        -1.69318897E-04
   26.5499992        -1.54066860E-04
   26.6000004        -4.21441837E-05
   26.6499996         1.15144649E-04
   26.7000008         2.25601834E-04
   26.7500000         2.11319377E-04
   26.7999992         6.75437550E-05
   26.8500004        -1.21290977E-04
   26.8999996        -2.30583188E-04
   26.9500008        -1.82170275E-04
   27.0000000        -5.39828034E-06
   27.0499992         1.78622256E-04
   27.1000004         2.43912989E-04
   27.1499996         1.53725545E-04
   27.2000008        -1.27190697E-05
   27.2500000        -1.24472994E-04
   27.2999992        -1.03835235E-04
   27.3500004         1.35618211E-05
   27.3999996         1.13583519E-04
   27.4500008         1.04226565E-04
   27.5000000        -3.75131481E-06
   27.5499992        -1.06380845E-04
   27.6000004        -9.93541835E-05
   27.6499996         2.57528518E-05
   27.7000008         1.67273538E-04
   27.7500000         1.97264017E-04
   27.7999992         7.37028895E-05
   27.8500004        -1.16105846E-04
   27.8999996        -2.21722847E-04
   27.9500008        -1.52743203E-04
   28.0000000         4.40807053E-05
   28.0499992         2.19713605E-04
   28.1000004         2.41872767E-04
   28.1499996         9.97525203E-05
   28.2000008        -9.13852346E-05
   28.2500000        -1.86909194E-04
   28.2999992        -1.28077707E-04
   28.3500004         1.90391238E-05
   28.3999996         1.28120650E-04
   28.4500008         1.20375880E-04
   28.5000000         2.30581936E-05
   28.5499992        -6.60538790E-05
   28.6000004        -7.01914105E-05
   28.6499996         1.85227179E-06
   28.7000008         7.17933872E-05
   28.7500000         6.82869068E-05
   28.7999992        -7.98081601E-06
   28.8500004        -8.76345002E-05
   28.8999996        -9.75698567E-05
   28.9500008        -2.66099287E-05
   29.0000000         6.62130842E-05
   29.0499992         1.05065636E-04
   29.1000004         6.23189844E-05
   29.1499996        -2.17873749E-05
   29.2000008        -7.82932184E-05
   29.2500000        -6.89596854E-05
   29.2999992        -1.33304302E-05
   29.3500004         3.61004168E-05
   29.3999996         4.29113861E-05
   29.4500008         1.42727067E-05
   29.5000000        -1.43986226E-05
   29.5499992        -1.78642822E-05
   29.6000004        -4.17053570E-06
   29.6499996        -2.12629857E-06
   29.7000008        -2.83876234E-05
   29.7500000        -6.75180272E-05
   29.7999992        -8.40311550E-05
   29.8500004        -5.43666429E-05
   29.8999996         1.08091990E-05
   29.9500008         7.31081673E-05
   30.0000000         9.44361527E-05
   30.0499992         6.22541556E-05
   30.1000004        -5.68312453E-06
   30.1499996        -7.52688356E-05
   30.2000008        -1.14181661E-04
   30.2500000        -1.03300961E-04
   30.2999992        -4.22454032E-05
   30.3500004         4.68154940E-05
   30.3999996         1.20436314E-04
   30.4500008         1.29613603E-04