  -10.0000000       0.00000000    
  -9.94999981       0.00000000    
  -9.89999962       0.00000000    
  -9.85000038       0.00000000    
  -9.80000019       0.00000000    
  -9.75000000       0.00000000    
  -9.69999981       0.00000000    
  -9.64999962       0.00000000    
  -9.60000038       0.00000000    
  -9.55000019       3.06102821E-24
  -9.50000000      -1.81188463E-22
  -9.44999981      -1.40857670E-21
  -9.39999962      -2.56413610E-21
  -9.35000038       1.09999673E-20
  -9.30000019       6.65666942E-20
  -9.25000000       1.11526914E-19
  -9.19999981      -1.68961437E-19
  -9.14999962      -1.17393431E-18
  -9.10000038      -2.07287925E-18
  -9.05000019       9.23635869E-19
  -9.00000000       1.21770970E-17
  -8.94999981       2.51021638E-17
  -8.89999962       9.48373657E-18
  -8.85000038      -7.16074507E-17
  -8.80000019      -1.89352826E-16
  -8.75000000      -1.72170881E-16
  -8.69999981       2.17663526E-16
  -8.64999962       9.41922237E-16
  -8.60000038       1.32089071E-15
  -8.55000019       2.94260384E-16
  -8.50000000      -2.32354076E-15
  -8.44999981      -4.61080987E-15
  -8.39999962      -3.60695005E-15
  -8.35000038       5.86597792E-16
  -8.30000019       2.05939142E-15
  -8.25000000      -4.57738172E-15
  -8.19999981      -8.86862469E-15
  -8.14999962       2.01779172E-14
  -8.10000038       9.88918284E-14
  -8.05000019       1.58495152E-13
  -8.00000000       2.15044860E-14
  -7.94999981      -4.51012112E-13
  -7.90000010      -1.03508294E-12
  -7.84999990      -9.30703323E-13
  -7.80000019       8.30938779E-13
  -7.75000000       4.14498210E-12
  -7.69999981       6.52369304E-12
  -7.65000010       3.51213047E-12
  -7.59999990      -7.73039271E-12
  -7.55000019      -2.29386492E-11
  -7.50000000      -2.83991719E-11
  -7.44999981      -7.83631233E-12
  -7.40000010       4.10450562E-11
  -7.34999990       9.11697939E-11
  -7.30000019       9.06060921E-11
  -7.25000000      -1.74430934E-12
  -7.19999981      -1.64228658E-10
  -7.15000010      -2.88266189E-10
  -7.09999990      -2.27137850E-10
  -7.05000019       8.38878342E-11
  -7.00000000       5.13233955E-10
  -6.94999981       7.42822415E-10
  -6.90000010       4.63138222E-10
  -6.84999990      -3.37223000E-10
  -6.80000019      -1.21924326E-09
  -6.75000000      -1.48953805E-09
  -6.69999981      -7.14005022E-10
  -6.65000010       8.04974420E-10
  -6.59999990       2.05549888E-09
  -6.55000019       2.00949546E-09
  -6.50000000       5.48974199E-10
  -6.44999981      -1.20698240E-09
  -6.40000010      -1.71238812E-09
  -6.34999990      -5.05133158E-10
  -6.30000019       9.38347067E-10
  -6.25000000       2.26140773E-10
  -6.19999981      -3.34386629E-09
  -6.15000010      -6.79471768E-09
  -6.09999990      -4.71969974E-09
  -6.05000019       5.82014836E-09
  -6.00000000       2.01084536E-08
  -5.94999981       2.57623203E-08
  -5.90000010       1.08233840E-08
  -5.84999990      -2.39211957E-08
  -5.80000019      -5.84503503E-08
  -5.75000000      -6.20831671E-08
  -5.69999981      -1.61927840E-08
  -5.65000010       6.35787671E-08
  -5.59999990       1.26028510E-07
  -5.55000019       1.13751710E-07
  -5.50000000       9.22795085E-09
  -5.44999981      -1.36196391E-07
  -5.40000010      -2.21254879E-07
  -5.34999990      -1.61483186E-07
  -5.30000019       3.72369229E-08
  -5.25000000       2.57463597E-07
  -5.19999981       3.33721630E-07
  -5.15000010       1.71675950E-07
  -5.09999990      -1.59653169E-07
  -5.05000019      -4.43712594E-07
  -5.00000000      -4.52635106E-07
  -4.94999981      -1.21708268E-07
  -4.90000010       3.68142395E-07
  -4.84999990       6.82666837E-07
  -4.80000019       5.61078537E-07
  -4.75000000       2.38519480E-08
  -4.69999981      -6.02053944E-07
  -4.65000010      -8.86175428E-07
  -4.59999990      -6.00052886E-07
  -4.55000019       9.60149293E-08
  -4.50000000       7.39954601E-07
  -4.44999981       8.87990780E-07
  -4.40000010       4.42637628E-07
  -4.34999990      -2.62301512E-07
  -4.30000019      -7.01300621E-07
  -4.25000000      -5.54941664E-07
  -4.19999981       3.60889594E-08
  -4.15000010       5.68980624E-07
  -4.09999990       5.70392672E-07
  -4.05000019      -1.48476902E-08
  -4.00000000      -7.50587503E-07
  -3.95000005      -1.02984563E-06
  -3.90000010      -5.54218559E-07
  -3.84999990       4.05537008E-07
  -3.79999995       1.19102276E-06
  -3.75000000       1.25699250E-06
  -3.70000005       6.00502460E-07
  -3.65000010      -2.37442066E-07
  -3.59999990      -6.22107336E-07
  -3.54999995      -3.74280802E-07
  -3.50000000       4.83637308E-08
  -3.45000005      -6.34918464E-08
  -3.40000010      -9.86156465E-07
  -3.34999990      -2.14385227E-06
  -3.29999995      -2.38211919E-06
  -3.25000000      -8.43681391E-07
  -3.20000005       2.16798276E-06
  -3.15000010       5.06010110E-06
  -3.09999990       5.82281564E-06
  -3.04999995       3.42334170E-06
  -3.00000000      -1.24879386E-06
  -2.95000005      -5.67718462E-06
  -2.90000010      -7.23445646E-06
  -2.84999990      -4.97945848E-06
  -2.79999995      -4.50578284E-07
  -2.75000000       3.25978567E-06
  -2.70000005       3.67573784E-06
  -2.65000010       8.76922797E-07
  -2.59999990      -2.30489695E-06
  -2.54999995      -2.23929260E-06
  -2.50000000       2.57304873E-06
  -2.45000005       9.70718793E-06
  -2.40000010       1.37590150E-05
  -2.34999990       9.82552774E-06
  -2.29999995      -2.62697995E-06
  -2.25000000      -1.83045158E-05
  -2.20000005      -2.85113601E-05
  -2.15000010      -2.63332659E-05
  -2.09999990      -1.13143269E-05
  -2.04999995       9.67552751E-06
  -2.00000000       2.63419824E-05
  -1.95000005       3.13121272E-05
  -1.89999998       2.46751060E-05
  -1.85000002       1.34439524E-05
  -1.79999995       6.09670224E-06
  -1.75000000       5.94274888E-06
  -1.70000005       8.18351327E-06
  -1.64999998       3.17040144E-06
  -1.60000002      -1.60267628E-05
  -1.54999995      -4.69728730E-05
  -1.50000000      -7.71513951E-05
  -1.45000005      -9.03124892E-05
  -1.39999998      -7.60641706E-05
  -1.35000002      -3.63543077E-05
  -1.29999995       1.56781844E-05
  -1.25000000       6.39222417E-05
  -1.20000005       9.91634297E-05
  -1.14999998       1.23978796E-04
  -1.10000002       1.49418047E-04
  -1.04999995       1.85910540E-04
  -1.00000000       2.34858322E-04
 -0.949999988       2.86898139E-04
 -0.899999976       3.28132301E-04
 -0.850000024       3.49992508E-04
 -0.800000012       3.55760742E-04
 -0.750000000       3.59008729E-04
 -0.699999988       3.74808762E-04
 -0.649999976       4.09637287E-04
 -0.600000024       4.56896843E-04
 -0.550000012       5.01192466E-04
 -0.500000000       5.28526376E-04
 -0.449999988       5.35567466E-04
 -0.400000006       5.31902071E-04
 -0.349999994       5.34120772E-04
 -0.300000012       5.56229905E-04
 -0.250000000       6.03159366E-04
 -0.200000003       6.71475136E-04
 -0.150000006       7.55794463E-04
 -0.100000001       8.55096441E-04
  -5.00000007E-02   9.73437040E-04
   0.00000000       1.11437647E-03
   5.00000007E-02   1.27399678E-03
  0.100000001       1.43919780E-03
  0.150000006       1.59416872E-03
  0.200000003       1.73113879E-03
  0.250000000       1.85707433E-03
  0.300000012       1.98995625E-03
  0.349999994       2.14594719E-03
  0.400000006       2.32663518E-03
  0.449999988       2.51714676E-03
  0.500000000       2.69892998E-03
  0.550000012       2.86962721E-03
  0.600000024       3.05511756E-03
  0.649999976       3.30191874E-03
  0.699999988       3.65103479E-03
  0.750000000       4.10864456E-03
  0.800000012       4.63422108E-03
  0.850000024       5.15760295E-03
  0.899999976       5.61795523E-03
  0.949999988       6.00160239E-03
   1.00000000       6.35393243E-03
   1.04999995       6.75555225E-03
   1.10000002       7.27569358E-03
   1.14999998       7.93160219E-03
   1.20000005       8.68018158E-03
   1.25000000       9.44819115E-03
   1.29999995       1.01823872E-02
   1.35000002       1.08874729E-02
   1.39999998       1.16269654E-02
   1.45000005       1.24858404E-02
   1.50000000       1.35187414E-02
   1.54999995       1.47171598E-02
   1.60000002       1.60167627E-02
   1.64999998       1.73398107E-02
   1.70000005       1.86447743E-02
   1.75000000       1.99509710E-02
   1.79999995       2.13233698E-02
   1.85000002       2.28295997E-02
   1.89999998       2.44996026E-02
   1.95000005       2.63152476E-02
   2.00000000       2.82352734E-02
   2.04999995       3.02353539E-02
   2.09999990       3.23325247E-02
   2.15000010       3.45752984E-02
   2.20000005       3.70070562E-02
   2.25000000       3.96313369E-02
   2.29999995       4.24075052E-02
   2.34999990       4.52831052E-02
   2.40000010       4.82409559E-02
   2.45000005       5.13255708E-02
   2.50000000       5.46261668E-02
   2.54999995       5.82242496E-02
   2.59999990       6.21406958E-02
   2.65000010       6.63202181E-02
   2.70000005       7.06666186E-02
   2.75000000       7.51073733E-02
   2.79999995       7.96446055E-02
   2.84999990       8.43585655E-02
   2.90000010       8.93613994E-02
   2.95000005       9.47330147E-02
   3.00000000      0.100481436    
   3.04999995      0.106551826    
   3.09999990      0.112874195    
   3.15000010      0.119414352    
   3.20000005      0.126193851    
   3.25000000      0.133269429    
   3.29999995      0.140692294    
   3.34999990      0.148479372    
   3.40000010      0.156617537    
   3.45000005      0.165092856    
   3.50000000      0.173918635    
   3.54999995      0.183136761    
   3.59999990      0.192789242    
   3.65000010      0.202882186    
   3.70000005      0.213372350    
   3.75000000      0.224191383    
   3.79999995      0.235294417    
   3.84999990      0.246700138    
   3.90000010      0.258491546    
   3.95000005      0.270773202    
   4.00000000      0.283610910    
   4.05000019      0.296993285    
   4.09999990      0.310841501    
   4.15000010      0.325061142    
   4.19999981      0.339602292    
   4.25000000      0.354487240    
   4.30000019      0.369789213    
   4.34999990      0.385577977    
   4.40000010      0.401871592    
   4.44999981      0.418627769    
   4.50000000      0.435779333    
   4.55000019      0.453287423    
   4.59999990      0.471171975    
   4.65000010      0.489496708    
   4.69999981      0.508318603    
   4.75000000      0.527637184    
   4.80000019      0.547381103    
   4.84999990      0.567442954    
   4.90000010      0.587738514    
   4.94999981      0.608252764    
   5.00000000      0.629040480    
   5.05000019      0.650182545    
   5.09999990      0.671727598    
   5.15000010      0.693656147    
   5.19999981      0.715889394    
   5.25000000      0.738330543    
   5.30000019      0.760910332    
   5.34999990      0.783605397    
   5.40000010      0.806423008    
   5.44999981      0.829367757    
   5.50000000      0.852418184    
   5.55000019      0.875530720    
   5.59999990      0.898664713    
   5.65000010      0.921804965    
   5.69999981      0.944958866    
   5.75000000      0.968126357    
   5.80000019      0.991263449    
   5.84999990       1.01427114    
   5.90000010       1.03702462    
   5.94999981       1.05942988    
   6.00000000       1.08146930    
   6.05000019       1.10319960    
   6.09999990       1.12469590    
   6.15000010       1.14597487    
   6.19999981       1.16695023    
   6.25000000       1.18745494    
   6.30000019       1.20732224    
   6.34999990       1.22647202    
   6.40000010       1.24494088    
   6.44999981       1.26283145    
   6.50000000       1.28021359    
   6.55000019       1.29704297    
   6.59999990       1.31315911    
   6.65000010       1.32836294    
   6.69999981       1.34252334    
   6.75000000       1.35563672    
   6.80000019       1.36780334    
   6.84999990       1.37913585    
   6.90000010       1.38967061    
   6.94999981       1.39933431    
   7.00000000       1.40798426    
   7.05000019       1.41548133    
   7.09999990       1.42174029    
   7.15000010       1.42673349    
   7.19999981       1.43045878    
   7.25000000       1.43291438    
   7.30000019       1.43410170    
   7.34999990       1.43404508    
   7.40000010       1.43279660    
   7.44999981       1.43040526    
   7.50000000       1.42686617    
   7.55000019       1.42209458    
   7.59999990       1.41595364    
   7.65000010       1.40832829    
   7.69999981       1.39919424    
   7.75000000       1.38863254    
   7.80000019       1.37677407    
   7.84999990       1.36371517    
   7.90000010       1.34946060    
   7.94999981       1.33393860    
   8.00000000       1.31706941    
   8.05000019       1.29883754    
   8.10000038       1.27931297    
   8.14999962       1.25861001    
   8.19999981       1.23681760    
   8.25000000       1.21394968    
   8.30000019       1.18994999    
   8.35000038       1.16474426    
   8.39999962       1.13830113    
   8.44999981       1.11066747    
   8.50000000       1.08196390    
   8.55000019       1.05234647    
   8.60000038       1.02195847    
   8.64999962      0.990890265    
   8.69999981      0.959159434    
   8.75000000      0.926717937    
   8.80000019      0.893488526    
   8.85000038      0.859422088    
   8.89999962      0.824551344    
   8.94999981      0.789012074    
   9.00000000      0.753009975    
   9.05000019      0.716742933    
   9.10000038      0.680322289    
   9.14999962      0.643740654    
   9.19999981      0.606912732    
   9.25000000      0.569766283    
   9.30000019      0.532323420    
   9.35000038      0.494719625    
   9.39999962      0.457146198    
   9.44999981      0.419757843    
   9.50000000      0.382610977    
   9.55000019      0.345675915    
   9.60000038      0.308910906    
   9.64999962      0.272341073    
   9.69999981      0.236081704    
   9.75000000      0.200289294    
   9.80000019      0.165079907    
   9.85000038      0.130479753    
   9.89999962       9.64470580E-02
   9.94999981       6.29473552E-02
   10.0000000       3.00205033E-02
   10.0500002      -2.21597892E-03
   10.1000004      -3.36307436E-02
   10.1499996      -6.41566217E-02
   10.1999998      -9.38156769E-02
   10.2500000     -0.122666523    
   10.3000002     -0.150715470    
   10.3500004     -0.177867725    
   10.3999996     -0.203966901    
   10.4499998     -0.228898421    
   10.5000000     -0.252674550    
   10.5500002     -0.275426209    
   10.6000004     -0.297297567    
   10.6499996     -0.318319857    
   10.6999998     -0.338365436    
   10.7500000     -0.357223213    
   10.8000002     -0.374743223    
   10.8500004     -0.390940219    
   10.8999996     -0.405975908    
   10.9499998     -0.420034379    
   11.0000000     -0.433188200    
   11.0500002     -0.445358127    
   11.1000004     -0.456392050    
   11.1499996     -0.466192871    
   11.1999998     -0.474790365    
   11.2500000     -0.482304990    
   11.3000002     -0.488845289    
   11.3500004     -0.494432509    
   11.3999996     -0.499016136    
   11.4499998     -0.502558172    
   11.5000000     -0.505101681    
   11.5500002     -0.506755054    
   11.6000004     -0.507604539    
   11.6499996     -0.507635832    
   11.6999998     -0.506744862    
   11.7500000     -0.504838705    
   11.8000002     -0.501944065    
   11.8500004     -0.498229295    
   11.8999996     -0.493912131    
   11.9499998     -0.489126205    
   12.0000000     -0.483852178    
   12.0500002     -0.477968067    
   12.1000004     -0.471372038    
   12.1499996     -0.464074284    
   12.1999998     -0.456184804    
   12.2500000     -0.447818637    
   12.3000002     -0.439011067    
   12.3500004     -0.429722786    
   12.3999996     -0.419929117    
   12.4499998     -0.409707993    
   12.5000000     -0.399237245    
   12.5500002     -0.388691634    
   12.6000004     -0.378120065    
   12.6499996     -0.367409855    
   12.6999998     -0.356375903    
   12.7500000     -0.344911695    
   12.8000002     -0.333085865    
   12.8500004     -0.321109593    
   12.8999996     -0.309201747    
   12.9499998     -0.297455221    
   13.0000000     -0.285802811    
   13.0500002     -0.274099797    
   13.1000004     -0.262253225    
   13.1499996     -0.250299752    
   13.1999998     -0.238382667    
   13.2500000     -0.226656988    
   13.3000002     -0.215197653    
   13.3500004     -0.203972429    
   13.3999996     -0.192885712    
   13.4499998     -0.181851521    
   13.5000000     -0.170844764    
   13.5500002     -0.159906939    
   13.6000004     -0.149116948    
   13.6499996     -0.138554260    
   13.6999998     -0.128274903    
   13.7500000     -0.118304402    
   13.8000002     -0.108640909    
   13.8500004      -9.92620289E-02
   13.8999996      -9.01333094E-02
   13.9499998      -8.12193900E-02
   14.0000000      -7.24976510E-02
   14.0500002      -6.39706329E-02
   14.1000004      -5.56711294E-02
   14.1499996      -4.76537757E-02
   14.1999998      -3.99714336E-02
   14.2500000      -3.26442122E-02
   14.3000002      -2.56391410E-02
   14.3500004      -1.88796204E-02
   14.3999996      -1.22891786E-02
   14.4499998      -5.84740331E-03
   14.5000000       3.82107886E-04
   14.5500002       6.28177496E-03
   14.6000004       1.17583228E-02
   14.6499996       1.68174338E-02
   14.6999998       2.15750355E-02
   14.7500000       2.61870176E-02
   14.8000002       3.07429228E-02
   14.8500004       3.52037475E-02
   14.8999996       3.94350030E-02
   14.9499998       4.33117636E-02
   15.0000000       4.68122214E-02
   15.0500002       5.00241295E-02
   15.1000004       5.30612357E-02
   15.1499996       5.59644811E-02
   15.1999998       5.86759932E-02
   15.2500000       6.11087233E-02
   15.3000002       6.32465854E-02
   15.3500004       6.51791170E-02
   15.3999996       6.70319572E-02
   15.4499998       6.88517317E-02
   15.5000000       7.05520734E-02
   15.5500002       7.19787553E-02
   15.6000004       7.30449557E-02
   15.6499996       7.38175586E-02
   15.6999998       7.44708702E-02
   15.7500000       7.51387104E-02
   15.8000002       7.57911429E-02
   15.8500004       7.62496814E-02
   15.8999996       7.63390362E-02
   15.9499998       7.60519505E-02
   16.0000000       7.55832419E-02
   16.0499992       7.51932859E-02
   16.1000004       7.50037506E-02
   16.1499996       7.48895407E-02
   16.2000008       7.45569095E-02
   16.2500000       7.37500042E-02
   16.2999992       7.24284574E-02
   16.3500004       7.07861036E-02
   16.3999996       6.91080540E-02
   16.4500008       6.75825328E-02
   16.5000000       6.62026554E-02
   16.5499992       6.48091137E-02
   16.6000004       6.32160008E-02
   16.6499996       6.13175817E-02
   16.7000008       5.91146573E-02
   16.7500000       5.66742495E-02
   16.7999992       5.40765710E-02
   16.8500004       5.13859801E-02
   16.8999996       4.86417115E-02
   16.9500008       4.58478220E-02
   17.0000000       4.29610237E-02
   17.0499992       3.98985296E-02
   17.1000004       3.65802050E-02
   17.1499996       3.29833552E-02
   17.2000008       2.91636903E-02
   17.2500000       2.52158381E-02
   17.2999992       2.11995617E-02
   17.3500004       1.70931499E-02
   17.3999996       1.28156515E-02
   17.4500008       8.29797331E-03
   17.5000000       3.53743741E-03
   17.5499992      -1.41385337E-03
   17.6000004      -6.51229313E-03
   17.6499996      -1.17724296E-02
   17.7000008      -1.72516182E-02
   17.7500000      -2.29852833E-02
   17.7999992      -2.89421808E-02
   17.8500004      -3.50530818E-02
   17.8999996      -4.12915573E-02
   17.9500008      -4.77249511E-02
   18.0000000      -5.44723459E-02
   18.0499992      -6.15940504E-02
   18.1000004      -6.90130666E-02
   18.1499996      -7.65543059E-02
   18.2000008      -8.40853602E-02
   18.2500000      -9.16431621E-02
   18.2999992      -9.94296744E-02
   18.3500004     -0.107667051    
   18.3999996     -0.116427533    
   18.4500008     -0.125580788    
   18.5000000     -0.134902790    
   18.5499992     -0.144250154    
   18.6000004     -0.153649509    
   18.6499996     -0.163232848    
   18.7000008     -0.173092440    
   18.7500000     -0.183200285    
   18.7999992     -0.193468839    
   18.8500004     -0.203886569    
   18.8999996     -0.214580685    
   18.9500008     -0.225723401    
   19.0000000     -0.237352431    
   19.0499992     -0.249276429    
   19.1000004     -0.261178106    
   19.1499996     -0.272854060    
   19.2000008     -0.284393549    
   19.2500000     -0.296131313    
   19.2999992     -0.308393419    
   19.3500004     -0.321235448    
   19.3999996     -0.334389329    
   19.4500008     -0.347466886    
   19.5000000     -0.360256523    
   19.5499992     -0.372872740    
   19.6000004     -0.385643274    
   19.6499996     -0.398835003    
   19.7000008     -0.412444621    
   19.7500000     -0.426214606    
   19.7999992     -0.439842016    
   19.8500004     -0.453196198    
   19.8999996     -0.466375023    
   19.9500008     -0.479577810    
   20.0000000     -0.492923826    
   20.0499992     -0.506369591    
   20.1000004     -0.519773245    
   20.1499996     -0.533024549    
   20.2000008     -0.546118975    
   20.2500000     -0.559123695    
   20.2999992     -0.572084129    
   20.3500004     -0.584963918    
   20.3999996     -0.597662330    
   20.4500008     -0.610081136    
   20.5000000     -0.622176468    
   20.5499992     -0.633962631    
   20.6000004     -0.645483255    
   20.6499996     -0.656781197    
   20.7000008     -0.667881489    
   20.7500000     -0.678773820    
   20.7999992     -0.689394116    
   20.8500004     -0.699627280    
   20.8999996     -0.709357560    
   20.9500008     -0.718549252    
   21.0000000     -0.727288902    
   21.0499992     -0.735728800    
   21.1000004     -0.743948579    
   21.1499996     -0.751842678    
   21.2000008     -0.759148955    
   21.2500000     -0.765629172    
   21.2999992     -0.771271706    
   21.3500004     -0.776336670    
   21.3999996     -0.781176329    
   21.4500008     -0.785949349    
   21.5000000     -0.790460885    
   21.5499992     -0.794275999    
   21.6000004     -0.797037482    
   21.6499996     -0.798740447    
   21.7000008     -0.799737513    
   21.7500000     -0.800461650    
   21.7999992     -0.801085651    
   21.8500004     -0.801391602    
   21.8999996     -0.800949812    
   21.9500008     -0.799456894    
   22.0000000     -0.796957135    
   22.0499992     -0.793780804    
   22.1000004     -0.790268779    
   22.1499996     -0.786519408    
   22.2000008     -0.782355487    
   22.2500000     -0.777507901    
   22.2999992     -0.771842182    
   22.3500004     -0.765440166    
   22.3999996     -0.758496106    
   22.4500008     -0.751145363    
   22.5000000     -0.743378878    
   22.5499992     -0.735096276    
   22.6000004     -0.726220906    
   22.6499996     -0.716763973    
   22.7000008     -0.706797183    
   22.7500000     -0.696389139    
   22.7999992     -0.685580909    
   22.8500004     -0.674413383    
   22.8999996     -0.662948966    
   22.9500008     -0.651239395    
   23.0000000     -0.639263034    
   23.0499992     -0.626911819    
   23.1000004     -0.614075720    
   23.1499996     -0.600768685    
   23.2000008     -0.587174296    
   23.2500000     -0.573543072    
   23.2999992     -0.560007155    
   23.3500004     -0.546474457    
   23.3999996     -0.532713771    
   23.4500008     -0.518576801    
   23.5000000     -0.504166901    
   23.5499992     -0.489793062    
   23.6000004     -0.475730568    
   23.6499996     -0.461990476    
   23.7000008     -0.448307157    
   23.7500000     -0.434372902    
   23.7999992     -0.420126826    
   23.8500004     -0.405846655    
   23.8999996     -0.391953200    
   23.9500008     -0.378686279    
   24.0000000     -0.365927458    
   24.0499992     -0.353322476    
   24.1000004     -0.340599269    
   24.1499996     -0.327809721    
   24.2000008     -0.315291435    
   24.2500000     -0.303389400    
   24.2999992     -0.292181969    
   24.3500004     -0.281444758    
   24.3999996     -0.270873159    
   24.4500008     -0.260361910    
   24.5000000     -0.250098825    
   24.5499992     -0.240401879    
   24.6000004     -0.231451884    
   24.6499996     -0.223156348    
   24.7000008     -0.215254232    
   24.7500000     -0.207559392    
   24.7999992     -0.200127140    
   24.8500004     -0.193207458    
   24.8999996     -0.187036157    
   24.9500008     -0.181647122    
   25.0000000     -0.176855952    
   25.0499992     -0.172413394    
   25.1000004     -0.168192402    
   25.1499996     -0.164265275    
   25.2000008     -0.160832644    
   25.2500000     -0.158081219    
   25.2999992     -0.156079486    
   25.3500004     -0.154763296    
   25.3999996     -0.153988525    
   25.4500008     -0.153600320    
   25.5000000     -0.153490245    
   25.5499992     -0.153638288    
   25.6000004     -0.154131651    
   25.6499996     -0.155135572    
   25.7000008     -0.156803593    
   25.7500000     -0.159166515    
   25.7999992     -0.162081942    
   25.8500004     -0.165304124    
   25.8999996     -0.168642268    
   25.9500008     -0.172091618    
   26.0000000     -0.175826192    
   26.0499992     -0.180049866    
   26.1000004     -0.184825033    
   26.1499996     -0.190023318    
   26.2000008     -0.195440620    
   26.2500000     -0.200971529    
   26.2999992     -0.206682473    
   26.3500004     -0.212714598    
   26.3999996     -0.219107389    
   26.4500008     -0.225715235    
   26.5000000     -0.232309416    
   26.5499992     -0.238783494    
   26.6000004     -0.245270327    
   26.6499996     -0.252044380    
   26.7000008     -0.259273797    
   26.7500000     -0.266835332    
   26.7999992     -0.274368316    
   26.8500004     -0.281543970    
   26.8999996     -0.288331658    
   26.9500008     -0.295031250    
   27.0000000     -0.302028745    
   27.0499992     -0.309467793    
   27.1000004     -0.317107826    
   27.1499996     -0.324489772    
   27.2000008     -0.331278533    
   27.2500000     -0.337506831    
   27.2999992     -0.343528777    
   27.3500004     -0.349730194    
   27.3999996     -0.356233001    
   27.4500008     -0.362820923    
   27.5000000     -0.369123638    
   27.5499992     -0.374890864    
   27.6000004     -0.380136728    
   27.6499996     -0.385063827    
   27.7000008     -0.389862657    
   27.7500000     -0.394565254    
   27.7999992     -0.399059474    
   27.8500004     -0.403218657    
   27.8999996     -0.407013386    
   27.9500008     -0.410509467    
   28.0000000     -0.413772523    
   28.0499992     -0.416781902    
   28.1000004     -0.419436157    
   28.1499996     -0.421639621    
   28.2000008     -0.423385501    
   28.2500000     -0.424760550    
   28.2999992     -0.425870866    
   28.3500004     -0.426756382    
   28.3999996     -0.427362651    
   28.4500008     -0.427584857    
   28.5000000     -0.427340090    
   28.5499992     -0.426612526    
   28.6000004     -0.425451040    
   28.6499996     -0.423935831    
   28.7000008     -0.422142059    
   28.7500000     -0.420110643    
   28.7999992     -0.417826027    
   28.8500004     -0.415206790    
   28.8999996     -0.412129372    
   28.9500008     -0.408492833    
   29.0000000     -0.404296309    
   29.0499992     -0.399670541    
   29.1000004     -0.394820452    
   29.1499996     -0.389900237    
   29.2000008     -0.384905010    
   29.2500000     -0.379665911    
   29.2999992     -0.373962790    
   29.3500004     -0.367676467    
   29.3999996     -0.360867023    
   29.4500008     -0.353721023    
   29.5000000     -0.346415639    
   29.5499992     -0.339010268    
   29.6000004     -0.331445932    
   29.6499996     -0.323634416    
   29.7000008     -0.315545529    
   29.7500000     -0.307212204    
   29.7999992     -0.298660874    
   29.8500004     -0.289852411    
   29.8999996     -0.280709237    
   29.9500008     -0.271216244    
   30.0000000     -0.261496395    
   30.0499992     -0.251766622    
   30.1000004     -0.242182240    
   30.1499996     -0.232691675    
   30.2000008     -0.223039001    
   30.2500000     -0.212942213    
   30.2999992     -0.202323556    
   30.3500004     -0.191405281    
   30.3999996     -0.180575997    
   30.4500008     -0.170114636    
   30.5000000     -0.159982383    
   30.5499992     -0.149851650    
   30.6000004     -0.139358237    
   30.6499996     -0.128384277    
   30.7000008     -0.117150716    
   30.7500000     -0.106047414    
   30.7999992      -9.53366905E-02
   30.8500004      -8.49653557E-02
   30.8999996      -7.46299103E-02
   30.9500008      -6.40343800E-02
   31.0000000      -5.31281941E-02
   31.0499992      -4.21343669E-02
   31.1000004      -3.13550234E-02
   31.1499996      -2.09230538E-02
   31.2000008      -1.07069742E-02
   31.2500000      -4.42726974E-04
   31.2999992       1.00250747E-02
   31.3500004       2.05994565E-02
   31.3999996       3.10073514E-02
   31.4500008       4.10324857E-02
   31.5000000       5.07095642E-02
   31.5499992       6.03146069E-02
   31.6000004       7.01527223E-02
   31.6499996       8.03100988E-02
   31.7000008       9.05686095E-02
   31.7500000      0.100555047    
   31.7999992      0.110014997    
   31.8500004      0.119005911    
   31.8999996      0.127865821    
   31.9500008      0.136981204    
   32.0000000      0.146521747    
   32.0499992      0.156327963    
   32.0999985      0.166024923    
   32.1500015      0.175277904    
   32.2000008      0.184015706    
   32.2500000      0.192476600    
   32.2999992      0.201052725    
   32.3499985      0.210038036    
   32.4000015      0.219442695    
   32.4500008      0.228992194    
   32.5000000      0.238313109    
   32.5499992      0.247188538    
   32.5999985      0.255715311    
   32.6500015      0.264252007    
   32.7000008      0.273180991    
   32.7500000      0.282640219    
   32.7999992      0.292417407    