  -10.0000000         1.00000002E-24
  -9.94999981         1.00000002E-24
  -9.89999962         1.00000012E-24
  -9.85000038         1.00000022E-24
  -9.80000019         1.00000022E-24
  -9.75000000         1.00000022E-24
  -9.69999981         1.00000012E-24
  -9.64999962         1.00000002E-24
  -9.60000038         1.00000012E-24
  -9.55000019        -1.25638201E-20
  -9.50000000        -1.83405200E-20
  -9.44999981         5.57026992E-19
  -9.39999962         3.75498929E-18
  -9.35000038         1.02154787E-17
  -9.30000019         5.06457336E-18
  -9.25000000        -5.53552575E-17
  -9.19999981        -1.91253488E-16
  -9.14999962        -2.18934843E-16
  -9.10000038         3.81747373E-16
  -9.05000019         1.95330287E-15
  -9.00000000         3.06016211E-15
  -8.94999981        -8.16423771E-16
  -8.89999962        -1.41575027E-14
  -8.85000038        -3.06921914E-14
  -8.80000019        -2.21773114E-14
  -8.75000000         5.07070921E-14
  -8.69999981         1.84138945E-13
  -8.64999962         2.57403690E-13
  -8.60000038         3.92451811E-14
  -8.55000019        -6.07316552E-13
  -8.50000000        -1.35778660E-12
  -8.44999981        -1.24649195E-12
  -8.39999962         7.91578554E-13
  -8.35000038         4.51637642E-12
  -8.30000019         7.05470101E-12
  -8.25000000         3.58369757E-12
  -8.19999981        -8.61462811E-12
  -8.14999962        -2.43818871E-11
  -8.10000038        -2.87503840E-11
  -8.05000019        -5.00859510E-12
  -8.00000000         4.75559002E-11
  -7.94999981         9.83780765E-11
  -7.90000010         9.23940785E-11
  -7.84999990        -1.07267129E-11
  -7.80000019        -1.82592622E-10
  -7.75000000        -3.04297365E-10
  -7.69999981        -2.22653437E-10
  -7.65000010         1.20597393E-10
  -7.59999990         5.70282599E-10
  -7.55000019         7.74863951E-10
  -7.50000000         4.02818751E-10
  -7.44999981        -5.37528577E-10
  -7.40000010        -1.52274404E-09
  -7.34999990        -1.72230386E-09
  -7.30000019        -5.86253324E-10
  -7.25000000         1.54510538E-09
  -7.19999981         3.34792594E-09
  -7.15000010         3.23899241E-09
  -7.09999990         6.08553818E-10
  -7.05000019        -3.31815864E-09
  -7.00000000        -5.86940141E-09
  -6.94999981        -4.66280303E-09
  -6.90000010         3.49276025E-10
  -6.84999990         6.16431617E-09
  -6.80000019         8.35032932E-09
  -6.75000000         4.31375424E-09
  -6.69999981        -4.07412193E-09
  -6.65000010        -1.08764402E-08
  -6.59999990        -9.99190064E-09
  -6.55000019        -2.11599377E-10
  -6.50000000         1.24958497E-08
  -6.44999981         1.80897750E-08
  -6.40000010         9.75224079E-09
  -6.34999990        -9.59209778E-09
  -6.30000019        -2.70794889E-08
  -6.25000000        -2.77680936E-08
  -6.19999981        -6.17690388E-09
  -6.15000010         2.68687508E-08
  -6.09999990         4.86568794E-08
  -6.05000019         3.94244069E-08
  -6.00000000        -1.62574953E-09
  -5.94999981        -5.13261860E-08
  -5.90000010        -7.48495381E-08
  -5.84999990        -4.95503478E-08
  -5.80000019         1.55281299E-08
  -5.75000000         8.02839821E-08
  -5.69999981         9.78287886E-08
  -5.65000010         4.84037059E-08
  -5.59999990        -4.12328909E-08
  -5.55000019        -1.10520844E-07
  -5.50000000        -1.05860963E-07
  -5.44999981        -2.26810268E-08
  -5.40000010         8.39077998E-08
  -5.34999990         1.33671151E-07
  -5.30000019         8.12298566E-08
  -5.25000000        -4.24007673E-08
  -5.19999981        -1.43553038E-07
  -5.15000010        -1.33259221E-07
  -5.09999990        -2.09855333E-09
  -5.05000019         1.58218498E-07
  -5.00000000         2.14081538E-07
  -4.94999981         9.50978318E-08
  -4.90000010        -1.34695057E-07
  -4.84999990        -3.05426369E-07
  -4.80000019        -2.63835005E-07
  -4.75000000        -3.79747433E-09
  -4.69999981         3.02637858E-07
  -4.65000010         4.16578160E-07
  -4.59999990         2.17341807E-07
  -4.55000019        -1.79813853E-07
  -4.50000000        -4.80841948E-07
  -4.44999981        -4.24760685E-07
  -4.40000010        -3.38309908E-10
  -4.34999990         5.07120546E-07
  -4.30000019         6.99455086E-07
  -4.25000000         3.63257897E-07
  -4.19999981        -3.38889578E-07
  -4.15000010        -9.43498947E-07
  -4.09999990        -9.96106564E-07
  -4.05000019        -3.82702638E-07
  -4.00000000         5.60660965E-07
  -3.95000005         1.25089923E-06
  -3.90000010         1.23967050E-06
  -3.84999990         5.10960035E-07
  -3.79999995        -5.06851734E-07
  -3.75000000        -1.21408038E-06
  -3.70000005        -1.20812433E-06
  -3.65000010        -5.12101224E-07
  -3.59999990         4.58267579E-07
  -3.54999995         1.14077727E-06
  -3.50000000         1.13013846E-06
  -3.45000005         3.87018787E-07
  -3.40000010        -7.26704229E-07
  -3.34999990        -1.59390652E-06
  -3.29999995        -1.62804440E-06
  -3.25000000        -6.06956746E-07
  -3.20000005         1.10022791E-06
  -3.15000010         2.59048875E-06
  -3.09999990         2.84727003E-06
  -3.04999995         1.37538461E-06
  -3.00000000        -1.32240075E-06
  -2.95000005        -3.81942391E-06
  -2.90000010        -4.49517120E-06
  -2.84999990        -2.56777980E-06
  -2.79999995         1.23211407E-06
  -2.75000000         4.88374235E-06
  -2.70000005         6.18685317E-06
  -2.65000010         4.12897271E-06
  -2.59999990        -3.72157956E-07
  -2.54999995        -4.88882142E-06
  -2.50000000        -6.86825251E-06
  -2.45000005        -5.15011561E-06
  -2.40000010        -6.83739074E-07
  -2.34999990         3.99335840E-06
  -2.29999995         6.20310584E-06
  -2.25000000         4.65902576E-06
  -2.20000005         2.25752913E-07
  -2.15000010        -4.50156995E-06
  -2.09999990        -6.58255567E-06
  -2.04999995        -4.38516872E-06
  -2.00000000         1.33942979E-06
  -1.95000005         7.58645592E-06
  -1.89999998         1.05242852E-05
  -1.85000002         7.63473145E-06
  -1.79999995        -5.40817041E-07
  -1.75000000        -1.01726073E-05
  -1.70000005        -1.58755047E-05
  -1.64999998        -1.37040588E-05
  -1.60000002        -3.75511013E-06
  -1.54999995         9.32753301E-06
  -1.50000000         1.85671852E-05
  -1.45000005         1.85374502E-05
  -1.39999998         8.67736799E-06
  -1.35000002        -6.04049865E-06
  -1.29999995        -1.76608301E-05
  -1.25000000        -1.96490637E-05
  -1.20000005        -1.06433699E-05
  -1.14999998         4.59166040E-06
  -1.10000002         1.75769419E-05
  -1.04999995         2.06395725E-05
  -1.00000000         1.12043299E-05
 -0.949999988        -6.37185303E-06
 -0.899999976        -2.25223066E-05
 -0.850000024        -2.72175566E-05
 -0.800000012        -1.56494498E-05
 -0.750000000         8.09021367E-06
 -0.699999988         3.18383427E-05
 -0.649999976         4.12027584E-05
 -0.600000024         2.79714823E-05
 -0.550000012        -3.65068195E-06
 -0.500000000        -3.74952142E-05
 -0.449999988        -5.36613770E-05
 -0.400000006        -4.05462561E-05
 -0.349999994        -3.28717329E-06
 -0.300000012         3.76030403E-05
 -0.250000000         5.78217187E-05
 -0.200000003         4.44852885E-05
 -0.150000006         5.09502252E-06
 -0.100000001        -3.62739665E-05
  -5.00000007E-02    -5.38422137E-05
   0.00000000        -3.66755339E-05
   5.00000007E-02     4.05327364E-06
  0.100000001         4.21071381E-05
  0.150000006         5.30286889E-05
  0.200000003         2.97364768E-05
  0.250000000        -1.32195919E-05
  0.300000012        -4.91694118E-05
  0.349999994        -5.60675762E-05
  0.400000006        -2.96912203E-05
  0.449999988         1.45697286E-05
  0.500000000         5.15960237E-05
  0.550000012         6.13663287E-05
  0.600000024         3.97810509E-05
  0.649999976        -2.14640593E-07
  0.699999988        -3.68996771E-05
  0.750000000        -5.20776448E-05
  0.800000012        -4.04364109E-05
  0.850000024        -1.11840500E-05
  0.899999976         1.83999691E-05
  0.949999988         3.34140495E-05
   1.00000000         2.95227728E-05
   1.04999995         1.40178900E-05
   1.10000002        -6.51134258E-07
   1.14999998        -6.17387104E-06
   1.20000005        -3.66691688E-06
   1.25000000        -9.16991098E-07
   1.29999995        -3.86250076E-06
   1.35000002        -9.76574393E-06
   1.39999998        -8.80269818E-06
   1.45000005         6.07715219E-06
   1.50000000         2.92086570E-05
   1.54999995         4.22944977E-05
   1.60000002         2.74617578E-05
   1.64999998        -1.53828114E-05
   1.70000005        -6.18575723E-05
   1.75000000        -7.61678457E-05
   1.79999995        -3.76441749E-05
   1.85000002         3.86483443E-05
   1.89999998         1.05662155E-04
   1.95000005         1.14297000E-04
   2.00000000         5.01694994E-05
   2.04999995        -5.05436437E-05
   2.09999990        -1.21284887E-04
   2.15000010        -1.10159839E-04
   2.20000005        -1.85259960E-05
   2.25000000         9.60467441E-05
   2.29999995         1.56959199E-04
   2.34999990         1.20951518E-04
   2.40000010         8.68267307E-06
   2.45000005        -1.08449662E-04
   2.50000000        -1.56118447E-04
   2.54999995        -1.05952640E-04
   2.59999990         7.79440415E-06
   2.65000010         1.13466514E-04
   2.70000005         1.49606480E-04
   2.75000000         1.02013240E-04
   2.79999995         7.46291971E-06
   2.84999990        -7.41407130E-05
   2.90000010        -9.76361844E-05
   2.95000005        -5.60757617E-05
   3.00000000         2.12805862E-05
   3.04999995         9.01099193E-05
   3.09999990         1.15944851E-04
   3.15000010         8.93517208E-05
   3.20000005         2.66041570E-05
   3.25000000        -4.09064305E-05
   3.29999995        -8.22837392E-05
   3.34999990        -8.10853890E-05
   3.40000010        -4.21498225E-05
   3.45000005         1.21613966E-05
   3.50000000         5.51165213E-05
   3.54999995         7.10084714E-05
   3.59999990         6.29541755E-05
   3.65000010         4.71837120E-05
   3.70000005         3.81140962E-05
   3.75000000         3.62814244E-05
   3.79999995         2.99056719E-05
   3.84999990         9.48998058E-06
   3.90000010        -1.78184073E-05
   3.95000005        -2.92357545E-05
   4.00000000        -5.42634007E-06
   4.05000019         4.69822953E-05
   4.09999990         9.13545227E-05
   4.15000010         8.46137118E-05
   4.19999981         1.41548717E-05
   4.25000000        -8.18361077E-05
   4.30000019        -1.32608431E-04
   4.34999990        -8.47229021E-05
   4.40000010         5.14316380E-05
   4.44999981         1.96895999E-04
   4.50000000         2.51698890E-04
   4.55000019         1.65768346E-04
   4.59999990        -1.80390634E-05
   4.65000010        -1.83912649E-04
   4.69999981        -2.17877838E-04
   4.75000000        -8.75649712E-05
   4.80000019         1.29710534E-04
   4.84999990         2.93373596E-04
   4.90000010         2.91788252E-04
   4.94999981         1.17981879E-04
   5.00000000        -1.22775775E-04
   5.05000019        -2.79660831E-04
   5.09999990        -2.53689563E-04
   5.15000010        -6.09709823E-05
   5.19999981         1.78418617E-04
   5.25000000         3.17812373E-04
   5.30000019         2.76232517E-04
   5.34999990         8.65636248E-05
   5.40000010        -1.28843079E-04
   5.44999981        -2.37137734E-04
   5.50000000        -1.76918766E-04
   5.55000019         7.86740384E-06
   5.59999990         2.00285096E-04
   5.65000010         2.85323185E-04
   5.69999981         2.19156151E-04
   5.75000000         5.06833203E-05
   5.80000019        -1.14728937E-04
   5.84999990        -1.82765900E-04
   5.90000010        -1.26035360E-04
   5.94999981         5.32389731E-06
   6.00000000         1.21246718E-04
   6.05000019         1.50461419E-04
   6.09999990         8.29012279E-05
   6.15000010        -2.88559822E-05
   6.19999981        -1.06558269E-04
   6.25000000        -9.66080479E-05
   6.30000019        -2.56903331E-06
   6.34999990         1.18126598E-04
   6.40000010         1.89846309E-04
   6.44999981         1.64255020E-04
   6.50000000         5.00615570E-05
   6.55000019        -8.99280203E-05
   6.59999990        -1.73558714E-04
   6.65000010        -1.47597413E-04
   6.69999981        -2.27016953E-05
   6.75000000         1.27663501E-04
   6.80000019         2.07458957E-04
   6.84999990         1.57641902E-04
   6.90000010        -1.19692834E-06
   6.94999981        -1.73932262E-04
   7.00000000        -2.46883254E-04
   7.05000019        -1.63391873E-04
   7.09999990         3.14009885E-05
   7.15000010         2.12261526E-04
   7.19999981         2.54289713E-04
   7.25000000         1.20566139E-04
   7.30000019        -1.05518928E-04
   7.34999990        -2.71469675E-04
   7.40000010        -2.59925495E-04
   7.44999981        -7.36396760E-05
   7.50000000         1.61508724E-04
   7.55000019         2.81834888E-04
   7.59999990         2.01052229E-04
   7.65000010        -2.72342659E-05
   7.69999981        -2.46444717E-04
   7.75000000        -3.07603099E-04
   7.80000019        -1.74541827E-04
   7.84999990         5.23751696E-05
   7.90000010         2.09942504E-04
   7.94999981         1.88751612E-04
   8.00000000         8.46151215E-06
   8.05000019        -2.00460519E-04
   8.10000038        -2.91914184E-04
   8.14999962        -2.05911056E-04
   8.19999981        -5.51210724E-06
   8.25000000         1.72569067E-04
   8.30000019         2.13816471E-04
   8.35000038         9.96299714E-05
   8.39999962        -8.85250192E-05
   8.44999981        -2.30029793E-04
   8.50000000        -2.44417723E-04
   8.55000019        -1.36015529E-04
   8.60000038         1.90828305E-05
   8.64999962         1.26915111E-04
   8.69999981         1.31621884E-04
   8.75000000         4.08230044E-05
   8.80000019        -8.75724800E-05
   8.85000038        -1.82140429E-04
   8.89999962        -1.95139539E-04
   8.94999981        -1.23188322E-04
   9.00000000        -5.96045356E-06
   9.05000019         9.36595607E-05
   9.10000038         1.19851880E-04
   9.14999962         5.32924059E-05
   9.19999981        -7.39359602E-05
   9.25000000        -1.89325219E-04
   9.30000019        -2.17293942E-04
   9.35000038        -1.26374682E-04
   9.39999962         4.25234721E-05
   9.44999981         1.90732229E-04
   9.50000000         2.18758229E-04
   9.55000019         9.40747850E-05
   9.60000038        -1.16622556E-04
   9.64999962        -2.80069333E-04
   9.69999981        -2.81007611E-04
   9.75000000        -1.05014929E-04
   9.80000019         1.40843447E-04
   9.85000038         2.92237411E-04
   9.89999962         2.39288027E-04
   9.94999981         8.77399634E-06
   10.0000000        -2.46130861E-04
   10.0500002        -3.48309783E-04
   10.1000004        -2.22242568E-04
   10.1499996         4.88038277E-05
   10.1999998         2.79376924E-04
   10.2500000         3.14201403E-04
   10.3000002         1.39852258E-04
   10.3500004        -1.07971689E-04
   10.3999996        -2.47547810E-04
   10.4499998        -1.86378777E-04
   10.5000000         1.43171765E-05
   10.5500002         1.93676256E-04
   10.6000004         2.18822403E-04
   10.6499996         8.48558775E-05
   10.6999998        -8.95216872E-05
   10.7500000        -1.62421551E-04
   10.8000002        -8.12565268E-05
   10.8500004         8.23875162E-05
   10.8999996         1.98170266E-04
   10.9499998         1.83158729E-04
   11.0000000         6.07737165E-05
   11.0500002        -7.00160308E-05
   11.1000004        -1.20409968E-04
   11.1499996        -7.59585382E-05
   11.1999998         1.01814694E-05
   11.2500000         7.68579994E-05
   11.3000002         1.05441788E-04
   11.3500004         1.16344672E-04
   11.3999996         1.25095772E-04
   11.4499998         1.12482048E-04
   11.5000000         4.62955868E-05
   11.5500002        -6.56000411E-05
   11.6000004        -1.52144974E-04
   11.6499996        -1.25130886E-04
   11.6999998         3.50031405E-05
   11.7500000         2.33847168E-04
   11.8000002         3.15754558E-04
   11.8500004         1.87765880E-04
   11.8999996        -8.59698775E-05
   11.9499998        -3.10489995E-04
   12.0000000        -3.03169596E-04
   12.0500002        -4.55529771E-05
   12.1000004         2.84483773E-04
   12.1499996         4.38744726E-04
   12.1999998         2.90697382E-04
   12.2500000        -5.98521910E-05
   12.3000002        -3.58075631E-04
   12.3500004        -3.88789602E-04
   12.3999996        -1.40470132E-04
   12.4499998         1.91277257E-04
   12.5000000         3.60397302E-04
   12.5500002         2.58591957E-04
   12.6000004        -1.37305442E-05
   12.6499996        -2.41679372E-04
   12.6999998        -2.68804637E-04
   12.7500000        -1.06648404E-04
   12.8000002         9.73082133E-05
   12.8500004         1.90263221E-04
   12.8999996         1.26952422E-04
   12.9499998        -2.05421165E-05
   13.0000000        -1.43711150E-04
   13.0500002        -1.84352568E-04
   13.1000004        -1.54654394E-04
   13.1499996        -9.30527312E-05
   13.1999998        -1.80856587E-05
   13.2500000         6.86907442E-05
   13.3000002         1.43901154E-04
   13.3500004         1.47273779E-04
   13.3999996         2.72045927E-05
   13.4499998        -1.87247526E-04
   13.5000000        -3.67377274E-04
   13.5500002        -3.63225467E-04
   13.6000004        -1.31780107E-04
   13.6499996         1.96138266E-04
   13.6999998         3.87531327E-04
   13.7500000         2.80713546E-04
   13.8000002        -7.41661788E-05
   13.8500004        -4.32032801E-04
   13.8999996        -5.30159043E-04
   13.9499998        -2.92904180E-04
   14.0000000         1.01958940E-04
   14.0500002         3.56128265E-04
   14.1000004         2.82556080E-04
   14.1499996        -4.80640665E-05
   14.1999998        -3.64783395E-04
   14.2500000        -4.12903726E-04
   14.3000002        -1.56325535E-04
   14.3500004         1.95543544E-04
   14.3999996         3.56091070E-04
   14.4499998         1.89399405E-04
   14.5000000        -1.82481963E-04
   14.5500002        -4.74553031E-04
   14.6000004        -4.58450551E-04
   14.6499996        -1.35534079E-04
   14.6999998         2.65906536E-04
   14.7500000         4.61114454E-04
   14.8000002         3.15009966E-04
   14.8500004        -6.67402492E-05
   14.8999996        -4.20345459E-04
   14.9499998        -5.11730090E-04
   15.0000000        -2.92663695E-04
   15.0500002         7.91220955E-05
   15.1000004         3.59007012E-04
   15.1499996         3.82906757E-04
   15.1999998         1.67475519E-04
   15.2500000        -1.18292606E-04
   15.3000002        -2.80939683E-04
   15.3500004        -2.35853397E-04
   15.3999996        -5.37968990E-05
   15.4499998         1.07018852E-04
   15.5000000         1.28684609E-04
   15.5500002         2.36972683E-05
   15.6000004        -8.17803157E-05
   15.6499996        -5.91667813E-05
   15.6999998         1.04940576E-04
   15.7500000         2.83267174E-04
   15.8000002         3.03842797E-04
   15.8500004         9.74796712E-05
   15.8999996        -2.23597744E-04
   15.9499998        -4.30630724E-04
   16.0000000        -3.48443369E-04
   16.0499992        -1.00102829E-06
   16.1000004         3.88517976E-04
   16.1499996         5.54015394E-04
   16.2000008         3.83646053E-04
   16.2500000         4.17306319E-06
   16.2999992        -3.15278303E-04
   16.3500004        -3.64750653E-04
   16.3999996        -1.41846162E-04
   16.4500008         1.65437625E-04
   16.5000000         3.37636535E-04
   16.5499992         2.89008836E-04
   16.6000004         1.08502361E-04
   16.6499996        -4.15234244E-05
   16.7000008        -6.77759526E-05
   16.7500000        -5.21024458E-06
   16.7999992         4.55304398E-05
   16.8500004         2.87800594E-05
   16.8999996        -1.68022270E-05
   16.9500008        -1.14437416E-05
   17.0000000         7.12385372E-05
   17.0499992         1.67707403E-04
   17.1000004         1.84309392E-04
   17.1499996         9.35229691E-05
   17.2000008        -3.15621146E-05
   17.2500000        -8.28788834E-05
   17.2999992        -2.13976637E-05
   17.3500004         8.34987877E-05
   17.3999996         1.21636360E-04
   17.4500008         5.31105725E-05
   17.5000000        -4.78057118E-05
   17.5499992        -6.47410779E-05
   17.6000004         3.88188491E-05
   17.6499996         1.69722145E-04
   17.7000008         1.86322097E-04
   17.7500000         4.14429342E-05
   17.7999992        -1.52169829E-04
   17.8500004        -2.10499595E-04
   17.8999996        -5.21231377E-05
   17.9500008         2.04336771E-04
   18.0000000         3.24971799E-04
   18.0499992         1.68800456E-04
   18.1000004        -1.64628422E-04
   18.1499996        -3.95240728E-04
   18.2000008        -2.97813211E-04
   18.2500000         8.56362967E-05
   18.2999992         4.52610344E-04
   18.3500004         4.80755640E-04
   18.3999996         1.08278757E-04
   18.4500008        -3.89674475E-04
   18.5000000        -6.09598646E-04
   18.5499992        -3.51070659E-04
   18.6000004         2.04576267E-04
   18.6499996         6.25245448E-04
   18.7000008         5.69844618E-04
   18.7500000         6.43856620E-05
   18.7999992        -5.12919039E-04
   18.8500004        -7.25790975E-04
   18.8999996        -4.16635216E-04
   18.9500008         1.79284601E-04
   19.0000000         6.22899388E-04
   19.0499992         6.04666187E-04
   19.1000004         1.61902062E-04
   19.1499996        -3.72706912E-04
   19.2000008        -6.29852409E-04
   19.2500000        -4.62205178E-04
   19.2999992        -2.06077802E-05
   19.3500004         3.80485202E-04
   19.3999996         4.87061625E-04
   19.4500008         2.59030669E-04
   19.5000000        -1.31015462E-04
   19.5499992        -4.25956474E-04
   19.6000004        -4.44596342E-04
   19.6499996        -1.82993244E-04
   19.7000008         1.88793827E-04
   19.7500000         4.27753082E-04
   19.7999992         3.66015418E-04
   19.8500004         2.64307128E-05
   19.8999996        -3.72140348E-04
   19.9500008        -5.45044139E-04
   20.0000000        -3.41228500E-04
   20.0499992         1.25247345E-04
   20.1000004         5.27481083E-04
   20.1499996         5.52606245E-04
   20.2000008         1.48127248E-04
   20.2500000        -4.09801054E-04
   20.2999992        -7.04501057E-04
   20.3500004        -4.97058907E-04
   20.3999996         7.36592920E-05
   20.4500008         5.82202454E-04
   20.5000000         6.42696570E-04
   20.5499992         2.14355066E-04
   20.6000004        -3.64203355E-04
   20.6499996        -6.45880704E-04
   20.7000008        -4.32148750E-04
   20.7500000         7.68672835E-05
   20.7999992         4.60478797E-04
   20.8500004         4.29343141E-04
   20.8999996         5.39115208E-05
   20.9500008        -3.17174970E-04
   21.0000000        -3.67820787E-04
   21.0499992        -8.11570208E-05
   21.1000004         2.63234135E-04
   21.1499996         3.47146270E-04
   21.2000008         9.34167547E-05
   21.2500000        -2.74713966E-04
   21.2999992        -4.36044560E-04
   21.3500004        -2.49652250E-04
   21.3999996         1.32554429E-04
   21.4500008         4.05126513E-04
   21.5000000         3.66277818E-04
   21.5499992         6.99146549E-05
   21.6000004        -2.42927534E-04
   21.6499996        -3.52358358E-04
   21.7000008        -2.20510483E-04
   21.7500000         1.63340428E-05
   21.7999992         1.86217891E-04
   21.8500004         2.11182763E-04
   21.8999996         1.26341882E-04
   21.9500008         7.70925089E-06
   22.0000000        -9.54199422E-05
   22.0499992        -1.61715099E-04
   22.1000004        -1.62930664E-04
   22.1499996        -6.51954324E-05
   22.2000008         1.15615592E-04
   22.2500000         2.72503908E-04
   22.2999992         2.59122433E-04
   22.3500004         2.23507959E-05
   22.3999996        -3.03463923E-04
   22.4500008        -4.59478208E-04
   22.5000000        -2.68563541E-04
   22.5499992         1.81203257E-04
   22.6000004         5.58172760E-04
   22.6499996         5.35316358E-04
   22.7000008         7.63106946E-05
   22.7500000        -4.93297528E-04
   22.7999992        -7.21037854E-04
   22.8500004        -3.95871961E-04
   22.8999996         2.57185719E-04
   22.9500008         7.36278598E-04
   23.0000000         6.61254278E-04
   23.0499992         8.61147782E-05
   23.1000004        -5.38774417E-04
   23.1499996        -7.28955027E-04
   23.2000008        -3.54266667E-04
   23.2500000         2.66854157E-04
   23.2999992         6.38225756E-04
   23.3500004         4.88790742E-04
   23.3999996        -2.62813792E-05
   23.4500008        -4.78430826E-04
   23.5000000        -5.25250391E-04
   23.5499992        -1.70556683E-04
   23.6000004         2.75193714E-04
   23.6499996         4.71277832E-04
   23.7000008         3.11200245E-04
   23.7500000        -3.36915800E-05
   23.7999992        -2.92168901E-04
   23.8500004        -3.13187746E-04
   23.8999996        -1.45556551E-04
   23.9500008         5.40219953E-05
   24.0000000         1.66136611E-04
   24.0499992         1.72775981E-04
   24.1000004         1.14533221E-04
   24.1499996         2.29985399E-05
   24.2000008        -8.85410991E-05
   24.2500000        -1.83391763E-04
   24.2999992        -1.87464160E-04
   24.3500004        -5.03376723E-05
   24.3999996         1.71390478E-04
   24.4500008         3.14344681E-04
   24.5000000         2.30856866E-04
   24.5499992        -5.94351804E-05
   24.6000004        -3.41997627E-04
   24.6499996        -3.64613457E-04
   24.7000008        -6.49161084E-05
   24.7500000         3.38389887E-04
   24.7999992         5.00461087E-04
   24.8500004         2.43734961E-04
   24.8999996        -2.61828885E-04
   24.9500008        -6.08885719E-04
   25.0000000        -4.84578777E-04
   25.0499992         5.02815201E-05
   25.1000004         5.84060850E-04
   25.1499996         6.79389574E-04
   25.2000008         2.37468426E-04
   25.2500000        -4.06954612E-04
   25.2999992        -7.48201332E-04
   25.3500004        -5.17057953E-04
   25.3999996         1.03476581E-04
   25.4500008         6.29923074E-04
   25.5000000         6.67176966E-04
   25.5499992         2.13072140E-04
   25.6000004        -3.61489569E-04
   25.6499996        -6.22218184E-04
   25.7000008        -4.06019069E-04
   25.7500000         8.30972494E-05
   25.7999992         4.66684985E-04
   25.8500004         4.90784994E-04
   25.8999996         1.89503655E-04
   25.9500008        -1.88060440E-04
   26.0000000        -3.90114234E-04
   26.0499992        -3.29544186E-04
   26.1000004        -9.76097072E-05
   26.1499996         1.41789191E-04
   26.2000008         2.65419163E-04
   26.2500000         2.35609637E-04
   26.2999992         8.52705853E-05
   26.3500004        -1.08630396E-04
   26.3999996        -2.44464434E-04
   26.4500008        -2.30905454E-04
   26.5000000        -4.91156061E-05
   26.5499992         2.00829949E-04
   26.6000004         3.37070145E-04
   26.6499996         2.26255535E-04
   26.7000008        -8.46749390E-05
   26.7500000        -3.65060288E-04
   26.7999992        -3.66560562E-04
   26.8500004        -4.30480068E-05
   26.8999996         3.70618945E-04
   26.9500008         5.21628477E-04
   27.0000000         2.36087930E-04
   27.0499992        -2.99920386E-04
   27.1000004        -6.55432581E-04
   27.1499996        -5.01401024E-04
   27.2000008         9.12437899E-05
   27.2500000         6.69884146E-04
   27.2999992         7.49763858E-04
   27.3500004         2.21530630E-04
   27.3999996        -5.28006756E-04
   27.4500008        -9.03675100E-04
   27.5000000        -5.79718151E-04
   27.5499992         2.21977418E-04
   27.6000004         8.90479307E-04
   27.6499996         9.03168926E-04
   27.7000008         2.39874294E-04
   27.7500000        -5.99659572E-04
   27.7999992        -9.86820203E-04
   27.8500004        -6.48078974E-04
   27.8999996         1.39576645E-04
   27.9500008         7.82028132E-04
   28.0000000         8.28524353E-04
   28.0499992         2.93560908E-04
   28.1000004        -3.92878341E-04
   28.1499996        -7.36500602E-04
   28.2000008        -5.39892935E-04
   28.2500000        -6.91024707E-06
   28.2999992         4.53028333E-04
   28.3500004         5.37795888E-04
   28.3999996         2.42976850E-04
   28.4500008        -1.81936761E-04
   28.5000000        -4.38618910E-04
   28.5499992        -3.78883822E-04
   28.6000004        -7.24940473E-05
   28.6499996         2.67534371E-04
   28.7000008         4.26885730E-04
   28.7500000         3.10495117E-04
   28.7999992        -1.11322161E-05
   28.8500004        -3.41770123E-04
   28.8999996        -4.67979873E-04
   28.9500008        -2.90204363E-04
   29.0000000         9.59349345E-05
   29.0499992         4.36032860E-04
   29.1000004         4.76132991E-04
   29.1499996         1.53402245E-04
   29.2000008        -3.26107081E-04
   29.2500000        -6.09446899E-04
   29.2999992        -4.55930916E-04
   29.3500004         5.73488833E-05
   29.3999996         5.61406428E-04
   29.4500008         6.61444094E-04
   29.5000000         2.50782148E-04
   29.5499992        -3.81346792E-04
   29.6000004        -7.54604640E-04
   29.6499996        -5.70068776E-04
   29.7000008         4.36587870E-05
   29.7500000         6.17849932E-04
   29.7999992         7.07075233E-04
   29.8500004         2.42668160E-04
   29.8999996        -4.09789413E-04
   29.9500008        -7.39397248E-04
   30.0000000        -4.94759239E-04
   30.0499992         1.20374629E-04
   30.1000004         6.15611090E-04
   30.1499996         6.06540067E-04
   30.2000008         1.14080955E-04
   30.2500000        -4.64385230E-04
   30.2999992        -6.78326760E-04
   30.3500004        -3.75819451E-04
   30.3999996         1.92896143E-04
   30.4500008         5.87572285E-04