  -10.0000000         7.14206820E-30
  -9.94999981         7.14206820E-30
  -9.89999962         1.14935294E-29
  -9.85000038         8.17897459E-30
  -9.80000019        -5.68153810E-30
  -9.75000000        -1.85577689E-29
  -9.69999981        -1.94473831E-29
  -9.64999962        -2.66387979E-29
  -9.60000038         3.12241352E-25
  -9.55000019        -1.05135260E-24
  -9.50000000         1.71273677E-23
  -9.44999981         1.53228582E-22
  -9.39999962         2.27257271E-22
  -9.35000038        -9.89572666E-22
  -9.30000019        -3.13450965E-21
  -9.25000000         4.57881547E-21
  -9.19999981         3.58636692E-20
  -9.14999962         4.34080766E-20
  -9.10000038        -1.28927123E-19
  -9.05000019        -4.93787328E-19
  -9.00000000        -3.26497261E-19
  -8.94999981         1.64664528E-18
  -8.89999962         4.60309385E-18
  -8.85000038         2.33496357E-18
  -8.80000019        -1.24557510E-17
  -8.75000000        -3.09845082E-17
  -8.69999981        -1.66619669E-17
  -8.64999962         6.11434373E-17
  -8.60000038         1.47689048E-16
  -8.55000019         8.79487015E-17
  -8.50000000        -1.84979859E-16
  -8.44999981        -3.80309349E-16
  -8.39999962        -1.94300722E-17
  -8.35000038         6.37971134E-16
  -8.30000019        -6.93852333E-17
  -8.25000000        -3.38592633E-15
  -8.19999981        -5.63310368E-15
  -8.14999962         3.08448636E-15
  -8.10000038         2.76058896E-14
  -8.05000019         4.56415775E-14
  -8.00000000         2.81094173E-15
  -7.94999981        -1.35098367E-13
  -7.90000010        -2.79087409E-13
  -7.84999990        -1.74125728E-13
  -7.80000019         4.15920065E-13
  -7.75000000         1.28234814E-12
  -7.69999981         1.47160225E-12
  -7.65000010        -2.50096059E-13
  -7.59999990        -3.92059128E-12
  -7.55000019        -6.86555066E-12
  -7.50000000        -4.26406740E-12
  -7.44999981         6.72510702E-12
  -7.40000010         2.11443085E-11
  -7.34999990         2.46868966E-11
  -7.30000019         2.45382317E-12
  -7.25000000        -4.35667995E-11
  -7.19999981        -8.20461130E-11
  -7.15000010        -6.38622905E-11
  -7.09999990         3.69188881E-11
  -7.05000019         1.77291723E-10
  -7.00000000         2.42406623E-10
  -6.94999981         1.17425097E-10
  -6.90000010        -1.95571365E-10
  -6.84999990        -5.11861331E-10
  -6.80000019        -5.46014511E-10
  -6.75000000        -1.34310882E-10
  -6.69999981         5.59080227E-10
  -6.65000010         1.06476772E-09
  -6.59999990         9.28173538E-10
  -6.55000019         1.15619438E-10
  -6.50000000        -8.73513817E-10
  -6.44999981        -1.38880507E-09
  -6.40000010        -1.22797839E-09
  -6.34999990        -8.23198565E-10
  -6.30000019        -6.37323805E-10
  -6.25000000        -2.48488147E-10
  -6.19999981         1.68502501E-09
  -6.15000010         5.81115511E-09
  -6.09999990         9.79260140E-09
  -6.05000019         8.02583155E-09
  -6.00000000        -4.40692105E-09
  -5.94999981        -2.48984442E-08
  -5.90000010        -3.94552373E-08
  -5.84999990        -2.85487847E-08
  -5.80000019         1.66889880E-08
  -5.75000000         7.80076022E-08
  -5.69999981         1.10025837E-07
  -5.65000010         6.66482194E-08
  -5.59999990        -5.66622376E-08
  -5.55000019        -1.96411676E-07
  -5.50000000        -2.43192659E-07
  -5.44999981        -1.15616096E-07
  -5.40000010         1.56988051E-07
  -5.34999990         4.12998133E-07
  -5.30000019         4.42188622E-07
  -5.25000000         1.42763994E-07
  -5.19999981        -3.56802985E-07
  -5.15000010        -7.27910560E-07
  -5.09999990        -6.48735124E-07
  -5.05000019        -6.80756074E-08
  -5.00000000         6.80104051E-07
  -4.94999981         1.05102231E-06
  -4.90000010         6.83992425E-07
  -4.84999990        -2.58789839E-07
  -4.80000019        -1.11219651E-06
  -4.75000000        -1.15903913E-06
  -4.69999981        -2.29338951E-07
  -4.65000010         1.03508626E-06
  -4.59999990         1.56280669E-06
  -4.55000019         7.04516140E-07
  -4.50000000        -1.08147105E-06
  -4.44999981        -2.36052892E-06
  -4.40000010        -1.76364131E-06
  -4.34999990         7.49802439E-07
  -4.30000019         3.47477885E-06
  -4.25000000         3.98831389E-06
  -4.19999981         1.10466533E-06
  -4.15000010        -3.71225929E-06
  -4.09999990        -6.86395560E-06
  -4.05000019        -5.13209898E-06
  -4.00000000         1.44496266E-06
  -3.95000005         8.70507756E-06
  -3.90000010         1.07641081E-05
  -3.84999990         4.49184245E-06
  -3.79999995        -7.17100465E-06
  -3.75000000        -1.60975560E-05
  -3.70000005        -1.43364150E-05
  -3.65000010        -6.03306717E-07
  -3.59999990         1.71172396E-05
  -3.54999995         2.58177133E-05
  -3.50000000         1.66286627E-05
  -3.45000005        -7.36386164E-06
  -3.40000010        -3.10747273E-05
  -3.34999990        -3.66740496E-05
  -3.29999995        -1.66546251E-05
  -3.25000000         1.87098831E-05
  -3.20000005         4.61813324E-05
  -3.15000010         4.49215040E-05
  -3.09999990         1.23056998E-05
  -3.04999995        -3.17520353E-05
  -3.00000000        -5.68152864E-05
  -2.95000005        -4.33286259E-05
  -2.90000010         1.62364188E-06
  -2.84999990         4.68556427E-05
  -2.79999995         5.81856475E-05
  -2.75000000         2.42187416E-05
  -2.70000005        -3.23713830E-05
  -2.65000010        -6.84780389E-05
  -2.59999990        -5.16896544E-05
  -2.54999995         1.28812881E-05
  -2.50000000         8.13106308E-05
  -2.45000005         9.94606380E-05
  -2.40000010         4.34532085E-05
  -2.34999990        -5.74102414E-05
  -2.29999995        -1.35130860E-04
  -2.25000000        -1.28846499E-04
  -2.20000005        -3.14081917E-05
  -2.15000010         9.83441059E-05
  -2.09999990         1.71131396E-04
  -2.04999995         1.29761524E-04
  -2.00000000        -5.03902447E-06
  -1.95000005        -1.41805329E-04
  -1.89999998        -1.79235241E-04
  -1.85000002        -8.11470381E-05
  -1.79999995         8.93927572E-05
  -1.75000000         2.07208737E-04
  -1.70000005         1.73489927E-04
  -1.64999998        -5.59427417E-06
  -1.60000002        -2.11075123E-04
  -1.54999995        -2.88512005E-04
  -1.50000000        -1.61677584E-04
  -1.45000005         9.98102332E-05
  -1.39999998         3.16163671E-04
  -1.35000002         3.21672793E-04
  -1.29999995         9.31596660E-05
  -1.25000000        -2.15432578E-04
  -1.20000005        -3.70690541E-04
  -1.14999998        -2.31344064E-04
  -1.10000002         1.28716347E-04
  -1.04999995         4.47223545E-04
  -1.00000000         4.49870597E-04
 -0.949999988         6.17310725E-05
 -0.899999976        -5.02333045E-04
 -0.850000024        -8.52940197E-04
 -0.800000012        -6.87807216E-04
 -0.750000000        -2.39698766E-05
 -0.699999988         7.73398380E-04
 -0.649999976         1.20822224E-03
 -0.600000024         9.83301434E-04
 -0.550000012         2.15062915E-04
 -0.500000000        -6.28653623E-04
 -0.449999988        -1.03946519E-03
 -0.400000006        -8.16349639E-04
 -0.349999994        -1.99998074E-04
 -0.300000012         3.11814278E-04
 -0.250000000         3.40298517E-04
 -0.200000003        -8.48344280E-05
 -0.150000006        -5.47817035E-04
 -0.100000001        -5.76985010E-04
  -5.00000007E-02    -3.64774241E-05
   0.00000000         7.32899236E-04
   5.00000007E-02     1.15943572E-03
  0.100000001         9.06894042E-04
  0.150000006         1.96440000E-04
  0.200000003        -3.06762551E-04
  0.250000000        -1.34428637E-05
  0.300000012         1.03181391E-03
  0.349999994         2.01330986E-03
  0.400000006         1.82206300E-03
  0.449999988        -1.15878320E-04
  0.500000000        -3.24579934E-03
  0.550000012        -6.02458743E-03
  0.600000024        -6.81364536E-03
  0.649999976        -4.98330127E-03
  0.699999988        -1.46075897E-03
  0.750000000         1.73332170E-03
  0.800000012         2.73673586E-03
  0.850000024         1.08350848E-03
  0.899999976        -1.92653050E-03
  0.949999988        -4.02760506E-03
   1.00000000        -3.46164126E-03
   1.04999995        -1.48072198E-04
   1.10000002         4.23856778E-03
   1.14999998         7.32742157E-03
   1.20000005         7.51478644E-03
   1.25000000         4.84758150E-03
   1.29999995         7.89205602E-04
   1.35000002        -2.86016474E-03
   1.39999998        -5.04905777E-03
   1.45000005        -5.81292855E-03
   1.50000000        -5.76085411E-03
   1.54999995        -5.28792758E-03
   1.60000002        -4.25785780E-03
   1.64999998        -2.42529763E-03
   1.70000005        -1.53181012E-04
   1.75000000         1.35592266E-03
   1.79999995         7.30179425E-04
   1.85000002        -2.38965917E-03
   1.89999998        -6.62594754E-03
   1.95000005        -9.37946234E-03
   2.00000000        -8.46393313E-03
   2.04999995        -3.78879113E-03
   2.09999990         2.20033410E-03
   2.15000010         5.83041366E-03
   2.20000005         4.49774601E-03
   2.25000000        -1.61195500E-03
   2.29999995        -9.61139519E-03
   2.34999990        -1.57605316E-02
   2.40000010        -1.77426692E-02
   2.45000005        -1.57462526E-02
   2.50000000        -1.16964662E-02
   2.54999995        -7.45932478E-03
   2.59999990        -3.63668217E-03
   2.65000010         1.61935423E-05
   2.70000005         3.04893334E-03
   2.75000000         3.34644737E-03
   2.79999995        -1.85162737E-03
   2.84999990        -1.32464869E-02
   2.90000010        -2.72362810E-02
   2.95000005        -3.65776271E-02
   3.00000000        -3.45252864E-02
   3.04999995        -2.01253723E-02
   3.09999990        -6.70078094E-04
   3.15000010         1.14262821E-02
   3.20000005         6.30513066E-03
   3.25000000        -1.59075875E-02
   3.29999995        -4.34862971E-02
   3.34999990        -5.95108978E-02
   3.40000010        -5.28833903E-02
   3.45000005        -2.66492795E-02
   3.50000000         2.68659485E-03
   3.54999995         1.53447269E-02
   3.59999990         1.59180560E-03
   3.65000010        -3.10603324E-02
   3.70000005        -6.23958670E-02
   3.75000000        -7.32510835E-02
   3.79999995        -5.90454303E-02
   3.84999990        -3.31577994E-02
   3.90000010        -1.71494298E-02
   3.95000005        -2.45059915E-02
   4.00000000        -4.99162488E-02
   4.05000019        -7.26852119E-02
   4.09999990        -7.26320073E-02
   4.15000010        -4.69993241E-02
   4.19999981        -1.50839398E-02
   4.25000000        -5.61615359E-03
   4.30000019        -3.48530672E-02
   4.34999990        -9.14256871E-02
   4.40000010       -0.140547574    
   4.44999981       -0.146766365    
   4.50000000       -0.100317471    
   4.55000019        -2.77929995E-02
   4.59999990         2.24181730E-02
   4.65000010         1.18881781E-02
   4.69999981        -6.01488873E-02
   4.75000000       -0.153190747    
   4.80000019       -0.210190460    
   4.84999990       -0.195038691    
   4.90000010       -0.117459364    
   4.94999981        -2.76514608E-02
   5.00000000         1.64129343E-02
   5.05000019        -1.29029397E-02
   5.09999990        -9.54397619E-02
   5.15000010       -0.178285986    
   5.19999981       -0.212503985    
   5.25000000       -0.185600176    
   5.30000019       -0.127180591    
   5.34999990        -8.46835971E-02
   5.40000010        -8.76580104E-02
   5.44999981       -0.127144605    
   5.50000000       -0.165093884    
   5.55000019       -0.166221991    
   5.59999990       -0.127697304    
   5.65000010        -8.32842365E-02
   5.69999981        -7.77918026E-02
   5.75000000       -0.130439818    
   5.80000019       -0.215294033    
   5.84999990       -0.275475353    
   5.90000010       -0.262870103    
   5.94999981       -0.175433084    
   6.00000000        -6.39275759E-02
   6.05000019        -9.41502745E-04
   6.09999990        -3.20346542E-02
   6.15000010       -0.142923906    
   6.19999981       -0.266363710    
   6.25000000       -0.325378031    
   6.30000019       -0.283724874    
   6.34999990       -0.169314116    
   6.40000010        -5.48128337E-02
   6.44999981        -9.17334296E-03
   6.50000000        -5.34771420E-02
   6.55000019       -0.150497645    
   6.59999990       -0.233228505    
   6.65000010       -0.250866890    
   6.69999981       -0.200103760    
   6.75000000       -0.121919937    
   6.80000019        -6.91137388E-02
   6.84999990        -6.94836676E-02
   6.90000010       -0.110297173    
   6.94999981       -0.152123049    
   7.00000000       -0.159265459    
   7.05000019       -0.123628944    
   7.09999990        -6.69825450E-02
   7.15000010        -2.28927620E-02
   7.19999981        -1.41117452E-02
   7.25000000        -4.05006669E-02
   7.30000019        -8.30651969E-02
   7.34999990       -0.116776854    
   7.40000010       -0.122097224    
   7.44999981        -9.01918933E-02
   7.50000000        -2.40066573E-02
   7.55000019         6.04538210E-02
   7.59999990        0.133975655    
   7.65000010        0.161210880    
   7.69999981        0.118671678    
   7.75000000         1.63957719E-02
   7.80000019        -9.37650055E-02
   7.84999990       -0.137531787    
   7.90000010        -6.20069653E-02
   7.94999981        0.121332064    
   8.00000000        0.327599823    
   8.05000019        0.439766020    
   8.10000038        0.382084697    
   8.14999962        0.178833529    
   8.19999981        -4.64270115E-02
   8.25000000       -0.141077995    
   8.30000019        -2.30198484E-02
   8.35000038        0.256113172    
   8.39999962        0.533468664    
   8.44999981        0.636415839    
   8.50000000        0.499485552    
   8.55000019        0.216462910    
   8.60000038        -1.47040170E-02
   8.64999962        -2.27410048E-02
   8.69999981        0.216651157    
   8.75000000        0.556141734    
   8.80000019        0.771293581    
   8.85000038        0.713870823    
   8.89999962        0.419500619    
   8.94999981         9.18946564E-02
   9.00000000        -3.18314508E-02
   9.05000019        0.154790655    
   9.10000038        0.547485948    
   9.14999962        0.894619644    
   9.19999981        0.964782059    
   9.25000000        0.706144512    
   9.30000019        0.286436230    
   9.35000038        -1.59711782E-02
   9.39999962         1.50723627E-03
   9.44999981        0.329811960    
   9.50000000        0.755181372    
   9.55000019         1.00426567    
   9.60000038        0.927078307    
   9.64999962        0.592523158    
   9.69999981        0.233038738    
   9.75000000         8.08655620E-02
   9.80000019        0.212111726    
   9.85000038        0.506092012    
   9.89999962        0.742951453    
   9.94999981        0.764669418    
   10.0000000        0.581613898    
   10.0500002        0.351440161    
   10.1000004        0.251679033    
   10.1499996        0.344240129    
   10.1999998        0.533120513    
   10.2500000        0.644191146    
   10.3000002        0.564462841    
   10.3500004        0.333648771    
   10.3999996        0.117539614    
   10.4499998         8.27069804E-02
   10.5000000        0.266173869    
   10.5500002        0.538988054    
   10.6000004        0.693953156    
   10.6499996        0.595164776    
   10.6999998        0.280740678    
   10.7500000        -5.72161525E-02
   10.8000002       -0.203205734    
   10.8500004        -6.78427070E-02
   10.8999996        0.249262422    
   10.9499998        0.526753485    
   11.0000000        0.571171761    
   11.0500002        0.345160186    
   11.1000004        -1.24873323E-02
   11.1499996       -0.284534335    
   11.1999998       -0.320358217    
   11.2500000       -0.129501015    
   11.3000002        0.135141566    
   11.3500004        0.286323488    
   11.3999996        0.225594714    
   11.4499998        -9.21599742E-04
   11.5000000       -0.245011821    
   11.5500002       -0.361156523    
   11.6000004       -0.300350487    
   11.6499996       -0.133419305    
   11.6999998         4.94295266E-03
   11.7500000         8.58446676E-03
   11.8000002       -0.133378297    
   11.8500004       -0.335638195    
   11.8999996       -0.476781875    
   11.9499998       -0.477989048    
   12.0000000       -0.350129932    
   12.0500002       -0.182681918    
   12.1000004        -8.55400562E-02
   12.1499996       -0.122353256    
   12.1999998       -0.275881588    
   12.2500000       -0.463400066    
   12.3000002       -0.588667870    
   12.3500004       -0.596722960    
   12.3999996       -0.499424428    
   12.4499998       -0.360748827    
   12.5000000       -0.255888104    
   12.5500002       -0.231531188    
   12.6000004       -0.288982213    
   12.6499996       -0.393806010    
   12.6999998       -0.499340206    
   12.7500000       -0.567462385    
   12.8000002       -0.578006446    
   12.8500004       -0.529872894    
   12.8999996       -0.440222800    
   12.9499998       -0.342912167    
   13.0000000       -0.280799896    
   13.0500002       -0.287637442    
   13.1000004       -0.365862548    
   13.1499996       -0.476306617    
   13.1999998       -0.553874433    
   13.2500000       -0.545792043    
   13.3000002       -0.449016511    
   13.3500004       -0.318148345    
   13.3999996       -0.232838660    
   13.4499998       -0.243689895    
   13.5000000       -0.335257322    
   13.5500002       -0.435199291    
   13.6000004       -0.465816796    
   13.6499996       -0.400957197    
   13.6999998       -0.284839332    
   13.7500000       -0.197852924    
   13.8000002       -0.194647849    
   13.8500004       -0.262553275    
   13.8999996       -0.332942069    
   13.9499998       -0.336743951    
   14.0000000       -0.260242194    
   14.0500002       -0.156399190    
   14.1000004       -0.102653980    
   14.1499996       -0.138179183    
   14.1999998       -0.230658501    
   14.2500000       -0.299324661    
   14.3000002       -0.276787907    
   14.3500004       -0.161561221    
   14.3999996        -2.12232582E-02
   14.4499998         5.62130958E-02
   14.5000000         2.55420096E-02
   14.5500002        -8.46450925E-02
   14.6000004       -0.193951949    
   14.6499996       -0.226797029    
   14.6999998       -0.161535040    
   14.7500000        -3.92953306E-02
   14.8000002         6.89609870E-02
   14.8500004        0.109822810    
   14.8999996         7.65291378E-02
   14.9499998         4.60597081E-03
   15.0000000        -5.64131290E-02
   15.0500002        -7.26994947E-02
   15.1000004        -3.99349853E-02
   15.1499996         2.15776730E-02
   15.1999998         8.18378627E-02
   15.2500000        0.115877390    
   15.3000002        0.113204971    
   15.3500004         8.10045972E-02
   15.3999996         4.09340858E-02
   15.4499998         1.90348290E-02
   15.5000000         3.12715806E-02
   15.5500002         7.23164082E-02
   15.6000004        0.116824307    
   15.6499996        0.135673180    
   15.6999998        0.117846474    
   15.7500000         8.10873210E-02
   15.8000002         6.04291111E-02
   15.8500004         8.03223997E-02
   15.8999996        0.131420240    
   15.9499998        0.172747567    
   16.0000000        0.161868215    
   16.0499992         9.19812620E-02
   16.1000004         5.61852334E-03
   16.1499996        -3.06386184E-02
   16.2000008         2.41930075E-02
   16.2500000        0.148186654    
   16.2999992        0.263348073    
   16.3500004        0.287082464    
   16.3999996        0.193397731    
   16.4500008         3.75788063E-02
   16.5000000        -7.78412372E-02
   16.5499992        -7.46903196E-02
   16.6000004         4.32446338E-02
   16.6499996        0.190742105    
   16.7000008        0.261945724    
   16.7500000        0.207797945    
   16.7999992         7.21461326E-02
   16.8500004        -4.15478572E-02
   16.8999996        -4.86305580E-02
   16.9500008         5.26290834E-02
   17.0000000        0.180463105    
   17.0499992        0.233187437    
   17.1000004        0.167823315    
   17.1499996         3.27199958E-02
   17.2000008        -7.09108263E-02
   17.2500000        -6.78998306E-02
   17.2999992         3.37228216E-02
   17.3500004        0.151688427    
   17.3999996        0.195999682    
   17.4500008        0.138960540    
   17.5000000         3.31179835E-02
   17.5499992        -3.52684967E-02
   17.6000004        -1.73982196E-02
   17.6499996         6.09257333E-02
   17.7000008        0.125170186    
   17.7500000        0.117298417    
   17.7999992         4.47615683E-02
   17.8500004        -2.73623671E-02
   17.8999996        -3.32371965E-02
   17.9500008         3.65978442E-02
   18.0000000        0.125973329    
   18.0499992        0.159057707    
   18.1000004        0.102916896    
   18.1499996        -4.92663495E-03
   18.2000008        -8.56354013E-02
   18.2500000        -8.00105035E-02
   18.2999992         7.84510188E-03
   18.3500004        0.116739549    
   18.3999996        0.175759703    
   18.4500008        0.153226331    
   18.5000000         7.13590086E-02
   18.5499992        -1.79943461E-02
   18.6000004        -7.10966885E-02
   18.6499996        -7.34661147E-02
   18.7000008        -3.50479633E-02
   18.7500000         2.63123121E-02
   18.7999992         9.36972052E-02
   18.8500004        0.147821262    
   18.8999996        0.164126545    
   18.9500008        0.123200931    
   19.0000000         3.06860115E-02
   19.0499992        -7.29095340E-02
   19.1000004       -0.128968522    
   19.1499996        -9.83026922E-02
   19.2000008         7.65278609E-03
   19.2500000        0.128869057    
   19.2999992        0.194261983    
   19.3500004        0.168441877    
   19.3999996         7.31256381E-02
   19.4500008        -3.14643905E-02
   19.5000000        -8.89127403E-02
   19.5499992        -7.98969343E-02
   19.6000004        -2.47433372E-02
   19.6499996         3.98766287E-02
   19.7000008         8.66422430E-02
   19.7500000        0.106261857    
   19.7999992         9.94819254E-02
   19.8500004         6.78036734E-02
   19.8999996         1.51310302E-02
   19.9500008        -4.34498265E-02
   20.0000000        -8.05194825E-02
   20.0499992        -7.11352006E-02
   20.1000004        -1.41748553E-02
   20.1499996         5.97278140E-02
   20.2000008        0.105168641    
   20.2500000         9.35319290E-02
   20.2999992         3.42316739E-02
   20.3500004        -3.26843783E-02
   20.3999996        -6.71374872E-02
   20.4500008        -5.79787232E-02
   20.5000000        -2.70714369E-02
   20.5499992        -6.86903112E-03
   20.6000004        -1.23080807E-02
   20.6499996        -3.09514422E-02
   20.7000008        -3.80833149E-02
   20.7500000        -2.13281959E-02
   20.7999992         7.40870601E-03
   20.8500004         2.20848918E-02
   20.8999996         4.25568083E-03
   20.9500008        -4.25788313E-02
   21.0000000        -9.63553861E-02
   21.0499992       -0.131953180    
   21.1000004       -0.135041326    
   21.1499996       -0.106053919    
   21.2000008        -5.67422435E-02
   21.2500000        -6.16804091E-03
   21.2999992         2.23524421E-02
   21.3500004         8.02103616E-03
   21.3999996        -5.44315651E-02
   21.4500008       -0.143249825    
   21.5000000       -0.213464469    
   21.5499992       -0.221497968    
   21.6000004       -0.157287180    
   21.6499996        -5.84581606E-02
   21.7000008         9.90345795E-03
   21.7500000        -2.99137668E-04
   21.7999992        -8.39585364E-02
   21.8500004       -0.184660718    
   21.8999996       -0.235625044    
   21.9500008       -0.208760038    
   22.0000000       -0.133363947    
   22.0499992        -7.03237280E-02
   22.1000004        -6.38766661E-02
   22.1499996       -0.110411279    
   22.2000008       -0.167656094    
   22.2500000       -0.192983121    
   22.2999992       -0.176547140    
   22.3500004       -0.142762393    
   22.3999996       -0.123378314    
   22.4500008       -0.129395083    
   22.5000000       -0.146540880    
   22.5499992       -0.154626429    
   22.6000004       -0.148795009    
   22.6499996       -0.141466424    
   22.7000008       -0.145136505    
   22.7500000       -0.155752704    
   22.7999992       -0.155501604    
   22.8500004       -0.132838190    
   22.8999996        -9.90141332E-02
   22.9500008        -8.21343213E-02
   23.0000000       -0.101760723    
   23.0499992       -0.147300169    
   23.1000004       -0.182128578    
   23.1499996       -0.172277600    
   23.2000008       -0.115598597    
   23.2500000        -4.55533452E-02
   23.2999992        -5.89785678E-03
   23.3500004        -1.77893844E-02
   23.3999996        -6.64367601E-02
   23.4500008       -0.115959957    
   23.5000000       -0.136714011    
   23.5499992       -0.121425651    
   23.6000004        -8.05705637E-02
   23.6499996        -2.81040035E-02
   23.7000008         2.53535490E-02
   23.7500000         6.75666332E-02
   23.7999992         8.01796541E-02
   23.8500004         4.79778573E-02
   23.8999996        -2.17014737E-02
   23.9500008        -8.97981748E-02
   24.0000000       -0.103816487    
   24.0499992        -3.63782234E-02
   24.1000004         8.63941312E-02
   24.1499996        0.195029870    
   24.2000008        0.223710030    
   24.2500000        0.159376755    
   24.2999992         5.27763516E-02
   24.3500004        -1.91039369E-02
   24.3999996        -9.50366072E-03
   24.4500008         6.80655539E-02
   24.5000000        0.158244923    
   24.5499992        0.211350590    
   24.6000004        0.217825204    
   24.6499996        0.202967972    
   24.7000008        0.193280831    
   24.7500000        0.190285206    
   24.7999992        0.176658869    
   24.8500004        0.145068944    
   24.8999996        0.116615318    
   24.9500008        0.126312837    
   25.0000000        0.187448159    
   25.0499992        0.270591468    
   25.1000004        0.321613938    
   25.1499996        0.306226730    
   25.2000008        0.241108030    
   25.2500000        0.181387529    
   25.2999992        0.173701912    
   25.3500004        0.216565117    
   25.3999996        0.264190882    
   25.4500008        0.270411581    
   25.5000000        0.231936470    
   25.5499992        0.190612510    
   25.6000004        0.192551792    
   25.6499996        0.242569670    
   25.7000008        0.297148049    
   25.7500000        0.303288370    
   25.7999992        0.247637928    
   25.8500004        0.170316234    
   25.8999996        0.130367309    
   25.9500008        0.154560715    
   26.0000000        0.215895250    
   26.0499992        0.259927869    
   26.1000004        0.252792478    
   26.1499996        0.206291497    
   26.2000008        0.159419864    
   26.2500000        0.137949005    
   26.2999992        0.133179456    
   26.3500004        0.119553953    
   26.3999996         9.00803357E-02
   26.4500008         6.98746666E-02
   26.5000000         9.04766992E-02
   26.5499992        0.149327040    
   26.6000004        0.198047563    
   26.6499996        0.178176507    
   26.7000008         7.62574002E-02
   26.7500000        -5.35558090E-02
   26.7999992       -0.125925049    
   26.8500004        -9.32110846E-02
   26.8999996         1.24307554E-02
   26.9500008        0.102587700    
   27.0000000        0.103669867    
   27.0499992         1.50838653E-02
   27.1000004        -9.50230435E-02
   27.1499996       -0.150803238    
   27.2000008       -0.131528124    
   27.2500000        -8.18884000E-02
   27.2999992        -6.46827817E-02
   27.3500004       -0.102494672    
   27.3999996       -0.161965743    
   27.4500008       -0.191841900    
   27.5000000       -0.175123274    
   27.5499992       -0.144413248    
   27.6000004       -0.146982357    
   27.6499996       -0.195431709    
   27.7000008       -0.253318042    
   27.7500000       -0.270514816    
   27.7999992       -0.233893692    
   27.8500004       -0.183403969    
   27.8999996       -0.176351711    
   27.9500008       -0.232959166    
   28.0000000       -0.315057606    
   28.0499992       -0.359235734    
   28.1000004       -0.334248215    
   28.1499996       -0.269340545    
   28.2000008       -0.227221638    
   28.2500000       -0.247217119    
   28.2999992       -0.311421037    
   28.3500004       -0.364136100    
   28.3999996       -0.364417404    
   28.4500008       -0.321456343    
   28.5000000       -0.280844837    
   28.5499992       -0.277830362    
   28.6000004       -0.304638743    
   28.6499996       -0.323282450    
   28.7000008       -0.308935523    
   28.7500000       -0.278294772    
   28.7999992       -0.272645742    
   28.8500004       -0.311727732    
   28.8999996       -0.365951151    
   28.9500008       -0.378497243    
   29.0000000       -0.319760501    
   29.0499992       -0.221986800    
   29.1000004       -0.157362923    
   29.1499996       -0.175557256    
   29.2000008       -0.257204890    
   29.2500000       -0.328020483    
   29.2999992       -0.323058277    
   29.3500004       -0.243413761    
   29.3999996       -0.153343365    
   29.4500008       -0.120479845    
   29.5000000       -0.154707730    
   29.5499992       -0.202418774    
   29.6000004       -0.200576514    
   29.6499996       -0.138382107    
   29.7000008        -6.71918690E-02
   29.7500000        -4.89585288E-02
   29.7999992        -9.29689184E-02
   29.8500004       -0.143112436    
   29.8999996       -0.130226970    
   29.9500008        -4.08691838E-02
   30.0000000         6.41873032E-02
   30.0499992        0.102788381    
   30.1000004         4.87493686E-02
   30.1499996        -3.88694555E-02
   30.2000008        -6.51048198E-02
   30.2500000         1.52475657E-02
   30.2999992        0.153619945    
   30.3500004        0.247459888    
   30.3999996        0.230196401    
   30.4500008        0.131184042    