  -10.0000000       0.00000000    
  -9.94999981       0.00000000    
  -9.89999962       0.00000000    
  -9.85000038       0.00000000    
  -9.80000019       0.00000000    
  -9.75000000       0.00000000    
  -9.69999981       0.00000000    
  -9.64999962       0.00000000    
  -9.60000038       0.00000000    
  -9.55000019       0.00000000    
  -9.50000000       0.00000000    
  -9.44999981      -6.74535163E-35
  -9.39999962       6.85078769E-33
  -9.35000038       6.08998644E-32
  -9.30000019       2.39524019E-31
  -9.25000000       8.16435276E-31
  -9.19999981       3.31878844E-30
  -9.14999962       8.43873589E-30
  -9.10000038      -8.47061004E-30
  -9.05000019      -1.35655945E-28
  -9.00000000      -3.86197487E-28
  -8.94999981      -1.18494754E-28
  -8.89999962       2.06697331E-27
  -8.85000038       4.56665107E-27
  -8.80000019      -5.38641506E-27
  -8.75000000      -4.60842680E-26
  -8.69999981      -8.59578896E-26
  -8.64999962       3.62151435E-26
  -8.60000038       4.98974589E-25
  -8.55000019       9.12154441E-25
  -8.50000000      -3.22791159E-25
  -8.44999981      -4.76275363E-24
  -8.39999962      -8.87072984E-24
  -8.35000038       8.95306443E-25
  -8.30000019       3.84322999E-23
  -8.25000000       8.12071591E-23
  -8.19999981       3.32618846E-23
  -8.14999962      -2.19470949E-22
  -8.10000038      -5.78462286E-22
  -8.05000019      -4.68741604E-22
  -8.00000000       9.34798911E-22
  -7.94999981       3.45432724E-21
  -7.90000010       4.19302295E-21
  -7.84999990      -2.03826512E-21
  -7.80000019      -1.69380191E-20
  -7.75000000      -2.89063532E-20
  -7.69999981      -1.04491854E-20
  -7.65000010       6.00972177E-20
  -7.59999990       1.50657197E-19
  -7.55000019       1.42135931E-19
  -7.50000000      -1.10815177E-19
  -7.44999981      -5.82031059E-19
  -7.40000010      -8.56367267E-19
  -7.34999990      -2.10342427E-19
  -7.30000019       1.71217805E-18
  -7.25000000       3.84010534E-18
  -7.19999981       3.30338900E-18
  -7.15000010      -2.79674770E-18
  -7.09999990      -1.32827281E-17
  -7.05000019      -1.93625015E-17
  -7.00000000      -7.28796826E-18
  -6.94999981       2.90439392E-17
  -6.90000010       7.09858278E-17
  -6.84999990       7.11721022E-17
  -6.80000019      -1.74604278E-17
  -6.75000000      -1.81255058E-16
  -6.69999981      -2.97654525E-16
  -6.65000010      -1.72737732E-16
  -6.59999990       2.94532732E-16
  -6.55000019       8.96011039E-16
  -6.50000000       1.05683051E-15
  -6.44999981       1.57213140E-16
  -6.40000010      -1.79104460E-15
  -6.34999990      -3.57673215E-15
  -6.30000019      -3.07981667E-15
  -6.25000000       1.16090492E-15
  -6.19999981       7.77469519E-15
  -6.15000010       1.16878756E-14
  -6.09999990       6.56998691E-15
  -6.05000019      -9.42100368E-15
  -6.00000000      -2.81993802E-14
  -5.94999981      -3.26245920E-14
  -5.90000010      -7.44324866E-15
  -5.84999990       4.37877578E-14
  -5.80000019       8.89633758E-14
  -5.75000000       7.97044722E-14
  -5.69999981      -1.19563351E-14
  -5.65000010      -1.53024091E-13
  -5.59999990      -2.42527894E-13
  -5.55000019      -1.65536150E-13
  -5.50000000       1.07184518E-13
  -5.44999981       4.42117859E-13
  -5.40000010       5.73822023E-13
  -5.34999990       2.73995643E-13
  -5.30000019      -4.23549244E-13
  -5.25000000      -1.11813586E-12
  -5.19999981      -1.21161403E-12
  -5.15000010      -3.32424843E-13
  -5.09999990       1.24100459E-12
  -5.05000019       2.52544188E-12
  -5.00000000       2.35031330E-12
  -4.94999981       2.42556653E-13
  -4.90000010      -2.91660186E-12
  -4.84999990      -5.08659998E-12
  -4.80000019      -4.25320196E-12
  -4.75000000       1.34297167E-14
  -4.69999981       5.73064079E-12
  -4.65000010       9.24613511E-12
  -4.59999990       7.40643658E-12
  -4.55000019      -9.12980358E-14
  -4.50000000      -9.78882947E-12
  -4.44999981      -1.58885492E-11
  -4.40000010      -1.34533149E-11
  -4.34999990      -1.63982012E-12
  -4.30000019       1.49161811E-11
  -4.25000000       2.75076264E-11
  -4.19999981       2.71836512E-11
  -4.15000010       9.63530384E-12
  -4.09999990      -2.07520147E-11
  -4.05000019      -4.99021310E-11
  -4.00000000      -5.82708534E-11
  -3.95000005      -3.09535210E-11
  -3.90000010       2.94715329E-11
  -3.84999990       9.53624055E-11
  -3.79999995       1.21350513E-10
  -3.75000000       7.00495772E-11
  -3.70000005      -5.44131788E-11
  -3.65000010      -1.89080404E-10
  -3.59999990      -2.34655323E-10
  -3.54999995      -1.19098120E-10
  -3.50000000       1.31811312E-10
  -3.45000005       3.73789888E-10
  -3.40000010       4.13041434E-10
  -3.34999990       1.44724108E-10
  -3.29999995      -3.27620459E-10
  -3.25000000      -6.99725722E-10
  -3.20000005      -6.43055664E-10
  -3.15000010      -6.40783468E-11
  -3.09999990       7.40775719E-10
  -3.04999995       1.19916987E-09
  -3.00000000       8.40660763E-10
  -2.95000005      -2.89284457E-10
  -2.90000010      -1.50941726E-09
  -2.84999990      -1.86586036E-09
  -2.79999995      -8.24954605E-10
  -2.75000000       1.17429744E-09
  -2.70000005       2.79853984E-09
  -2.65000010       2.64229305E-09
  -2.59999990       3.33698014E-10
  -2.54999995      -2.88955326E-09
  -2.50000000      -4.73427963E-09
  -2.45000005      -3.38533912E-09
  -2.40000010       9.49009316E-10
  -2.34999990       5.69299896E-09
  -2.29999995       7.31744176E-09
  -2.25000000       3.82413923E-09
  -2.20000005      -3.37378858E-09
  -2.15000010      -9.75169812E-09
  -2.09999990      -1.03946851E-08
  -2.04999995      -3.58710839E-09
  -2.00000000       7.25368388E-09
  -1.95000005       1.50720556E-08
  -1.89999998       1.36427758E-08
  -1.85000002       2.26337238E-09
  -1.79999995      -1.27392772E-08
  -1.75000000      -2.13469793E-08
  -1.70000005      -1.64242113E-08
  -1.64999998       7.05503600E-10
  -1.60000002       1.98685939E-08
  -1.54999995       2.79252497E-08
  -1.50000000       1.76567099E-08
  -1.45000005      -6.26298569E-09
  -1.39999998      -2.88985422E-08
  -1.35000002      -3.41990578E-08
  -1.29999995      -1.61855755E-08
  -1.25000000       1.54958393E-08
  -1.20000005       4.03438385E-08
  -1.14999998       4.00513329E-08
  -1.10000002       1.16468799E-08
  -1.04999995      -2.85479480E-08
  -1.00000000      -5.40397025E-08
 -0.949999988      -4.54614657E-08
 -0.899999976      -4.81204543E-09
 -0.850000024       4.36711254E-08
 -0.800000012       6.79780285E-08
 -0.750000000       4.95229351E-08
 -0.699999988      -3.05133252E-09
 -0.649999976      -5.76275987E-08
 -0.600000024      -7.86398360E-08
 -0.550000012      -5.06673423E-08
 -0.500000000       1.03669047E-08
 -0.449999988       6.66078748E-08
 -0.400000006       8.26080395E-08
 -0.349999994       4.84358189E-08
 -0.300000012      -1.40788927E-08
 -0.250000000      -6.61093367E-08
 -0.200000003      -7.72787914E-08
 -0.150000006      -4.43076971E-08
 -0.100000001       9.31767019E-09
  -5.00000007E-02   5.10517957E-08
   0.00000000       6.07195503E-08
   5.00000007E-02   4.05231333E-08
  0.100000001       8.25897839E-09
  0.150000006      -1.85188220E-08
  0.200000003      -3.36041239E-08
  0.250000000      -4.03254958E-08
  0.300000012      -4.08896561E-08
  0.349999994      -2.92774178E-08
  0.400000006       3.12148196E-09
  0.449999988       5.25880637E-08
  0.500000000       9.36586275E-08
  0.550000012       8.90967797E-08
  0.600000024       1.82802165E-08
  0.649999976      -9.53450296E-08
  0.699999988      -1.83366694E-07
  0.750000000      -1.69248949E-07
  0.800000012      -2.57797961E-08
  0.850000024       1.86395113E-07
  0.899999976       3.35510947E-07
  0.949999988       2.94445101E-07
   1.00000000       3.51670799E-08
   1.04999995      -3.23220434E-07
   1.10000002      -5.60158696E-07
   1.14999998      -4.83370229E-07
   1.20000005      -6.97699818E-08
   1.25000000       4.80033918E-07
   1.29999995       8.31079433E-07
   1.35000002       7.14836176E-07
   1.39999998       1.23767038E-07
   1.45000005      -6.36608377E-07
   1.50000000      -1.10004919E-06
   1.54999995      -9.26428356E-07
   1.60000002      -1.47514243E-07
   1.64999998       8.03476553E-07
   1.70000005       1.32998332E-06
   1.75000000       1.05075276E-06
   1.79999995       7.73805269E-08
   1.85000002      -1.01105240E-06
   1.89999998      -1.51172128E-06
   1.95000005      -1.05693869E-06
   2.00000000       1.14771026E-07
   2.04999995       1.27583996E-06
   2.09999990       1.66393841E-06
   2.15000010       9.86385203E-07
   2.20000005      -3.64655790E-07
   2.25000000      -1.54502391E-06
   2.29999995      -1.79843710E-06
   2.34999990      -9.48290051E-07
   2.40000010       4.88110686E-07
   2.45000005       1.63839309E-06
   2.50000000       1.83484781E-06
   2.54999995       1.01775504E-06
   2.59999990      -2.75771214E-07
   2.65000010      -1.30058493E-06
   2.70000005      -1.57727300E-06
   2.75000000      -1.12477244E-06
   2.79999995      -3.29416338E-07
   2.84999990       3.94710952E-07
   2.90000010       8.63219270E-07
   2.95000005       1.11070415E-06
   3.00000000       1.17790694E-06
   3.04999995       9.46897160E-07
   3.09999990       2.28547179E-07
   3.15000010      -9.40442419E-07
   3.20000005      -2.07465905E-06
   3.25000000      -2.38471671E-06
   3.29999995      -1.31029458E-06
   3.34999990       9.03799105E-07
   3.40000010       3.08599465E-06
   3.45000005       3.72644013E-06
   3.50000000       2.01069838E-06
   3.54999995      -1.39680367E-06
   3.59999990      -4.48632181E-06
   3.65000010      -5.06063043E-06
   3.70000005      -2.26828365E-06
   3.75000000       2.54414408E-06
   3.79999995       6.40346889E-06
   3.84999990       6.52895551E-06
   3.90000010       2.29129842E-06
   3.95000005      -4.05687661E-06
   4.00000000      -8.55399503E-06
   4.05000019      -8.01815622E-06
   4.09999990      -2.27232204E-06
   4.15000010       5.45185321E-06
   4.19999981       1.03679140E-05
   4.25000000       9.16472618E-06
   4.30000019       2.25351710E-06
   4.34999990      -6.31277589E-06
   4.40000010      -1.12975513E-05
   4.44999981      -9.57632801E-06
   4.50000000      -2.13673343E-06
   4.55000019       6.52372228E-06
   4.59999990       1.12129073E-05
   4.65000010       9.24884353E-06
   4.69999981       2.02167757E-06
   4.75000000      -6.00350177E-06
   4.80000019      -1.01102323E-05
   4.84999990      -8.15127623E-06
   4.90000010      -1.66427810E-06
   4.94999981       5.26449458E-06
   5.00000000       8.55108556E-06
   5.05000019       6.48656078E-06
   5.09999990       5.94061135E-07
   5.15000010      -5.40673454E-06
   5.19999981      -7.83672021E-06
   5.25000000      -5.20300227E-06
   5.30000019       9.28500185E-07
   5.34999990       6.82508289E-06
   5.40000010       8.78686023E-06
   5.44999981       5.42843145E-06
   5.50000000      -1.34236359E-06
   5.55000019      -7.38580138E-06
   5.59999990      -8.93868128E-06
   5.65000010      -5.16541149E-06
   5.69999981       1.15286002E-06
   5.75000000       5.50029290E-06
   5.80000019       4.94138249E-06
   5.84999990       4.79233563E-07
   5.90000010      -3.54415442E-06
   5.94999981      -2.88412343E-06
   6.00000000       2.82647943E-06
   6.05000019       9.12512860E-06
   6.09999990       9.88268675E-06
   6.15000010       2.51741767E-06
   6.19999981      -8.94229925E-06
   6.25000000      -1.60237378E-05
   6.30000019      -1.22874098E-05
   6.34999990       6.92234664E-07
   6.40000010       1.31618517E-05
   6.44999981       1.41280543E-05
   6.50000000       7.43326382E-07
   6.55000019      -1.74634824E-05
   6.59999990      -2.42038677E-05
   6.65000010      -9.04305762E-06
   6.69999981       2.22467770E-05
   6.75000000       4.86956560E-05
   6.80000019       4.78482580E-05
   6.84999990       1.32861978E-05
   6.90000010      -3.74320261E-05
   6.94999981      -7.21328106E-05
   7.00000000      -6.58665740E-05
   7.05000019      -1.99309088E-05
   7.09999990       3.67965404E-05
   7.15000010       6.69232541E-05
   7.19999981       5.12841616E-05
   7.25000000       3.60015883E-06
   7.30000019      -3.89132765E-05
   7.34999990      -4.31490553E-05
   7.40000010      -5.66487188E-06
   7.44999981       4.35770926E-05
   7.50000000       6.33712043E-05
   7.55000019       3.32421696E-05
   7.59999990      -2.94029269E-05
   7.65000010      -8.09368139E-05
   7.69999981      -8.38844280E-05
   7.75000000      -3.55404627E-05
   7.80000019       2.97173192E-05
   7.84999990       6.68481080E-05
   7.90000010       5.48967728E-05
   7.94999981       1.24007911E-05
   8.00000000      -1.92926400E-05
   8.05000019      -1.15863741E-05
   8.10000038       2.60060842E-05
   8.14999962       5.27311749E-05
   8.19999981       3.16594196E-05
   8.25000000      -3.53295000E-05
   8.30000019      -1.02843682E-04
   8.35000038      -1.14442497E-04
   8.39999962      -4.86853896E-05
   8.44999981       5.82211724E-05
   8.50000000       1.34330607E-04
   8.55000019       1.24482016E-04
   8.60000038       3.35976583E-05
   8.64999962      -7.39145544E-05
   8.69999981      -1.20965073E-04
   8.75000000      -7.63879798E-05
   8.80000019       2.09439349E-05
   8.85000038       9.23490952E-05
   8.89999962       8.12528669E-05
   8.94999981      -1.39341057E-06
   9.00000000      -8.49036151E-05
   9.05000019      -9.58827513E-05
   9.10000038      -1.95345983E-05
   9.14999962       8.52895246E-05
   9.19999981       1.31223656E-04
   9.25000000       7.34322093E-05
   9.30000019      -5.04666605E-05
   9.35000038      -1.45835511E-04
   9.39999962      -1.34488044E-04
   9.44999981      -1.89666480E-05
   9.50000000       1.14789982E-04
   9.55000019       1.62179611E-04
   9.60000038       8.32307851E-05
   9.64999962      -6.22677035E-05
   9.69999981      -1.58161478E-04
   9.75000000      -1.23616395E-04
   9.80000019       1.89755920E-05
   9.85000038       1.56771654E-04
   9.89999962       1.72979228E-04
   9.94999981       4.18330310E-05
   10.0000000      -1.43416488E-04
   10.0500002      -2.36613079E-04
   10.1000004      -1.52114226E-04
   10.1499996       6.25999746E-05
   10.1999998       2.54762796E-04
   10.2500000       2.78096850E-04
   10.3000002       1.05746032E-04
   10.3500004      -1.44612888E-04
   10.3999996      -2.95779580E-04
   10.4499998      -2.42915048E-04
   10.5000000      -3.24460270E-05
   10.5500002       1.75115201E-04
   10.6000004       2.29822326E-04
   10.6499996       1.07211759E-04
   10.6999998      -7.72643834E-05
   10.7500000      -1.65778445E-04
   10.8000002      -8.81561064E-05
   10.8500004       8.10228739E-05
   10.8999996       1.86544843E-04
   10.9499998       1.26084691E-04
   11.0000000      -5.80589185E-05
   11.0500002      -2.09710037E-04
   11.1000004      -1.90815394E-04
   11.1499996      -5.72223371E-06
   11.1999998       1.90648250E-04
   11.2500000       2.17221517E-04
   11.3000002       2.66285424E-05
   11.3500004      -2.34991356E-04
   11.3999996      -3.32000956E-04
   11.4499998      -1.35472568E-04
   11.5000000       2.46517011E-04
   11.5500002       5.23668074E-04
   11.6000004       4.40163858E-04
   11.6499996      -8.68726875E-06
   11.6999998      -5.36629464E-04
   11.7500000      -7.54455628E-04
   11.8000002      -4.59724310E-04
   11.8500004       1.90807594E-04
   11.8999996       7.68089551E-04
   11.9499998       8.67364113E-04
   12.0000000       4.02258418E-04
   12.0500002      -3.23855988E-04
   12.1000004      -8.28524411E-04
   12.1499996      -7.90840248E-04
   12.1999998      -2.71532277E-04
   12.2500000       3.45918379E-04
   12.3000002       6.43608684E-04
   12.3500004       4.66739584E-04
   12.3999996       1.13617043E-05
   12.4499998      -3.50419024E-04
   12.5000000      -3.61608050E-04
   12.5500002      -6.13852753E-05
   12.6000004       2.73646991E-04
   12.6499996       3.66568216E-04
   12.6999998       1.59019459E-04
   12.7500000      -1.59325995E-04
   12.8000002      -3.22631589E-04
   12.8500004      -2.13652253E-04
   12.8999996       4.38413226E-05
   12.9499998       1.97316345E-04
   13.0000000       8.66179616E-05
   13.0500002      -2.09304679E-04
   13.1000004      -4.23681515E-04
   13.1499996      -3.15817044E-04
   13.1999998       1.19621029E-04
   13.2500000       6.17259473E-04
   13.3000002       8.16949352E-04
   13.3500004       5.27374737E-04
   13.3999996      -1.16754061E-04
   13.4499998      -7.25702615E-04
   13.5000000      -9.11749725E-04
   13.5500002      -5.54872444E-04
   13.6000004       1.09978348E-04
   13.6499996       6.47922396E-04
   13.6999998       7.17187941E-04
   13.7500000       2.98855244E-04
   13.8000002      -2.95687729E-04
   13.8500004      -6.45055436E-04
   13.8999996      -5.12550643E-04
   13.9499998      -8.81288270E-06
   14.0000000       4.92789608E-04
   14.0500002       6.28759561E-04
   14.1000004       3.10479809E-04
   14.1499996      -2.11621591E-04
   14.1999998      -5.35724277E-04
   14.2500000      -4.13056230E-04
   14.3000002       5.72641911E-05
   14.3500004       4.94583393E-04
   14.3999996       5.23844385E-04
   14.4499998       7.21651741E-05
   14.5000000      -5.52634709E-04
   14.5500002      -8.72841920E-04
   14.6000004      -5.94386423E-04
   14.6499996       1.57938703E-04
   14.6999998       9.04195069E-04
   14.7500000       1.13485323E-03
   14.8000002       6.66690816E-04
   14.8500004      -2.25519791E-04
   14.8999996      -9.92514309E-04
   14.9499998      -1.17334281E-03
   15.0000000      -6.82636455E-04
   15.0500002       1.62012977E-04
   15.1000004       8.65499547E-04
   15.1499996       1.06000609E-03
   15.1999998       6.90652290E-04
   15.2500000      -3.33149501E-06
   15.3000002      -6.54658361E-04
   15.3500004      -9.57066950E-04
   15.3999996      -7.84273725E-04
   15.4499998      -2.21345806E-04
   15.5000000       4.72061103E-04
   15.5500002       9.55879863E-04
   15.6000004       9.55297321E-04
   15.6499996       4.18767129E-04
   15.6999998      -4.03147656E-04
   15.7500000      -1.05071987E-03
   15.8000002      -1.11542118E-03
   15.8500004      -5.20848611E-04
   15.8999996       3.84454470E-04
   15.9499998       1.02956977E-03
   16.0000000       1.00832398E-03
   16.0499992       3.74276220E-04
   16.1000004      -3.93264520E-04
   16.1499996      -7.48540158E-04
   16.2000008      -4.94663604E-04
   16.2500000       7.55610745E-05
   16.2999992       4.34755901E-04
   16.3500004       2.70292541E-04
   16.3999996      -2.45834381E-04
   16.4500008      -6.02554472E-04
   16.5000000      -4.00638703E-04
   16.5499992       2.71404104E-04
   16.6000004       8.70615884E-04
   16.6499996       8.40254477E-04
   16.7000008       1.02474805E-04
   16.7500000      -8.21874826E-04
   16.7999992      -1.19687943E-03
   16.8500004      -6.67966262E-04
   16.8999996       4.16082010E-04
   16.9500008       1.23963121E-03
   17.0000000       1.14931492E-03
   17.0499992       1.80747651E-04
   17.1000004      -9.46509652E-04
   17.1499996      -1.37495785E-03
   17.2000008      -7.71975901E-04
   17.2500000       4.11431654E-04
   17.2999992       1.28846441E-03
   17.3500004       1.21441577E-03
   17.3999996       2.64910661E-04
   17.4500008      -8.45720118E-04
   17.5000000      -1.32124254E-03
   17.5499992      -8.70398828E-04
   17.6000004       1.18350377E-04
   17.6499996       9.14787292E-04
   17.7000008       1.00316759E-03
   17.7500000       4.23986960E-04
   17.7999992      -3.26177193E-04
   17.8500004      -7.08427106E-04
   17.8999996      -5.23967203E-04
   17.9500008       7.11422308E-06
   18.0000000       4.74770844E-04
   18.0499992       5.91834018E-04
   18.1000004       3.50442802E-04
   18.1499996      -4.82633841E-05
   18.2000008      -3.75607342E-04
   18.2500000      -5.04252559E-04
   18.2999992      -4.19149379E-04
   18.3500004      -1.68272920E-04
   18.3999996       1.61963369E-04
   18.4500008       4.37132432E-04
   18.5000000       4.97501984E-04
   18.5499992       2.57552165E-04
   18.6000004      -1.78007438E-04
   18.6499996      -5.13663806E-04
   18.7000008      -4.46726364E-04
   18.7500000       6.67476779E-05
   18.7999992       6.90363173E-04
   18.8500004       8.92339624E-04
   18.8999996       3.58146615E-04
   18.9500008      -6.78309181E-04
   19.0000000      -1.49588333E-03
   19.0499992      -1.37499766E-03
   19.1000004      -1.87802740E-04
   19.1499996       1.38297980E-03
   19.2000008       2.23960308E-03
   19.2500000       1.65479560E-03
   19.2999992      -1.24627870E-04
   19.3500004      -1.95302686E-03
   19.3999996      -2.55350908E-03
   19.4500008      -1.44893455E-03
   19.5000000       6.43162231E-04
   19.5499992       2.28476385E-03
   19.6000004       2.34328024E-03
   19.6499996       8.14734551E-04
   19.7000008      -1.17930875E-03
   19.7500000      -2.22676690E-03
   19.7999992      -1.66183524E-03
   19.8500004      -1.83183511E-05
   19.8999996       1.43142533E-03
   19.9500008       1.67247420E-03
   20.0000000       6.92693633E-04
   20.0499992      -5.89759497E-04
   20.1000004      -1.12169317E-03
   20.1499996      -5.67369687E-04
   20.2000008       4.68435406E-04
   20.2500000       9.99769778E-04
   20.2999992       5.12037077E-04
   20.3500004      -6.06091635E-04
   20.3999996      -1.39744382E-03
   20.4500008      -1.14186155E-03
   20.5000000       4.29833381E-05
   20.5499992       1.29295455E-03
   20.6000004       1.68608874E-03
   20.6499996       9.53588460E-04
   20.7000008      -3.50156246E-04
   20.7500000      -1.31419639E-03
   20.7999992      -1.35785539E-03
   20.8500004      -5.90046286E-04
   20.8999996       3.83995008E-04
   20.9500008       9.68629960E-04
   21.0000000       9.52743052E-04
   21.0499992       5.06397104E-04
   21.1000004      -7.87331810E-05
   21.1499996      -5.98330109E-04
   21.2000008      -9.29358532E-04
   21.2500000      -9.27823421E-04
   21.2999992      -4.57584771E-04
   21.3500004       4.06733685E-04
   21.3999996       1.23195664E-03
   21.4500008       1.40474737E-03
   21.5000000       6.14398159E-04
   21.5499992      -7.49755651E-04
   21.6000004      -1.72674749E-03
   21.6499996      -1.47744326E-03
   21.7000008      -3.74993469E-05
   21.7500000       1.55121624E-03
   21.7999992       1.97323505E-03
   21.8500004       7.32693530E-04
   21.8999996      -1.30442018E-03
   21.9500008      -2.47561350E-03
   22.0000000      -1.64857926E-03
   22.0499992       7.46199454E-04
   22.1000004       2.89734965E-03
   22.1499996       2.98091560E-03
   22.2000008       6.72572409E-04
   22.2500000      -2.44868617E-03
   22.2999992      -4.02382948E-03
   22.3500004      -2.74127722E-03
   22.3999996       5.78328792E-04
   22.4500008       3.54310451E-03
   22.5000000       3.99536360E-03
   22.5499992       1.65106857E-03
   22.6000004      -1.71438488E-03
   22.6499996      -3.66182090E-03
   22.7000008      -2.93908734E-03
   22.7500000      -3.32312076E-04
   22.7999992       2.09026528E-03
   22.8500004       2.65099690E-03
   22.8999996       1.27921300E-03
   22.9500008      -6.43731677E-04
   23.0000000      -1.55781698E-03
   23.0499992      -9.83243925E-04
   23.1000004       2.53616425E-04
   23.1499996       9.02725267E-04
   23.2000008       4.26721177E-04
   23.2500000      -6.01014297E-04
   23.2999992      -1.11377938E-03
   23.3500004      -5.63432521E-04
   23.3999996       5.93540724E-04
   23.4500008       1.33586838E-03
   23.5000000       1.00606924E-03
   23.5499992      -1.16799063E-04
   23.6000004      -1.08973682E-03
   23.6499996      -1.14599313E-03
   23.7000008      -3.39834718E-04
   23.7500000       5.57945401E-04
   23.7999992       7.82320043E-04
   23.8500004       2.45286385E-04
   23.8999996      -4.36437665E-04
   23.9500008      -5.52135345E-04
   24.0000000       2.94033598E-05
   24.0499992       7.37950497E-04
   24.1000004       8.34587787E-04
   24.1499996       1.11023401E-04
   24.2000008      -8.79865082E-04
   24.2500000      -1.27977796E-03
   24.2999992      -6.75506890E-04
   24.3500004       5.10682818E-04
   24.3999996       1.33966759E-03
   24.4500008       1.12564524E-03
   24.5000000       1.38270370E-05
   24.5499992      -1.11992564E-03
   24.6000004      -1.36954628E-03
   24.6499996      -5.27560886E-04
   24.7000008       7.48536957E-04
   24.7500000       1.46100658E-03
   24.7999992       1.06019038E-03
   24.8500004      -1.31712528E-04
   24.8999996      -1.18748390E-03
   24.9500008      -1.30649249E-03
   25.0000000      -4.28483734E-04
   25.0499992       7.43402110E-04
   25.1000004       1.30934361E-03
   25.1499996       8.70689866E-04
   25.2000008      -1.84680772E-04
   25.2500000      -1.01540203E-03
   25.2999992      -9.98419593E-04
   25.3500004      -2.05222372E-04
   25.3999996       6.82724814E-04
   25.4500008       9.36497003E-04
   25.5000000       3.65647837E-04
   25.5499992      -5.36574866E-04
   25.6000004      -9.96728893E-04
   25.6499996      -5.86113252E-04
   25.7000008       4.28790954E-04
   25.7500000       1.28311792E-03
   25.7999992       1.29757845E-03
   25.8500004       3.92811169E-04
   25.8999996      -8.53108068E-04
   25.9500008      -1.62581180E-03
   26.0000000      -1.43544888E-03
   26.0499992      -4.07226500E-04
   26.1000004       8.62370536E-04
   26.1499996       1.71150826E-03
   26.2000008       1.76238245E-03
   26.2500000       1.02558709E-03
   26.2999992      -1.92982436E-04
   26.3500004      -1.42425415E-03
   26.3999996      -2.13868869E-03
   26.4500008      -1.89463282E-03
   26.5000000      -5.95144578E-04
   26.5499992       1.27351226E-03
   26.6000004       2.70371605E-03
   26.6499996       2.68689636E-03
   26.7000008       9.58332850E-04
   26.7500000      -1.59853708E-03
   26.7999992      -3.35070910E-03
   26.8500004      -3.00206826E-03
   26.8999996      -6.20691630E-04
   26.9500008       2.24705320E-03
   27.0000000       3.60673992E-03
   27.0499992       2.49687093E-03
   27.1000004      -2.33223516E-04
   27.1499996      -2.53319228E-03
   27.2000008      -2.73656449E-03
   27.2500000      -8.70539574E-04
   27.2999992       1.39645755E-03
   27.3500004       2.15785252E-03
   27.3999996       8.69807263E-04
   27.4500008      -1.20503409E-03
   27.5000000      -2.11053644E-03
   27.5499992      -9.30576061E-04
   27.6000004       1.35748030E-03
   27.6499996       2.68527726E-03
   27.7000008       1.70033460E-03
   27.7500000      -9.77997668E-04
   27.7999992      -3.17906821E-03
   27.8500004      -2.97745387E-03
   27.8999996      -3.58434743E-04
   27.9500008       2.68509286E-03
   28.0000000       3.74779943E-03
   28.0499992       1.98019366E-03
   28.1000004      -1.21846132E-03
   28.1499996      -3.35746142E-03
   28.2000008      -2.87905242E-03
   28.2500000      -3.57721030E-04
   28.2999992       2.08553206E-03
   28.3500004       2.59137806E-03
   28.3999996       1.03383814E-03
   28.4500008      -1.04316825E-03
   28.5000000      -1.86609675E-03
   28.5499992      -9.37658595E-04
   28.6000004       6.73118571E-04
   28.6499996       1.41173310E-03
   28.7000008       6.52457529E-04
   28.7500000      -8.11095757E-04
   28.7999992      -1.56720763E-03
   28.8500004      -8.91418022E-04
   28.8999996       6.28347683E-04
   28.9500008       1.66183815E-03
   29.0000000       1.33339153E-03
   29.0499992      -4.04165876E-05
   29.1000004      -1.28892774E-03
   29.1499996      -1.43525773E-03
   29.2000008      -4.94469248E-04
   29.2500000       6.44186395E-04
   29.2999992       1.06259552E-03
   29.3500004       5.81692439E-04
   29.3999996      -2.05191041E-04
   29.4500008      -5.73960773E-04
   29.5000000      -3.33393138E-04
   29.5499992       8.96220954E-05
   29.6000004       1.55081667E-04
   29.6499996      -2.29641024E-04
   29.7000008      -6.31457020E-04
   29.7500000      -5.35260071E-04
   29.7999992       1.40414166E-04
   29.8500004       9.40264086E-04
   29.8999996       1.25396508E-03
   29.9500008       8.14356550E-04
   30.0000000      -1.18675351E-04
   30.0499992      -9.92261805E-04
   30.1000004      -1.35091890E-03
   30.1499996      -1.05918082E-03
   30.2000008      -2.70225311E-04
   30.2500000       7.03339814E-04
   30.2999992       1.46344188E-03
   30.3500004       1.58617785E-03
   30.3999996       8.07385484E-04
   30.4500008      -6.83993509E-04
   30.5000000      -2.12140847E-03
   30.5499992      -2.49496545E-03
   30.6000004      -1.27262832E-03
   30.6499996       1.01492740E-03
   30.7000008       2.91705364E-03
   30.7500000       3.01706255E-03
   30.7999992       1.05535460E-03
   30.8500004      -1.70680112E-03
   30.8999996      -3.30490549E-03
   30.9500008      -2.53821909E-03
   31.0000000       5.68278192E-05
   31.0499992       2.55526719E-03
   31.1000004       3.10126320E-03
   31.1499996       1.33996457E-03
   31.2000008      -1.32556539E-03
   31.2500000      -2.85866251E-03
   31.2999992      -2.18200195E-03
   31.3500004       3.83820588E-05
   31.3999996       2.01061415E-03
   31.4500008       2.27926625E-03
   31.5000000       8.24305112E-04
   31.5499992      -1.05025864E-03
   31.6000004      -1.85844803E-03
   31.6499996      -1.11314235E-03
   31.7000008       3.95843788E-04
   31.7500000       1.36234029E-03
   31.7999992       1.05858373E-03
   31.8500004      -1.38286705E-04
   31.8999996      -1.14730652E-03
   31.9500008      -1.10554928E-03
   32.0000000      -4.24069513E-05
   32.0499992       1.18918705E-03
   32.0999985       1.60381221E-03
   32.1500015       8.31775542E-04
   32.2000008      -6.17751270E-04
   32.2500000      -1.72712503E-03
   32.2999992      -1.68542203E-03
   32.3499985      -4.59574483E-04
   32.4000015       1.14941970E-03
   32.4500008       2.01459765E-03
   32.5000000       1.45481678E-03
   32.5499992      -2.29702491E-04
   32.5999985      -1.86663296E-03
   32.6500015      -2.18707253E-03
   32.7000008      -7.92974548E-04
   32.7500000       1.40769372E-03
   32.7999992       2.74259923E-03