 -2.5000000E-02    7.6406900E-30
 -2.2500001E-02    9.5110437E-29
 -2.0000000E-02    1.0143051E-23
 -1.7500000E-02    1.4052382E-20
 -1.5000000E-02    1.4877110E-20
 -1.2500000E-02    8.8514142E-17
 -9.9999998E-03    2.7405571E-16
 -7.4999998E-03   -1.3513287E-14
 -4.9999999E-03   -3.9981602E-14
 -2.4999999E-03   -4.9193000E-14
  0.0000000E+00   -8.5643535E-15
  2.4999999E-03    8.8206955E-14
  4.9999999E-03    1.6763457E-13
  7.4999998E-03    2.0437388E-13
  9.9999998E-03    2.4819239E-13
  1.2500000E-02    2.0270134E-13
  1.5000000E-02    1.0166474E-13
  1.7500000E-02   -3.1702058E-14
  2.0000000E-02   -2.8544127E-13
  2.2500001E-02   -6.0813735E-13
  2.5000000E-02   -7.4650458E-13
  2.7500000E-02   -6.4114512E-13
  2.9999999E-02   -5.2065904E-13
  3.2499999E-02   -2.2336964E-13
  3.5000000E-02    7.9568269E-14
  3.7500001E-02    3.7089090E-13
  3.9999999E-02    9.1193969E-13
  4.2500000E-02    1.2482659E-12
  4.5000002E-02    8.2643430E-13
  4.7499999E-02    1.1584952E-13
  5.0000001E-02   -4.1885920E-13
  5.2499998E-02   -1.2024115E-12
  5.5000000E-02   -1.7529474E-12
  5.7500001E-02   -1.3852123E-12
  5.9999999E-02   -3.4562327E-13
  6.2500000E-02    7.2996649E-13
  6.4999998E-02    1.6068171E-12
  6.7500003E-02    2.0701767E-12
  7.0000000E-02    2.2456956E-12
  7.2499998E-02    2.2446034E-12
  7.5000003E-02    1.6202812E-12
  7.7500001E-02    6.2328945E-13
  7.9999998E-02   -6.9969849E-13
  8.2500003E-02   -2.0276907E-12
  8.5000001E-02   -2.5007303E-12
  8.7499999E-02   -2.0876866E-12
  9.0000004E-02   -1.2474893E-12
  9.2500001E-02   -5.8091905E-13
  9.4999999E-02   -3.6012697E-13
  9.7499996E-02   -3.4326155E-13
  0.1000000       -3.3906311E-13
  0.1025000       -3.4259127E-13
  0.1050000        1.3260530E-13
  0.1075000        8.8037661E-13
  0.1100000        1.2033801E-12
  0.1125000        1.1481821E-12
  0.1150000        8.0392957E-13
  0.1175000        5.0865399E-13
  0.1200000        1.4963811E-13
  0.1225000        1.5214127E-13
  0.1250000       -5.6279851E-14
  0.1275000       -1.0024637E-12
  0.1300000       -1.4186873E-12
  0.1325000       -1.1185461E-12
  0.1350000       -1.6758589E-13
  0.1375000        1.1455091E-12
  0.1400000        1.9049903E-12
  0.1425000        1.3976045E-12
  0.1450000        1.2099474E-13
  0.1475000       -7.3640855E-13
  0.1500000       -7.7920060E-13
  0.1525000       -1.6890298E-13
  0.1550000        1.0449280E-12
  0.1575000        2.3934305E-12
  0.1600000        3.7635021E-12
  0.1625000        3.5573636E-12
  0.1650000        1.4537449E-12
  0.1675000       -9.9328423E-13
  0.1700000       -3.4351771E-12
  0.1725000       -5.9772048E-12
  0.1750000       -7.3152699E-12
  0.1775000       -6.2537510E-12
  0.1800000       -4.2313171E-12
  0.1825000       -1.4581142E-12
  0.1850000        4.8740764E-13
  0.1875000        5.6779635E-13
  0.1900000       -1.5370198E-13
  0.1925000        1.9044553E-14
  0.1950000        2.0447199E-12
  0.1975000        4.2972032E-12
  0.2000000        4.9826280E-12
  0.2025000        4.3216585E-12
  0.2050000        3.1953177E-12
  0.2075000        9.8837800E-13
  0.2100000       -5.4417934E-13
  0.2125000       -1.0654113E-13
  0.2150000        2.0390683E-12
  0.2175000        4.8100820E-12
  0.2200000        6.8122413E-12
  0.2225000        9.0660630E-12
  0.2250000        9.0193061E-12
  0.2275000        5.1151531E-12
  0.2300000       -1.5466623E-12
  0.2325000       -9.4116798E-12
  0.2350000       -1.5863729E-11
  0.2375000       -1.8631964E-11
  0.2400000       -1.6339005E-11
  0.2425000       -1.0735020E-11
  0.2450000       -5.1143157E-12
  0.2475000       -2.5798656E-13
  0.2500000        3.9093537E-12
  0.2525000        6.4227360E-12
  0.2550000        8.1769600E-12
  0.2575000        8.2857679E-12
  0.2600000        6.0139944E-12
  0.2625000        4.2210901E-12
  0.2650000        3.2502341E-12
  0.2675000        2.1174095E-12
  0.2700000        1.6067560E-12
  0.2725000        1.9517272E-12
  0.2750000        2.7324735E-12
  0.2775000        3.4509951E-12
  0.2800000        4.0099855E-12
  0.2825000        2.9743803E-12
  0.2850000       -1.1565102E-12
  0.2875000       -6.0742748E-12
  0.2900000       -9.1842645E-12
  0.2925000       -1.1246289E-11
  0.2950000       -1.1519426E-11
  0.2975000       -9.4558380E-12
  0.3000000       -7.2195167E-12
  0.3025000       -4.0543562E-12
  0.3050000        9.8047005E-14
  0.3075000        3.5095355E-12
  0.3100000        4.8259066E-12
  0.3125000        5.5638619E-12
  0.3150000        6.0570156E-12
  0.3175000        6.6087110E-12
  0.3200000        7.0740861E-12
  0.3225000        5.9302433E-12
  0.3250000        4.1083378E-12
  0.3275000        2.8475239E-12
  0.3300000        2.3717109E-12
  0.3325000        2.1380710E-12
  0.3350000        2.2255693E-12
  0.3375000        3.4733696E-12
  0.3400000        5.9984778E-12
  0.3425000        7.1256503E-12
  0.3450000        7.2094271E-12
  0.3475000        5.3911962E-12
  0.3500000        1.2042745E-12
  0.3525000       -2.7299617E-12
  0.3550000       -6.5274747E-12
  0.3575000       -1.1382882E-11
  0.3600000       -1.6611242E-11
  0.3625000       -1.8959312E-11
  0.3650000       -1.6429405E-11
  0.3675000       -1.0072956E-11
  0.3700000       -1.7466675E-12
  0.3725000        7.5974713E-12
  0.3750000        1.3419060E-11
  0.3775000        1.3816047E-11
  0.3800000        1.2871236E-11
  0.3825000        1.1318954E-11
  0.3850000        9.5293582E-12
  0.3875000        6.1336327E-12
  0.3900000        3.6247047E-14
  0.3925000       -7.5828866E-12
  0.3950000       -1.3027795E-11
  0.3975000       -1.4850600E-11
  0.4000000       -1.2148910E-11
  0.4025000       -6.0131925E-12
  0.4050000       -2.0661207E-13
  0.4075000        5.2906841E-12
  0.4100000        8.1588980E-12
  0.4125000        6.1116546E-12
  0.4150000       -1.6008028E-14
  0.4175000       -6.8236623E-12
  0.4200000       -1.1552461E-11
  0.4225000       -1.2866728E-11
  0.4250000       -9.6890100E-12
  0.4275000       -2.6274811E-12
  0.4300000        5.4673848E-12
  0.4325000        1.1404959E-11
  0.4350000        1.3531816E-11
  0.4375000        1.2341411E-11
  0.4400000        9.2636619E-12
  0.4425000        4.1747031E-12
  0.4450000       -1.5542314E-12
  0.4475000       -5.6772083E-12
  0.4500000       -5.1751858E-12
  0.4525000       -1.0235586E-12
  0.4550000        2.1839221E-12
  0.4575000        3.4381185E-12
  0.4600000        3.2197942E-12
  0.4625000        1.7872114E-12
  0.4650000       -1.1230719E-12
  0.4675000       -4.3120876E-12
  0.4700000       -4.7200464E-12
  0.4725000       -2.1321712E-12
  0.4750000        9.1002900E-13
  0.4775000        6.0217859E-12
  0.4800000        1.1044307E-11
  0.4825000        1.1288994E-11
  0.4850000        6.6726017E-12
  0.4875000       -1.9310640E-12
  0.4900000       -1.0615722E-11
  0.4925000       -1.7339619E-11
  0.4950000       -2.1788986E-11
  0.4975000       -2.1974410E-11
  0.5000000       -1.6894352E-11
  0.5025000       -7.1472407E-12
  0.5050000        4.2261489E-12
  0.5075000        1.2530135E-11
  0.5100000        1.7963443E-11
  0.5125000        2.0685065E-11
  0.5150000        1.8312012E-11
  0.5175000        1.1247733E-11
  0.5200000        1.7699947E-13
  0.5225000       -9.0471242E-12
  0.5250000       -1.5199357E-11
  0.5275000       -1.7076165E-11
  0.5300000       -1.0186178E-11
  0.5325000       -2.5086539E-12
  0.5350000        3.1832117E-12
  0.5375000        9.8264469E-12
  0.5400000        1.1978709E-11
  0.5425000        9.7814413E-12
  0.5450000        6.7386335E-12
  0.5475000        2.9765483E-12
  0.5500000        3.2902847E-13
  0.5525000       -1.6838023E-13
  0.5550000        1.4091559E-12
  0.5575000        4.1462081E-12
  0.5600000        4.5579651E-12
  0.5625000       -2.7315043E-13
  0.5650000       -8.9617619E-12
  0.5675000       -1.4835681E-11
  0.5700000       -1.5483391E-11
  0.5725000       -9.5425751E-12
  0.5750000        2.4126950E-12
  0.5775000        1.1930699E-11
  0.5800000        1.7578446E-11
  0.5825000        1.6002963E-11
  0.5850000        6.0541312E-12
  0.5875000       -2.2956097E-12
  0.5900000       -4.3286134E-12
  0.5925000       -2.0584675E-12
  0.5950000        1.7688602E-12
  0.5975000        6.3089009E-12
  0.6000000        1.1053812E-11
  0.6025000        1.3450629E-11
  0.6050000        1.2276251E-11
  0.6075000        8.8798534E-12
  0.6100000        3.6338100E-12
  0.6125000       -1.5651124E-12
  0.6150000       -7.0893361E-12
  0.6175000       -1.3844067E-11
  0.6200000       -2.2184822E-11
  0.6225000       -2.8439518E-11
  0.6250000       -2.6711732E-11
  0.6275000       -1.9597301E-11
  0.6300000       -1.0444482E-11
  0.6325000       -2.0422368E-12
  0.6350000        4.8889534E-12
  0.6375000        7.8379863E-12
  0.6400000        4.5001051E-12
  0.6425000        9.9829043E-13
  0.6450000       -1.2227903E-13
  0.6475000       -6.5322709E-13
  0.6500000       -3.1322770E-12
  0.6525000       -6.9579568E-12
  0.6550000       -1.0074283E-11
  0.6575000       -7.0408657E-12
  0.6600000        4.0588995E-13
  0.6625000        5.5049593E-12
  0.6650000        1.1021382E-11
  0.6675000        1.6745123E-11
  0.6700000        1.9515545E-11
  0.6725000        1.9376599E-11
  0.6750000        1.9034448E-11
  0.6775000        1.3722802E-11
  0.6800000        1.6595479E-12
  0.6825000       -8.6576328E-12
  0.6850000       -1.3833536E-11
  0.6875000       -1.7286849E-11
  0.6900000       -2.3168873E-11
  0.6925000       -2.8202033E-11
  0.6950000       -2.7204619E-11
  0.6975000       -2.2108924E-11
  0.7000000       -1.1364675E-11
  0.7025000        1.9482671E-12
  0.7050000        1.3365205E-11
  0.7075000        2.0864057E-11
  0.7100000        2.4686189E-11
  0.7125000        2.5298210E-11
  0.7150000        2.3142696E-11
  0.7175000        2.1623703E-11
  0.7200000        1.9577043E-11
  0.7225000        1.9723868E-11
  0.7250000        2.3235089E-11
  0.7275000        2.4625154E-11
  0.7300000        1.9938917E-11
  0.7325000        9.4387154E-12
  0.7350000       -1.9459178E-12
  0.7375000       -9.3470440E-12
  0.7400000       -1.1382779E-11
  0.7425000       -1.1614805E-11
  0.7450000       -1.4160298E-11
  0.7475000       -2.0879664E-11
  0.7500000       -3.0905424E-11
  0.7525000       -3.7634680E-11
  0.7550000       -3.9578906E-11
  0.7575000       -3.8493594E-11
  0.7600000       -3.6849739E-11
  0.7625000       -3.0863742E-11
  0.7650000       -1.8320083E-11
  0.7675000        6.1830836E-13
  0.7700000        2.0555120E-11
  0.7725000        3.3364488E-11
  0.7750000        4.2070555E-11
  0.7775000        4.6010428E-11
  0.7800000        4.4896295E-11
  0.7825000        4.3416246E-11
  0.7850000        4.1074966E-11
  0.7875000        3.7110294E-11
  0.7900000        2.7655381E-11
  0.7925000        1.1035356E-11
  0.7950000       -1.1468425E-11
  0.7975000       -3.2276237E-11
  0.8000000       -4.3156763E-11
  0.8025000       -4.3866820E-11
  0.8050000       -3.9722281E-11
  0.8075000       -3.0175955E-11
  0.8100000       -1.3640315E-11
  0.8125000        3.2061177E-12
  0.8150000        1.5260739E-11
  0.8175000        1.9025751E-11
  0.8200000        1.4865439E-11
  0.8225000        3.2427780E-12
  0.8250000       -9.4231307E-12
  0.8275000       -1.4939772E-11
  0.8300000       -1.5655560E-11
  0.8325000       -1.3939498E-11
  0.8350000       -5.6625728E-12
  0.8375000        6.0884154E-12
  0.8400000        1.4017005E-11
  0.8425000        1.0587394E-11
  0.8450000        5.5856266E-12
  0.8475000        7.6041257E-13
  0.8500000       -9.2343320E-12
  0.8525000       -1.5044780E-11
  0.8550000       -1.5400398E-11
  0.8575000       -9.7793128E-12
  0.8600000       -3.4811446E-12
  0.8625000        2.6377078E-12
  0.8650000        1.1556305E-11
  0.8675000        1.7444858E-11
  0.8700000        1.6290353E-11
  0.8725000        8.9426574E-12
  0.8750000       -9.5263424E-13
  0.8775000       -1.1401446E-11
  0.8800000       -2.3222504E-11
  0.8825000       -3.4050290E-11
  0.8850000       -4.0836681E-11
  0.8875000       -4.2528883E-11
  0.8900000       -3.4891621E-11
  0.8925000       -1.8089138E-11
  0.8950000        1.3302554E-12
  0.8975000        1.7486797E-11
  0.9000000        2.6818273E-11
  0.9025000        3.4186813E-11
  0.9050000        3.8300540E-11
  0.9075000        3.7125192E-11
  0.9100000        3.7414509E-11
  0.9125000        3.4931707E-11
  0.9150000        3.1805978E-11
  0.9175000        2.8074492E-11
  0.9200000        1.6941316E-11
  0.9225000        5.0097561E-12
  0.9250000       -3.5122846E-12
  0.9275000       -9.5987385E-12
  0.9300000       -1.1506170E-11
  0.9325000       -1.0782124E-11
  0.9350000       -8.7702163E-12
  0.9375000       -6.5154527E-12
  0.9400000        1.0635455E-12
  0.9425000        1.6399854E-11
  0.9450000        3.3496175E-11
  0.9475000        4.5201957E-11
  0.9500000        4.3414321E-11
  0.9525000        3.3753347E-11
  0.9550000        2.2760309E-11
  0.9575000        8.2658325E-12
  0.9600000       -6.6023450E-12
  0.9625000       -2.3736336E-11
  0.9650000       -3.8911412E-11
  0.9675000       -4.8834582E-11
  0.9700000       -5.7148428E-11
  0.9725000       -6.5009213E-11
  0.9750000       -6.4528029E-11
  0.9775000       -5.3570152E-11
  0.9800000       -3.8413158E-11
  0.9825000       -2.1403232E-11
  0.9850000       -9.9747112E-12
  0.9875000       -6.4692553E-12
  0.9900000       -3.4982317E-12
  0.9925000        4.4268417E-12
  0.9950000        1.6191392E-11
  0.9975000        2.4411811E-11
   1.000000        2.1234349E-11
   1.002500        1.2526212E-11
   1.005000        1.0259393E-11
   1.007500        1.3385622E-11
   1.010000        1.8601364E-11
   1.012500        2.0160460E-11
   1.015000        1.6558062E-11
   1.017500        1.0776244E-11
   1.020000        4.3266172E-13
   1.022500       -7.1026379E-12
   1.025000       -1.0136447E-11
   1.027500       -1.2785003E-11
   1.030000       -1.2675003E-11
   1.032500       -5.1186074E-12
   1.035000        7.0126123E-12
   1.037500        1.5465088E-11
   1.040000        1.8159352E-11
   1.042500        1.2783885E-11
   1.045000        3.3077516E-12
   1.047500       -7.8588194E-13
   1.050000       -2.9547543E-12
   1.052500       -4.0306517E-12
   1.055000       -4.8634425E-12
   1.057500       -1.0096262E-11
   1.060000       -1.6695300E-11
   1.062500       -1.0330328E-11
   1.065000        8.5938123E-12
   1.067500        2.9338240E-11
   1.070000        4.8075530E-11
   1.072500        5.2962777E-11
   1.075000        4.3567011E-11
   1.077500        3.0044460E-11
   1.080000        1.2366995E-11
   1.082500       -6.5099297E-12
   1.085000       -1.9954125E-11
   1.087500       -2.1675963E-11
   1.090000       -1.1646311E-11
   1.092500       -1.8537366E-12
   1.095000        1.9134108E-12
   1.097500        3.5669373E-12
   1.100000       -1.7934625E-12
   1.102500       -1.8581881E-11
   1.105000       -3.7465836E-11
   1.107500       -4.4765060E-11
   1.110000       -3.6885189E-11
   1.112500       -2.1987377E-11
   1.115000       -6.0769558E-12
   1.117500        7.7580191E-12
   1.120000        1.7715343E-11
   1.122500        2.1568884E-11
   1.125000        1.6572139E-11
   1.127500        5.4796489E-12
   1.130000       -6.6415246E-12
   1.132500       -1.6845974E-11
   1.135000       -2.6558183E-11
   1.137500       -3.1221411E-11
   1.140000       -2.2011490E-11
   1.142500       -7.8309425E-12
   1.145000        7.2801661E-13
   1.147500        7.0106139E-12
   1.150000        1.2975766E-11
   1.152500        1.5302357E-11
   1.155000        1.6588210E-11
   1.157500        1.0946530E-11
   1.160000       -7.2744081E-12
   1.162500       -2.6630514E-11
   1.165000       -3.4510381E-11
   1.167500       -2.8711988E-11
   1.170000       -3.3887216E-12
   1.172500        3.7875106E-11
   1.175000        7.0131935E-11
   1.177500        8.3235578E-11
   1.180000        7.4425473E-11
   1.182500        4.6920273E-11
   1.185000        1.1038948E-11
   1.187500       -2.2212407E-11
   1.190000       -4.0316816E-11
   1.192500       -4.5755573E-11
   1.195000       -4.8524174E-11
   1.197500       -4.9149018E-11
   1.200000       -4.2780030E-11
   1.202500       -3.5040804E-11
   1.205000       -2.9714561E-11
   1.207500       -2.0914505E-11
   1.210000       -5.2933994E-12
   1.212500        9.9580223E-12
   1.215000        2.6959410E-11
   1.217500        4.1389094E-11
   1.220000        4.4878979E-11
   1.222500        3.3372603E-11
   1.225000        1.1452828E-11
   1.227500       -2.6895452E-12
   1.230000       -1.1027498E-11
   1.232500       -1.8589923E-11
   1.235000       -1.7746082E-11
   1.237500       -5.1708412E-12
   1.240000        8.3748165E-12
   1.242500        1.2017397E-11
   1.245000        7.6655886E-12
   1.247500       -1.2931904E-12
   1.250000       -4.1180497E-12
   1.252500        2.3513982E-12
   1.255000        1.2306713E-11
   1.257500        1.6841355E-11
   1.260000        7.0829358E-12
   1.262500       -7.6621817E-12
   1.265000       -1.9634678E-11
   1.267500       -3.0797490E-11
   1.270000       -4.2161215E-11
   1.272500       -5.1377163E-11
   1.275000       -5.1734790E-11
   1.277500       -4.4391366E-11
   1.280000       -3.8050504E-11
   1.282500       -3.1643337E-11
   1.285000       -2.1487107E-11
   1.287500       -5.7333981E-12
   1.290000        1.3472021E-11
   1.292500        3.4365122E-11
   1.295000        5.6154303E-11
   1.297500        6.9898864E-11
   1.300000        7.1725174E-11
   1.302500        5.8384450E-11
   1.305000        2.9348281E-11
   1.307500        9.3896592E-13
   1.310000       -1.7818415E-11
   1.312500       -2.6587330E-11
   1.315000       -2.3158723E-11
   1.317500       -6.6917687E-12
   1.320000        1.5013029E-11
   1.322500        3.0073583E-11
   1.325000        3.7814821E-11
   1.327500        4.0179585E-11
   1.330000        3.3696074E-11
   1.332500        2.5851868E-11
   1.335000        2.5760952E-11
   1.337500        3.2320813E-11
   1.340000        4.5348107E-11
   1.342500        5.7043339E-11
   1.345000        5.5771547E-11
   1.347500        3.3830674E-11
   1.350000        1.5627968E-12
   1.352500       -2.1564474E-11
   1.355000       -4.1882962E-11
   1.357500       -6.0906051E-11
   1.360000       -6.8424773E-11
   1.362500       -6.7217280E-11
   1.365000       -6.0769938E-11
   1.367500       -4.9025981E-11
   1.370000       -3.6140830E-11
   1.372500       -2.3340566E-11
   1.375000       -1.0172627E-11
   1.377500       -4.6258787E-12
   1.380000       -5.6872094E-12
   1.382500       -1.7799239E-12
   1.385000        9.5250353E-12
   1.387500        2.0286018E-11
   1.390000        2.2666855E-11
   1.392500        1.6725812E-11
   1.395000        1.1088150E-11
   1.397500        7.6505026E-12
   1.400000        7.3502445E-13
   1.402500       -9.9822589E-12
   1.405000       -2.2429418E-11
   1.407500       -2.9567911E-11
   1.410000       -3.1014493E-11
   1.412500       -3.1327919E-11
   1.415000       -2.9539780E-11
   1.417500       -1.9935061E-11
   1.420000        2.7873676E-12
   1.422500        2.9360323E-11
   1.425000        5.1081195E-11
   1.427500        6.5227587E-11
   1.430000        6.7931896E-11
   1.432500        6.0596507E-11
   1.435000        4.2210818E-11
   1.437500        2.1264473E-11
   1.440000       -3.9251857E-12
   1.442500       -3.0834675E-11
   1.445000       -4.1787532E-11
   1.447500       -4.3207996E-11
   1.450000       -4.0859306E-11
   1.452500       -3.2221989E-11
   1.455000       -2.4422487E-11
   1.457500       -2.4776096E-11
   1.460000       -2.8187626E-11
   1.462500       -2.6947982E-11
   1.465000       -2.2236536E-11
   1.467500       -1.4662056E-11
   1.470000       -5.2954204E-12
   1.472500        2.5533057E-12
   1.475000        6.7915977E-12
   1.477500        1.0554877E-12
   1.480000       -9.6633023E-12
   1.482500       -9.0816547E-12
   1.485000       -1.3132945E-12
   1.487500        9.9621808E-13
   1.490000        6.0281224E-12
   1.492500        1.2174099E-11
   1.495000        1.4603155E-11
   1.497500        1.6594219E-11
   1.500000        2.4980393E-11
   1.502500        4.0212726E-11
   1.505000        5.3924136E-11
   1.507500        6.0003807E-11
   1.510000        5.9857140E-11
   1.512500        6.0451852E-11
   1.515000        5.0584942E-11
   1.517500        2.8291466E-11
   1.520000        2.6849096E-12
   1.522500       -2.2588129E-11
   1.525000       -3.6537627E-11
   1.527500       -3.4405926E-11
   1.530000       -2.3353618E-11
   1.532500       -5.0382485E-12
   1.535000        8.9333480E-12
   1.537500        1.1811449E-11
   1.540000        1.6080037E-12
   1.542500       -1.5307994E-11
   1.545000       -2.9015389E-11
   1.547500       -3.6763658E-11
   1.550000       -3.8476455E-11
   1.552500       -3.7071058E-11
   1.555000       -2.8762237E-11
   1.557500       -2.1151594E-11
   1.560000       -1.9465922E-11
   1.562500       -1.3855384E-11
   1.565000        7.6617098E-13
   1.567500        1.6443531E-11
   1.570000        3.1108283E-11
   1.572500        4.2572966E-11
   1.575000        4.2167624E-11
   1.577500        3.2312264E-11
   1.580000        1.6456591E-11
   1.582500       -5.9935980E-12
   1.585000       -3.9150523E-11
   1.587500       -7.3865032E-11
   1.590000       -9.5583388E-11
   1.592500       -1.0040182E-10
   1.595000       -7.7920989E-11
   1.597500       -3.9439833E-11
   1.600000        3.8170647E-12
   1.602500        4.5074361E-11
   1.605000        7.8831518E-11
   1.607500        9.8176321E-11
   1.610000        8.9705507E-11
   1.612500        6.1681438E-11
   1.615000        2.6272763E-11
   1.617500        3.0354920E-12
   1.620000       -3.4856916E-12
   1.622500       -4.1642805E-12
   1.625000       -8.8712059E-12
   1.627500       -2.0527514E-11
   1.630000       -2.1319370E-11
   1.632500       -1.9118101E-11
   1.635000       -2.1284714E-11
   1.637500       -2.5024737E-11
   1.640000       -2.7293062E-11
   1.642500       -1.9165567E-11
   1.645000       -1.0139983E-11
   1.647500       -3.3189350E-12
   1.650000        4.4182834E-12
   1.652500        1.4004417E-11
   1.655000        2.4984900E-11
   1.657500        4.2380079E-11
   1.660000        5.5282813E-11
   1.662500        5.1752245E-11
   1.665000        2.8460729E-11
   1.667500       -1.5340645E-11
   1.670000       -6.5496948E-11
   1.672500       -1.0943495E-10
   1.675000       -1.2328800E-10
   1.677500       -9.8238986E-11
   1.680000       -4.6703409E-11
   1.682500        8.0829701E-12
   1.685000        4.1001813E-11
   1.687500        5.7056890E-11
   1.690000        6.1010891E-11
   1.692500        6.2902503E-11
   1.695000        5.9039919E-11
   1.697500        4.8480855E-11
   1.700000        4.2374056E-11
   1.702500        2.8089031E-11
   1.705000        8.0719164E-12
   1.707500       -8.6039890E-12
   1.710000       -1.6584314E-11
   1.712500       -1.9326797E-11
   1.715000       -1.3861922E-11
   1.717500       -4.6640552E-12
   1.720000       -2.0762760E-12
   1.722500        7.2983963E-12
   1.725000        2.5149653E-11
   1.727500        3.2838652E-11
   1.730000        2.7379803E-11
   1.732500        1.3472499E-11
   1.735000        5.9080670E-12
   1.737500        1.4361546E-11
   1.740000        2.5786552E-11
   1.742500        2.1052000E-11
   1.745000       -6.1026037E-12
   1.747500       -4.5678752E-11
   1.750000       -8.0181806E-11
   1.752500       -9.3261343E-11
   1.755000       -8.0007008E-11
   1.757500       -4.7598488E-11
   1.760000       -1.7749618E-11
   1.762500        7.6831475E-12
   1.765000        2.1227799E-11
   1.767500        1.0104166E-11
   1.770000       -7.2538451E-12
   1.772500       -1.8520126E-11
   1.775000       -1.7916377E-11
   1.777500       -6.4471709E-12
   1.780000        1.6729326E-11
   1.782500        5.5955879E-11
   1.785000        9.6934405E-11
   1.787500        1.1711526E-10
   1.790000        1.0411107E-10
   1.792500        7.0396605E-11
   1.795000        4.1068107E-11
   1.797500        1.4043093E-11
   1.800000       -1.2336984E-11
   1.802500       -3.8365464E-11
   1.805000       -6.8854242E-11
   1.807500       -8.6166040E-11
   1.810000       -8.8553907E-11
   1.812500       -7.5990721E-11
   1.815000       -4.8109808E-11
   1.817500       -5.9056995E-12
   1.820000        2.4096867E-11
   1.822500        2.2407175E-11
   1.825000        2.2573934E-11
   1.827500        3.3493135E-11
   1.830000        4.2995888E-11
   1.832500        5.1150004E-11
   1.835000        4.8263869E-11
   1.837500        3.1197184E-11
   1.840000        1.7833353E-11
   1.842500        5.0662382E-12
   1.845000       -3.9156460E-12
   1.847500        4.2234016E-12
   1.850000        1.7214535E-11
   1.852500        2.0509533E-11
   1.855000        5.2139100E-12
   1.857500       -1.6848512E-11
   1.860000       -3.2799118E-11
   1.862500       -3.6498960E-11
   1.865000       -1.9655291E-11
   1.867500        1.1857148E-11
   1.870000        3.0284022E-11
   1.872500        3.0943019E-11
   1.875000        3.8356766E-11
   1.877500        4.1405643E-11
   1.880000        1.3983825E-11
   1.882500       -2.9616636E-11
   1.885000       -7.8043065E-11
   1.887500       -1.2820942E-10
   1.890000       -1.5771572E-10
   1.892500       -1.5610237E-10
   1.895000       -1.3055809E-10
   1.897500       -8.7654807E-11
   1.900000       -3.7534670E-11
   1.902500        5.3183898E-12
   1.905000        2.8825390E-11
   1.907500        3.4197846E-11
   1.910000        3.3213366E-11
   1.912500        2.6482729E-11
   1.915000        1.0530116E-11
   1.917500       -5.8745547E-12
   1.920000       -2.6886195E-11
   1.922500       -4.5328137E-11
   1.925000       -3.4314003E-11
   1.927500        6.7006886E-12
   1.930000        6.7188019E-11
   1.932500        1.2408903E-10
   1.935000        1.5632778E-10
   1.937500        1.5789894E-10
   1.940000        1.4020642E-10
   1.942500        1.1972318E-10
   1.945000        9.2539434E-11
   1.947500        5.6059379E-11
   1.950000        1.3670429E-11
   1.952500       -2.1919570E-11
   1.955000       -4.1950748E-11
   1.957500       -5.3985528E-11
   1.960000       -5.4395391E-11
   1.962500       -4.3306917E-11
   1.965000       -3.5915271E-11
   1.967500       -3.4806220E-11
   1.970000       -3.8490992E-11
   1.972500       -4.4851945E-11
   1.975000       -4.3441525E-11
   1.977500       -4.4229110E-11
   1.980000       -3.9162045E-11
   1.982500       -8.5466877E-12
   1.985000        4.0665318E-11
   1.987500        8.0197265E-11
   1.990000        8.9001334E-11
   1.992500        7.3872464E-11
   1.995000        5.0610575E-11
   1.997500        1.4168696E-11
   2.000000       -3.1049129E-11
   2.002500       -7.2329025E-11
   2.005000       -9.4763142E-11
   2.007500       -8.7542272E-11
   2.010000       -6.3645492E-11
   2.012500       -3.5324577E-11
   2.015000       -2.0464937E-11
   2.017500       -1.1226886E-11
   2.020000        7.3135074E-12
   2.022500        2.4941750E-11
   2.025000        3.7916809E-11
   2.027500        4.0335818E-11
   2.030000        3.0129361E-11
   2.032500        2.2309769E-11
   2.035000        2.1459865E-12
   2.037500       -4.1729731E-11
   2.040000       -8.4359776E-11
   2.042500       -1.0241798E-10
   2.045000       -9.6591457E-11
   2.047500       -7.9718655E-11
   2.050000       -4.3734863E-11
   2.052500       -1.8682920E-12
   2.055000        4.3104416E-11
   2.057500        9.4176889E-11
   2.060000        1.1920280E-10
   2.062500        1.1215070E-10
   2.065000        8.7924425E-11
   2.067500        5.3029591E-11
   2.070000        1.6712281E-11
   2.072500       -1.2239503E-11
   2.075000       -3.4794168E-11
   2.077500       -4.3377236E-11
   2.080000       -3.5035266E-11
   2.082500       -2.0951157E-11
   2.085000       -6.8148109E-12
   2.087500        1.2645771E-11
   2.090000        2.9888255E-11
   2.092500        2.7569700E-11
   2.095000        1.8749552E-11
   2.097500        1.7688724E-11
   2.100000        1.0845574E-11
   2.102500       -1.6754194E-12
   2.105000       -9.9410436E-12
   2.107500       -8.8038674E-12
   2.110000       -2.7303637E-13
   2.112500       -4.7855764E-12
   2.115000       -3.2242556E-11
   2.117500       -5.9647301E-11
   2.120000       -6.8507637E-11
   2.122500       -5.7847116E-11
   2.125000       -3.0309772E-11
   2.127500       -4.0163619E-13
   2.130000        3.1354912E-11
   2.132500        6.7314591E-11
   2.135000        9.0572452E-11
   2.137500        9.3220501E-11
   2.140000        7.4298366E-11
   2.142500        4.1412672E-11
   2.145000        2.5331993E-13
   2.147500       -4.0146574E-11
   2.150000       -7.3108609E-11
   2.152500       -8.8458484E-11
   2.155000       -8.4846047E-11
   2.157500       -7.8738252E-11
   2.160000       -7.5125815E-11
   2.162500       -4.7990303E-11
   2.165000        9.4270494E-12
   2.167500        6.3328398E-11
   2.170000        9.8387985E-11
   2.172500        1.1650245E-10
   2.175000        1.1381823E-10
   2.177500        1.0959500E-10
   2.180000        9.2083285E-11
   2.182500        5.4620759E-11
   2.185000        6.1159723E-12
   2.187500       -5.4596383E-11
   2.190000       -1.0662119E-10
   2.192500       -1.3674228E-10
   2.195000       -1.4306305E-10
   2.197500       -1.3463669E-10
   2.200000       -1.1077207E-10
   2.202500       -7.6291112E-11
   2.205000       -3.8270047E-11
   2.207500       -1.7759318E-12
   2.210000        2.5926164E-11
   2.212500        3.8185968E-11
   2.215000        3.7080939E-11
   2.217500        3.2488033E-11
   2.220000        1.7407388E-11
   2.222500       -7.9801721E-12
   2.225000       -2.1156146E-11
   2.227500       -7.8033673E-12
   2.230000        1.4755315E-11
   2.232500        3.5236543E-11
   2.235000        6.9283523E-11
   2.237500        9.8749647E-11
   2.240000        9.7130276E-11
   2.242500        6.6076929E-11
   2.245000        2.7822801E-11