 -0.622799993         1.00000012E-24
 -0.610800028         1.00000012E-24
 -0.598800004         1.00000012E-24
 -0.586799979        -8.43801980E-17
 -0.574800014        -6.38335676E-16
 -0.562799990        -2.67834528E-15
 -0.550800025        -8.10748851E-15
 -0.538800001        -1.95342789E-14
 -0.526799977        -3.93119917E-14
 -0.514800012        -6.78132138E-14
 -0.502799988        -1.01608683E-13
 -0.490799993        -1.32871307E-13
 -0.478799999        -1.51508079E-13
 -0.466800004        -1.50837893E-13
 -0.454800010        -1.36038967E-13
 -0.442799985        -1.32569791E-13
 -0.430799991        -1.90266761E-13
 -0.418799996        -3.78882364E-13
 -0.406800002        -7.73085263E-13
 -0.394800007        -1.42914131E-12
 -0.382800013        -2.36034261E-12
 -0.370799989        -3.52172154E-12
 -0.358799994        -4.81466126E-12
 -0.346799999        -6.11760859E-12
 -0.334800005        -7.34078510E-12
 -0.322800010        -8.49293552E-12
 -0.310799986        -9.74034395E-12
 -0.298799992        -1.14361073E-11
 -0.286799997        -1.41030434E-11
 -0.274800003        -1.83661055E-11
 -0.262800008        -2.48463802E-11
 -0.250800014        -3.40434660E-11
 -0.238800004        -4.62408098E-11
 -0.226799995        -6.14655687E-11
 -0.214800000        -7.95209176E-11
 -0.202800006        -1.00087737E-10
 -0.190799996        -1.22870533E-10
 -0.178800002        -1.47747009E-10
 -0.166800007        -1.74876655E-10
 -0.154799998        -2.04733050E-10
 -0.142800003        -2.38044306E-10
 -0.130799994        -2.75650780E-10
 -0.118799999        -3.18309795E-10
 -0.106799997        -3.66490116E-10
  -9.48000029E-02    -4.20199209E-10
  -8.28000009E-02    -4.78875273E-10
  -7.07999989E-02    -5.41362899E-10
  -5.88000007E-02    -6.05972994E-10
  -4.67999987E-02    -6.70617839E-10
  -3.48000005E-02    -7.33006988E-10
  -2.28000004E-02    -7.90889298E-10
  -1.08000003E-02    -8.42327930E-10
   1.20000006E-03    -8.85994222E-10
   1.31999999E-02    -9.21461574E-10
   2.52000000E-02    -9.49472612E-10
   3.72000001E-02    -9.72144920E-10
   4.91999984E-02    -9.93075289E-10
   6.12000003E-02    -1.01729936E-09
   7.32000023E-02    -1.05106968E-09
   8.51999968E-02    -1.10141929E-09
   9.71999988E-02    -1.17548404E-09
  0.109200001        -1.27957056E-09
  0.121200003        -1.41796985E-09
  0.133200005        -1.59155067E-09
  0.145199999        -1.79621928E-09
  0.157199994        -2.02141170E-09
  0.169200003        -2.24886709E-09
  0.181199998        -2.45201703E-09
  0.193200007        -2.59637112E-09
  0.205200002        -2.64125277E-09
  0.217199996        -2.54312948E-09
  0.229200006        -2.26058261E-09
  0.241200000        -1.76069148E-09
  0.253199995        -1.02630304E-09
  0.265199989        -6.33983352E-11
  0.277200013         1.09242826E-09
  0.289200008         2.37141462E-09
  0.301200002         3.66797615E-09
  0.313199997         4.84273022E-09
  0.325199991         5.72870107E-09
  0.337199986         6.14189011E-09
  0.349200010         5.89606586E-09
  0.361200005         4.82127582E-09
  0.373199999         2.78526380E-09
  0.385199994        -2.83452067E-10
  0.397199988        -4.37248326E-09
  0.409200013        -9.36462907E-09
  0.421200007        -1.50217012E-08
  0.433200002        -2.09760831E-08
  0.445199996        -2.67331099E-08
  0.457199991        -3.16870121E-08
  0.469199985        -3.51524321E-08
  0.481200010        -3.64120716E-08
  0.493200004        -3.47793545E-08
  0.505200028        -2.96727034E-08
  0.517199993        -2.06958859E-08
  0.529200017        -7.71689290E-09
  0.541199982         9.06374176E-09
  0.553200006         2.90650100E-08
  0.565199971         5.13075058E-08
  0.577199996         7.44339843E-08
  0.589200020         9.67747553E-08
  0.601199985         1.16461059E-07
  0.613200009         1.31586205E-07
  0.625199974         1.40410037E-07
  0.637199998         1.41597866E-07
  0.649200022         1.34481823E-07
  0.661199987         1.19327922E-07
  0.673200011         9.75909913E-08
  0.685199976         7.21371265E-08
  0.697200000         4.74134829E-08
  0.709200025         2.95475537E-08
  0.721199989         2.63594373E-08
  0.733200014         4.72773181E-08
  0.745199978         1.03150079E-07
  0.757200003         2.05958884E-07
  0.769200027         3.68436901E-07
  0.781199992         6.03612705E-07
  0.793200016         9.24300537E-07
  0.805199981         1.34256459E-06
  0.817200005         1.86919056E-06
  0.829200029         2.51319602E-06
  0.841199994         3.28141618E-06
  0.853200018         4.17819138E-06
  0.865199983         5.20518643E-06
  0.877200007         6.36135519E-06
  0.889199972         7.64306242E-06
  0.901199996         9.04435637E-06
  0.913200021         1.05573863E-05
  0.925199986         1.21729327E-05
  0.937200010         1.38810283E-05
  0.949199975         1.56716105E-05
  0.961199999         1.75351779E-05
  0.973200023         1.94633958E-05
  0.985199988         2.14495831E-05
  0.997200012         2.34890776E-05
   1.00919998         2.55793893E-05
   1.02119994         2.77201780E-05
   1.03320003         2.99129806E-05
   1.04519999         3.21607367E-05
   1.05719995         3.44671134E-05
   1.06920004         3.68356486E-05
   1.08120000         3.92687944E-05
   1.09319997         4.17668998E-05
   1.10520005         4.43271965E-05
   1.11720002         4.69428996E-05
   1.12919998         4.96024695E-05
   1.14119995         5.22891169E-05
   1.15320003         5.49806027E-05
   1.16520000         5.76494167E-05
   1.17719996         6.02633190E-05
   1.18920004         6.27863119E-05
   1.20120001         6.51799055E-05
   1.21319997         6.74048206E-05
   1.22520006         6.94228802E-05
   1.23720002         7.11991524E-05
   1.24919999         7.27040897E-05
   1.26119995         7.39157549E-05
   1.27320004         7.48217644E-05
   1.28520000         7.54211142E-05
   1.29719996         7.57254675E-05
   1.30920005         7.57601156E-05
   1.32120001         7.55642177E-05
   1.33319998         7.51905536E-05
   1.34519994         7.47044905E-05
   1.35720003         7.41823533E-05
   1.36919999         7.37091250E-05
   1.38119996         7.33755442E-05
   1.39320004         7.32747139E-05
   1.40520000         7.34982459E-05
   1.41719997         7.41322146E-05
   1.42920005         7.52529231E-05
   1.44120002         7.69228063E-05
   1.45319998         7.91864441E-05
   1.46519995         8.20670684E-05
   1.47720003         8.55636536E-05
   1.48920000         8.96486599E-05
   1.50119996         9.42667175E-05
   1.51320004         9.93342692E-05
   1.52520001         1.04740240E-04
   1.53719997         1.10347835E-04
   1.54920006         1.15997347E-04
   1.56120002         1.21510020E-04
   1.57319999         1.26692830E-04
   1.58519995         1.31344044E-04
   1.59720004         1.35259339E-04
   1.60920000         1.38238291E-04
   1.62119997         1.40091128E-04
   1.63320005         1.40645177E-04
   1.64520001         1.39751122E-04
   1.65719998         1.37288516E-04
   1.66919994         1.33170572E-04
   1.68120003         1.27347783E-04
   1.69319999         1.19810495E-04
   1.70519996         1.10590066E-04
   1.71720004         9.97586903E-05
   1.72920001         8.74279212E-05
   1.74119997         7.37458977E-05
   1.75320005         5.88933253E-05
   1.76520002         4.30785367E-05
   1.77719998         2.65316921E-05
   1.78919995         9.49841706E-06
   1.80120003        -7.76689467E-06
   1.81320000        -2.50078920E-05
   1.82519996        -4.19728640E-05
   1.83720005        -5.84209811E-05
   1.84920001        -7.41278927E-05
   1.86119998        -8.88905633E-05
   1.87320006        -1.02531259E-04
   1.88520002        -1.14900409E-04
   1.89719999        -1.25878592E-04
   1.90919995        -1.35377355E-04
   1.92120004        -1.43339246E-04
   1.93320000        -1.49736705E-04
   1.94519997        -1.54570444E-04
   1.95720005        -1.57866991E-04
   1.96920002        -1.59675852E-04
   1.98119998        -1.60066353E-04
   1.99319994        -1.59124334E-04
   2.00519991        -1.56948736E-04
   2.01719999        -1.53648405E-04
   2.02920008        -1.49339103E-04
   2.04119992        -1.44140780E-04
   2.05320001        -1.38175281E-04
   2.06520009        -1.31564404E-04
   2.07719994        -1.24428261E-04
   2.08920002        -1.16884105E-04
   2.10120010        -1.09045366E-04
   2.11319995        -1.01020960E-04
   2.12520003        -9.29146699E-05
   2.13720012        -8.48247000E-05
   2.14919996        -7.68432074E-05
   2.16120005        -6.90557790E-05
   2.17319989        -6.15408571E-05
   2.18519998        -5.43690257E-05
   2.19720006        -4.76022396E-05
   2.20919991        -4.12930240E-05
   2.22119999        -3.54835429E-05
   2.23320007        -3.02048556E-05
   2.24519992        -2.54762035E-05
   2.25720000        -2.13045496E-05
   2.26920009        -1.76843896E-05
   2.28119993        -1.45979184E-05
   2.29320002        -1.20155973E-05
   2.30520010        -9.89715045E-06
   2.31719995        -8.19298111E-06
   2.32920003        -6.84598490E-06
   2.34120011        -5.79369043E-06
   2.35319996        -4.97066867E-06
   2.36520004        -4.31108310E-06
   2.37719989        -3.75128866E-06
   2.38919997        -3.23234121E-06
   2.40120006        -2.70230839E-06
   2.41319990        -2.11825977E-06
   2.42519999        -1.44782621E-06
   2.43720007        -6.70266274E-07
   2.44919991         2.23030142E-07
   2.46120000         1.22863912E-06
   2.47320008         2.33176775E-06
   2.48519993         3.50748019E-06
   2.49720001         4.72240617E-06
   2.50920010         5.93684445E-06
   2.52119994         7.10714494E-06
   2.53320003         8.18825447E-06
   2.54520011         9.13627628E-06
   2.55719995         9.91091565E-06
   2.56920004         1.04776982E-05
   2.58119988         1.08098257E-05
   2.59319997         1.08896029E-05
   2.60520005         1.07093638E-05
   2.61719990         1.02718641E-05
   2.62919998         9.59014415E-06
   2.64120007         8.68689040E-06
   2.65319991         7.59333261E-06
   2.66520000         6.34779008E-06
   2.67720008         4.99392945E-06
   2.68919992         3.57885438E-06
   2.70120001         2.15113391E-06
   2.71320009         7.58888348E-07
   2.72519994        -5.51990524E-07
   2.73720002        -1.73938031E-06
   2.74920011        -2.76617970E-06
   2.76119995        -3.60122590E-06
   2.77320004        -4.21987261E-06
   2.78520012        -4.60423780E-06
   2.79719996        -4.74315357E-06
   2.80920005        -4.63188280E-06
   2.82119989        -4.27165787E-06
   2.83319998        -3.66911217E-06
   2.84520006        -2.83567510E-06
   2.85719991        -1.78697985E-06
   2.86919999        -5.42325552E-07
   2.88120008         8.75752562E-07
   2.89319992         2.44183661E-06
   2.90520000         4.12786812E-06
   2.91720009         5.90332138E-06
   2.92919993         7.73532793E-06
   2.94120002         9.58880719E-06
   2.95320010         1.14266404E-05
   2.96519995         1.32099494E-05
   2.97720003         1.48985155E-05
   2.98920012         1.64513931E-05
   3.00119996         1.78277242E-05
   3.01320004         1.89877701E-05
   3.02519989         1.98941216E-05
   3.03719997         2.05130636E-05
   3.04920006         2.08160254E-05
   3.06119990         2.07810299E-05
   3.07319999         2.03940581E-05
   3.08520007         1.96502278E-05
   3.09719992         1.85547251E-05
   3.10920000         1.71233769E-05
   3.12120008         1.53828314E-05
   3.13319993         1.33702843E-05
   3.14520001         1.11327508E-05
   3.15720010         8.72588589E-06
   3.16919994         6.21236677E-06
   3.18120003         3.65992287E-06
   3.19320011         1.13908607E-06
   3.20519996        -1.27924773E-06
   3.21720004        -3.52631969E-06
   3.22919989        -5.53794916E-06
   3.24119997        -7.25680638E-06
   3.25320005        -8.63440164E-06
   3.26519990        -9.63270304E-06
   3.27719998        -1.02253225E-05
   3.28920007        -1.03982193E-05
   3.30119991        -1.01499290E-05
   3.31320000        -9.49130390E-06
   3.32520008        -8.44483475E-06
   3.33719993        -7.04357581E-06
   3.34920001        -5.32976628E-06
   3.36120009        -3.35320533E-06
   3.37319994        -1.16949241E-06
   3.38520002         1.16182423E-06
   3.39720011         3.57908425E-06
   3.40919995         6.02029058E-06
   3.42120004         8.42475765E-06
   3.43319988         1.07346004E-05
   3.44519997         1.28960437E-05
   3.45720005         1.48605295E-05
   3.46919990         1.65856400E-05
   3.48119998         1.80358293E-05
   3.49320006         1.91829804E-05
   3.50519991         2.00068062E-05
   3.51719999         2.04950848E-05
   3.52920008         2.06437635E-05
   3.54119992         2.04569169E-05
   3.55320001         1.99465612E-05
   3.56520009         1.91323306E-05
   3.57719994         1.80410316E-05
   3.58920002         1.67060571E-05
   3.60120010         1.51666482E-05
   3.61319995         1.34670645E-05
   3.62520003         1.16555921E-05
   3.63720012         9.78346361E-06
   3.64919996         7.90365175E-06
   3.66120005         6.06959384E-06
   3.67319989         4.33384184E-06
   3.68519998         2.74668469E-06
   3.69720006         1.35476705E-06
   3.70919991         1.99748925E-07
   3.72119999        -6.82951679E-07
   3.73320007        -1.26530097E-06
   3.74519992        -1.52762425E-06
   3.75720000        -1.45939578E-06
   3.76920009        -1.05979598E-06
   3.78119993        -3.38006629E-07
   3.79320002         6.86783153E-07
   3.80520010         1.98567932E-06
   3.81719995         3.52071834E-06
   3.82920003         5.24583857E-06
   3.84120011         7.10817676E-06
   3.85319996         9.04966873E-06
   3.86520004         1.10089068E-05
   3.87719989         1.29232039E-05
   3.88919997         1.47307737E-05
   3.90120006         1.63729619E-05
   3.91319990         1.77964230E-05
   3.92519999         1.89551502E-05
   3.93720007         1.98122980E-05
   3.94919991         2.03416694E-05
   3.96120000         2.05288579E-05
   3.97320008         2.03719246E-05
   3.98519993         1.98816360E-05
   3.99720001         1.90811952E-05
   4.00920010         1.80054813E-05
   4.02120018         1.66998416E-05
   4.03319979         1.52184566E-05
   4.04519987         1.36223489E-05
   4.05719995         1.19771430E-05
   4.06920004         1.03506454E-05
   4.08120012         8.81036249E-06
   4.09320021         7.42104930E-06
   4.10519981         6.24238146E-06
   4.11719990         5.32684271E-06
   4.12919998         4.71788599E-06
   4.14120007         4.44843272E-06
   4.15320015         4.53974599E-06
   4.16520023         5.00072338E-06
   4.17719984         5.82761004E-06
   4.18919992         7.00414830E-06
   4.20120001         8.50215838E-06
   4.21320009         1.02825279E-05
   4.22520018         1.22965766E-05
   4.23719978         1.44877677E-05
   4.24919987         1.67936832E-05
   4.26119995         1.91482304E-05
   4.27320004         2.14839765E-05
   4.28520012         2.37345375E-05
   4.29720020         2.58369419E-05
   4.30919981         2.77338695E-05
   4.32119989         2.93756584E-05
   4.33319998         3.07220471E-05
   4.34520006         3.17435042E-05
   4.35720015         3.24221219E-05
   4.36920023         3.27520575E-05
   4.38119984         3.27394082E-05
   4.39319992         3.24016219E-05
   4.40520000         3.17664162E-05
   4.41720009         3.08702474E-05
   4.42920017         2.97564820E-05
   4.44119978         2.84732505E-05
   4.45319986         2.70712389E-05
   4.46519995         2.56014246E-05
   4.47720003         2.41129310E-05
   4.48920012         2.26511565E-05
   4.50120020         2.12562045E-05
   4.51319981         1.99617425E-05
   4.52519989         1.87943369E-05
   4.53719997         1.77732691E-05
   4.54920006         1.69107989E-05
   4.56120014         1.62128217E-05
   4.57320023         1.56798778E-05
   4.58519983         1.53083274E-05
   4.59719992         1.50916530E-05
   4.60920000         1.50217320E-05
   4.62120008         1.50899814E-05
   4.63320017         1.52882949E-05
   4.64519978         1.56096958E-05
   4.65719986         1.60486543E-05
   4.66919994         1.66010796E-05
   4.68120003         1.72639811E-05
   4.69320011         1.80348688E-05
   4.70520020         1.89109487E-05
   4.71719980         1.98882171E-05
   4.72919989         2.09605532E-05
   4.74119997         2.21189330E-05
   4.75320005         2.33508090E-05
   4.76520014         2.46398085E-05
   4.77720022         2.59657099E-05
   4.78919983         2.73047863E-05
   4.80119991         2.86304403E-05
   4.81320000         2.99141338E-05
   4.82520008         3.11264957E-05
   4.83720016         3.22385677E-05
   4.84919977         3.32231066E-05
   4.86119986         3.40558181E-05
   4.87319994         3.47164896E-05
   4.88520002         3.51899398E-05
   4.89720011         3.54667281E-05
   4.90920019         3.55435659E-05
   4.92119980         3.54234508E-05
   4.93319988         3.51154922E-05
   4.94519997         3.46344714E-05
   4.95720005         3.40001316E-05
   4.96920013         3.32363343E-05
   4.98120022         3.23700551E-05
   4.99319983         3.14303725E-05
   5.00519991         3.04474506E-05
   5.01719999         2.94515721E-05
   5.02920008         2.84723228E-05
   5.04120016         2.75378243E-05
   5.05319977         2.66741445E-05
   5.06519985         2.59047702E-05
   5.07719994         2.52502086E-05
   5.08920002         2.47276221E-05
   5.10120010         2.43505619E-05
   5.11320019         2.41286962E-05
   5.12519979         2.40676109E-05
   5.13719988         2.41686121E-05
   5.14919996         2.44285729E-05
   5.16120005         2.48398192E-05
   5.17320013         2.53900616E-05
   5.18520021         2.60623983E-05
   5.19719982         2.68354288E-05
   5.20919991         2.76834708E-05
   5.22119999         2.85769402E-05
   5.23320007         2.94829006E-05
   5.24520016         3.03658089E-05
   5.25719976         3.11884323E-05
   5.26919985         3.19129504E-05
   5.28119993         3.25022193E-05
   5.29320002         3.29211362E-05
   5.30520010         3.31380543E-05
   5.31720018         3.31262090E-05
   5.32919979         3.28650422E-05
   5.34119987         3.23413842E-05
   5.35319996         3.15504440E-05
   5.36520004         3.04964888E-05
   5.37720013         2.91932320E-05
   5.38920021         2.76638657E-05
   5.40119982         2.59407261E-05
   5.41319990         2.40646132E-05
   5.42519999         2.20837537E-05
   5.43720007         2.00524828E-05
   5.44920015         1.80296302E-05
   5.46120024         1.60767195E-05
   5.47319984         1.42559966E-05
   5.48519993         1.26283621E-05
   5.49720001         1.12512898E-05
   5.50920010         1.01767700E-05
   5.52120018         9.44937710E-06
   5.53319979         9.10450126E-06
   5.54519987         9.16681802E-06
   5.55719995         9.64905485E-06
   5.56920004         1.05510726E-05
   5.58120012         1.18593280E-05
   5.59320021         1.35467144E-05
   5.60519981         1.55728121E-05
   5.61719990         1.78845476E-05
   5.62919998         2.04172829E-05
   5.64120007         2.30963051E-05
   5.65320015         2.58387208E-05
   5.66520023         2.85557162E-05
   5.67719984         3.11551375E-05
   5.68919992         3.35443401E-05
   5.70120001         3.56331730E-05
   5.71320009         3.73370713E-05
   5.72520018         3.85800449E-05
   5.73719978         3.92975562E-05
   5.74919987         3.94390336E-05
   5.76119995         3.89700544E-05
   5.77320004         3.78739787E-05
   5.78520012         3.61530510E-05
   5.79720020         3.38288482E-05
   5.80919981         3.09420939E-05
   5.82119989         2.75517796E-05
   5.83319998         2.37336681E-05
   5.84520006         1.95781649E-05
   5.85720015         1.51876757E-05
   5.86920023         1.06734915E-05
   5.88119984         6.15237241E-06
   5.89319992         1.74292029E-06
   5.90520000        -2.43811724E-06
   5.91720009        -6.27946019E-06
   5.92920017        -9.67870801E-06
   5.94119978        -1.25454262E-05
   5.95319986        -1.48038189E-05
   5.96519995        -1.63948862E-05
   5.97720003        -1.72780328E-05
   5.98920012        -1.74320849E-05
   6.00120020        -1.68556780E-05
   6.01319981        -1.55670605E-05
   6.02519989        -1.36032995E-05
   6.03719997        -1.10189449E-05
   6.04920006        -7.88419948E-06
   6.06120014        -4.28266912E-06
   6.07320023        -3.08762708E-07
   6.08519983         3.93517030E-06
   6.09719992         8.34187449E-06
   6.10920000         1.28023075E-05
   6.12120008         1.72087457E-05
   6.13320017         2.14577958E-05
   6.14519978         2.54532097E-05
   6.15719986         2.91084598E-05
   6.16919994         3.23489512E-05
   6.18120003         3.51138588E-05
   6.19320011         3.73575094E-05
   6.20520020         3.90502864E-05
   6.21719980         4.01790239E-05
   6.22919989         4.07468906E-05
   6.24119997         4.07727675E-05
   6.25320005         4.02901242E-05
   6.26520014         3.93454502E-05
   6.27720022         3.79962767E-05
   6.28919983         3.63088693E-05
   6.30119991         3.43556858E-05
   6.31320000         3.22126543E-05
   6.32520008         2.99564272E-05
   6.33720016         2.76617029E-05
   6.34919977         2.53987164E-05
   6.36119986         2.32309994E-05
   6.37319994         2.12134819E-05
   6.38520002         1.93910055E-05
   6.39720011         1.77972888E-05
   6.40920019         1.64543326E-05
   6.42119980         1.53723122E-05
   6.43319988         1.45498916E-05
   6.44519997         1.39749736E-05
   6.45720005         1.36258059E-05
   6.46920013         1.34723969E-05
   6.48120022         1.34781912E-05
   6.49319983         1.36018953E-05
   6.50519991         1.37994066E-05
   6.51719999         1.40257362E-05
   6.52920008         1.42368481E-05
   6.54120016         1.43913585E-05
   6.55319977         1.44520181E-05
   6.56519985         1.43869465E-05
   6.57719994         1.41705950E-05
   6.58920002         1.37844090E-05
   6.60120010         1.32172181E-05
   6.61320019         1.24653334E-05
   6.62519979         1.15323737E-05
   6.63719988         1.04288520E-05
   6.64919996         9.17151283E-06
   6.66120005         7.78247249E-06
   6.67320013         6.28819180E-06
   6.68520021         4.71830845E-06
   6.69719982         3.10440350E-06
   6.70919991         1.47874164E-06
   6.72119999        -1.26953026E-07
   6.73320007        -1.68262784E-06
   6.74520016        -3.16089017E-06
   6.75719976        -4.53781195E-06
   6.76919985        -5.79352172E-06
   6.78119993        -6.91257492E-06
   6.79320002        -7.88408670E-06
   6.80520010        -8.70165059E-06
   6.81720018        -9.36305696E-06
   6.82919979        -9.86983650E-06
   6.84119987        -1.02266640E-05
   6.85319996        -1.04406572E-05
   6.86520004        -1.05206136E-05
   6.87720013        -1.04762248E-05
   6.88920021        -1.03173043E-05
   6.90119982        -1.00530715E-05
   6.91319990        -9.69153371E-06
   6.92519999        -9.23898642E-06
   6.93720007        -8.69968153E-06
   6.94920015        -8.07565266E-06
   6.96120024        -7.36674201E-06
   6.97319984        -6.57079318E-06
   6.98519993        -5.68402947E-06
   6.99720001        -4.70155555E-06
   7.00920010        -3.61797902E-06
   7.02120018        -2.42809119E-06
   7.03319979        -1.12757925E-06
   7.04519987         2.86271245E-07
   7.05719995         1.81390953E-06
   7.06920004         3.45291824E-06
   7.08120012         5.19748392E-06
   7.09320021         7.03796650E-06
   7.10519981         8.96057099E-06
   7.11719990         1.09471475E-05
   7.12919998         1.29751406E-05
   7.14120007         1.50176947E-05
   7.15320015         1.70439507E-05
   7.16520023         1.90195224E-05
   7.17719984         2.09071713E-05
   7.18919992         2.26676457E-05
   7.20120001         2.42606729E-05
   7.21320009         2.56460717E-05
   7.22520018         2.67849427E-05
   7.23719978         2.76409137E-05
   7.24919987         2.81813900E-05
   7.26119995         2.83788067E-05
   7.27320004         2.82118090E-05
   7.28520012         2.76663632E-05
   7.29720020         2.67367432E-05
   7.30919981         2.54263359E-05
   7.32119989         2.37482327E-05
   7.33319998         2.17255420E-05
   7.34520006         1.93913984E-05
   7.35720015         1.67886246E-05
   7.36920023         1.39690183E-05
   7.38119984         1.09923139E-05
   7.39319992         7.92478932E-06
   7.40520000         4.83759777E-06
   7.41720009         1.80485154E-06
   7.42920017        -1.09847144E-06
   7.44119978        -3.79873381E-06
   7.45319986        -6.22588868E-06
   7.46519995        -8.31569196E-06
   7.47720003        -1.00118050E-05
   7.48920012        -1.12676880E-05
   7.50120020        -1.20482200E-05
   7.51319981        -1.23309528E-05
   7.52519989        -1.21069488E-05
   7.53719997        -1.13811311E-05
   7.54920006        -1.01721480E-05
   7.56120014        -8.51174173E-06
   7.57320023        -6.44364263E-06
   7.58519983        -4.02205842E-06
   7.59719992        -1.30981130E-06
   7.60920000         1.62377285E-06
   7.62120008         4.70514442E-06
   7.63320017         7.85887551E-06
   7.64519978         1.10099763E-05
   7.65719986         1.40861021E-05
   7.66919994         1.70195708E-05
   7.68120003         1.97491172E-05
   7.69320011         2.22213548E-05
   7.70520020         2.43918912E-05
   7.71719980         2.62260692E-05
   7.72919989         2.76993815E-05
   7.74119997         2.87974981E-05
   7.75320005         2.95160153E-05
   7.76520014         2.98599080E-05
   7.77720022         2.98427658E-05
   7.78919983         2.94858655E-05
   7.80119991         2.88171250E-05
   7.81320000         2.78700154E-05
   7.82520008         2.66824263E-05
   7.83720016         2.52955670E-05
   7.84919977         2.37529093E-05
   7.86119986         2.20991860E-05
   7.87319994         2.03794280E-05
   7.88520002         1.86380894E-05
   7.89720011         1.69182204E-05
   7.90920019         1.52606881E-05
   7.92119980         1.37034822E-05
   7.93319988         1.22810698E-05
   7.94519997         1.10238216E-05
   7.95720005         9.95752180E-06
   7.96920013         9.10294693E-06
   7.98120022         8.47555384E-06
   7.99319983         8.08525056E-06
   8.00520039         7.93627532E-06
   8.01720047         8.02719205E-06
   8.02919960         8.35101218E-06
   8.04119968         8.89544845E-06
   8.05319977         9.64331593E-06
   8.06519985         1.05730742E-05
   8.07719994         1.16594974E-05
   8.08920002         1.28744705E-05
   8.10120010         1.41878527E-05
   8.11320019         1.55683992E-05
   8.12520027         1.69846826E-05
   8.13720036         1.84059663E-05
   8.14920044         1.98030211E-05
   8.16119957         2.11488259E-05
   8.17319965         2.24191499E-05
   8.18519974         2.35929874E-05
   8.19719982         2.46528671E-05
   8.20919991         2.55850064E-05
   8.22119999         2.63793117E-05
   8.23320007         2.70292785E-05
   8.24520016         2.75317489E-05
   8.25720024         2.78866028E-05
   8.26920033         2.80963759E-05
   8.28120041         2.81658595E-05
   8.29319954         2.81017237E-05
   8.30519962         2.79121723E-05
   8.31719971         2.76066785E-05
   8.32919979         2.71958015E-05
   8.34119987         2.66910774E-05
   8.35319996         2.61049754E-05
   8.36520004         2.54509068E-05
   8.37720013         2.47432290E-05
   8.38920021         2.39972651E-05
   8.40120029         2.32292678E-05
   8.41320038         2.24563464E-05
   8.42520046         2.16963199E-05
   8.43719959         2.09674836E-05
   8.44919968         2.02883130E-05
   8.46119976         1.96770525E-05
   8.47319984         1.91512372E-05
   8.48519993         1.87271417E-05
   8.49720001         1.84191613E-05
   8.50920010         1.82391832E-05
   8.52120018         1.81959931E-05
   8.53320026         1.82947042E-05
   8.54520035         1.85363151E-05
   8.55720043         1.89174007E-05
   8.56919956         1.94299610E-05
   8.58119965         2.00614431E-05
   8.59319973         2.07949452E-05
   8.60519981         2.16095905E-05
   8.61719990         2.24810719E-05
   8.62919998         2.33823630E-05
   8.64120007         2.42845435E-05
   8.65320015         2.51577621E-05
   8.66520023         2.59722819E-05
   8.67720032         2.66995849E-05
   8.68920040         2.73134701E-05
   8.70119953         2.77911186E-05
   8.71319962         2.81140237E-05
   8.72519970         2.82687888E-05
   8.73719978         2.82476922E-05
   8.74919987         2.80490294E-05
   8.76119995         2.76771934E-05
   8.77320004         2.71425124E-05
   8.78520012         2.64608625E-05
   8.79720020         2.56530602E-05
   8.80920029         2.47440785E-05
   8.82120037         2.37621061E-05
   8.83320045         2.27374949E-05
   8.84519958         2.17016022E-05
   8.85719967         2.06856057E-05
   8.86919975         1.97193076E-05
   8.88119984         1.88300110E-05
   8.89319992         1.80414900E-05
   8.90520000         1.73731496E-05
   8.91720009         1.68393926E-05
   8.92920017         1.64492194E-05
   8.94120026         1.62060969E-05
   8.95320034         1.61080607E-05
   8.96520042         1.61480566E-05
   8.97719955         1.63144468E-05
   8.98919964         1.65917063E-05
   9.00119972         1.69611940E-05
   9.01319981         1.74020443E-05
   9.02519989         1.78920800E-05
   9.03719997         1.84087603E-05
   9.04920006         1.89300808E-05
   9.06120014         1.94354452E-05
   9.07320023         1.99064234E-05
   9.08520031         2.03273939E-05