 -0.622799993       0.00000000    
 -0.610800028       0.00000000    
 -0.598800004       0.00000000    
 -0.586799979       0.00000000    
 -0.574800014       8.43521469E-22
 -0.562799990       3.00782904E-21
 -0.550800025      -6.20140375E-21
 -0.538800001      -8.53340523E-20
 -0.526799977      -3.78726582E-19
 -0.514800012      -1.11324593E-18
 -0.502799988      -2.47479080E-18
 -0.490799993      -4.31771529E-18
 -0.478799999      -5.77942946E-18
 -0.466800004      -5.05641322E-18
 -0.454800010       2.57875314E-19
 -0.442799985       1.19280354E-17
 -0.430799991       2.89624024E-17
 -0.418799996       4.53525130E-17
 -0.406800002       4.91124294E-17
 -0.394800007       2.43500151E-17
 -0.382800013      -4.25415151E-17
 -0.370799989      -1.53252639E-16
 -0.358799994      -2.87668218E-16
 -0.346799999      -3.99066259E-16
 -0.334800005      -4.20137580E-16
 -0.322800010      -2.83004110E-16
 -0.310799986       4.91678439E-17
 -0.298799992       5.48431652E-16
 -0.286799997       1.10121885E-15
 -0.274800003       1.51594323E-15
 -0.262800008       1.56783639E-15
 -0.250800014       1.07628305E-15
 -0.238800004      -6.25747658E-18
 -0.226799995      -1.52665682E-15
 -0.214800000      -3.11862475E-15
 -0.202800006      -4.26508999E-15
 -0.190799996      -4.42869737E-15
 -0.178800002      -3.21360340E-15
 -0.166800007      -5.01232382E-16
 -0.154799998       3.49664285E-15
 -0.142800003       8.29776599E-15
 -0.130799994       1.33076965E-14
 -0.118799999       1.80166042E-14
 -0.106799997       2.21510009E-14
  -9.48000029E-02   2.57114683E-14
  -8.28000009E-02   2.88814145E-14
  -7.07999989E-02   3.18655895E-14
  -5.88000007E-02   3.47751206E-14
  -4.67999987E-02   3.76807757E-14
  -3.48000005E-02   4.08876593E-14
  -2.28000004E-02   4.53544639E-14
  -1.08000003E-02   5.30380014E-14
   1.20000006E-03   6.68617654E-14
   1.31999999E-02   9.00543610E-14
   2.52000000E-02   1.24807852E-13
   3.72000001E-02   1.70529213E-13
   4.91999984E-02   2.22291735E-13
   6.12000003E-02   2.70285367E-13
   7.32000023E-02   3.00975743E-13
   8.51999968E-02   3.00250574E-13
   9.71999988E-02   2.58122869E-13
  0.109200001       1.73778716E-13
  0.121200003       5.91966661E-14
  0.133200005      -6.04816896E-14
  0.145199999      -1.51018114E-13
  0.157199994      -1.77504197E-13
  0.169200003      -1.15485068E-13
  0.181199998       3.82899245E-14
  0.193200007       2.59226180E-13
  0.205200002       4.95600848E-13
  0.217199996       6.78152413E-13
  0.229200006       7.37416638E-13
  0.241200000       6.24861328E-13
  0.253199995       3.31807227E-13
  0.265199989      -1.00338486E-13
  0.277200013      -5.83403009E-13
  0.289200008      -1.00069020E-12
  0.301200002      -1.23694924E-12
  0.313199997      -1.21257106E-12
  0.325199991      -9.11944240E-13
  0.337199986      -3.96146738E-13
  0.349200010       2.06412524E-13
  0.361200005       7.31812560E-13
  0.373199999       1.02833052E-12
  0.385199994       1.00756838E-12
  0.397199988       6.83675284E-13
  0.409200013       1.86858233E-13
  0.421200007      -2.56720535E-13
  0.433200002      -3.77551072E-13
  0.445199996       6.29230825E-14
  0.457199991       1.19464920E-12
  0.469199985       2.97919632E-12
  0.481200010       5.18611716E-12
  0.493200004       7.41523509E-12
  0.505200028       9.16285884E-12
  0.517199993       9.91808285E-12
  0.529200017       9.26691970E-12
  0.541199982       6.97962044E-12
  0.553200006       3.06111408E-12
  0.565199971      -2.24525845E-12
  0.577199996      -8.49757591E-12
  0.589200020      -1.51239229E-11
  0.601199985      -2.14981886E-11
  0.613200009      -2.70018556E-11
  0.625199974      -3.10579618E-11
  0.637199998      -3.31354250E-11
  0.649200022      -3.27346587E-11
  0.661199987      -2.93745375E-11
  0.673200011      -2.26030947E-11
  0.685199976      -1.20489027E-11
  0.697200000       2.48207314E-12
  0.709200025       2.08740733E-11
  0.721199989       4.25570933E-11
  0.733200014       6.63819000E-11
  0.745199978       9.05469796E-11
  0.757200003       1.12603454E-10
  0.769200027       1.29553659E-10
  0.781199992       1.38046977E-10
  0.793200016       1.34666778E-10
  0.805199981       1.16295855E-10
  0.817200005       8.05430861E-11
  0.829200029       2.62097375E-11
  0.841199994      -4.62344954E-11
  0.853200018      -1.34208381E-10
  0.865199983      -2.32669342E-10
  0.877200007      -3.33933686E-10
  0.889199972      -4.27754054E-10
  0.901199996      -5.01737207E-10
  0.913200021      -5.42161038E-10
  0.925199986      -5.35205658E-10
  0.937200010      -4.68553196E-10
  0.949199975      -3.33242600E-10
  0.961199999      -1.25602001E-10
  0.973200023       1.50965865E-10
  0.985199988       4.84591867E-10
  0.997200012       8.54185944E-10
   1.00919998       1.22953137E-09
   1.02119994       1.57238844E-09
   1.03320003       1.83870608E-09
   1.04519999       1.98196037E-09
   1.05719995       1.95756455E-09
   1.06920004       1.72819203E-09
   1.08120000       1.26975441E-09
   1.09319997       5.77648540E-10
   1.10520005      -3.27240568E-10
   1.11720002      -1.39341849E-09
   1.12919998      -2.53527044E-09
   1.14119995      -3.63192676E-09
   1.15320003      -4.52920634E-09
   1.16520000      -5.04519315E-09
   1.17719996      -4.97971531E-09
   1.18920004      -4.12763601E-09
   1.20120001      -2.29540120E-09
   1.21319997       6.80196455E-10
   1.22520006       4.91257257E-09
   1.23720002       1.04472049E-08
   1.24919999       1.72471353E-08
   1.26119995       2.51847485E-08
   1.27320004       3.40425892E-08
   1.28520000       4.35259864E-08
   1.29719996       5.32900692E-08
   1.30920005       6.29834460E-08
   1.32120001       7.23102005E-08
   1.33319998       8.11111107E-08
   1.34519994       8.94640237E-08
   1.35720003       9.78018804E-08
   1.36919999       1.07045842E-07
   1.38119996       1.18749007E-07
   1.39320004       1.35245244E-07
   1.40520000       1.59795945E-07
   1.41719997       1.96726290E-07
   1.42920005       2.51542133E-07
   1.44120002       3.31017930E-07
   1.45319998       4.43246648E-07
   1.46519995       5.97642156E-07
   1.47720003       8.04887634E-07
   1.48920000       1.07682149E-06
   1.50119996       1.42625856E-06
   1.51320004       1.86674436E-06
   1.52520001       2.41223893E-06
   1.53719997       3.07674145E-06
   1.54920006       3.87385353E-06
   1.56120002       4.81629650E-06
   1.57319999       5.91539356E-06
   1.58519995       7.18053070E-06
   1.59720004       8.61861827E-06
   1.60920000       1.02335707E-05
   1.62119997       1.20258246E-05
   1.63320005       1.39919212E-05
   1.64520001       1.61241805E-05
   1.65719998       1.84104683E-05
   1.66919994       2.08340971E-05
   1.68120003       2.33738701E-05
   1.69319999       2.60042634E-05
   1.70519996       2.86957875E-05
   1.71720004       3.14154786E-05
   1.72920001       3.41275736E-05
   1.74119997       3.67942957E-05
   1.75320005       3.93767696E-05
   1.76520002       4.18360323E-05
   1.77719998       4.41341072E-05
   1.78919995       4.62350872E-05
   1.80120003       4.81062234E-05
   1.81320000       4.97189394E-05
   1.82519996       5.10497775E-05
   1.83720005       5.20811700E-05
   1.84920001       5.28020755E-05
   1.86119998       5.32083905E-05
   1.87320006       5.33031525E-05
   1.88520002       5.30964935E-05
   1.89719999       5.26053700E-05
   1.90919995       5.18530214E-05
   1.92120004       5.08682315E-05
   1.93320000       4.96844004E-05
   1.94519997       4.83384429E-05
   1.95720005       4.68695653E-05
   1.96920002       4.53179819E-05
   1.98119998       4.37236267E-05
   1.99319994       4.21248733E-05
   2.00519991       4.05573992E-05
   2.01719999       3.90531568E-05
   2.02920008       3.76395401E-05
   2.04119992       3.63388026E-05
   2.05320001       3.51676936E-05
   2.06520009       3.41373852E-05
   2.07719994       3.32536620E-05
   2.08920002       3.25173387E-05
   2.10120010       3.19249230E-05
   2.11319995       3.14694516E-05
   2.12520003       3.11414442E-05
   2.13720012       3.09299357E-05
   2.14919996       3.08235176E-05
   2.16120005       3.08112758E-05
   2.17319989       3.08836788E-05
   2.18519998       3.10331961E-05
   2.19720006       3.12547527E-05
   2.20919991       3.15459074E-05
   2.22119999       3.19067622E-05
   2.23320007       3.23395943E-05
   2.24519992       3.28482747E-05
   2.25720000       3.34374636E-05
   2.26920009       3.41116793E-05
   2.28119993       3.48742760E-05
   2.29320002       3.57264435E-05
   2.30520010       3.66662789E-05
   2.31719995       3.76880271E-05
   2.32920003       3.87815489E-05
   2.34120011       3.99320743E-05
   2.35319996       4.11202927E-05
   2.36520004       4.23228012E-05
   2.37719989       4.35128677E-05
   2.38919997       4.46615704E-05
   2.40120006       4.57391543E-05
   2.41319990       4.67166283E-05
   2.42519999       4.75674642E-05
   2.43720007       4.82693504E-05
   2.44919991       4.88058176E-05
   2.46120000       4.91677019E-05
   2.47320008       4.93543630E-05
   2.48519993       4.93744883E-05
   2.49720001       4.92464933E-05
   2.50920010       4.89984632E-05
   2.52119994       4.86675999E-05
   2.53320003       4.82991927E-05
   2.54520011       4.79451555E-05
   2.55719995       4.76621717E-05
   2.56920004       4.75095330E-05
   2.58119988       4.75467896E-05
   2.59319997       4.78312650E-05
   2.60520005       4.84155789E-05
   2.61719990       4.93453226E-05
   2.62919998       5.06568795E-05
   2.64120007       5.23756571E-05
   2.65319991       5.45146286E-05
   2.66520000       5.70733682E-05
   2.67720008       6.00375752E-05
   2.68919992       6.33791497E-05
   2.70120001       6.70567242E-05
   2.71320009       7.10167806E-05
   2.72519994       7.51951447E-05
   2.73720002       7.95189262E-05
   2.74920011       8.39088025E-05
   2.76119995       8.82815075E-05
   2.77320004       9.25525092E-05
   2.78520012       9.66386870E-05
   2.79719996       1.00461002E-04
   2.80920005       1.03947030E-04
   2.82119989       1.07033135E-04
   2.83319998       1.09666442E-04
   2.84520006       1.11806279E-04
   2.85719991       1.13425187E-04
   2.86919999       1.14509421E-04
   2.88120008       1.15058880E-04
   2.89319992       1.15086514E-04
   2.90520000       1.14617258E-04
   2.91720009       1.13686452E-04
   2.92919993       1.12337941E-04
   2.94120002       1.10621855E-04
   2.95320010       1.08592227E-04
   2.96519995       1.06304542E-04
   2.97720003       1.03813363E-04
   2.98920012       1.01170168E-04
   3.00119996       9.84214494E-05
   3.01320004       9.56071890E-05
   3.02519989       9.27598448E-05
   3.03719997       8.99037841E-05
   3.04920006       8.70552540E-05
   3.06119990       8.42228546E-05
   3.07319999       8.14084124E-05
   3.08520007       7.86082746E-05
   3.09719992       7.58148744E-05
   3.10920000       7.30184183E-05
   3.12120008       7.02086909E-05
   3.13319993       6.73766699E-05
   3.14520001       6.45160544E-05
   3.15720010       6.16244870E-05
   3.16919994       5.87043360E-05
   3.18120003       5.57631938E-05
   3.19320011       5.28138371E-05
   3.20519996       4.98738664E-05
   3.21720004       4.69649276E-05
   3.22919989       4.41116317E-05
   3.24119997       4.13403104E-05
   3.25320005       3.86775901E-05
   3.26519990       3.61489838E-05
   3.27719998       3.37775746E-05
   3.28920007       3.15828329E-05
   3.30119991       2.95797108E-05
   3.31320000       2.77780182E-05
   3.32520008       2.61821278E-05
   3.33719993       2.47910011E-05
   3.34920001       2.35985099E-05
   3.36120009       2.25940476E-05
   3.37319994       2.17633078E-05
   3.38520002       2.10892140E-05
   3.39720011       2.05528977E-05
   3.40919995       2.01346411E-05
   3.42120004       1.98147791E-05
   3.43319988       1.95744378E-05
   3.44519997       1.93961187E-05
   3.45720005       1.92641164E-05
   3.46919990       1.91647505E-05
   3.48119998       1.90864394E-05
   3.49320006       1.90196424E-05
   3.50519991       1.89566999E-05
   3.51719999       1.88916165E-05
   3.52920008       1.88198301E-05
   3.54119992       1.87379774E-05
   3.55320001       1.86437319E-05
   3.56520009       1.85356748E-05
   3.57719994       1.84132496E-05
   3.58920002       1.82767835E-05
   3.60120010       1.81275718E-05
   3.61319995       1.79679737E-05
   3.62520003       1.78015380E-05
   3.63720012       1.76331014E-05
   3.64919996       1.74688412E-05
   3.66120005       1.73162680E-05
   3.67319989       1.71841239E-05
   3.68519998       1.70821950E-05
   3.69720006       1.70210369E-05
   3.70919991       1.70116109E-05
   3.72119999       1.70648455E-05
   3.73320007       1.71911452E-05
   3.74519992       1.73998742E-05
   3.75720000       1.76988196E-05
   3.76920009       1.80936913E-05
   3.78119993       1.85876652E-05
   3.79320002       1.91809759E-05
   3.80520010       1.98706366E-05
   3.81719995       2.06502427E-05
   3.82920003       2.15099280E-05
   3.84120011       2.24364321E-05
   3.85319996       2.34133367E-05
   3.86520004       2.44214407E-05
   3.87719989       2.54392726E-05
   3.88919997       2.64437531E-05
   3.90120006       2.74109752E-05
   3.91319990       2.83170884E-05
   3.92519999       2.91392589E-05
   3.93720007       2.98566647E-05
   3.94919991       3.04515124E-05
   3.96120000       3.09099814E-05
   3.97320008       3.12230877E-05
   3.98519993       3.13873752E-05
   3.99720001       3.14054378E-05
   4.00920010       3.12861484E-05
   4.02120018       3.10446412E-05
   4.03319979       3.07019618E-05
   4.04519987       3.02843873E-05
   4.05719995       2.98224331E-05
   4.06920004       2.93495650E-05
   4.08120012       2.89006821E-05
   4.09320021       2.85103906E-05
   4.10519981       2.82112178E-05
   4.11719990       2.80318200E-05
   4.12919998       2.79953238E-05
   4.14120007       2.81178691E-05
   4.15320015       2.84075195E-05
   4.16520023       2.88635711E-05
   4.17719984       2.94763431E-05
   4.18919992       3.02274802E-05
   4.20120001       3.10907926E-05
   4.21320009       3.20335603E-05
   4.22520018       3.30182447E-05
   4.23719978       3.40045335E-05
   4.24919987       3.49515904E-05
   4.26119995       3.58203324E-05
   4.27320004       3.65756423E-05
   4.28520012       3.71883725E-05
   4.29720020       3.76369644E-05
   4.30919981       3.79086596E-05
   4.32119989       3.80001438E-05
   4.33319998       3.79176599E-05
   4.34520006       3.76765602E-05
   4.35720015       3.73003168E-05
   4.36920023       3.68191213E-05
   4.38119984       3.62681130E-05
   4.39319992       3.56853961E-05
   4.40520000       3.51099661E-05
   4.41720009       3.45796798E-05
   4.42920017       3.41293489E-05
   4.44119978       3.37891615E-05
   4.45319986       3.35833865E-05
   4.46519995       3.35295263E-05
   4.47720003       3.36378616E-05
   4.48920012       3.39114740E-05
   4.50120020       3.43466345E-05
   4.51319981       3.49335460E-05
   4.52519989       3.56573655E-05
   4.53719997       3.64994448E-05
   4.54920006       3.74386655E-05
   4.56120014       3.84527957E-05
   4.57320023       3.95198003E-05
   4.58519983       4.06190120E-05
   4.59719992       4.17321353E-05
   4.60920000       4.28439671E-05
   4.62120008       4.39428950E-05
   4.63320017       4.50211010E-05
   4.64519978       4.60744704E-05
   4.65719986       4.71022686E-05
   4.66919994       4.81065545E-05
   4.68120003       4.90914317E-05
   4.69320011       5.00621645E-05
   4.70520020       5.10242062E-05
   4.71719980       5.19822352E-05
   4.72919989       5.29392564E-05
   4.74119997       5.38958229E-05
   4.75320005       5.48493954E-05
   4.76520014       5.57939929E-05
   4.77720022       5.67200223E-05
   4.78919983       5.76144339E-05
   4.80119991       5.84611116E-05
   4.81320000       5.92415345E-05
   4.82520008       5.99356536E-05
   4.83720016       6.05229616E-05
   4.84919977       6.09837152E-05
   4.86119986       6.13001394E-05
   4.87319994       6.14577293E-05
   4.88520002       6.14463497E-05
   4.89720011       6.12612566E-05
   4.90920019       6.09038725E-05
   4.92119980       6.03822518E-05
   4.93319988       5.97112848E-05
   4.94519997       5.89124938E-05
   4.95720005       5.80135202E-05
   4.96920013       5.70472730E-05
   4.98120022       5.60507506E-05
   4.99319983       5.50636214E-05
   5.00519991       5.41265981E-05
   5.01719999       5.32796985E-05
   5.02920008       5.25604810E-05
   5.04120016       5.20023168E-05
   5.05319977       5.16328182E-05
   5.06519985       5.14724925E-05
   5.07719994       5.15337306E-05
   5.08920002       5.18201159E-05
   5.10120010       5.23262097E-05
   5.11320019       5.30377474E-05
   5.12519979       5.39322609E-05
   5.13719988       5.49801589E-05
   5.14919996       5.61461311E-05
   5.16120005       5.73908947E-05
   5.17320013       5.86731076E-05
   5.18520021       5.99514242E-05
   5.19719982       6.11865107E-05
   5.20919991       6.23429514E-05
   5.22119999       6.33909367E-05
   5.23320007       6.43075691E-05
   5.24520016       6.50778020E-05
   5.25719976       6.56949269E-05
   5.26919985       6.61604790E-05
   5.28119993       6.64837717E-05
   5.29320002       6.66808628E-05
   5.30520010       6.67732238E-05
   5.31720018       6.67860004E-05
   5.32919979       6.67461718E-05
   5.34119987       6.66804845E-05
   5.35319996       6.66135456E-05
   5.36520004       6.65659682E-05
   5.37720013       6.65528642E-05
   5.38920021       6.65826155E-05
   5.40119982       6.66561391E-05
   5.41319990       6.67666100E-05
   5.42519999       6.68997236E-05
   5.43720007       6.70344016E-05
   5.44920015       6.71440357E-05
   5.46120024       6.71980379E-05
   5.47319984       6.71637463E-05
   5.48519993       6.70085356E-05
   5.49720001       6.67019631E-05
   5.50920010       6.62178791E-05
   5.52120018       6.55364129E-05
   5.53319979       6.46456028E-05
   5.54519987       6.35427132E-05
   5.55719995       6.22350126E-05
   5.56920004       6.07401271E-05
   5.58120012       5.90857890E-05
   5.59320021       5.73090074E-05
   5.60519981       5.54548169E-05
   5.61719990       5.35744548E-05
   5.62919998       5.17232438E-05
   5.64120007       4.99581620E-05
   5.65320015       4.83352524E-05
   5.66520023       4.69070219E-05
   5.67719984       4.57199203E-05
   5.68919992       4.48120227E-05
   5.70120001       4.42110577E-05
   5.71320009       4.39328651E-05
   5.72520018       4.39803334E-05
   5.73719978       4.43429308E-05
   5.74919987       4.49967993E-05
   5.76119995       4.59054718E-05
   5.77320004       4.70211344E-05
   5.78520012       4.82864343E-05
   5.79720020       4.96367211E-05
   5.80919981       5.10026475E-05
   5.82119989       5.23130075E-05
   5.83319998       5.34976862E-05
   5.84520006       5.44906070E-05
   5.85720015       5.52325291E-05
   5.86920023       5.56735795E-05
   5.88119984       5.57753883E-05
   5.89319992       5.55128063E-05
   5.90520000       5.48749922E-05
   5.91720009       5.38659551E-05
   5.92920017       5.25044379E-05
   5.94119978       5.08232006E-05
   5.95319986       4.88676851E-05
   5.96519995       4.66941929E-05
   5.97720003       4.43675963E-05
   5.98920012       4.19587486E-05
   6.00120020       3.95416828E-05
   6.01319981       3.71907554E-05
   6.02519989       3.49778347E-05
   6.03719997       3.29696995E-05
   6.04920006       3.12257034E-05
   6.06120014       2.97958450E-05
   6.07320023       2.87192561E-05
   6.08519983       2.80232071E-05
   6.09719992       2.77225645E-05
   6.10920000       2.78197585E-05
   6.12120008       2.83051977E-05
   6.13320017       2.91580582E-05
   6.14519978       3.03474262E-05
   6.15719986       3.18336897E-05
   6.16919994       3.35701043E-05
   6.18120003       3.55045231E-05
   6.19320011       3.75811069E-05
   6.20520020       3.97421063E-05
   6.21719980       4.19295357E-05
   6.22919989       4.40868098E-05
   6.24119997       4.61602431E-05
   6.25320005       4.81004136E-05
   6.26520014       4.98633417E-05
   6.27720022       5.14115382E-05
   6.28919983       5.27148113E-05
   6.30119991       5.37508640E-05
   6.31320000       5.45056682E-05
   6.32520008       5.49735960E-05
   6.33720016       5.51572739E-05
   6.34919977       5.50672376E-05
   6.36119986       5.47212840E-05
   6.37319994       5.41436530E-05
   6.38520002       5.33639795E-05
   6.39720011       5.24160860E-05
   6.40920019       5.13367049E-05
   6.42119980       5.01640861E-05
   6.43319988       4.89366721E-05
   6.44519997       4.76918067E-05
   6.45720005       4.64645673E-05
   6.46920013       4.52867826E-05
   6.48120022       4.41862358E-05
   6.49319983       4.31861117E-05
   6.50519991       4.23046840E-05
   6.51719999       4.15552167E-05
   6.52920008       4.09460736E-05
   6.54120016       4.04810089E-05
   6.55319977       4.01595571E-05
   6.56519985       3.99775527E-05
   6.57719994       3.99276432E-05
   6.58920002       3.99998171E-05
   6.60120010       4.01818797E-05
   6.61320019       4.04598832E-05
   6.62519979       4.08184605E-05
   6.63719988       4.12410664E-05
   6.64919996       4.17101837E-05
   6.66120005       4.22074336E-05
   6.67320013       4.27136765E-05
   6.68520021       4.32091183E-05
   6.69719982       4.36734372E-05
   6.70919991       4.40859330E-05
   6.72119999       4.44258148E-05
   6.73320007       4.46724807E-05
   6.74520016       4.48059654E-05
   6.75719976       4.48074061E-05
   6.76919985       4.46596205E-05
   6.78119993       4.43477111E-05
   6.79320002       4.38597235E-05
   6.80520010       4.31872722E-05
   6.81720018       4.23262027E-05
   6.82919979       4.12771442E-05
   6.84119987       4.00460121E-05
   6.85319996       3.86444044E-05
   6.86520004       3.70898197E-05
   6.87720013       3.54057593E-05
   6.88920021       3.36216181E-05
   6.90119982       3.17723789E-05
   6.91319990       2.98981195E-05
   6.92519999       2.80432814E-05
   6.93720007       2.62557678E-05
   6.94920015       2.45858100E-05
   6.96120024       2.30846872E-05
   6.97319984       2.18032746E-05
   6.98519993       2.07904977E-05
   6.99720001       2.00917020E-05
   7.00920010       1.97470326E-05
   7.02120018       1.97898607E-05
   7.03319979       2.02453284E-05
   7.04519987       2.11290808E-05
   7.05719995       2.24462547E-05
   7.06920004       2.41907765E-05
   7.08120012       2.63449983E-05
   7.09320021       2.88797273E-05
   7.10519981       3.17546328E-05
   7.11719990       3.49190486E-05
   7.12919998       3.83131337E-05
   7.14120007       4.18693344E-05
   7.15320015       4.55141344E-05
   7.16520023       4.91700157E-05
   7.17719984       5.27574994E-05
   7.18919992       5.61973029E-05
   7.20120001       5.94124613E-05
   7.21320009       6.23303858E-05
   7.22520018       6.48847854E-05
   7.23719978       6.70173977E-05
   7.24919987       6.86795320E-05
   7.26119995       6.98333606E-05
   7.27320004       7.04529666E-05
   7.28520012       7.05250786E-05
   7.29720020       7.00495439E-05
   7.30919981       6.90394882E-05
   7.32119989       6.75212286E-05
   7.33319998       6.55337790E-05
   7.34520006       6.31281364E-05
   7.35720015       6.03661683E-05
   7.36920023       5.73192374E-05
   7.38119984       5.40664805E-05
   7.39319992       5.06928518E-05
   7.40520000       4.72868669E-05
   7.41720009       4.39381802E-05
   7.42920017       4.07350090E-05
   7.44119978       3.77615397E-05
   7.45319986       3.50953451E-05
   7.46519995       3.28049609E-05
   7.47720003       3.09477364E-05
   7.48920012       2.95680038E-05
   7.50120020       2.86957475E-05
   7.51319981       2.83457521E-05
   7.52519989       2.85173410E-05
   7.53719997       2.91947108E-05
   7.54920006       3.03478300E-05
   7.56120014       3.19338797E-05
   7.57320023       3.38991340E-05
   7.58519983       3.61812235E-05
   7.59719992       3.87116415E-05
   7.60920000       4.14183341E-05
   7.62120008       4.42283090E-05
   7.63320017       4.70700979E-05
   7.64519978       4.98759946E-05
   7.65719986       5.25839423E-05
   7.66919994       5.51390694E-05
   7.68120003       5.74947589E-05
   7.69320011       5.96133468E-05
   7.70520020       6.14663732E-05
   7.71719980       6.30344730E-05
   7.72919989       6.43069579E-05
   7.74119997       6.52811432E-05
   7.75320005       6.59614961E-05
   7.76520014       6.63586543E-05
   7.77720022       6.64884210E-05
   7.78919983       6.63707106E-05
   7.80119991       6.60285441E-05
   7.81320000       6.54871037E-05
   7.82520008       6.47728884E-05
   7.83720016       6.39128921E-05
   7.84919977       6.29339047E-05
   7.86119986       6.18619160E-05
   7.87319994       6.07215152E-05
   7.88520002       5.95354431E-05
   7.89720011       5.83241708E-05
   7.90920019       5.71055934E-05
   7.92119980       5.58947722E-05
   7.93319988       5.47038071E-05
   7.94519997       5.35418185E-05
   7.95720005       5.24150455E-05
   7.96920013       5.13270788E-05
   7.98120022       5.02791918E-05
   7.99319983       4.92708168E-05
   8.00520039       4.83000949E-05
   8.01720047       4.73644832E-05
   8.02919960       4.64613877E-05
   8.04119968       4.55887894E-05
   8.05319977       4.47458115E-05
   8.06519985       4.39331925E-05
   8.07719994       4.31536355E-05
   8.08920002       4.24120080E-05
   8.10120010       4.17153460E-05
   8.11320019       4.10727189E-05
   8.12520027       4.04949096E-05
   8.13720036       3.99938981E-05
   8.14920044       3.95822899E-05
   8.16119957       3.92725888E-05
   8.17319965       3.90764799E-05
   8.18519974       3.90040805E-05
   8.19719982       3.90632413E-05
   8.20919991       3.92589936E-05
   8.22119999       3.95930547E-05
   8.23320007       4.00635472E-05
   8.24520016       4.06648578E-05
   8.25720024       4.13876623E-05
   8.26920033       4.22191260E-05
   8.28120041       4.31432200E-05
   8.29319954       4.41411685E-05
   8.30519962       4.51919768E-05
   8.31719971       4.62729731E-05
   8.32919979       4.73604414E-05
   8.34119987       4.84301963E-05
   8.35319996       4.94581509E-05
   8.36520004       5.04208692E-05
   8.37720013       5.12960542E-05
   8.38920021       5.20629910E-05
   8.40120029       5.27029915E-05
   8.41320038       5.31997503E-05
   8.42520046       5.35397157E-05
   8.43719959       5.37124288E-05
   8.44919968       5.37108644E-05
   8.46119976       5.35317013E-05
   8.47319984       5.31756305E-05
   8.48519993       5.26475451E-05
   8.49720001       5.19567075E-05
   8.50920010       5.11167855E-05
   8.52120018       5.01457762E-05
   8.53320026       4.90658131E-05
   8.54520035       4.79027549E-05
   8.55720043       4.66856727E-05
   8.56919956       4.54461224E-05
   8.58119965       4.42173223E-05
   8.59319973       4.30331638E-05
   8.60519981       4.19271491E-05
   8.61719990       4.09313179E-05
   8.62919998       4.00751123E-05
   8.64120007       3.93843402E-05
   8.65320015       3.88802364E-05
   8.66520023       3.85786734E-05
   8.67720032       3.84895357E-05
   8.68920040       3.86163483E-05
   8.70119953       3.89561246E-05
   8.71319962       3.94994604E-05
   8.72519970       4.02308433E-05
   8.73719978       4.11292167E-05
   8.74919987       4.21686855E-05
   8.76119995       4.33194182E-05
   8.77320004       4.45486294E-05
   8.78520012       4.58216746E-05
   8.79720020       4.71031562E-05
   8.80920029       4.83580552E-05
   8.82120037       4.95528111E-05
   8.83320045       5.06563265E-05
   8.84519958       5.16408982E-05
   8.85719967       5.24829884E-05
   8.86919975       5.31638980E-05
   8.88119984       5.36702064E-05
   8.89319992       5.39940957E-05
   8.90520000       5.41334521E-05
   8.91720009       5.40917936E-05
   8.92920017       5.38779859E-05
   8.94120026       5.35058025E-05
   8.95320034       5.29933131E-05
   8.96520042       5.23620984E-05
   8.97719955       5.16364089E-05
   8.98919964       5.08421581E-05
   9.00119972       5.00059577E-05
   9.01319981       4.91540923E-05
   9.02519989       4.83115946E-05
   9.03719997       4.75013694E-05
   9.04920006       4.67434729E-05
   9.06120014       4.60545525E-05
   9.07320023       4.54474648E-05
   9.08520031       4.49310937E-05
   9.09720039       4.45103251E-05
   9.10919952       4.41862649E-05
   9.12119961       4.39565520E-05
   9.13319969       4.38158568E-05
   9.14519978       4.37564195E-05
   9.15719986       4.37686977E-05
   9.16919994       4.38419920E-05
   9.18120003       4.39650721E-05
   9.19320011       4.41267512E-05
   9.20520020       4.43163335E-05
   9.21720028       4.45240366E-05
   9.22920036       4.47412385E-05
   9.24120045       4.49606632E-05
   9.25319958       4.51764354E-05
   9.26519966       4.53840839E-05
   9.27719975       4.55804620E-05
   9.28919983       4.57636343E-05
   9.30119991       4.59327275E-05
   9.31320000       4.60877927E-05
   9.32520008       4.62296484E-05
   9.33720016       4.63597498E-05
   9.34920025       4.64801160E-05
   9.36120033       4.65931989E-05
   9.37320042       4.67018217E-05
   9.38519955       4.68091421E-05
   9.39719963       4.69185652E-05
   9.40919971       4.70336781E-05
   9.42119980       4.71581552E-05
   9.43319988       4.72956381E-05
   9.44519997       4.74495828E-05
