 -0.622799993       0.00000000    
 -0.610800028       0.00000000    
 -0.598800004       0.00000000    
 -0.586799979       0.00000000    
 -0.574800014      -2.49909883E-21
 -0.562799990      -1.74987377E-20
 -0.550800025      -6.25500344E-20
 -0.538800001      -1.47108501E-19
 -0.526799977      -2.43375820E-19
 -0.514800012      -2.76175444E-19
 -0.502799988      -1.91684825E-19
 -0.490799993      -1.50703480E-19
 -0.478799999      -8.05510031E-19
 -0.466800004      -3.47368708E-18
 -0.454800010      -9.90009710E-18
 -0.442799985      -2.13336067E-17
 -0.430799991      -3.69505517E-17
 -0.418799996      -5.22163651E-17
 -0.406800002      -5.83656589E-17
 -0.394800007      -4.43905285E-17
 -0.382800013      -2.33302714E-18
 -0.370799989       6.48736248E-17
 -0.358799994       1.35902426E-16
 -0.346799999       1.68494825E-16
 -0.334800005       1.06577762E-16
 -0.322800010      -1.00860567E-16
 -0.310799986      -4.72197575E-16
 -0.298799992      -9.66142509E-16
 -0.286799997      -1.46880542E-15
 -0.274800003      -1.80779320E-15
 -0.262800008      -1.79886801E-15
 -0.250800014      -1.31762529E-15
 -0.238800004      -3.74227044E-16
 -0.226799995       8.39891771E-16
 -0.214800000       1.96208152E-15
 -0.202800006       2.53776111E-15
 -0.190799996       2.15485542E-15
 -0.178800002       5.92404891E-16
 -0.166800007      -2.07224705E-15
 -0.154799998      -5.44552400E-15
 -0.142800003      -8.90524193E-15
 -0.130799994      -1.17650386E-14
 -0.118799999      -1.34478762E-14
 -0.106799997      -1.35897712E-14
  -9.48000029E-02  -1.20238351E-14
  -8.28000009E-02  -8.65824034E-15
  -7.07999989E-02  -3.33364999E-15
  -5.88000007E-02   4.21308725E-15
  -4.67999987E-02   1.41759214E-14
  -3.48000005E-02   2.62935002E-14
  -2.28000004E-02   3.93937948E-14
  -1.08000003E-02   5.11447608E-14
   1.20000006E-03   5.83227856E-14
   1.31999999E-02   5.77906456E-14
   2.52000000E-02   4.80971633E-14
   3.72000001E-02   3.12456156E-14
   4.91999984E-02   1.38720898E-14
   6.12000003E-02   6.99527835E-15
   7.32000023E-02   2.37732519E-14
   8.51999968E-02   7.53348325E-14
   9.71999988E-02   1.65597760E-13
  0.109200001       2.86752095E-13
  0.121200003       4.17427919E-13
  0.133200005       5.25206560E-13
  0.145199999       5.73999453E-13
  0.157199994       5.35134383E-13
  0.169200003       3.99253357E-13
  0.181199998       1.84992511E-13
  0.193200007      -5.95213576E-14
  0.205200002      -2.64787676E-13
  0.217199996      -3.57288824E-13
  0.229200006      -2.82370291E-13
  0.241200000      -2.61355387E-14
  0.253199995       3.71265085E-13
  0.265199989       8.17258641E-13
  0.277200013       1.18590738E-12
  0.289200008       1.35150398E-12
  0.301200002       1.22832582E-12
  0.313199997       8.04503057E-13
  0.325199991       1.57698859E-13
  0.337199986      -5.55859829E-13
  0.349200010      -1.14011361E-12
  0.361200005      -1.41778635E-12
  0.373199999      -1.29311850E-12
  0.385199994      -7.98912043E-13
  0.397199988      -1.09824794E-13
  0.409200013       4.88323791E-13
  0.421200007       6.71254068E-13
  0.433200002       1.75570685E-13
  0.445199996      -1.10105718E-12
  0.457199991      -3.02859235E-12
  0.469199985      -5.22731337E-12
  0.481200010      -7.11700447E-12
  0.493200004      -8.02758467E-12
  0.505200028      -7.34847426E-12
  0.517199993      -4.68153381E-12
  0.529200017       4.06966500E-14
  0.541199982       6.50199946E-12
  0.553200006       1.40284373E-11
  0.565199971       2.16857574E-11
  0.577199996       2.84215429E-11
  0.589200020       3.32142577E-11
  0.601199985       3.51921790E-11
  0.613200009       3.36982803E-11
  0.625199974       2.82984348E-11
  0.637199998       1.87533079E-11
  0.649200022       4.99073959E-12
  0.661199987      -1.28808795E-11
  0.673200011      -3.44899109E-11
  0.685199976      -5.90466842E-11
  0.697200000      -8.51465634E-11
  0.709200025      -1.10590405E-10
  0.721199989      -1.32298603E-10
  0.733200014      -1.46392273E-10
  0.745199978      -1.48489804E-10
  0.757200003      -1.34225187E-10
  0.769200027      -9.99438241E-11
  0.781199992      -4.34859058E-11
  0.793200016       3.50635736E-11
  0.805199981       1.32785741E-10
  0.817200005       2.43610632E-10
  0.829200029       3.58345992E-10
  0.841199994       4.65080474E-10
  0.853200018       5.49945978E-10
  0.865199983       5.98190220E-10
  0.877200007       5.95493932E-10
  0.889199972       5.29460698E-10
  0.901199996       3.91206845E-10
  0.913200021       1.76972367E-10
  0.925199986      -1.10346850E-10
  0.937200010      -4.59881494E-10
  0.949199975      -8.51868243E-10
  0.961199999      -1.25734989E-09
  0.973200023      -1.63873781E-09
  0.985199988      -1.95145455E-09
  0.997200012      -2.14679341E-09
   1.00919998      -2.17599339E-09
   1.02119994      -1.99535766E-09
   1.03320003      -1.57203173E-09
   1.04519999      -8.89887830E-10
   1.05719995       4.51822434E-11
   1.06920004       1.20131471E-09
   1.08120000       2.51877919E-09
   1.09319997       3.91073174E-09
   1.10520005       5.26699084E-09
   1.11720002       6.46096288E-09
   1.12919998       7.35952765E-09
   1.14119995       7.83540877E-09
   1.15320003       7.78127696E-09
   1.16520000       7.12456538E-09
   1.17719996       5.84179993E-09
   1.18920004       3.97110211E-09
   1.20120001       1.62145630E-09
   1.21319997      -1.02256847E-09
   1.22520006      -3.70177200E-09
   1.23720002      -6.08969053E-09
   1.24919999      -7.80655984E-09
   1.26119995      -8.43932657E-09
   1.27320004      -7.56632446E-09
   1.28520000      -4.78423390E-09
   1.29719996       2.65750172E-10
   1.30920005       7.87650745E-09
   1.32120001       1.82626305E-08
   1.33319998       3.15615942E-08
   1.34519994       4.78525699E-08
   1.35720003       6.71963534E-08
   1.36919999       8.96986734E-08
   1.38119996       1.15597729E-07
   1.39320004       1.45374869E-07
   1.40520000       1.79885532E-07
   1.41719997       2.20505058E-07
   1.42920005       2.69282424E-07
   1.44120002       3.29092444E-07
   1.45319998       4.03775061E-07
   1.46519995       4.98250131E-07
   1.47720003       6.18594584E-07
   1.48920000       7.72068631E-07
   1.50119996       9.67081633E-07
   1.51320004       1.21308472E-06
   1.52520001       1.52038649E-06
   1.53719997       1.89988930E-06
   1.54920006       2.36274582E-06
   1.56120002       2.91994479E-06
   1.57319999       3.58183979E-06
   1.58519995       4.35763423E-06
   1.59720004       5.25484802E-06
   1.60920000       6.27879081E-06
   1.62119997       7.43206328E-06
   1.63320005       8.71412703E-06
   1.64520001       1.01209653E-05
   1.65719998       1.16448500E-05
   1.66919994       1.32742589E-05
   1.68120003       1.49939415E-05
   1.69319999       1.67851485E-05
   1.70519996       1.86260295E-05
   1.71720004       2.04921726E-05
   1.72920001       2.23573134E-05
   1.74119997       2.41941270E-05
   1.75320005       2.59751141E-05
   1.76520002       2.76735300E-05
   1.77719998       2.92643126E-05
   1.78919995       3.07249502E-05
   1.80120003       3.20362960E-05
   1.81320000       3.31831834E-05
   1.82519996       3.41549348E-05
   1.83720005       3.49456423E-05
   1.84920001       3.55542506E-05
   1.86119998       3.59844053E-05
   1.87320006       3.62441060E-05
   1.88520002       3.63451582E-05
   1.89719999       3.63024483E-05
   1.90919995       3.61331549E-05
   1.92120004       3.58558063E-05
   1.93320000       3.54893964E-05
   1.94519997       3.50524751E-05
   1.95720005       3.45623776E-05
   1.96920002       3.40345396E-05
   1.98119998       3.34820215E-05
   1.99319994       3.29152281E-05
   2.00519991       3.23418353E-05
   2.01719999       3.17669437E-05
   2.02920008       3.11934564E-05
   2.04119992       3.06226102E-05
   2.05320001       3.00546635E-05
   2.06520009       2.94896799E-05
   2.07719994       2.89283216E-05
   2.08920002       2.83726422E-05
   2.10120010       2.78267653E-05
   2.11319995       2.72974248E-05
   2.12520003       2.67942924E-05
   2.13720012       2.63300826E-05
   2.14919996       2.59203807E-05
   2.16120005       2.55832128E-05
   2.17319989       2.53383550E-05
   2.18519998       2.52063874E-05
   2.19720006       2.52076115E-05
   2.20919991       2.53607886E-05
   2.22119999       2.56818494E-05
   2.23320007       2.61826208E-05
   2.24519992       2.68696458E-05
   2.25720000       2.77432082E-05
   2.26920009       2.87965922E-05
   2.28119993       3.00156717E-05
   2.29320002       3.13788478E-05
   2.30520010       3.28574097E-05
   2.31719995       3.44162399E-05
   2.32920003       3.60149606E-05
   2.34120011       3.76093594E-05
   2.35319996       3.91531357E-05
   2.36520004       4.05998326E-05
   2.37719989       4.19049029E-05
   2.38919997       4.30277614E-05
   2.40120006       4.39337964E-05
   2.41319990       4.45961414E-05
   2.42519999       4.49972213E-05
   2.43720007       4.51299093E-05
   2.44919991       4.49982726E-05
   2.46120000       4.46178492E-05
   2.47320008       4.40154436E-05
   2.48519993       4.32284251E-05
   2.49720001       4.23035890E-05
   2.50920010       4.12955851E-05
   2.52119994       4.02649712E-05
   2.53320003       3.92760412E-05
   2.54520011       3.83944098E-05
   2.55719995       3.76845455E-05
   2.56920004       3.72072827E-05
   2.58119988       3.70174239E-05
   2.59319997       3.71615533E-05
   2.60520005       3.76760836E-05
   2.61719990       3.85856802E-05
   2.62919998       3.99020137E-05
   2.64120007       4.16229959E-05
   2.65319991       4.37324597E-05
   2.66520000       4.62002536E-05
   2.67720008       4.89828490E-05
   2.68919992       5.20242902E-05
   2.70120001       5.52576312E-05
   2.71320009       5.86066162E-05
   2.72519994       6.19877173E-05
   2.73720002       6.53123570E-05
   2.74920011       6.84892730E-05
   2.76119995       7.14269700E-05
   2.77320004       7.40361793E-05
   2.78520012       7.62322379E-05
   2.79719996       7.79373077E-05
   2.80920005       7.90824342E-05
   2.82119989       7.96092791E-05
   2.83319998       7.94716034E-05
   2.84520006       7.86363744E-05
   2.85719991       7.70844999E-05
   2.86919999       7.48112361E-05
   2.88120008       7.18261290E-05
   2.89319992       6.81526653E-05
   2.90520000       6.38275378E-05
   2.91720009       5.88996409E-05
   2.92919993       5.34287719E-05
   2.94120002       4.74840817E-05
   2.95320010       4.11424262E-05
   2.96519995       3.44865512E-05
   2.97720003       2.76032461E-05
   2.98920012       2.05814940E-05
   3.00119996       1.35106739E-05
   3.01320004       6.47884872E-06
   3.02519989      -4.28823228E-07
   3.03719997      -7.13150303E-06
   3.04920006      -1.35539385E-05
   3.06119990      -1.96275178E-05
   3.07319999      -2.52911523E-05
   3.08520007      -3.04919831E-05
   3.09719992      -3.51858653E-05
   3.10920000      -3.93377231E-05
   3.12120008      -4.29217143E-05
   3.13319993      -4.59212642E-05
   3.14520001      -4.83289514E-05
   3.15720010      -5.01462819E-05
   3.16919994      -5.13833256E-05
   3.18120003      -5.20583126E-05
   3.19320011      -5.21970396E-05
   3.20519996      -5.18322449E-05
   3.21720004      -5.10028840E-05
   3.22919989      -4.97533038E-05
   3.24119997      -4.81323441E-05
   3.25320005      -4.61923410E-05
   3.26519990      -4.39881151E-05
   3.27719998      -4.15758550E-05
   3.28920007      -3.90119894E-05
   3.30119991      -3.63520485E-05
   3.31320000      -3.36495541E-05
   3.32520008      -3.09549177E-05
   3.33719993      -2.83144454E-05
   3.34920001      -2.57694064E-05
   3.36120009      -2.33552437E-05
   3.37319994      -2.11009246E-05
   3.38520002      -1.90284518E-05
   3.39720011      -1.71525608E-05
   3.40919995      -1.54806385E-05
   3.42120004      -1.40128232E-05
   3.43319988      -1.27423427E-05
   3.44519997      -1.16560568E-05
   3.45720005      -1.07351971E-05
   3.46919990      -9.95629580E-06
   3.48119998      -9.29227372E-06
   3.49320006      -8.71364409E-06
   3.50519991      -8.18981880E-06
   3.51719999      -7.69044800E-06
   3.52920008      -7.18676893E-06
   3.54119992      -6.65290418E-06
   3.55320001      -6.06705817E-06
   3.56520009      -5.41256259E-06
   3.57719994      -4.67872405E-06
   3.58920002      -3.86142710E-06
   3.60120010      -2.96345070E-06
   3.61319995      -1.99448186E-06
   3.62520003      -9.70800215E-07
   3.63720012       8.53535980E-08
   3.64919996       1.14671684E-06
   3.66120005       2.18220953E-06
   3.67319989       3.15836269E-06
   3.68519998       4.04089951E-06
   3.69720006       4.79640858E-06
   3.70919991       5.39401844E-06
   3.72119999       5.80700043E-06
   3.73320007       6.01421607E-06
   3.74519992       6.00133853E-06
   3.75720000       5.76177445E-06
   3.76920009       5.29724321E-06
   3.78119993       4.61797936E-06
   3.79320002       3.74254137E-06
   3.80520010       2.69723705E-06
   3.81719995       1.51518464E-06
   3.82920003       2.35069223E-07
   3.84120011      -1.10035933E-06
   3.85319996      -2.44596708E-06
   3.86520004      -3.75601599E-06
   3.87719989      -4.98596728E-06
   3.88919997      -6.09421977E-06
   3.90120006      -7.04371723E-06
   3.91319990      -7.80335085E-06
   3.92519999      -8.34910588E-06
   3.93720007      -8.66490973E-06
   3.94919991      -8.74314446E-06
   3.96120000      -8.58482326E-06
   3.97320008      -8.19942488E-06
   3.98519993      -7.60440253E-06
   3.99720001      -6.82438986E-06
   4.00920010      -5.89016190E-06
   4.02120018      -4.83738086E-06
   4.03319979      -3.70519069E-06
   4.04519987      -2.53471330E-06
   4.05719995      -1.36751282E-06
   4.06920004      -2.44073277E-07
   4.08120012       7.97642485E-07
   4.09320021       1.72351247E-06
   4.10519981       2.50439780E-06
   4.11719990       3.11707890E-06
   4.12919998       3.54494978E-06
   4.14120007       3.77845231E-06
   4.15320015       3.81523978E-06
   4.16520023       3.66006861E-06
   4.17719984       3.32443392E-06
   4.18919992       2.82596443E-06
   4.20120001       2.18760533E-06
   4.21320009       1.43663010E-06
   4.22520018       6.03514025E-07
   4.23719978      -2.79277060E-07
   4.24919987      -1.17854165E-06
   4.26119995      -2.06158779E-06
   4.27320004      -2.89742593E-06
   4.28520012      -3.65786082E-06
   4.29720020      -4.31844364E-06
   4.30919981      -4.85925284E-06
   4.32119989      -5.26547410E-06
   4.33319998      -5.52776419E-06
   4.34520006      -5.64239144E-06
   4.35720015      -5.61115257E-06
   4.36920023      -5.44107706E-06
   4.38119984      -5.14392968E-06
   4.39319992      -4.73554746E-06
   4.40520000      -4.23502706E-06
   4.41720009      -3.66380618E-06
   4.42920017      -3.04467949E-06
   4.44119978      -2.40078543E-06
   4.45319986      -1.75461525E-06
   4.46519995      -1.12708312E-06
   4.47720003      -5.36700554E-07
   4.48920012       1.11169007E-09
   4.50120020       4.74546226E-07
   4.51319981       8.75748356E-07
   4.52519989       1.20096092E-06
   4.53719997       1.45047932E-06
   4.54920006       1.62842343E-06
   4.56120014       1.74234765E-06
   4.57320023       1.80271377E-06
   4.58519983       1.82225028E-06
   4.59719992       1.81524467E-06
   4.60920000       1.79679535E-06
   4.62120008       1.78206733E-06
   4.63320017       1.78558582E-06
   4.64519978       1.82060057E-06
   4.65719986       1.89855325E-06
   4.66919994       2.02865931E-06
   4.68120003       2.21762480E-06
   4.69320011       2.46949298E-06
   4.70520020       2.78562084E-06
   4.71719980       3.16476780E-06
   4.72919989       3.60328136E-06
   4.74119997       4.09535778E-06
   4.75320005       4.63335891E-06
   4.76520014       5.20816639E-06
   4.77720022       5.80955157E-06
   4.78919983       6.42655368E-06
   4.80119991       7.04785180E-06
   4.81320000       7.66212543E-06
   4.82520008       8.25839379E-06
   4.83720016       8.82634595E-06
   4.84919977       9.35663684E-06
   4.86119986       9.84117105E-06
   4.87319994       1.02733584E-05
   4.88520002       1.06483449E-05
   4.89720011       1.09632156E-05
   4.90920019       1.12171474E-05
   4.92119980       1.14115182E-05
   4.93319988       1.15499615E-05
   4.94519997       1.16383289E-05
   4.95720005       1.16845840E-05
   4.96920013       1.16985939E-05
   4.98120022       1.16918291E-05
   4.99319983       1.16769679E-05
   5.00519991       1.16674191E-05
   5.01719999       1.16767733E-05
   5.02920008       1.17182171E-05
   5.04120016       1.18039225E-05
   5.05319977       1.19444467E-05
   5.06519985       1.21481798E-05
   5.07719994       1.24208564E-05
   5.08920002       1.27651874E-05
   5.10120010       1.31806064E-05
   5.11320019       1.36631697E-05
   5.12519979       1.42056097E-05
   5.13719988       1.47975588E-05
   5.14919996       1.54259269E-05
   5.16120005       1.60754134E-05
   5.17320013       1.67291382E-05
   5.18520021       1.73693679E-05
   5.19719982       1.79782837E-05
   5.20919991       1.85387671E-05
   5.22119999       1.90351784E-05
   5.23320007       1.94540717E-05
   5.24520016       1.97848385E-05
   5.25719976       2.00202503E-05
   5.26919985       2.01568637E-05
   5.28119993       2.01953098E-05
   5.29320002       2.01404273E-05
   5.30520010       2.00012291E-05
   5.31720018       1.97907284E-05
   5.32919979       1.95256089E-05
   5.34119987       1.92257412E-05
   5.35319996       1.89135699E-05
   5.36520004       1.86133620E-05
   5.37720013       1.83503944E-05
   5.38920021       1.81500218E-05
   5.40119982       1.80367315E-05
   5.41319990       1.80331808E-05
   5.42519999       1.81592295E-05
   5.43720007       1.84310575E-05
   5.44920015       1.88603390E-05
   5.46120024       1.94535696E-05
   5.47319984       2.02114952E-05
   5.48519993       2.11287497E-05
   5.49720001       2.21936662E-05
   5.50920010       2.33883038E-05
   5.52120018       2.46887066E-05
   5.53319979       2.60653596E-05
   5.54519987       2.74838894E-05
   5.55719995       2.89059353E-05
   5.56920004       3.02902063E-05
   5.58120012       3.15936850E-05
   5.59320021       3.27729176E-05
   5.60519981       3.37853671E-05
   5.61719990       3.45908011E-05
   5.62919998       3.51526578E-05
   5.64120007       3.54393378E-05
   5.65320015       3.54254298E-05
   5.66520023       3.50928167E-05
   5.67719984       3.44315886E-05
   5.68919992       3.34408251E-05
   5.70120001       3.21291191E-05
   5.71320009       3.05148624E-05
   5.72520018       2.86262748E-05
   5.73719978       2.65010985E-05
   5.74919987       2.41860125E-05
   5.76119995       2.17356755E-05
   5.77320004       1.92114803E-05
   5.78520012       1.66799618E-05
   5.79720020       1.42109429E-05
   5.80919981       1.18754069E-05
   5.82119989       9.74320847E-06
   5.83319998       7.88064426E-06
   5.84520006       6.34800017E-06
   5.85720015       5.19716286E-06
   5.86920023       4.46939657E-06
   5.88119984       4.19340086E-06
   5.89319992       4.38374673E-06
   5.90520000       5.03978708E-06
   5.91720009       6.14512373E-06
   5.92920017       7.66767153E-06
   5.94119978       9.56035819E-06
   5.95319986       1.17624313E-05
   5.96519995       1.42013623E-05
   5.97720003       1.67952439E-05
   5.98920012       1.94556142E-05
   6.00120020       2.20905677E-05
   6.01319981       2.46080290E-05
   6.02519989       2.69190568E-05
   6.03719997       2.89410073E-05
   6.04920006       3.06004586E-05
   6.06120014       3.18357270E-05
   6.07320023       3.25989349E-05
   6.08519983       3.28574970E-05
   6.09719992       3.25950168E-05
   6.10920000       3.18115708E-05
   6.12120008       3.05234062E-05
   6.13320017       2.87620860E-05
   6.14519978       2.65731451E-05
   6.15719986       2.40143690E-05
   6.16919994       2.11537372E-05
   6.18120003       1.80671777E-05
   6.19320011       1.48361714E-05
   6.20520020       1.15453358E-05
   6.21719980       8.28002885E-06
   6.22919989       5.12405950E-06
   6.24119997       2.15755517E-06
   6.25320005      -5.44964166E-07
   6.26520014      -2.91629181E-06
   6.27720022      -4.89797731E-06
   6.28919983      -6.44150850E-06
   6.30119991      -7.50921936E-06
   6.31320000      -8.07493325E-06
   6.32520008      -8.12433609E-06
   6.33720016      -7.65509503E-06
   6.34919977      -6.67670611E-06
   6.36119986      -5.21010634E-06
   6.37319994      -3.28702572E-06
   6.38520002      -9.49107971E-07
   6.39720011       1.75319110E-06
   6.40920019       4.76190644E-06
   6.42119980       8.01303668E-06
   6.43319988       1.14381628E-05
   6.44519997       1.49661328E-05
   6.45720005       1.85248173E-05
   6.46920013       2.20428483E-05
   6.48120022       2.54512906E-05
   6.49319983       2.86852628E-05
   6.50519991       3.16853511E-05
   6.51719999       3.43988904E-05
   6.52920008       3.67810026E-05
   6.54120016       3.87953733E-05
   6.55319977       4.04147941E-05
   6.56519985       4.16213952E-05
   6.57719994       4.24066166E-05
   6.58920002       4.27708765E-05
   6.60120010       4.27230516E-05
   6.61320019       4.22796656E-05
   6.62519979       4.14639762E-05
   6.63719988       4.03048689E-05
   6.64919996       3.88357184E-05
   6.66120005       3.70931812E-05
   6.67320013       3.51159833E-05
   6.68520021       3.29438226E-05
   6.69719982       3.06162838E-05
   6.70919991       2.81719658E-05
   6.72119999       2.56476706E-05
   6.73320007       2.30778496E-05
   6.74520016       2.04941643E-05
   6.75719976       1.79252493E-05
   6.76919985       1.53966375E-05
   6.78119993       1.29308119E-05
   6.79320002       1.05473564E-05
   6.80520010       8.26320320E-06
   6.81720018       6.09288327E-06
   6.82919979       4.04879620E-06
   6.84119987       2.14143029E-06
   6.85319996       3.79537795E-07
   6.86520004      -1.22977769E-06
   6.87720013      -2.68103372E-06
   6.88920021      -3.97043596E-06
   6.90119982      -5.09599022E-06
   6.91319990      -6.05765581E-06
   6.92519999      -6.85750501E-06
   6.93720007      -7.49986475E-06
   6.94920015      -7.99139525E-06
   6.96120024      -8.34107595E-06
   6.97319984      -8.56010047E-06
   6.98519993      -8.66162372E-06
   6.99720001      -8.66039318E-06
   7.00920010      -8.57225950E-06
   7.02120018      -8.41357632E-06
   7.03319979      -8.20054629E-06
   7.04519987      -7.94853531E-06
   7.05719995      -7.67140773E-06
   7.06920004      -7.38092558E-06
   7.08120012      -7.08626703E-06
   7.09320021      -6.79368759E-06
   7.10519981      -6.50636275E-06
   7.11719990      -6.22441439E-06
   7.12919998      -5.94513040E-06
   7.14120007      -5.66335439E-06
   7.15320015      -5.37202413E-06
   7.16520023      -5.06281413E-06
   7.17719984      -4.72684769E-06
   7.18919992      -4.35542188E-06
   7.20120001      -3.94071049E-06
   7.21320009      -3.47639457E-06
   7.22520018      -2.95819086E-06
   7.23719978      -2.38425491E-06
   7.24919987      -1.75544233E-06
   7.26119995      -1.07542780E-06
   7.27320004      -3.50691181E-07
   7.28520012       4.09619730E-07
   7.29720020       1.19391780E-06
   7.30919981       1.98847920E-06
   7.32119989       2.77779441E-06
   7.33319998       3.54494910E-06
   7.34520006       4.27202303E-06
   7.35720015       4.94049937E-06
   7.36920023       5.53169184E-06
   7.38119984       6.02719456E-06
   7.39319992       6.40936150E-06
   7.40520000       6.66182996E-06
   7.41720009       6.77008939E-06
   7.42920017       6.72209353E-06
   7.44119978       6.50890070E-06
   7.45319986       6.12532540E-06
   7.46519995       5.57057092E-06
   7.47720003       4.84879047E-06
   7.48920012       3.96954829E-06
   7.50120020       2.94812344E-06
   7.51319981       1.80561483E-06
   7.52519989       5.68803443E-07
   7.53719997      -7.30252339E-07
   7.54920006      -2.05490892E-06
   7.56120014      -3.36491507E-06
   7.57320023      -4.61765512E-06
   7.58519983      -5.76961520E-06
   7.59719992      -6.77801290E-06
   7.60920000      -7.60251896E-06
   7.62120008      -8.20697278E-06
   7.63320017      -8.56101269E-06
   7.64519978      -8.64150752E-06
   7.65719986      -8.43372982E-06
   7.66919994      -7.93217168E-06
   7.68120003      -7.14097632E-06
   7.69320011      -6.07394350E-06
   7.70520020      -4.75410707E-06
   7.71719980      -3.21290895E-06
   7.72919989      -1.48901222E-06
   7.74119997       3.73180598E-07
   7.75320005       2.32522575E-06
   7.76520014       4.31646140E-06
   7.77720022       6.29586111E-06
   7.78919983       8.21383492E-06
   7.80119991       1.00238849E-05
   7.81320000       1.16840511E-05
   7.82520008       1.31581064E-05
   7.83720016       1.44164505E-05
   7.84919977       1.54367062E-05
   7.86119986       1.62040051E-05
   7.87319994       1.67110284E-05
   7.88520002       1.69577597E-05
   7.89720011       1.69510859E-05
   7.90920019       1.67042235E-05
   7.92119980       1.62360229E-05
   7.93319988       1.55702455E-05
   7.94519997       1.47347837E-05
   7.95720005       1.37608849E-05
   7.96920013       1.26823979E-05
   7.98120022       1.15350358E-05
   7.99319983       1.03556604E-05
   8.00520039       9.18158912E-06
   8.01720047       8.04989577E-06
   8.02919960       6.99671727E-06
   8.04119968       6.05652713E-06
   8.05319977       5.26139684E-06
   8.06519985       4.64024060E-06
   8.07719994       4.21804680E-06
   8.08920002       4.01513353E-06
   8.10120010       4.04644425E-06
   8.11320019       4.32092338E-06
   8.12520027       4.84100929E-06
   8.13720036       5.60227727E-06
   8.14920044       6.59327316E-06
   8.16119957       7.79555103E-06
   8.17319965       9.18394471E-06
   8.18519974       1.07270798E-05
   8.19719982       1.23881155E-05
   8.20919991       1.41257005E-05
   8.22119999       1.58951225E-05
   8.23320007       1.76496069E-05
   8.24520016       1.93417218E-05
   8.25720024       2.09248537E-05
   8.26920033       2.23546522E-05
   8.28120041       2.35904536E-05
   8.29319954       2.45965857E-05
   8.30519962       2.53435155E-05
   8.31719971       2.58088094E-05
   8.32919979       2.59778590E-05
   8.34119987       2.58443506E-05
   8.35319996       2.54104853E-05
   8.36520004       2.46868985E-05
   8.37720013       2.36923497E-05
   8.38920021       2.24531395E-05
   8.40120029       2.10023099E-05
   8.41320038       1.93786545E-05
   8.42520046       1.76255671E-05
   8.43719959       1.57897830E-05
   8.44919968       1.39200301E-05
   8.46119976       1.20656696E-05
   8.47319984       1.02753302E-05
   8.48519993       8.59560078E-06
   8.49720001       7.06980973E-06
   8.50920010       5.73692387E-06
   8.52120018       4.63059769E-06
   8.53320026       3.77839865E-06
   8.54520035       3.20122285E-06
   8.55720043       2.91291212E-06
   8.56919956       2.92007417E-06
   8.58119965       3.22210235E-06
   8.59319973       3.81138011E-06
   8.60519981       4.67366181E-06
   8.61719990       5.78859544E-06
   8.62919998       7.13037844E-06
   8.64120007       8.66852224E-06
   8.65320015       1.03686925E-05
   8.66520023       1.21936127E-05
   8.67720032       1.41040100E-05
   8.68920040       1.60595719E-05
   8.70119953       1.80199077E-05
   8.71319962       1.99454698E-05
   8.72519970       2.17984398E-05
   8.73719978       2.35435473E-05
   8.74919987       2.51487800E-05
   8.76119995       2.65860217E-05
   8.77320004       2.78315511E-05
   8.78520012       2.88664269E-05
   8.79720020       2.96767394E-05
   8.80920029       3.02537337E-05
   8.82120037       3.05938083E-05
   8.83320045       3.06983711E-05
   8.84519958       3.05735848E-05
   8.85719967       3.02300432E-05
   8.86919975       2.96823036E-05
   8.88119984       2.89484015E-05
   8.89319992       2.80492932E-05
   8.90520000       2.70082910E-05
   8.91720009       2.58504915E-05
   8.92920017       2.46022191E-05
   8.94120026       2.32904931E-05
   8.95320034       2.19425292E-05
   8.96520042       2.05852684E-05
   8.97719955       1.92449570E-05
   8.98919964       1.79467261E-05
   9.00119972       1.67142280E-05
   9.01319981       1.55692596E-05
   9.02519989       1.45314343E-05
   9.03719997       1.36178514E-05
   9.04920006       1.28428028E-05
   9.06120014       1.22175034E-05
   9.07320023       1.17498621E-05
   9.08520031       1.14443083E-05
   9.09720039       1.13016777E-05
   9.10919952       1.13191882E-05
   9.12119961       1.14905115E-05
   9.13319969       1.18059697E-05
   9.14519978       1.22528318E-05
   9.15719986       1.28157462E-05
   9.16919994       1.34772736E-05
   9.18120003       1.42185136E-05
   9.19320011       1.50197920E-05
   9.20520020       1.58613748E-05
   9.21720028       1.67241706E-05
   9.22920036       1.75903697E-05
   9.24120045       1.84440178E-05
   9.25319958       1.92714215E-05
   9.26519966       2.00614468E-05
   9.27719975       2.08056135E-05
   9.28919983       2.14980300E-05
   9.30119991       2.21351511E-05
   9.31320000       2.27153814E-05
   9.32520008       2.32385555E-05
   9.33720016       2.37053355E-05
   9.34920025       2.41165817E-05
   9.36120033       2.44727289E-05
   9.37320042       2.47732605E-05
   9.38519955       2.50163048E-05
   9.39719963       2.51983929E-05
   9.40919971       2.53144208E-05
   9.42119980       2.53578291E-05
   9.43319988       2.53209691E-05
   9.44519997       2.51956626E-05
