 -0.622799993         1.00000002E-24
 -0.610800028         1.00000002E-24
 -0.598800004         1.00000002E-24
 -0.586799979         1.00000002E-24
 -0.574800014        -2.49770054E-21
 -0.562799990        -1.74951074E-20
 -0.550800025        -6.25405735E-20
 -0.538800001        -1.47091428E-19
 -0.526799977        -2.43360982E-19
 -0.514800012        -2.76194443E-19
 -0.502799988        -1.91782859E-19
 -0.490799993        -1.50885757E-19
 -0.478799999        -8.05626561E-19
 -0.466800004        -3.47328631E-18
 -0.454800010        -9.89835754E-18
 -0.442799985        -2.13295138E-17
 -0.430799991        -3.69434876E-17
 -0.418799996        -5.22071239E-17
 -0.406800002        -5.83575922E-17
 -0.394800007        -4.43901347E-17
 -0.382800013        -2.34906121E-18
 -0.370799989         6.48333841E-17
 -0.358799994         1.35836702E-16
 -0.346799999         1.68415508E-16
 -0.334800005         1.06514598E-16
 -0.322800010        -1.00861143E-16
 -0.310799986        -4.72083119E-16
 -0.298799992        -9.65876117E-16
 -0.286799997        -1.46839514E-15
 -0.274800003        -1.80731949E-15
 -0.262800008        -1.79849701E-15
 -0.250800014        -1.31759035E-15
 -0.238800004        -3.74772798E-16
 -0.226799995         8.38602217E-16
 -0.214800000         1.96007934E-15
 -0.202800006         2.53536189E-15
 -0.190799996         2.15269040E-15
 -0.178800002         5.91340064E-16
 -0.166800007        -2.07132696E-15
 -0.154799998        -5.44202914E-15
 -0.142800003        -8.89924578E-15
 -0.130799994        -1.17575491E-14
 -0.118799999        -1.34409136E-14
 -0.106799997        -1.35861137E-14
  -9.48000029E-02    -1.20263923E-14
  -8.28000009E-02    -8.66912811E-15
  -7.07999989E-02    -3.35318977E-15
  -5.88000007E-02     4.18716550E-15
  -4.67999987E-02     1.41486808E-14
  -3.48000005E-02     2.62721465E-14
  -2.28000004E-02     3.93860868E-14
  -1.08000003E-02     5.11567107E-14
   1.20000006E-03     5.83561181E-14
   1.31999999E-02     5.78408510E-14
   2.52000000E-02     4.81528540E-14
   3.72000001E-02     3.12899934E-14
   4.91999984E-02     1.38864428E-14
   6.12000003E-02     6.96413125E-15
   7.32000023E-02     2.36898852E-14
   8.51999968E-02     7.52054465E-14
   9.71999988E-02     1.65442950E-13
  0.109200001         2.86603992E-13
  0.121200003         4.17323619E-13
  0.133200005         5.25178588E-13
  0.145199999         5.74065860E-13
  0.157199994         5.35291267E-13
  0.169200003         3.99472420E-13
  0.181199998         1.85225058E-13
  0.193200007        -5.93348206E-14
  0.205200002        -2.64703569E-13
  0.217199996        -3.57346450E-13
  0.229200006        -2.82580979E-13
  0.241200000        -2.64785023E-14
  0.253199995         3.70838993E-13
  0.265199989         8.16817208E-13
  0.277200013         1.18552379E-12
  0.289200008         1.35124529E-12
  0.301200002         1.22824418E-12
  0.313199997         8.04634733E-13
  0.325199991         1.58066106E-13
  0.337199986        -5.55247634E-13
  0.349200010        -1.13926696E-12
  0.361200005        -1.41675192E-12
  0.373199999        -1.29200622E-12
  0.385199994        -7.97917234E-13
  0.397199988        -1.09238302E-13
  0.409200013         4.88146199E-13
  0.421200007         6.69971836E-13
  0.433200002         1.72988360E-13
  0.445199996        -1.10483660E-12
  0.457199991        -3.03303454E-12
  0.469199985        -5.23141079E-12
  0.481200010        -7.11937887E-12
  0.493200004        -8.02677889E-12
  0.505200028        -7.34340713E-12
  0.517199993        -4.67203229E-12
  0.529200017         5.34414669E-14
  0.541199982         6.51524841E-12
  0.553200006         1.40381708E-11
  0.565199971         2.16874869E-11
  0.577199996         2.84116133E-11
  0.589200020         3.31913837E-11
  0.601199985         3.51587995E-11
  0.613200009         3.36611954E-11
  0.625199974         2.82682454E-11
  0.637199998         1.87423705E-11
  0.649200022         5.00980464E-12
  0.661199987        -1.28267180E-11
  0.673200011        -3.44048817E-11
  0.685199976        -5.89462854E-11
  0.697200000        -8.50565521E-11
  0.709200025        -1.10542180E-10
  0.721199989        -1.32321334E-10
  0.733200014        -1.46503240E-10
  0.745199978        -1.48685425E-10
  0.757200003        -1.34475694E-10
  0.769200027        -1.00194547E-10
  0.781199992        -4.36661922E-11
  0.793200016         3.50241745E-11
  0.805199981         1.32937231E-10
  0.817200005         2.43963183E-10
  0.829200029         3.58857555E-10
  0.841199994         4.65656430E-10
  0.853200018         5.50453405E-10
  0.865199983         5.98485983E-10
  0.877200007         5.95460847E-10
  0.889199972         5.29043254E-10
  0.901199996         3.90436350E-10
  0.913200021         1.75972847E-10
  0.925199986        -1.11376096E-10
  0.937200010        -4.60705585E-10
  0.949199975        -8.52270643E-10
  0.961199999        -1.25718846E-09
  0.973200023        -1.63798752E-09
  0.985199988        -1.95022598E-09
  0.997200012        -2.14531770E-09
   1.00919998        -2.17457852E-09
   1.02119994        -1.99431938E-09
   1.03320003        -1.57162017E-09
   1.04519999        -8.90223395E-10
   1.05719995         4.41448579E-11
   1.06920004         1.19978627E-09
   1.08120000         2.51709475E-09
   1.09319997         3.90927868E-09
   1.10520005         5.26612043E-09
   1.11720002         6.46090292E-09
   1.12919998         7.36031902E-09
   1.14119995         7.83688314E-09
   1.15320003         7.78307818E-09
   1.16520000         7.12622450E-09
   1.17719996         5.84284132E-09
   1.18920004         3.97116029E-09
   1.20120001         1.62038893E-09
   1.21319997        -1.02461539E-09
   1.22520006        -3.70436215E-09
   1.23720002        -6.09216722E-09
   1.24919999        -7.80819231E-09
   1.26119995        -8.43948200E-09
   1.27320004        -7.56463070E-09
   1.28520000        -4.78072648E-09
   1.29719996         2.70576089E-10
   1.30920005         7.88176902E-09
   1.32120001         1.82672242E-08
   1.33319998         3.15644542E-08
   1.34519994         4.78529323E-08
   1.35720003         6.71939731E-08
   1.36919999         8.96939198E-08
   1.38119996         1.15591547E-07
   1.39320004         1.45368659E-07
   1.40520000         1.79880757E-07
   1.41719997         2.20503026E-07
   1.42920005         2.69284129E-07
   1.44120002         3.29098043E-07
   1.45319998         4.03784071E-07
   1.46519995         4.98261727E-07
   1.47720003         6.18607658E-07
   1.48920000         7.72082615E-07
   1.50119996         9.67096184E-07
   1.51320004         1.21310040E-06
   1.52520001         1.52040457E-06
   1.53719997         1.89991169E-06
   1.54920006         2.36277424E-06
   1.56120002         2.91998163E-06
   1.57319999         3.58188618E-06
   1.58519995         4.35769107E-06
   1.59720004         5.25491487E-06
   1.60920000         6.27886629E-06
   1.62119997         7.43214696E-06
   1.63320005         8.71421980E-06
   1.64520001         1.01210662E-05
   1.65719998         1.16449601E-05
   1.66919994         1.32743844E-05
   1.68120003         1.49940843E-05
   1.69319999         1.67853159E-05
   1.70519996         1.86262223E-05
   1.71720004         2.04923981E-05
   1.72920001         2.23575735E-05
   1.74119997         2.41944181E-05
   1.75320005         2.59754324E-05
   1.76520002         2.76738756E-05
   1.77719998         2.92646819E-05
   1.78919995         3.07253467E-05
   1.80120003         3.20367108E-05
   1.81320000         3.31836163E-05
   1.82519996         3.41553787E-05
   1.83720005         3.49460970E-05
   1.84920001         3.55547163E-05
   1.86119998         3.59848746E-05
   1.87320006         3.62445790E-05
   1.88520002         3.63456274E-05
   1.89719999         3.63029212E-05
   1.90919995         3.61336206E-05
   1.92120004         3.58562684E-05
   1.93320000         3.54898511E-05
   1.94519997         3.50529263E-05
   1.95720005         3.45628250E-05
   1.96920002         3.40349834E-05
   1.98119998         3.34824654E-05
   1.99319994         3.29156719E-05
   2.00519991         3.23422792E-05
   2.01719999         3.17673912E-05
   2.02920008         3.11939111E-05
   2.04119992         3.06230686E-05
   2.05320001         3.00551292E-05
   2.06520009         2.94901438E-05
   2.07719994         2.89287800E-05
   2.08920002         2.83730878E-05
   2.10120010         2.78271946E-05
   2.11319995         2.72978341E-05
   2.12520003         2.67946816E-05
   2.13720012         2.63304555E-05
   2.14919996         2.59207445E-05
   2.16120005         2.55835748E-05
   2.17319989         2.53387170E-05
   2.18519998         2.52067566E-05
   2.19720006         2.52079899E-05
   2.20919991         2.53611724E-05
   2.22119999         2.56822368E-05
   2.23320007         2.61830100E-05
   2.24519992         2.68700442E-05
   2.25720000         2.77436211E-05
   2.26920009         2.87970233E-05
   2.28119993         3.00161246E-05
   2.29320002         3.13793280E-05
   2.30520010         3.28579154E-05
   2.31719995         3.44167747E-05
   2.32920003         3.60155245E-05
   2.34120011         3.76099488E-05
   2.35319996         3.91537469E-05
   2.36520004         4.06004583E-05
   2.37719989         4.19055395E-05
   2.38919997         4.30284090E-05
   2.40120006         4.39344403E-05
   2.41319990         4.45967817E-05
   2.42519999         4.49978616E-05
   2.43720007         4.51305459E-05
   2.44919991         4.49989129E-05
   2.46120000         4.46184858E-05
   2.47320008         4.40160802E-05
   2.48519993         4.32290653E-05
   2.49720001         4.23042366E-05
   2.50920010         4.12962327E-05
   2.52119994         4.02656224E-05
   2.53320003         3.92766851E-05
   2.54520011         3.83950573E-05
   2.55719995         3.76852004E-05
   2.56920004         3.72079485E-05
   2.58119988         3.70181078E-05
   2.59319997         3.71622591E-05
   2.60520005         3.76768294E-05
   2.61719990         3.85864623E-05
   2.62919998         3.99028286E-05
   2.64120007         4.16238472E-05
   2.65319991         4.37333401E-05
   2.66520000         4.62011594E-05
   2.67720008         4.89837730E-05
   2.68919992         5.20252288E-05
   2.70120001         5.52585880E-05
   2.71320009         5.86075912E-05
   2.72519994         6.19887214E-05
   2.73720002         6.53133757E-05
   2.74920011         6.84902989E-05
   2.76119995         7.14279959E-05
   2.77320004         7.40372052E-05
   2.78520012         7.62332566E-05
   2.79719996         7.79383045E-05
   2.80920005         7.90834165E-05
   2.82119989         7.96102468E-05
   2.83319998         7.94725711E-05
   2.84520006         7.86373421E-05
   2.85719991         7.70854822E-05
   2.86919999         7.48122256E-05
   2.88120008         7.18271040E-05
   2.89319992         6.81536112E-05
   2.90520000         6.38284400E-05
   2.91720009         5.89004849E-05
   2.92919993         5.34295359E-05
   2.94120002         4.74847548E-05
   2.95320010         4.11430083E-05
   2.96519995         3.44870386E-05
   2.97720003         2.76036353E-05
   2.98920012         2.05817887E-05
   3.00119996         1.35108703E-05
   3.01320004         6.47893830E-06
   3.02519989        -4.28848210E-07
   3.03719997        -7.13165082E-06
   3.04920006        -1.35542114E-05
   3.06119990        -1.96279088E-05
   3.07319999        -2.52916616E-05
   3.08520007        -3.04925925E-05
   3.09719992        -3.51865565E-05
   3.10920000        -3.93384762E-05
   3.12120008        -4.29225147E-05
   3.13319993        -4.59221010E-05
   3.14520001        -4.83298136E-05
   3.15720010        -5.01471695E-05
   3.16919994        -5.13842497E-05
   3.18120003        -5.20592585E-05
   3.19320011        -5.21980000E-05
   3.20519996        -5.18332090E-05
   3.21720004        -5.10038371E-05
   3.22919989        -4.97542424E-05
   3.24119997        -4.81332681E-05
   3.25320005        -4.61932723E-05
   3.26519990        -4.39890755E-05
   3.27719998        -4.15768700E-05
   3.28920007        -3.90130845E-05
   3.30119991        -3.63532381E-05
   3.31320000        -3.36508492E-05
   3.32520008        -3.09563147E-05
   3.33719993        -2.83159407E-05
   3.34920001        -2.57709853E-05
   3.36120009        -2.33568862E-05
   3.37319994        -2.11026017E-05
   3.38520002        -1.90301271E-05
   3.39720011        -1.71541942E-05
   3.40919995        -1.54821810E-05
   3.42120004        -1.40142301E-05
   3.43319988        -1.27435724E-05
   3.44519997        -1.16570791E-05
   3.45720005        -1.07359983E-05
   3.46919990        -9.95688242E-06
   3.48119998        -9.29266571E-06
   3.49320006        -8.71387147E-06
   3.50519991        -8.18990793E-06
   3.51719999        -7.69041890E-06
   3.52920008        -7.18663387E-06
   3.54119992        -6.65266680E-06
   3.55320001        -6.06672347E-06
   3.56520009        -5.41214786E-06
   3.57719994        -4.67826749E-06
   3.58920002        -3.86098691E-06
   3.60120010        -2.96310191E-06
   3.61319995        -1.99429951E-06
   3.62520003        -9.70842507E-07
   3.63720012         8.50612309E-08
   3.64919996         1.14618990E-06
   3.66120005         2.18150649E-06
   3.67319989         3.15757052E-06
   3.68519998         4.04011780E-06
   3.69720006         4.79572600E-06
   3.70919991         5.39349776E-06
   3.72119999         5.80667120E-06
   3.73320007         6.01407373E-06
   3.74519992         6.00135627E-06
   3.75720000         5.76191769E-06
   3.76920009         5.29748559E-06
   3.78119993         4.61831269E-06
   3.79320002         3.74297611E-06
   3.80520010         2.69779275E-06
   3.81719995         1.51587926E-06
   3.82920003         2.35902547E-07
   3.84120011        -1.09941561E-06
   3.85319996        -2.44497051E-06
   3.86520004        -3.75504942E-06
   3.87719989        -4.98512145E-06
   3.88919997        -6.09358176E-06
   3.90120006        -7.04335253E-06
   3.91319990        -7.80329628E-06
   3.92519999        -8.34936782E-06
   3.93720007        -8.66546543E-06
   3.94919991        -8.74395937E-06
   3.96120000        -8.58586009E-06
   3.97320008        -8.20065452E-06
   3.98519993        -7.60580451E-06
   3.99720001        -6.82595783E-06
   4.00920010        -5.89189403E-06
   4.02120018        -4.83927170E-06
   4.03319979        -3.70722228E-06
   4.04519987        -2.53684948E-06
   4.05719995        -1.36969686E-06
   4.06920004        -2.46233583E-07
   4.08120012         7.95584640E-07
   4.09320021         1.72162936E-06
   4.10519981         2.50274593E-06
   4.11719990         3.11568897E-06
   4.12919998         3.54382291E-06
   4.14120007         3.77756214E-06
   4.15320015         3.81453810E-06
   4.16520023         3.65949677E-06
   4.17719984         3.32393506E-06
   4.18919992         2.82549354E-06
   4.20120001         2.18713603E-06
   4.21320009         1.43615659E-06
   4.22520018         6.03048704E-07
   4.23719978        -2.79710974E-07
   4.24919987        -1.17891898E-06
   4.26119995        -2.06188906E-06
   4.27320004        -2.89764171E-06
   4.28520012        -3.65799110E-06
   4.29720020        -4.31849548E-06
   4.30919981        -4.85923420E-06
   4.32119989        -5.26538770E-06
   4.33319998        -5.52760457E-06
   4.34520006        -5.64214497E-06
   4.35720015        -5.61080196E-06
   4.36920023        -5.44060640E-06
   4.38119984        -5.14333215E-06
   4.39319992        -4.73483033E-06
   4.40520000        -4.23421034E-06
   4.41720009        -3.66292124E-06
   4.42920017        -3.04376226E-06
   4.44119978        -2.39986775E-06
   4.45319986        -1.75372020E-06
   4.46519995        -1.12622115E-06
   4.47720003        -5.35871379E-07
   4.48920012         1.91638283E-09
   4.50120020         4.75337487E-07
   4.51319981         8.76535125E-07
   4.52519989         1.20174809E-06
   4.53719997         1.45126842E-06
   4.54920006         1.62921640E-06
   4.56120014         1.74314880E-06
   4.57320023         1.80352822E-06
   4.58519983         1.82308406E-06
   4.59719992         1.81609767E-06
   4.60920000         1.79765652E-06
   4.62120008         1.78290793E-06
   4.63320017         1.78635935E-06
   4.64519978         1.82124677E-06
   4.65719986         1.89900379E-06
   4.66919994         2.02885099E-06
   4.68120003         2.21750793E-06
   4.69320011         2.46903960E-06
   4.70520020         2.78482594E-06
   4.71719980         3.16364572E-06
   4.72919989         3.60185572E-06
   4.74119997         4.09365339E-06
   4.75320005         4.63139349E-06
   4.76520014         5.20594676E-06
   4.77720022         5.80707774E-06
   4.78919983         6.42382747E-06
   4.80119991         7.04488457E-06
   4.81320000         7.65894765E-06
   4.82520008         8.25506140E-06
   4.83720016         8.82293716E-06
   4.84919977         9.35324624E-06
   4.86119986         9.83789778E-06
   4.87319994         1.02702970E-05
   4.88520002         1.06455755E-05
   4.89720011         1.09607972E-05
   4.90920019         1.12151156E-05
   4.92119980         1.14098939E-05
   4.93319988         1.15487437E-05
   4.94519997         1.16375068E-05
   4.95720005         1.16841338E-05
   4.96920013         1.16984775E-05
   4.98120022         1.16919919E-05
   4.99319983         1.16773363E-05
   5.00519991         1.16679075E-05
   5.01719999         1.16772871E-05
   5.02920008         1.17186582E-05
   5.04120016         1.18041999E-05
   5.05319977         1.19444812E-05
   5.06519985         1.21479097E-05
   5.07719994         1.24202397E-05
   5.08920002         1.27641988E-05
   5.10120010         1.31792340E-05
   5.11320019         1.36614108E-05
   5.12519979         1.42034723E-05
   5.13719988         1.47950677E-05
   5.14919996         1.54231220E-05
   5.16120005         1.60723557E-05
   5.17320013         1.67259059E-05
   5.18520021         1.73660574E-05
   5.19719982         1.79749932E-05
   5.20919991         1.85355948E-05
   5.22119999         1.90322044E-05
   5.23320007         1.94513523E-05
   5.24520016         1.97824083E-05
   5.25719976         2.00181184E-05
   5.26919985         2.01550283E-05
   5.28119993         2.01937655E-05
   5.29320002         2.01391722E-05
   5.30520010         2.00002687E-05
   5.31720018         1.97900790E-05
   5.32919979         1.95252796E-05
   5.34119987         1.92257357E-05
   5.35319996         1.89138627E-05
   5.36520004         1.86139077E-05
   5.37720013         1.83511165E-05
   5.38920021         1.81508276E-05
   5.40119982         1.80375209E-05
   5.41319990         1.80338611E-05
   5.42519999         1.81597334E-05
   5.43720007         1.84313485E-05
   5.44920015         1.88604172E-05
   5.46120024         1.94534568E-05
   5.47319984         2.02112315E-05
   5.48519993         2.11283732E-05
   5.49720001         2.21932078E-05
   5.50920010         2.33877781E-05
   5.52120018         2.46881173E-05
   5.53319979         2.60647103E-05
   5.54519987         2.74831891E-05
   5.55719995         2.89052077E-05
   5.56920004         3.02894987E-05
   5.58120012         3.15930665E-05
   5.59320021         3.27724592E-05
   5.60519981         3.37851379E-05
   5.61719990         3.45908593E-05
   5.62919998         3.51530289E-05
   5.64120007         3.54400145E-05
   5.65320015         3.54263793E-05
   5.66520023         3.50939845E-05
   5.67719984         3.44329164E-05
   5.68919992         3.34422621E-05
   5.70120001         3.21306252E-05
   5.71320009         3.05164322E-05
   5.72520018         2.86279155E-05
   5.73719978         2.65028393E-05
   5.74919987         2.41878697E-05
   5.76119995         2.17376601E-05
   5.77320004         1.92135722E-05
   5.78520012         1.66821137E-05
   5.79720020         1.42130693E-05
   5.80919981         1.18774087E-05
   5.82119989         9.74497198E-06
   5.83319998         7.88206216E-06
   5.84520006         6.34897970E-06
   5.85720015         5.19763580E-06
   5.86920023         4.46931972E-06
   5.88119984         4.19275648E-06
   5.89319992         4.38253801E-06
   5.90520000         5.03803403E-06
   5.91720009         6.14285864E-06
   5.92920017         7.66493758E-06
   5.94119978         9.55720770E-06
   5.95319986         1.17589252E-05
   5.96519995         1.41975770E-05
   5.97720003         1.67912713E-05
   5.98920012         1.94515596E-05
   6.00120020         2.20865513E-05
   6.01319981         2.46041800E-05
   6.02519989         2.69155098E-05
   6.03719997         2.89378950E-05
   6.04920006         3.05978938E-05
   6.06120014         3.18338134E-05
   6.07320023         3.25977453E-05
   6.08519983         3.28570750E-05
   6.09719992         3.25953770E-05
   6.10920000         3.18126986E-05
   6.12120008         3.05252688E-05
   6.13320017         2.87646162E-05
   6.14519978         2.65762756E-05
   6.15719986         2.40180161E-05
   6.16919994         2.11578135E-05
   6.18120003         1.80715924E-05
   6.19320011         1.48408280E-05
   6.20520020         1.15501334E-05
   6.21719980         8.28486191E-06
   6.22919989         5.12882207E-06
   6.24119997         2.16214426E-06
   6.25320005        -5.40649978E-07
   6.26520014        -2.91235028E-06
   6.27720022        -4.89450122E-06
   6.28919983        -6.43858357E-06
   6.30119991        -7.50692516E-06
   6.31320000        -8.07333527E-06
   6.32520008        -8.12348753E-06
   6.33720016        -7.65502318E-06
   6.34919977        -6.67741233E-06
   6.36119986        -5.21155971E-06
   6.37319994        -3.28916599E-06
   6.38520002        -9.51852030E-07
   6.39720011         1.74994000E-06
   6.40920019         4.75824754E-06
   6.42119980         8.00906219E-06
   6.43319988         1.14339418E-05
   6.44519997         1.49617208E-05
   6.45720005         1.85202498E-05
   6.46920013         2.20381535E-05
   6.48120022         2.54465140E-05
   6.49319983         2.86804589E-05
   6.50519991         3.16805963E-05
   6.51719999         3.43942775E-05
   6.52920008         3.67766224E-05
   6.54120016         3.87913169E-05
   6.55319977         4.04111270E-05
   6.56519985         4.16181538E-05
   6.57719994         4.24038044E-05
   6.58920002         4.27684827E-05
   6.60120010         4.27210507E-05
   6.61320019         4.22780358E-05
   6.62519979         4.14627175E-05
   6.63719988         4.03040067E-05
   6.64919996         3.88352892E-05
   6.66120005         3.70932285E-05
   6.67320013         3.51165654E-05
   6.68520021         3.29449722E-05
   6.69719982         3.06180482E-05
   6.70919991         2.81743596E-05
   6.72119999         2.56507192E-05
   6.73320007         2.30815676E-05
   6.74520016         2.04985736E-05
   6.75719976         1.79303679E-05
   6.76919985         1.54024765E-05
   6.78119993         1.29373630E-05
   6.79320002         1.05545923E-05
   6.80520010         8.27106669E-06
   6.81720018         6.10129109E-06
   6.82919979         4.05764513E-06
   6.84119987         2.15060663E-06
   6.85319996         3.88923695E-07
   6.86520004        -1.22029246E-06
   6.87720013        -2.67155588E-06
   6.88920021        -3.96107089E-06
   6.90119982        -5.08683979E-06
   6.91319990        -6.04882143E-06
   6.92519999        -6.84908809E-06
   6.93720007        -7.49196170E-06
   6.94920015        -7.98409019E-06
   6.96120024        -8.33443664E-06
   6.97319984        -8.55417238E-06
   6.98519993        -8.65642869E-06
   6.99720001        -8.65594029E-06
   7.00920010        -8.56854604E-06
   7.02120018        -8.41060501E-06
   7.03319979        -8.19832894E-06
   7.04519987        -7.94709285E-06
   7.05719995        -7.67076745E-06
   7.06920004        -7.38111385E-06
   7.08120012        -7.08729749E-06
   7.09320021        -6.79555478E-06
   7.10519981        -6.50903530E-06
   7.11719990        -6.22784091E-06
   7.12919998        -5.94924177E-06
   7.14120007        -5.66807148E-06
   7.15320015        -5.37726373E-06
   7.16520023        -5.06849256E-06
   7.17719984        -4.73288083E-06
   7.18919992        -4.36172513E-06
   7.20120001        -3.94719609E-06
   7.21320009        -3.48297340E-06
   7.22520018        -2.96477378E-06
   7.23719978        -2.39075803E-06
   7.24919987        -1.76179276E-06
   7.26119995        -1.08156644E-06
   7.27320004        -3.56570808E-07
   7.28520012         4.04035461E-07
   7.29720020         1.18866205E-06
   7.30919981         1.98358703E-06
   7.32119989         2.77330651E-06
   7.33319998         3.54091026E-06
   7.34520006         4.26847464E-06
   7.35720015         4.93746984E-06
   7.36920023         5.52918755E-06
   7.38119984         6.02519094E-06
   7.39319992         6.40780490E-06
   7.40520000         6.66064716E-06
   7.41720009         6.76920217E-06
   7.42920017         6.72143415E-06
   7.44119978         6.50842640E-06
   7.45319986         6.12502572E-06
   7.46519995         5.57046087E-06
   7.47720003         4.84890143E-06
   7.48920012         3.96990890E-06
   7.50120020         2.94874485E-06
   7.51319981         1.80647714E-06
   7.52519989         5.69856127E-07
   7.53719997        -7.29084491E-07
   7.54920006        -2.05371339E-06
   7.56120014        -3.36377502E-06
   7.57320023        -4.61663694E-06
   7.58519983        -5.76876300E-06
   7.59719992        -6.77735079E-06
   7.60920000        -7.60205830E-06
   7.62120008        -8.20672631E-06
   7.63320017        -8.56099905E-06
   7.64519978        -8.64176127E-06
   7.65719986        -8.43429098E-06
   7.66919994        -7.93308300E-06
   7.68120003        -7.14226871E-06
   7.69320011        -6.07562333E-06
   7.70520020        -4.75615070E-06
   7.71719980        -3.21526159E-06
   7.72919989        -1.49159621E-06
   7.74119997         3.70455496E-07
   7.75320005         2.32245156E-06
   7.76520014         4.31371927E-06
   7.77720022         6.29321767E-06
   7.78919983         8.21133835E-06
   7.80119991         1.00215675E-05
   7.81320000         1.16819328E-05
   7.82520008         1.31561965E-05
   7.83720016         1.44147507E-05
   7.84919977         1.54352092E-05
   7.86119986         1.62027063E-05
   7.87319994         1.67099097E-05
   7.88520002         1.69568066E-05
   7.89720011         1.69502873E-05
   7.90920019         1.67035705E-05
   7.92119980         1.62355173E-05
   7.93319988         1.55698926E-05
   7.94519997         1.47345863E-05
   7.95720005         1.37608422E-05
   7.96920013         1.26824880E-05
   7.98120022         1.15352177E-05
   7.99319983         1.03558768E-05
   8.00520039         9.18176556E-06
   8.01720047         8.04996034E-06
   8.02919960         6.99660131E-06
   8.04119968         6.05617788E-06
   8.05319977         5.26078293E-06
   8.06519985         4.63934884E-06
   8.07719994         4.21687810E-06
   8.08920002         4.01369289E-06
   8.10120010         4.04473303E-06
   8.11320019         4.31893477E-06
   8.12520027         4.83872918E-06
   8.13720036         5.59969430E-06
   8.14920044         6.59038551E-06
   8.16119957         7.79237871E-06
   8.17319965         9.18053865E-06
   8.18519974         1.07235219E-05
   8.19719982         1.23845039E-05
   8.20919991         1.41221408E-05
   8.22119999         1.58917082E-05
   8.23320007         1.76464055E-05
   8.24520016         1.93387677E-05
   8.25720024         2.09221398E-05
   8.26920033         2.23521547E-05
   8.28120041         2.35881344E-05
   8.29319954         2.45944211E-05
   8.30519962         2.53415055E-05
   8.31719971         2.58069849E-05
   8.32919979         2.59762746E-05
   8.34119987         2.58430773E-05
   8.35319996         2.54095812E-05
   8.36520004         2.46863947E-05
   8.37720013         2.36922351E-05
   8.38920021         2.24533596E-05
   8.40120029         2.10027756E-05
   8.41320038         1.93792603E-05
   8.42520046         1.76262238E-05
   8.43719959         1.57904233E-05
   8.44919968         1.39206259E-05
   8.46119976         1.20662316E-05
   8.47319984         1.02758895E-05
   8.48519993         8.59619195E-06
   8.49720001         7.07044637E-06
   8.50920010         5.73758916E-06
   8.52120018         4.63123979E-06
   8.53320026         3.77894207E-06
   8.54520035         3.20158597E-06
   8.55720043         2.91302831E-06
   8.56919956         2.91990546E-06
   8.58119965         3.22164601E-06
   8.59319973         3.81066457E-06
   8.60519981         4.67272730E-06
   8.61719990         5.78747813E-06
   8.62919998         7.12909696E-06
   8.64120007         8.66706796E-06
   8.65320015         1.03670318E-05
   8.66520023         1.21917064E-05
   8.67720032         1.41018272E-05
   8.68920040         1.60571108E-05
   8.70119953         1.80171919E-05
   8.71319962         1.99425540E-05
   8.72519970         2.17953984E-05
   8.73719978         2.35404495E-05
   8.74919987         2.51456840E-05
   8.76119995         2.65829640E-05
   8.77320004         2.78285515E-05
   8.78520012         2.88635038E-05
   8.79720020         2.96739181E-05
   8.80920029         3.02510634E-05
   8.82120037         3.05913527E-05
   8.83320045         3.06962065E-05
   8.84519958         3.05717913E-05
   8.85719967         3.02286717E-05
   8.86919975         2.96813778E-05
   8.88119984         2.89478976E-05
   8.89319992         2.80491604E-05
   8.90520000         2.70084693E-05
   8.91720009         2.58509281E-05
   8.92920017         2.46028849E-05
   8.94120026         2.32913826E-05
   8.95320034         2.19436533E-05
   8.96520042         2.05866490E-05
   8.97719955         1.92465923E-05
   8.98919964         1.79485833E-05
   9.00119972         1.67162307E-05
   9.01319981         1.55713005E-05
   9.02519989         1.45333943E-05
   9.03719997         1.36196186E-05
   9.04920006         1.28442962E-05
   9.06120014         1.22186821E-05
   9.07320023         1.17507207E-05
   9.08520031         1.14448658E-05