 -0.622799993         1.00000002E-24
 -0.610800028         1.00000002E-24
 -0.598800004         1.00000002E-24
 -0.586799979         1.00000002E-24
 -0.574800014         1.00000002E-24
 -0.562799990         2.63460278E-23
 -0.550800025         1.99723223E-22
 -0.538800001         7.51039758E-22
 -0.526799977         1.63433148E-21
 -0.514800012         1.37857858E-21
 -0.502799988        -4.73034704E-21
 -0.490799993        -2.60882942E-20
 -0.478799999        -7.60421450E-20
 -0.466800004        -1.67726909E-19
 -0.454800010        -3.07502532E-19
 -0.442799985        -4.90077630E-19
 -0.430799991        -7.00732511E-19
 -0.418799996        -9.27256335E-19
 -0.406800002        -1.17743442E-18
 -0.394800007        -1.49131690E-18
 -0.382800013        -1.93763067E-18
 -0.370799989        -2.59474750E-18
 -0.358799994        -3.53469992E-18
 -0.346799999        -4.84038880E-18
 -0.334800005        -6.67443020E-18
 -0.322800010        -9.37618323E-18
 -0.310799986        -1.35077916E-17
 -0.298799992        -1.97419011E-17
 -0.286799997        -2.85315438E-17
 -0.274800003        -3.96455690E-17
 -0.262800008        -5.18457849E-17
 -0.250800014        -6.31065221E-17
 -0.238800004        -7.16855564E-17
 -0.226799995        -7.79586625E-17
 -0.214800000        -8.63039554E-17
 -0.202800006        -1.05750687E-16
 -0.190799996        -1.48021046E-16
 -0.178800002        -2.22362719E-16
 -0.166800007        -3.28232467E-16
 -0.154799998        -4.48939797E-16
 -0.142800003        -5.50755381E-16
 -0.130799994        -5.91511641E-16
 -0.118799999        -5.39597574E-16
 -0.106799997        -3.98827819E-16
  -9.48000029E-02    -2.28784340E-16
  -8.28000009E-02    -1.46903836E-16
  -7.07999989E-02    -3.00916051E-16
  -5.88000007E-02    -8.09784885E-16
  -4.67999987E-02    -1.68657082E-15
  -3.48000005E-02    -2.77250761E-15
  -2.28000004E-02    -3.72039952E-15
  -1.08000003E-02    -4.05973617E-15
   1.20000006E-03    -3.35216719E-15
   1.31999999E-02    -1.40780349E-15
   2.52000000E-02     1.50794046E-15
   3.72000001E-02     4.57313046E-15
   4.91999984E-02     6.50353972E-15
   6.12000003E-02     5.88437770E-15
   7.32000023E-02     1.69780247E-15
   8.51999968E-02    -6.09252503E-15
   9.71999988E-02    -1.61133839E-14
  0.109200001        -2.55387921E-14
  0.121200003        -3.05898190E-14
  0.133200005        -2.75815696E-14
  0.145199999        -1.43173488E-14
  0.157199994         8.56221899E-15
  0.169200003         3.67739219E-14
  0.181199998         6.25888637E-14
  0.193200007         7.62782781E-14
  0.205200002         6.87017853E-14
  0.217199996         3.45209294E-14
  0.229200006        -2.48261003E-14
  0.241200000        -9.94093656E-14
  0.253199995        -1.71246996E-13
  0.265199989        -2.17362939E-13
  0.277200013        -2.15249680E-13
  0.289200008        -1.49748893E-13
  0.301200002        -1.96947883E-14
  0.313199997         1.57685239E-13
  0.325199991         3.46478190E-13
  0.337199986         4.97065713E-13
  0.349200010         5.56340618E-13
  0.361200005         4.81636215E-13
  0.373199999         2.55413475E-13
  0.385199994        -1.03215254E-13
  0.397199988        -5.34154318E-13
  0.409200013        -9.42212996E-13
  0.421200007        -1.21413112E-12
  0.433200002        -1.24475462E-12
  0.445199996        -9.67312059E-13
  0.457199991        -3.80379186E-13
  0.469199985         4.36684488E-13
  0.481200010         1.32667325E-12
  0.493200004         2.07904462E-12
  0.505200028         2.47384600E-12
  0.517199993         2.33706088E-12
  0.529200017         1.59467188E-12
  0.541199982         3.10762158E-13
  0.553200006        -1.30318044E-12
  0.565199971        -2.91488752E-12
  0.577199996        -4.13245046E-12
  0.589200020        -4.58931591E-12
  0.601199985        -4.03502275E-12
  0.613200009        -2.41027337E-12
  0.625199974         1.13039921E-13
  0.637199998         3.13901010E-12
  0.649200022         6.10371345E-12
  0.661199987         8.37055685E-12
  0.673200011         9.34684014E-12
  0.685199976         8.59936948E-12
  0.697200000         5.94821198E-12
  0.709200025         1.52319769E-12
  0.721199989        -4.22459203E-12
  0.733200014        -1.05569485E-11
  0.745199978        -1.65238986E-11
  0.757200003        -2.10734416E-11
  0.769200027        -2.31877989E-11
  0.781199992        -2.20366971E-11
  0.793200016        -1.71346878E-11
  0.805199981        -8.48410057E-12
  0.817200005         3.32034010E-12
  0.829200029         1.70508069E-11
  0.841199994         3.08898289E-11
  0.853200018         4.25636852E-11
  0.865199983         4.95503430E-11
  0.877200007         4.93234620E-11
  0.889199972         3.95784204E-11
  0.901199996         1.83860392E-11
  0.913200021        -1.57606341E-11
  0.925199986        -6.40018663E-11
  0.937200010        -1.27217029E-10
  0.949199975        -2.06084511E-10
  0.961199999        -3.00978464E-10
  0.973200023        -4.11596840E-10
  0.985199988        -5.36260425E-10
  0.997200012        -6.70896561E-10
   1.00919998        -8.07795941E-10
   1.02119994        -9.34282984E-10
   1.03320003        -1.03144548E-09
   1.04519999        -1.07300491E-09
   1.05719995        -1.02427788E-09
   1.06920004        -8.40990555E-10
   1.08120000        -4.67492711E-10
   1.09319997         1.66318459E-10
   1.10520005         1.15026844E-09
   1.11720002         2.60250532E-09
   1.12919998         4.68277372E-09
   1.14119995         7.61197150E-09
   1.15320003         1.16999370E-08
   1.16520000         1.73836945E-08
   1.17719996         2.52789185E-08
   1.18920004         3.62475383E-08
   1.20120001         5.14848786E-08
   1.21319997         7.26296463E-08
   1.22520006         1.01899815E-07
   1.23720002         1.42256809E-07
   1.24919999         1.97599405E-07
   1.26119995         2.72986910E-07
   1.27320004         3.74889396E-07
   1.28520000         5.11459859E-07
   1.29719996         6.92821231E-07
   1.30920005         9.31355771E-07
   1.32120001         1.24198448E-06
   1.33319998         1.64241635E-06
   1.34519994         2.15334921E-06
   1.35720003         2.79859432E-06
   1.36919999         3.60510512E-06
   1.38119996         4.60287538E-06
   1.39320004         5.82469556E-06
   1.40520000         7.30572901E-06
   1.41719997         9.08290258E-06
   1.42920005         1.11941054E-05
   1.44120002         1.36771860E-05
   1.45319998         1.65687579E-05
   1.46519995         1.99028545E-05
   1.47720003         2.37094355E-05
   1.48920000         2.80128315E-05
   1.50119996         3.28301467E-05
   1.51320004         3.81697173E-05
   1.52520001         4.40296608E-05
   1.53719997         5.03966476E-05
   1.54920006         5.72448880E-05
   1.56120002         6.45355249E-05
   1.57319999         7.22163531E-05
   1.58519995         8.02220529E-05
   1.59720004         8.84748370E-05
   1.60920000         9.68856330E-05
   1.62119997         1.05355779E-04
   1.63320005         1.13779090E-04
   1.64520001         1.22044432E-04
   1.65719998         1.30038519E-04
   1.66919994         1.37649011E-04
   1.68120003         1.44767691E-04
   1.69319999         1.51293716E-04
   1.70519996         1.57136659E-04
   1.71720004         1.62219352E-04
   1.72920001         1.66480473E-04
   1.74119997         1.69876468E-04
   1.75320005         1.72383181E-04
   1.76520002         1.73996596E-04
   1.77719998         1.74733141E-04
   1.78919995         1.74629240E-04
   1.80120003         1.73740133E-04
   1.81320000         1.72138112E-04
   1.82519996         1.69910287E-04
   1.83720005         1.67155682E-04
   1.84920001         1.63982128E-04
   1.86119998         1.60502852E-04
   1.87320006         1.56832946E-04
   1.88520002         1.53085843E-04
   1.89719999         1.49369982E-04
   1.90919995         1.45785787E-04
   1.92120004         1.42422999E-04
   1.93320000         1.39358541E-04
   1.94519997         1.36654955E-04
   1.95720005         1.34359492E-04
   1.96920002         1.32503832E-04
   1.98119998         1.31104345E-04
   1.99319994         1.30163142E-04
   2.00519991         1.29669395E-04
   2.01719999         1.29601336E-04
   2.02920008         1.29928332E-04
   2.04119992         1.30613349E-04
   2.05320001         1.31615394E-04
   2.06520009         1.32891830E-04
   2.07719994         1.34400645E-04
   2.08920002         1.36102288E-04
   2.10120010         1.37961222E-04
   2.11319995         1.39946977E-04
   2.12520003         1.42034798E-04
   2.13720012         1.44205769E-04
   2.14919996         1.46446560E-04
   2.16120005         1.48748761E-04
   2.17319989         1.51107874E-04
   2.18519998         1.53522298E-04
   2.19720006         1.55991918E-04
   2.20919991         1.58516981E-04
   2.22119999         1.61097050E-04
   2.23320007         1.63729943E-04
   2.24519992         1.66411279E-04
   2.25720000         1.69134088E-04
   2.26920009         1.71888882E-04
   2.28119993         1.74664092E-04
   2.29320002         1.77446695E-04
   2.30520010         1.80223185E-04
   2.31719995         1.82980657E-04
   2.32920003         1.85707962E-04
   2.34120011         1.88396953E-04
   2.35319996         1.91043335E-04
   2.36520004         1.93647706E-04
   2.37719989         1.96215929E-04
   2.38919997         1.98759459E-04
   2.40120006         2.01295086E-04
   2.41319990         2.03844422E-04
   2.42519999         2.06433033E-04
   2.43720007         2.09089136E-04
   2.44919991         2.11842111E-04
   2.46120000         2.14720727E-04
   2.47320008         2.17751382E-04
   2.48519993         2.20956121E-04
   2.49720001         2.24350966E-04
   2.50920010         2.27944009E-04
   2.52119994         2.31734084E-04
   2.53320003         2.35709522E-04
   2.54520011         2.39847112E-04
   2.55719995         2.44111681E-04
   2.56920004         2.48455646E-04
   2.58119988         2.52819271E-04
   2.59319997         2.57131003E-04
   2.60520005         2.61308334E-04
   2.61719990         2.65258743E-04
   2.62919998         2.68881035E-04
   2.64120007         2.72067118E-04
   2.65319991         2.74703547E-04
   2.66520000         2.76673614E-04
   2.67720008         2.77859566E-04
   2.68919992         2.78145046E-04
   2.70120001         2.77417392E-04
   2.71320009         2.75570317E-04
   2.72519994         2.72506732E-04
   2.73720002         2.68141477E-04
   2.74920011         2.62404123E-04
   2.76119995         2.55241786E-04
   2.77320004         2.46621756E-04
   2.78520012         2.36534237E-04
   2.79719996         2.24994335E-04
   2.80920005         2.12044033E-04
   2.82119989         1.97753587E-04
   2.83319998         1.82222240E-04
   2.84520006         1.65578342E-04
   2.85719991         1.47978644E-04
   2.86919999         1.29606735E-04
   2.88120008         1.10670604E-04
   2.89319992         9.13993790E-05
   2.90520000         7.20391181E-05
   2.91720009         5.28478777E-05
   2.92919993         3.40901825E-05
   2.94120002         1.60309082E-05
   2.95320010        -1.07111816E-06
   2.96519995        -1.69696286E-05
   2.97720003        -3.14373465E-05
   2.98920012        -4.42720084E-05
   3.00119996        -5.53019236E-05
   3.01320004        -6.43906387E-05
   3.02519989        -7.14407288E-05
   3.03719997        -7.63964636E-05
   3.04920006        -7.92451829E-05
   3.06119990        -8.00174894E-05
   3.07319999        -7.87860845E-05
   3.08520007        -7.56634618E-05
   3.09719992        -7.07983709E-05
   3.10920000        -6.43712992E-05
   3.12120008        -5.65891496E-05
   3.13319993        -4.76792557E-05
   3.14520001        -3.78829427E-05
   3.15720010        -2.74489430E-05
   3.16919994        -1.66267546E-05
   3.18120003        -5.66026847E-06
   3.19320011         5.21822494E-06
   3.20519996         1.57934264E-05
   3.21720004         2.58717100E-05
   3.22919989         3.52849638E-05
   3.24119997         4.38935385E-05
   3.25320005         5.15882057E-05
   3.26519990         5.82911998E-05
   3.27719998         6.39562713E-05
   3.28920007         6.85678460E-05
   3.30119991         7.21393662E-05
   3.31320000         7.47108352E-05
   3.32520008         7.63457429E-05
   3.33719993         7.71274063E-05
   3.34920001         7.71549676E-05
   3.36120009         7.65390287E-05
   3.37319994         7.53972708E-05
   3.38520002         7.38499293E-05
   3.39720011         7.20155658E-05
   3.40919995         7.00070232E-05
   3.42120004         6.79278382E-05
   3.43319988         6.58691279E-05
   3.44519997         6.39071077E-05
   3.45720005         6.21012659E-05
   3.46919990         6.04933084E-05
   3.48119998         5.91067583E-05
   3.49320006         5.79473817E-05
   3.50519991         5.70042976E-05
   3.51719999         5.62517380E-05
   3.52920008         5.56513478E-05
   3.54119992         5.51549492E-05
   3.55320001         5.47076415E-05
   3.56520009         5.42510243E-05
   3.57719994         5.37265041E-05
   3.58920002         5.30784309E-05
   3.60120010         5.22570044E-05
   3.61319995         5.12208171E-05
   3.62520003         4.99389425E-05
   3.63720012         4.83924887E-05
   3.64919996         4.65755875E-05
   3.66120005         4.44957877E-05
   3.67319989         4.21739096E-05
   3.68519998         3.96433061E-05
   3.69720006         3.69486515E-05
   3.70919991         3.41442792E-05
   3.72119999         3.12922093E-05
   3.73320007         2.84598354E-05
   3.74519992         2.57174834E-05
   3.75720000         2.31358463E-05
   3.76920009         2.07834109E-05
   3.78119993         1.87239511E-05
   3.79320002         1.70141575E-05
   3.80520010         1.57014620E-05
   3.81719995         1.48221270E-05
   3.82920003         1.43996704E-05
   3.84120011         1.44436335E-05
   3.85319996         1.49487723E-05
   3.86520004         1.58947078E-05
   3.87719989         1.72460441E-05
   3.88919997         1.89529965E-05
   3.90120006         2.09525115E-05
   3.91319990         2.31698850E-05
   3.92519999         2.55208397E-05
   3.93720007         2.79140149E-05
   3.94919991         3.02537974E-05
   3.96120000         3.24434041E-05
   3.97320008         3.43881256E-05
   3.98519993         3.59986225E-05
   3.99720001         3.71940660E-05
   4.00920010         3.79051307E-05
   4.02120018         3.80765887E-05
   4.03319979         3.76694734E-05
   4.04519987         3.66626591E-05
   4.05719995         3.50538794E-05
   4.06920004         3.28600072E-05
   4.08120012         3.01167220E-05
   4.09320021         2.68775184E-05
   4.10519981         2.32120910E-05
   4.11719990         1.92041989E-05
   4.12919998         1.49491088E-05
   4.14120007         1.05506424E-05
   4.15320015         6.11802125E-06
   4.16520023         1.76256810E-06
   4.17719984        -2.40562485E-06
   4.18919992        -6.28094949E-06
   4.20120001        -9.76535739E-06
   4.21320009        -1.27711919E-05
   4.22520018        -1.52236780E-05
   4.23719978        -1.70630374E-05
   4.24919987        -1.82461372E-05
   4.26119995        -1.87476726E-05
   4.27320004        -1.85608387E-05
   4.28520012        -1.76974590E-05
   4.29720020        -1.61875705E-05
   4.30919981        -1.40784487E-05
   4.32119989        -1.14331178E-05
   4.33319998        -8.32832211E-06
   4.34520006        -4.85202827E-06
   4.35720015        -1.10052781E-06
   4.36920023         2.82478823E-06
   4.38119984         6.82086102E-06
   4.39319992         1.07864780E-05
   4.40520000         1.46257298E-05
   4.41720009         1.82512485E-05
   4.42920017         2.15870878E-05
   4.44119978         2.45711144E-05
   4.45319986         2.71567769E-05
   4.46519995         2.93141911E-05
   4.47720003         3.10304240E-05
   4.48920012         3.23090680E-05
   4.50120020         3.31690317E-05
   4.51319981         3.36426965E-05
   4.52519989         3.37734855E-05
   4.53719997         3.36130652E-05
   4.54920006         3.32182753E-05
   4.56120014         3.26480804E-05
   4.57320023         3.19606079E-05
   4.58519983         3.12105767E-05
   4.59719992         3.04471669E-05
   4.60920000         2.97124752E-05
   4.62120008         2.90406588E-05
   4.63320017         2.84577090E-05
   4.64519978         2.79818469E-05
   4.65719986         2.76244755E-05
   4.66919994         2.73915120E-05
   4.68120003         2.72850102E-05
   4.69320011         2.73048572E-05
   4.70520020         2.74504036E-05
   4.71719980         2.77218733E-05
   4.72919989         2.81214125E-05
   4.74119997         2.86537124E-05
   4.75320005         2.93261055E-05
   4.76520014         3.01481759E-05
   4.77720022         3.11309159E-05
   4.78919983         3.22854685E-05
   4.80119991         3.36216617E-05
   4.81320000         3.51463823E-05
   4.82520008         3.68619949E-05
   4.83720016         3.87649598E-05
   4.84919977         4.08447522E-05
   4.86119986         4.30832079E-05
   4.87319994         4.54543551E-05
   4.88520002         4.79247974E-05
   4.89720011         5.04545678E-05
   4.90920019         5.29984645E-05
   4.92119980         5.55077313E-05
   4.93319988         5.79320076E-05
   4.94519997         6.02213731E-05
   4.95720005         6.23283704E-05
   4.96920013         6.42098748E-05
   4.98120022         6.58286881E-05
   4.99319983         6.71547023E-05
   5.00519991         6.81656820E-05
   5.01719999         6.88475338E-05
   5.02920008         6.91941314E-05
   5.04120016         6.92066969E-05
   5.05319977         6.88928631E-05
   5.06519985         6.82654791E-05
   5.07719994         6.73411705E-05
   5.08920002         6.61390295E-05
   5.10120010         6.46792832E-05
   5.11320019         6.29821370E-05
   5.12519979         6.10669085E-05
   5.13719988         5.89514784E-05
   5.14919996         5.66520575E-05
   5.16120005         5.41833288E-05
   5.17320013         5.15589018E-05
   5.18520021         4.87920261E-05
   5.19719982         4.58965042E-05
   5.20919991         4.28877429E-05
   5.22119999         3.97837284E-05
   5.23320007         3.66059903E-05
   5.24520016         3.33802964E-05
   5.25719976         3.01371183E-05
   5.26919985         2.69117390E-05
   5.28119993         2.37439781E-05
   5.29320002         2.06775676E-05
   5.30520010         1.77591410E-05
   5.31720018         1.50369306E-05
   5.32919979         1.25592214E-05
   5.34119987         1.03726406E-05
   5.35319996         8.52040375E-06
   5.36520004         7.04061495E-06
   5.37720013         5.96471136E-06
   5.38920021         5.31615024E-06
   5.40119982         5.10941982E-06
   5.41319990         5.34942637E-06
   5.42519999         6.03128228E-06
   5.43720007         7.14050339E-06
   5.44920015         8.65358379E-06
   5.46120024         1.05389126E-05
   5.47319984         1.27579488E-05
   5.48519993         1.52665816E-05
   5.49720001         1.80165844E-05
   5.50920010         2.09570917E-05
   5.52120018         2.40359968E-05
   5.53319979         2.72012276E-05
   5.54519987         3.04018522E-05
   5.55719995         3.35889890E-05
   5.56920004         3.67165194E-05
   5.58120012         3.97415970E-05
   5.59320021         4.26250372E-05
   5.60519981         4.53315552E-05
   5.61719990         4.78299808E-05
   5.62919998         5.00934220E-05
   5.64120007         5.20994799E-05
   5.65320015         5.38304957E-05
   5.66520023         5.52738420E-05
   5.67719984         5.64222501E-05
   5.68919992         5.72742174E-05
   5.70120001         5.78342770E-05
   5.71320009         5.81132772E-05
   5.72520018         5.81284694E-05
   5.73719978         5.79033767E-05
   5.74919987         5.74674377E-05
   5.76119995         5.68553842E-05
   5.77320004         5.61062479E-05
   5.78520012         5.52621932E-05
   5.79720020         5.43670394E-05
   5.80919981         5.34646642E-05
   5.82119989         5.25972682E-05
   5.83319998         5.18036468E-05
   5.84520006         5.11176368E-05
   5.85720015         5.05666612E-05
   5.86920023         5.01706236E-05
   5.88119984         4.99411726E-05
   5.89319992         4.98813315E-05
   5.90520000         4.99856214E-05
   5.91720009         5.02405601E-05
   5.92920017         5.06255892E-05
   5.94119978         5.11143298E-05
   5.95319986         5.16760811E-05
   5.96519995         5.22774862E-05
   5.97720003         5.28842756E-05
   5.98920012         5.34629689E-05
   6.00120020         5.39824287E-05
   6.01319981         5.44152390E-05
   6.02519989         5.47388299E-05
   6.03719997         5.49362740E-05
   6.04920006         5.49967917E-05
   6.06120014         5.49159486E-05
   6.07320023         5.46955125E-05
   6.08519983         5.43431270E-05
   6.09719992         5.38716959E-05
   6.10920000         5.32986596E-05
   6.12120008         5.26451404E-05
   6.13320017         5.19350215E-05
   6.14519978         5.11940161E-05
   6.15719986         5.04487507E-05
   6.16919994         4.97258843E-05
   6.18120003         4.90512866E-05
   6.19320011         4.84492593E-05
   6.20520020         4.79418231E-05
   6.21719980         4.75480992E-05
   6.22919989         4.72837164E-05
   6.24119997         4.71603344E-05
   6.25320005         4.71852218E-05
   6.26520014         4.73609798E-05
   6.27720022         4.76853784E-05
   6.28919983         4.81513234E-05
   6.30119991         4.87469952E-05
   6.31320000         4.94561682E-05
   6.32520008         5.02587027E-05
   6.33720016         5.11311955E-05
   6.34919977         5.20477879E-05
   6.36119986         5.29811296E-05
   6.37319994         5.39033899E-05
   6.38520002         5.47873788E-05
   6.39720011         5.56076593E-05
   6.40920019         5.63415706E-05
   6.42119980         5.69702206E-05
   6.43319988         5.74792539E-05
   6.44519997         5.78594227E-05
   6.45720005         5.81069398E-05
   6.46920013         5.82235298E-05
   6.48120022         5.82162211E-05
   6.49319983         5.80969099E-05
   6.50519991         5.78816580E-05
   6.51719999         5.75898630E-05
   6.52920008         5.72432727E-05
   6.54120016         5.68649739E-05
   6.55319977         5.64783331E-05
   6.56519985         5.61060042E-05
   6.57719994         5.57690219E-05
   6.58920002         5.54860344E-05
   6.60120010         5.52726633E-05
   6.61320019         5.51409939E-05
   6.62519979         5.50992845E-05
   6.63719988         5.51517660E-05
   6.64919996         5.52986130E-05
   6.66120005         5.55360239E-05
   6.67320013         5.58564061E-05
   6.68520021         5.62486530E-05
   6.69719982         5.66985000E-05
   6.70919991         5.71889614E-05
   6.72119999         5.77008286E-05
   6.73320007         5.82132598E-05
   6.74520016         5.87044415E-05
   6.75719976         5.91523276E-05
   6.76919985         5.95354468E-05
   6.78119993         5.98337356E-05
   6.79320002         6.00294661E-05
   6.80520010         6.01080646E-05
   6.81720018         6.00589265E-05
   6.82919979         5.98761362E-05
   6.84119987         5.95589954E-05
   6.85319996         5.91123353E-05
   6.86520004         5.85466369E-05
   6.87720013         5.78778127E-05
   6.88920021         5.71267483E-05
   6.90119982         5.63185422E-05
   6.91319990         5.54814578E-05
   6.92519999         5.46457013E-05
   6.93720007         5.38420027E-05
   6.94920015         5.31001278E-05
   6.96120024         5.24473944E-05
   6.97319984         5.19072928E-05
   6.98519993         5.14982858E-05
   6.99720001         5.12329061E-05
   7.00920010         5.11171493E-05
   7.02120018         5.11502803E-05
   7.03319979         5.13250088E-05
   7.04519987         5.16280161E-05
   7.05719995         5.20408430E-05
   7.06920004         5.25410178E-05
   7.08120012         5.31033911E-05
   7.09320021         5.37015767E-05
   7.10519981         5.43093665E-05
   7.11719990         5.49021133E-05
   7.12919998         5.54579201E-05
   7.14120007         5.59585969E-05
   7.15320015         5.63903668E-05
   7.16520023         5.67442185E-05
   7.17719984         5.70159755E-05
   7.18919992         5.72060562E-05
   7.20120001         5.73189500E-05
   7.21320009         5.73625002E-05
   7.22520018         5.73470279E-05
   7.23719978         5.72844110E-05
   7.24919987         5.71871497E-05
   7.26119995         5.70674820E-05
   7.27320004         5.69366748E-05
   7.28520012         5.68044379E-05
   7.29720020         5.66785202E-05
   7.30919981         5.65645023E-05
   7.32119989         5.64657566E-05
   7.33319998         5.63835310E-05
   7.34520006         5.63171634E-05
   7.35720015         5.62643581E-05
   7.36920023         5.62214955E-05
   7.38119984         5.61839370E-05
   7.39319992         5.61463457E-05
   7.40520000         5.61029192E-05
   7.41720009         5.60475964E-05
   7.42920017         5.59742221E-05
   7.44119978         5.58766333E-05
   7.45319986         5.57487656E-05
   7.46519995         5.55846855E-05
   7.47720003         5.53786667E-05
   7.48920012         5.51252670E-05
   7.50120020         5.48194439E-05
   7.51319981         5.44567556E-05
   7.52519989         5.40335568E-05
   7.53719997         5.35472936E-05
   7.54920006         5.29967983E-05
   7.56120014         5.23826020E-05
   7.57320023         5.17072476E-05
   7.58519983         5.09755082E-05
   7.59719992         5.01945797E-05
   7.60920000         4.93741318E-05
   7.62120008         4.85262535E-05
   7.63320017         4.76652458E-05
   7.64519978         4.68073013E-05
   7.65719986         4.59700241E-05
   7.66919994         4.51718770E-05
   7.68120003         4.44315192E-05
   7.69320011         4.37671006E-05
   7.70520020         4.31955305E-05
   7.71719980         4.27318009E-05
   7.72919989         4.23883175E-05
   7.74119997         4.21743389E-05
   7.75320005         4.20955585E-05
   7.76520014         4.21537952E-05
   7.77720022         4.23468919E-05
   7.78919983         4.26687620E-05
   7.80119991         4.31096705E-05
   7.81320000         4.36566370E-05
   7.82520008         4.42940473E-05
   7.83720016         4.50043808E-05
   7.84919977         4.57690257E-05
   7.86119986         4.65691519E-05
   7.87319994         4.73865512E-05
   7.88520002         4.82044452E-05
   7.89720011         4.90081547E-05
   7.90920019         4.97856527E-05
   7.92119980         5.05278949E-05
   7.93319988         5.12289625E-05
   7.94519997         5.18860033E-05
   7.95720005         5.24988936E-05
   7.96920013         5.30697798E-05
   7.98120022         5.36023726E-05
   7.99319983         5.41011104E-05
   8.00520039         5.45702969E-05
   8.01720047         5.50131190E-05
   8.02919960         5.54308026E-05
   8.04119968         5.58218308E-05
   8.05319977         5.61814159E-05
   8.06519985         5.65012015E-05
   8.07719994         5.67692659E-05
   8.08920002         5.69704898E-05
   8.10120010         5.70872071E-05
   8.11320019         5.71001729E-05
   8.12520027         5.69897929E-05
   8.13720036         5.67374882E-05
   8.14920044         5.63272042E-05
   8.16119957         5.57468484E-05
   8.17319965         5.49896722E-05
   8.18519974         5.40554211E-05
   8.19719982         5.29511854E-05
   8.20919991         5.16919245E-05
   8.22119999         5.03004921E-05
   8.23320007         4.88072656E-05
   8.24520016         4.72493048E-05
   8.25720024         4.56690686E-05
   8.26920033         4.41127850E-05
   8.28120041         4.26285369E-05
   8.29319954         4.12642112E-05
   8.30519962         4.00653516E-05
   8.31719971         3.90731475E-05
   8.32919979         3.83226179E-05
   8.34119987         3.78410878E-05
   8.35319996         3.76470853E-05
   8.36520004         3.77496581E-05
   8.37720013         3.81481950E-05
   8.38920021         3.88326807E-05
   8.40120029         3.97844015E-05
   8.41320038         4.09770073E-05
   8.42520046         4.23778547E-05
   8.43719959         4.39495416E-05
   8.44919968         4.56515008E-05
   8.46119976         4.74415829E-05
   8.47319984         4.92775034E-05
   8.48519993         5.11181170E-05
   8.49720001         5.29243953E-05
   8.50920010         5.46601914E-05
   8.52120018         5.62926434E-05
   8.53320026         5.77923856E-05
   8.54520035         5.91335047E-05
   8.55720043         6.02933978E-05
   8.56919956         6.12525328E-05
   8.58119965         6.19942075E-05
   8.59319973         6.25043540E-05
   8.60519981         6.27715199E-05
   8.61719990         6.27868940E-05
   8.62919998         6.25446264E-05
   8.64120007         6.20422143E-05
   8.65320015         6.12810109E-05
   8.66520023         6.02668770E-05
   8.67720032         5.90107884E-05
   8.68920040         5.75293961E-05
   8.70119953         5.58454376E-05
   8.71319962         5.39879220E-05
   8.72519970         5.19920359E-05
   8.73719978         4.98987501E-05
   8.74919987         4.77540198E-05
   8.76119995         4.56077105E-05
   8.77320004         4.35121656E-05
   8.78520012         4.15205504E-05
   8.79720020         3.96850264E-05
   8.80920029         3.80548554E-05
   8.82120037         3.66744935E-05
   8.83320045         3.55818629E-05
   8.84519958         3.48067952E-05
   8.85719967         3.43698412E-05
   8.86919975         3.42813728E-05
   8.88119984         3.45411900E-05
   8.89319992         3.51384988E-05
   8.90520000         3.60523700E-05
   8.91720009         3.72525974E-05
   8.92920017         3.87009350E-05
   8.94120026         4.03526174E-05
   8.95320034         4.21581317E-05
   8.96520042         4.40650983E-05
   8.97719955         4.60202100E-05
   8.98919964         4.79711234E-05
   9.00119972         4.98682311E-05
   9.01319981         5.16662403E-05
   9.02519989         5.33254824E-05
   9.03719997         5.48129683E-05
   9.04920006         5.61030793E-05
   9.06120014         5.71779419E-05
   9.07320023         5.80274718E-05
   9.08520031         5.86491151E-05