 -0.622799993         1.00000002E-24
 -0.610800028         1.00000002E-24
 -0.598800004         1.00000002E-24
 -0.586799979         1.00000002E-24
 -0.574800014         1.00000002E-24
 -0.562799990         1.00000012E-24
 -0.550800025         1.00000022E-24
 -0.538800001         1.00000022E-24
 -0.526799977         1.00000022E-24
 -0.514800012         1.00000012E-24
 -0.502799988         9.99999625E-25
 -0.490799993         9.99995286E-25
 -0.478799999         9.99971029E-25
 -0.466800004         9.99876859E-25
 -0.454800010         9.99629649E-25
 -0.442799985         9.99269337E-25
 -0.430799991         9.99567428E-25
 -0.418799996         1.00333237E-24
 -0.406800002         1.01679822E-24
 -0.394800007         1.04815968E-24
 -0.382800013         1.09706738E-24
 -0.370799989         1.12844265E-24
 -0.358799994         1.03400850E-24
 -0.346799999         6.13363118E-25
 -0.334800005        -3.50486857E-25
 -0.322800010        -1.82073909E-24
 -0.310799986        -3.00211174E-24
 -0.298799992        -1.78912588E-24
 -0.286799997         5.24410196E-24
 -0.274800003         2.13316777E-23
 -0.262800008         4.55757036E-23
 -0.250800014         6.68477576E-23
 -0.238800004         5.84618190E-23
 -0.226799995        -1.98952598E-23
 -0.214800000        -2.04284796E-22
 -0.202800006        -4.87001122E-22
 -0.190799996        -7.61812998E-22
 -0.178800002        -7.81953513E-22
 -0.166800007        -1.82685380E-22
 -0.154799998         1.37103712E-21
 -0.142800003         3.88178817E-21
 -0.130799994         6.61981497E-21
 -0.118799999         7.82232474E-21
 -0.106799997         4.82336285E-21
  -9.48000029E-02    -5.02489967E-21
  -8.28000009E-02    -2.24795960E-20
  -7.07999989E-02    -4.39308127E-20
  -5.88000007E-02    -5.94149294E-20
  -4.67999987E-02    -5.29041585E-20
  -3.48000005E-02    -6.79087172E-21
  -2.28000004E-02     8.85115115E-20
  -1.08000003E-02     2.21363846E-19
   1.20000006E-03     3.47121614E-19
   1.31999999E-02     3.86098131E-19
   2.52000000E-02     2.40468797E-19
   3.72000001E-02    -1.64580585E-19
   4.91999984E-02    -8.20115301E-19
   6.12000003E-02    -1.57245597E-18
   7.32000023E-02    -2.09566580E-18
   8.51999968E-02    -1.93709838E-18
   9.71999988E-02    -6.63735100E-19
  0.109200001         1.89790326E-18
  0.121200003         5.38988323E-18
  0.133200005         8.73810603E-18
  0.145199999         1.02060787E-17
  0.157199994         7.81354062E-18
  0.169200003         1.41825531E-19
  0.181199998        -1.26302514E-17
  0.193200007        -2.78219916E-17
  0.205200002        -3.99878133E-17
  0.217199996        -4.17912424E-17
  0.229200006        -2.62532188E-17
  0.241200000         9.89775701E-18
  0.253199995         6.27002309E-17
  0.265199989         1.18753252E-16
  0.277200013         1.55999950E-16
  0.289200008         1.48685450E-16
  0.301200002         7.64205897E-17
  0.313199997        -6.45395563E-17
  0.325199991        -2.51546974E-16
  0.337199986        -4.32173653E-16
  0.349200010        -5.31530433E-16
  0.361200005        -4.72093972E-16
  0.373199999        -2.03450498E-16
  0.385199994         2.65808336E-16
  0.397199988         8.45920687E-16
  0.409200013         1.36634556E-15
  0.421200007         1.60767467E-15
  0.433200002         1.36508846E-15
  0.445199996         5.31051224E-16
  0.457199991        -8.27118673E-16
  0.469199985        -2.42608299E-15
  0.481200010        -3.79029287E-15
  0.493200004        -4.35474758E-15
  0.505200028        -3.63587961E-15
  0.517199993        -1.43086396E-15
  0.529200017         2.01761067E-15
  0.541199982         5.96130946E-15
  0.553200006         9.24492247E-15
  0.565199971         1.05759314E-14
  0.577199996         8.92144228E-15
  0.589200020         3.93011387E-15
  0.601199985        -3.75937405E-15
  0.613200009        -1.24592262E-14
  0.625199974        -1.97075243E-14
  0.637199998        -2.28685462E-14
  0.649200022        -1.99366704E-14
  0.661199987        -1.03248132E-14
  0.673200011         4.62585445E-15
  0.685199976         2.16422932E-14
  0.697200000         3.61290723E-14
  0.709200025         4.33173191E-14
  0.721199989         3.96884098E-14
  0.733200014         2.42693608E-14
  0.745199978        -6.32682631E-16
  0.757200003        -2.95812027E-14
  0.769200027        -5.51382534E-14
  0.781199992        -6.97632260E-14
  0.793200016        -6.80012077E-14
  0.805199981        -4.83231958E-14
  0.817200005        -1.40101376E-14
  0.829200029         2.72970580E-14
  0.841199994         6.53808943E-14
  0.853200018         9.01441600E-14
  0.865199983         9.44746329E-14
  0.877200007         7.64169476E-14
  0.889199972         3.99433802E-14
  0.901199996        -5.99092893E-15
  0.913200021        -4.98996223E-14
  0.925199986        -8.10258029E-14
  0.937200010        -9.24243998E-14
  0.949199975        -8.28971698E-14
  0.961199999        -5.71496924E-14
  0.973200023        -2.41001372E-14
  0.985199988         6.12712124E-15
  0.997200012         2.55454075E-14
   1.00919998         3.08821097E-14
   1.02119994         2.45242737E-14
   1.03320003         1.35086127E-14
   1.04519999         6.88622751E-15
   1.05719995         1.23404552E-14
   1.06920004         3.31852432E-14
   1.08120000         6.67360996E-14
   1.09319997         1.04574932E-13
   1.10520005         1.34597967E-13
   1.11720002         1.44169859E-13
   1.12919998         1.23410369E-13
   1.14119995         6.77055796E-14
   1.15320003        -2.10832870E-14
   1.16520000        -1.34723219E-13
   1.17719996        -2.59604892E-13
   1.18920004        -3.78061704E-13
   1.20120001        -4.69631712E-13
   1.21319997        -5.12313878E-13
   1.22520006        -4.84309695E-13
   1.23720002        -3.66928113E-13
   1.24919999        -1.49080889E-13
   1.26119995         1.66905335E-13
   1.27320004         5.59373077E-13
   1.28520000         9.83341772E-13
   1.29719996         1.37075952E-12
   1.30920005         1.63681286E-12
   1.32120001         1.69278773E-12
   1.33319998         1.46412017E-12
   1.34519994         9.10410311E-13
   1.35720003         4.29144432E-14
   1.36919999        -1.06516271E-12
   1.38119996        -2.27917815E-12
   1.39320004        -3.41584161E-12
   1.40520000        -4.26714740E-12
   1.41719997        -4.63186607E-12
   1.42920005        -4.34944875E-12
   1.44120002        -3.33080503E-12
   1.45319998        -1.58122506E-12
   1.46519995         7.87706705E-13
   1.47720003         3.55857683E-12
   1.48920000         6.42090981E-12
   1.50119996         8.99536175E-12
   1.51320004         1.08682022E-11
   1.52520001         1.16348459E-11
   1.53719997         1.09507837E-11
   1.54920006         8.58703993E-12
   1.56120002         4.48538082E-12
   1.57319999        -1.19383952E-12
   1.58519995        -8.04023428E-12
   1.59720004        -1.53879860E-11
   1.60920000        -2.23449367E-11
   1.62119997        -2.78610763E-11
   1.63320005        -3.08361357E-11
   1.64520001        -3.02597114E-11
   1.65719998        -2.53711982E-11
   1.66919994        -1.58216495E-11
   1.68120003        -1.81649216E-12
   1.69319999         1.57834110E-11
   1.70519996         3.54238756E-11
   1.71720004         5.49013925E-11
   1.72920001         7.15026441E-11
   1.74119997         8.22455784E-11
   1.75320005         8.42172304E-11
   1.76520002         7.49896464E-11
   1.77719998         5.30784861E-11
   1.78919995         1.83912937E-11
   1.80120003        -2.74026132E-11
   1.81320000        -8.06578346E-11
   1.82519996        -1.35769423E-10
   1.83720005        -1.85479854E-10
   1.84920001        -2.21505772E-10
   1.86119998        -2.35469810E-10
   1.87320006        -2.20071489E-10
   1.88520002        -1.70378281E-10
   1.89719999        -8.50746418E-11
   1.90919995         3.25215133E-11
   1.92120004         1.73868211E-10
   1.93320000         3.25205668E-10
   1.94519997         4.68279970E-10
   1.95720005         5.81832638E-10
   1.96920002         6.43814058E-10
   1.98119998         6.34186370E-10
   1.99319994         5.38082801E-10
   2.00519991         3.49014651E-10
   2.01719999         7.17541027E-11
   2.02920008        -2.75507089E-10
   2.04119992        -6.60112909E-10
   2.05320001        -1.03535525E-09
   2.06520009        -1.34258649E-09
   2.07719994        -1.51514001E-09
   2.08920002        -1.48398771E-09
   2.10120010        -1.18486287E-09
   2.11319995        -5.66367009E-10
   2.12520003         4.01618683E-10
   2.13720012         1.72005132E-09
   2.14919996         3.35430728E-09
   2.16120005         5.23015631E-09
   2.17319989         7.23297289E-09
   2.18519998         9.21080989E-09
   2.19720006         1.09816494E-08
   2.20919991         1.23447093E-08
   2.22119999         1.30952378E-08
   2.23320007         1.30416353E-08
   2.24519992         1.20232766E-08
   2.25720000         9.92690730E-09
   2.26920009         6.69909284E-09
   2.28119993         2.35200392E-09
   2.29320002        -3.04032755E-09
   2.30520010        -9.35788602E-09
   2.31719995        -1.64650800E-08
   2.32920003        -2.42574583E-08
   2.34120011        -3.27258256E-08
   2.35319996        -4.20379891E-08
   2.36520004        -5.26373007E-08
   2.37719989        -6.53561898E-08
   2.38919997        -8.15418559E-08
   2.40120006        -1.03190068E-07
   2.41319990        -1.33082196E-07
   2.42519999        -1.74919919E-07
   2.43720007        -2.33450550E-07
   2.44919991        -3.14576113E-07
   2.46120000        -4.25438259E-07
   2.47320008        -5.74471528E-07
   2.48519993        -7.71415955E-07
   2.49720001        -1.02728234E-06
   2.50920010        -1.35426171E-06
   2.52119994        -1.76557410E-06
   2.53320003        -2.27524993E-06
   2.54520011        -2.89784361E-06
   2.55719995        -3.64807511E-06
   2.56920004        -4.54040355E-06
   2.58119988        -5.58853890E-06
   2.59319997        -6.80489666E-06
   2.60520005        -8.20001424E-06
   2.61719990        -9.78193839E-06
   2.62919998        -1.15556077E-05
   2.64120007        -1.35222517E-05
   2.65319991        -1.56788428E-05
   2.66520000        -1.80176103E-05
   2.67720008        -2.05256601E-05
   2.68919992        -2.31847334E-05
   2.70120001        -2.59711160E-05
   2.71320009        -2.88557294E-05
   2.72519994        -3.18044149E-05
   2.73720002        -3.47784444E-05
   2.74920011        -3.77351935E-05
   2.76119995        -4.06290710E-05
   2.77320004        -4.34125686E-05
   2.78520012        -4.60375049E-05
   2.79719996        -4.84563461E-05
   2.80920005        -5.06236102E-05
   2.82119989        -5.24972565E-05
   2.83319998        -5.40400470E-05
   2.84520006        -5.52207784E-05
   2.85719991        -5.60153676E-05
   2.86919999        -5.64076909E-05
   2.88120008        -5.63902177E-05
   2.89319992        -5.59642685E-05
   2.90520000        -5.51400444E-05
   2.91720009        -5.39362809E-05
   2.92919993        -5.23796371E-05
   2.94120002        -5.05037751E-05
   2.95320010        -4.83482327E-05
   2.96519995        -4.59570838E-05
   2.97720003        -4.33774803E-05
   2.98920012        -4.06581312E-05
   3.00119996        -3.78477962E-05
   3.01320004        -3.49938346E-05
   3.02519989        -3.21409134E-05
   3.03719997        -2.93298526E-05
   3.04920006        -2.65967719E-05
   3.06119990        -2.39724159E-05
   3.07319999        -2.14817865E-05
   3.08520007        -1.91440304E-05
   3.09719992        -1.69725608E-05
   3.10920000        -1.49753987E-05
   3.12120008        -1.31556981E-05
   3.13319993        -1.15123912E-05
   3.14520001        -1.00409152E-05
   3.15720010        -8.73397130E-06
   3.16919994        -7.58226452E-06
   3.18120003        -6.57518831E-06
   3.19320011        -5.70141083E-06
   3.20519996        -4.94935466E-06
   3.21720004        -4.30754926E-06
   3.22919989        -3.76485036E-06
   3.24119997        -3.31054525E-06
   3.25320005        -2.93435824E-06
   3.26519990        -2.62637445E-06
   3.27719998        -2.37691756E-06
   3.28920007        -2.17640900E-06
   3.30119991        -2.01524040E-06
   3.31320000        -1.88368017E-06
   3.32520008        -1.77184268E-06
   3.33719993        -1.66972666E-06
   3.34920001        -1.56733859E-06
   3.36120009        -1.45489309E-06
   3.37319994        -1.32307810E-06
   3.38520002        -1.16337526E-06
   3.39720011        -9.68404265E-07
   3.40919995        -7.32266926E-07
   3.42120004        -4.50863467E-07
   3.43319988        -1.22153267E-07
   3.44519997         2.53667906E-07
   3.45720005         6.74094963E-07
   3.46919990         1.13435897E-06
   3.48119998         1.62759648E-06
   3.49320006         2.14514853E-06
   3.50519991         2.67697169E-06
   3.51719999         3.21215794E-06
   3.52920008         3.73952298E-06
   3.54119992         4.24825021E-06
   3.55320001         4.72854026E-06
   3.56520009         5.17224225E-06
   3.57719994         5.57341764E-06
   3.58920002         5.92880406E-06
   3.60120010         6.23814867E-06
   3.61319995         6.50437778E-06
   3.62520003         6.73358954E-06
   3.63720012         6.93485208E-06
   3.64919996         7.11981693E-06
   3.66120005         7.30214288E-06
   3.67319989         7.49676610E-06
   3.68519998         7.71903706E-06
   3.69720006         7.98376823E-06
   3.70919991         8.30424960E-06
   3.72119999         8.69126507E-06
   3.73320007         9.15220244E-06
   3.74519992         9.69027042E-06
   3.75720000         1.03039165E-05
   3.76920009         1.09864704E-05
   3.78119993         1.17260579E-05
   3.79320002         1.25058004E-05
   3.80520010         1.33043241E-05
   3.81719995         1.40965458E-05
   3.82920003         1.48547279E-05
   3.84120011         1.55497601E-05
   3.85319996         1.61525877E-05
   3.86520004         1.66357513E-05
   3.87719989         1.69749183E-05
   3.88919997         1.71503689E-05
   3.90120006         1.71483116E-05
   3.91319990         1.69619962E-05
   3.92519999         1.65925176E-05
   3.93720007         1.60492909E-05
   3.94919991         1.53501351E-05
   3.96120000         1.45209578E-05
   3.97320008         1.35950659E-05
   3.98519993         1.26120913E-05
   3.99720001         1.16166057E-05
   4.00920010         1.06564712E-05
   4.02120018         9.78100888E-06
   4.03319979         9.03905220E-06
   4.04519987         8.47699175E-06
   4.05719995         8.13687529E-06
   4.06920004         8.05465424E-06
   4.08120012         8.25863208E-06
   4.09320021         8.76818467E-06
   4.10519981         9.59279078E-06
   4.11719990         1.07314290E-05
   4.12919998         1.21723297E-05
   4.14120007         1.38931264E-05
   4.15320015         1.58613802E-05
   4.16520023         1.80354637E-05
   4.17719984         2.03658001E-05
   4.18919992         2.27963828E-05
   4.20120001         2.52665650E-05
   4.21320009         2.77130421E-05
   4.22520018         3.00719912E-05
   4.23719978         3.22812994E-05
   4.24919987         3.42827807E-05
   4.26119995         3.60243575E-05
   4.27320004         3.74621159E-05
   4.28520012         3.85621242E-05
   4.29720020         3.93020055E-05
   4.30919981         3.96721334E-05
   4.32119989         3.96764081E-05
   4.33319998         3.93325645E-05
   4.34520006         3.86719621E-05
   4.35720015         3.77388242E-05
   4.36920023         3.65889682E-05
   4.38119984         3.52879833E-05
   4.39319992         3.39089893E-05
   4.40520000         3.25299516E-05
   4.41720009         3.12307311E-05
   4.42920017         3.00898682E-05
   4.44119978         2.91813449E-05
   4.45319986         2.85713340E-05
   4.46519995         2.83151330E-05
   4.47720003         2.84543985E-05
   4.48920012         2.90147855E-05
   4.50120020         3.00040992E-05
   4.51319981         3.14110694E-05
   4.52519989         3.32047675E-05
   4.53719997         3.53347350E-05
   4.54920006         3.77318029E-05
   4.56120014         4.03096019E-05
   4.57320023         4.29666979E-05
   4.58519983         4.55892987E-05
   4.59719992         4.80544404E-05
   4.60920000         5.02335279E-05
   4.62120008         5.19961359E-05
   4.63320017         5.32139384E-05
   4.64519978         5.37646301E-05
   4.65719986         5.35357321E-05
   4.66919994         5.24281349E-05
   4.68120003         5.03592710E-05
   4.69320011         4.72658539E-05
   4.70520020         4.31060544E-05
   4.71719980         3.78610675E-05
   4.72919989         3.15360085E-05
   4.74119997         2.41601992E-05
   4.75320005         1.57866943E-05
   4.76520014         6.49121466E-06
   4.77720022        -3.62956143E-06
   4.78919983        -1.44602709E-05
   4.80119991        -2.58696000E-05
   4.81320000        -3.77134384E-05
   4.82520008        -4.98382906E-05
   4.83720016        -6.20849096E-05
   4.84919977        -7.42919947E-05
   4.86119986        -8.62998641E-05
   4.87319994        -9.79539545E-05
   4.88520002        -1.09108121E-04
   4.89720011        -1.19627672E-04
   4.90920019        -1.29391876E-04
   4.92119980        -1.38296222E-04
   4.93319988        -1.46254053E-04
   4.94519997        -1.53197834E-04
   4.95720005        -1.59079835E-04
   4.96920013        -1.63872421E-04
   4.98120022        -1.67567836E-04
   4.99319983        -1.70177518E-04
   5.00519991        -1.71731153E-04
   5.01719999        -1.72275220E-04
   5.02920008        -1.71871405E-04
   5.04120016        -1.70594532E-04
   5.05319977        -1.68530605E-04
   5.06519985        -1.65774312E-04
   5.07719994        -1.62426644E-04
   5.08920002        -1.58592418E-04
   5.10120010        -1.54377703E-04
   5.11320019        -1.49887317E-04
   5.12519979        -1.45222410E-04
   5.13719988        -1.40478151E-04
   5.14919996        -1.35741706E-04
   5.16120005        -1.31090346E-04
   5.17320013        -1.26589948E-04
   5.18520021        -1.22293844E-04
   5.19719982        -1.18242053E-04
   5.20919991        -1.14460978E-04
   5.22119999        -1.10963505E-04
   5.23320007        -1.07749576E-04
   5.24520016        -1.04807194E-04
   5.25719976        -1.02113809E-04
   5.26919985        -9.96379895E-05
   5.28119993        -9.73414863E-05
   5.29320002        -9.51813126E-05
   5.30520010        -9.31120812E-05
   5.31720018        -9.10881863E-05
   5.32919979        -8.90660885E-05
   5.34119987        -8.70062795E-05
   5.35319996        -8.48750788E-05
   5.36520004        -8.26461255E-05
   5.37720013        -8.03014991E-05
   5.38920021        -7.78324829E-05
   5.40119982        -7.52398701E-05
   5.41319990        -7.25339414E-05
   5.42519999        -6.97339274E-05
   5.43720007        -6.68672292E-05
   5.44920015        -6.39682039E-05
   5.46120024        -6.10767020E-05
   5.47319984        -5.82363791E-05
   5.48519993        -5.54928047E-05
   5.49720001        -5.28915116E-05
   5.50920010        -5.04759482E-05
   5.52120018        -4.82854703E-05
   5.53319979        -4.63534598E-05
   5.54519987        -4.47055791E-05
   5.55719995        -4.33582500E-05
   5.56920004        -4.23174642E-05
   5.58120012        -4.15779759E-05
   5.59320021        -4.11228975E-05
   5.60519981        -4.09237546E-05
   5.61719990        -4.09410568E-05
   5.62919998        -4.11253495E-05
   5.64120007        -4.14187343E-05
   5.65320015        -4.17568008E-05
   5.66520023        -4.20709657E-05
   5.67719984        -4.22910416E-05
   5.68919992        -4.23479978E-05
   5.70120001        -4.21767691E-05
   5.71320009        -4.17190458E-05
   5.72520018        -4.09258209E-05
   5.73719978        -3.97596705E-05
   5.74919987        -3.81966202E-05
   5.76119995        -3.62274768E-05
   5.77320004        -3.38586287E-05
   5.78520012        -3.11121985E-05
   5.79720020        -2.80255808E-05
   5.80919981        -2.46503550E-05
   5.82119989        -2.10506551E-05
   5.83319998        -1.73010267E-05
   5.84520006        -1.34838783E-05
   5.85720015        -9.68664244E-06
   5.86920023        -5.99874056E-06
   5.88119984        -2.50847756E-06
   5.89319992         7.00020678E-07
   5.90520000         3.54971417E-06
   5.91720009         5.97330745E-06
   5.92920017         7.91555794E-06
   5.94119978         9.33518368E-06
   5.95319986         1.02062904E-05
   5.96519995         1.05193003E-05
   5.97720003         1.02813501E-05
   5.98920012         9.51615584E-06
   6.00120020         8.26336327E-06
   6.01319981         6.57740247E-06
   6.02519989         4.52589848E-06
   6.03719997         2.18766922E-06
   6.04920006        -3.49608399E-07
   6.06120014        -2.99201224E-06
   6.07320023        -5.64217999E-06
   6.08519983        -8.20222976E-06
   6.09719992        -1.05767040E-05
   6.10920000        -1.26754539E-05
   6.12120008        -1.44163650E-05
   6.13320017        -1.57278519E-05
   6.14519978        -1.65510210E-05
   6.15719986        -1.68414663E-05
   6.16919994        -1.65705969E-05
   6.18120003        -1.57265004E-05
   6.19320011        -1.43142770E-05
   6.20520020        -1.23558584E-05
   6.21719980        -9.88931697E-06
   6.22919989        -6.96767529E-06
   6.24119997        -3.65728033E-06
   6.25320005        -3.57797454E-08
   6.26520014         3.81022596E-06
   6.27720022         7.78777667E-06
   6.28919983         1.18003163E-05
   6.30119991         1.57505419E-05
   6.31320000         1.95432458E-05
   6.32520008         2.30880705E-05
   6.33720016         2.63021175E-05
   6.34919977         2.91123124E-05
   6.36119986         3.14574609E-05
   6.37319994         3.32899908E-05
   6.38520002         3.45772605E-05
   6.39720011         3.53024479E-05
   6.40920019         3.54650110E-05
   6.42119980         3.50806513E-05
   6.43319988         3.41808300E-05
   6.44519997         3.28118258E-05
   6.45720005         3.10333562E-05
   6.46920013         2.89167874E-05
   6.48120022         2.65429917E-05
   6.49319983         2.39998735E-05
   6.50519991         2.13796557E-05
   6.51719999         1.87759561E-05
   6.52920008         1.62808155E-05
   6.54120016         1.39816784E-05
   6.55319977         1.19585138E-05
   6.56519985         1.02811227E-05
   6.57719994         9.00677242E-06
   6.58920002         8.17824730E-06
   6.60120010         7.82238749E-06
   6.61320019         7.94920106E-06
   6.62519979         8.55158487E-06
   6.63719988         9.60567650E-06
   6.64919996         1.10718220E-05
   6.66120005         1.28961410E-05
   6.67320013         1.50125998E-05
   6.68520021         1.73455282E-05
   6.69719982         1.98124490E-05
   6.70919991         2.23271236E-05
   6.72119999         2.48026427E-05
   6.73320007         2.71544541E-05
   6.74520016         2.93031899E-05
   6.75719976         3.11771691E-05
   6.76919985         3.27144990E-05
   6.78119993         3.38646860E-05
   6.79320002         3.45897388E-05
   6.80520010         3.48647445E-05
   6.81720018         3.46779198E-05
   6.82919979         3.40302395E-05
   6.84119987         3.29346367E-05
   6.85319996         3.14149256E-05
   6.86520004         2.95044574E-05
   6.87720013         2.72446796E-05
   6.88920021         2.46836116E-05
   6.90119982         2.18743553E-05
   6.91319990         1.88736558E-05
   6.92519999         1.57405902E-05
   6.93720007         1.25353736E-05
   6.94920015         9.31828254E-06
   6.96120024         6.14870260E-06
   6.97319984         3.08425251E-06
   6.98519993         1.79969632E-07
   6.99720001        -2.51249276E-06
   7.00920010        -4.94565575E-06
   7.02120018        -7.07702975E-06
   7.03319979        -8.86994530E-06
   7.04519987        -1.02943823E-05
   7.05719995        -1.13277811E-05
   7.06920004        -1.19557917E-05
   7.08120012        -1.21729063E-05
   7.09320021        -1.19829301E-05
   7.10519981        -1.13992382E-05
   7.11719990        -1.04447699E-05
   7.12919998        -9.15171950E-06
   7.14120007        -7.56091504E-06
   7.15320015        -5.72086765E-06
   7.16520023        -3.68650285E-06
   7.17719984        -1.51762436E-06
   7.18919992         7.22849961E-07
   7.20120001         2.97081010E-06
   7.21320009         5.16294722E-06
   7.22520018         7.23873609E-06
   7.23719978         9.14231532E-06
   7.24919987         1.08241829E-05
   7.26119995         1.22426263E-05
   7.27320004         1.33648509E-05
   7.28520012         1.41677383E-05
   7.29720020         1.46382399E-05
   7.30919981         1.47733908E-05
   7.32119989         1.45799759E-05
   7.33319998         1.40738784E-05
   7.34520006         1.32791611E-05
   7.35720015         1.22269457E-05
   7.36920023         1.09541470E-05
   7.38119984         9.50211324E-06
   7.39319992         7.91525144E-06
   7.40520000         6.23967253E-06
   7.41720009         4.52189897E-06
   7.42920017         2.80766881E-06
   7.44119978         1.14085719E-06
   7.45319986        -4.37483351E-07
   7.46519995        -1.88995614E-06
   7.47720003        -3.18353818E-06
   7.48920012        -4.29019246E-06
   7.50120020        -5.18738307E-06
   7.51319981        -5.85850285E-06
   7.52519989        -6.29321721E-06
   7.53719997        -6.48771129E-06
   7.54920006        -6.44484135E-06
   7.56120014        -6.17416345E-06
   7.57320023        -5.69181520E-06
   7.58519983        -5.02023113E-06
   7.59719992        -4.18766831E-06
   7.60920000        -3.22752248E-06
   7.62120008        -2.17744127E-06
   7.63320017        -1.07823041E-06
   7.64519978         2.74184480E-08
   7.65719986         1.09634175E-06
   7.66919994         2.08640790E-06
   7.68120003         2.95805216E-06
   7.69320011         3.67576786E-06
   7.70520020         4.20948754E-06
   7.71719980         4.53577195E-06
   7.72919989         4.63874949E-06
   7.74119997         4.51074402E-06
   7.75320005         4.15255636E-06
   7.76520014         3.57337854E-06
   7.77720022         2.79034202E-06
   7.78919983         1.82772919E-06
   7.80119991         7.15886131E-07
   7.81320000        -5.10090558E-07
   7.82520008        -1.81182543E-06
   7.83720016        -3.14921135E-06
   7.84919977        -4.48194442E-06
   7.86119986        -5.77098217E-06
   7.87319994        -6.97985251E-06
   7.88520002        -8.07577635E-06
   7.89720011        -9.03056025E-06
   7.90920019        -9.82125403E-06
   7.92119980        -1.04305764E-05
   7.93319988        -1.08471113E-05
   7.94519997        -1.10653173E-05
   7.95720005        -1.10853671E-05
   7.96920013        -1.09128514E-05
   7.98120022        -1.05583940E-05
   7.99319983        -1.00371917E-05
   8.00520039        -9.36850938E-06
   8.01720047        -8.57514897E-06
   8.02919960        -7.68289192E-06
   8.04119968        -6.71992075E-06
   8.05319977        -5.71621331E-06
   8.06519985        -4.70289797E-06
   8.07719994        -3.71156739E-06
   8.08920002        -2.77353752E-06
   8.10120010        -1.91906565E-06
   8.11320019        -1.17653190E-06
   8.12520027        -5.71603039E-07
   8.13720036        -1.26416850E-07
   8.14920044         1.41191819E-07
   8.16119957         2.18373998E-07
   8.17319965         9.78281633E-08
   8.18519974        -2.21801983E-07
   8.19719982        -7.35721414E-07
   8.20919991        -1.43298882E-06
   8.22119999        -2.29675538E-06
   8.23320007        -3.30473654E-06
   8.24520016        -4.42990495E-06
   8.25720024        -5.64139236E-06
   8.26920033        -6.90555953E-06
   8.28120041        -8.18719491E-06
   8.29319954        -9.45078955E-06
   8.30519962        -1.06618199E-05
   8.31719971        -1.17879918E-05
   8.32919979        -1.28003658E-05
   8.34119987        -1.36743402E-05
   8.35319996        -1.43904208E-05
   8.36520004        -1.49347743E-05
   8.37720013        -1.52995199E-05
   8.38920021        -1.54827831E-05
   8.40120029        -1.54884965E-05
   8.41320038        -1.53259898E-05
   8.42520046        -1.50093583E-05
   8.43719959        -1.45566855E-05
   8.44919968        -1.39891299E-05
   8.46119976        -1.33299336E-05
   8.47319984        -1.26033974E-05
   8.48519993        -1.18338648E-05
   8.49720001        -1.10447727E-05
   8.50920010        -1.02577860E-05
   8.52120018        -9.49207697E-06
   8.53320026        -8.76375634E-06
   8.54520035        -8.08547520E-06
   8.55720043        -7.46619980E-06
   8.56919956        -6.91117430E-06
   8.58119965        -6.42203759E-06
   8.59319973        -5.99710302E-06
   8.60519981        -5.63177264E-06
   8.61719990        -5.31906517E-06
   8.62919998        -5.05024218E-06
   8.64120007        -4.81549750E-06
   8.65320015        -4.60468254E-06
   8.66520023        -4.40803933E-06
   8.67720032        -4.21690447E-06
   8.68920040        -4.02435035E-06
   8.70119953        -3.82572853E-06
   8.71319962        -3.61908656E-06
   8.72519970        -3.40543284E-06
   8.73719978        -3.18883394E-06
   8.74919987        -2.97632550E-06
   8.76119995        -2.77764616E-06
   8.77320004        -2.60479896E-06
   8.78520012        -2.47146113E-06
   8.79720020        -2.39227097E-06
   8.80920029        -2.38203438E-06
   8.82120037        -2.45489082E-06
   8.83320045        -2.62349386E-06
   8.84519958        -2.89825630E-06
   8.85719967        -3.28670149E-06
   8.86919975        -3.79297353E-06
   8.88119984        -4.41752263E-06
   8.89319992        -5.15699321E-06
   8.90520000        -6.00431031E-06
   8.91720009        -6.94895607E-06
   8.92920017        -7.97740722E-06
   8.94120026        -9.07369395E-06
   8.95320034        -1.02200447E-05
   8.96520042        -1.13975530E-05
   8.97719955        -1.25868237E-05
   8.98919964        -1.37685711E-05
   9.00119972        -1.49241005E-05
   9.01319981        -1.60356813E-05
   9.02519989        -1.70867970E-05
   9.03719997        -1.80622574E-05
   9.04920006        -1.89482398E-05
   9.06120014        -1.97322406E-05
   9.07320023        -2.04030366E-05
   9.08520031        -2.09506306E-05