 -0.622799993         1.00000002E-24
 -0.610800028         1.00000002E-24
 -0.598800004         1.00000002E-24
 -0.586799979         1.00000002E-24
 -0.574800014         1.00000002E-24
 -0.562799990         1.00000002E-24
 -0.550800025         1.00000012E-24
 -0.538800001         1.00000022E-24
 -0.526799977         1.00000022E-24
 -0.514800012         1.00000012E-24
 -0.502799988         1.00000012E-24
 -0.490799993         1.00000012E-24
 -0.478799999         1.00000002E-24
 -0.466800004         1.00000002E-24
 -0.454800010         9.99999921E-25
 -0.442799985         9.99999921E-25
 -0.430799991         9.99999921E-25
 -0.418799996         9.99999921E-25
 -0.406800002         1.00000002E-24
 -0.394800007         1.00000012E-24
 -0.382800013         1.00000022E-24
 -0.370799989         1.00000032E-24
 -0.358799994         1.00000032E-24
 -0.346799999         1.00000032E-24
 -0.334800005         1.00000012E-24
 -0.322800010         1.00000002E-24
 -0.310799986         9.99999921E-25
 -0.298799992         9.99999724E-25
 -0.286799997         9.99999822E-25
 -0.274800003         1.00000022E-24
 -0.262800008         1.00000101E-24
 -0.250800014         1.00000189E-24
 -0.238800004         1.00000229E-24
 -0.226799995         1.00000081E-24
 -0.214800000         9.99995385E-25
 -0.202800006         9.99984834E-25
 -0.190799996         9.99970634E-25
 -0.178800002         9.99961365E-25
 -0.166800007         9.99975170E-25
 -0.154799998         1.00003749E-24
 -0.142800003         1.00016943E-24
 -0.130799994         1.00036082E-24
 -0.118799999         1.00053408E-24
 -0.106799997         1.00051603E-24
  -9.48000029E-02     1.00005041E-24
  -8.28000009E-02     9.98893346E-25
  -7.07999989E-02     9.97016252E-25
  -5.88000007E-02     9.94889483E-25
  -4.67999987E-02     9.93729266E-25
  -3.48000005E-02     9.95495624E-25
  -2.28000004E-02     1.00237863E-24
  -1.08000003E-02     1.01559836E-24
   1.20000006E-03     1.03361752E-24
   1.31999999E-02     1.05033635E-24
   2.52000000E-02     1.05436181E-24
   3.72000001E-02     1.03075475E-24
   4.91999984E-02     9.66394249E-25
   6.12000003E-02     8.58971707E-25
   7.32000023E-02     7.27599496E-25
   8.51999968E-02     6.20577202E-25
   9.71999988E-02     6.14002145E-25
  0.109200001         7.95054400E-25
  0.121200003         1.22719314E-24
  0.133200005         1.90158313E-24
  0.145199999         2.68864405E-24
  0.157199994         3.31255750E-24
  0.169200003         3.37526957E-24
  0.181199998         2.45027455E-24
  0.193200007         2.47632633E-25
  0.205200002        -3.17807604E-24
  0.217199996        -7.23850720E-24
  0.229200006        -1.07273897E-23
  0.241200000        -1.19299521E-23
  0.253199995        -8.98335314E-24
  0.265199989        -4.79715536E-25
  0.277200013         1.37861742E-23
  0.289200008         3.21125648E-23
  0.301200002         5.04791336E-23
  0.313199997         6.26829506E-23
  0.325199991         6.12128484E-23
  0.337199986         3.89223971E-23
  0.349200010        -8.61704400E-24
  0.361200005        -8.04043890E-23
  0.373199999        -1.67466196E-22
  0.385199994        -2.51211556E-22
  0.397199988        -3.03587376E-22
  0.409200013        -2.90036109E-22
  0.421200007        -1.76165325E-22
  0.433200002         6.14346445E-23
  0.445199996         4.20851260E-22
  0.457199991         8.59383606E-22
  0.469199985         1.28165911E-21
  0.481200010         1.53828291E-21
  0.493200004         1.44303183E-21
  0.505200028         8.15000247E-22
  0.517199993        -4.53448255E-22
  0.529200017        -2.31198678E-21
  0.541199982        -4.47287496E-21
  0.553200006        -6.37100485E-21
  0.565199971        -7.20357668E-21
  0.577199996        -6.08242787E-21
  0.589200020        -2.30709781E-21
  0.601199985         4.27628991E-21
  0.613200009         1.29187493E-20
  0.625199974         2.17512716E-20
  0.637199998         2.78632946E-20
  0.649200022         2.78025421E-20
  0.661199987         1.85260233E-20
  0.673200011        -1.32378665E-21
  0.685199976        -3.01277403E-20
  0.697200000        -6.24485367E-20
  0.709200025        -8.91548771E-20
  0.721199989        -9.89075497E-20
  0.733200014        -8.10821113E-20
  0.745199978        -2.97119011E-20
  0.757200003         5.25132122E-20
  0.769200027         1.51581558E-19
  0.781199992         2.42308085E-19
  0.793200016         2.92365876E-19
  0.805199981         2.70310889E-19
  0.817200005         1.56340186E-19
  0.829200029        -4.69083107E-20
  0.841199994        -3.07206039E-19
  0.853200018        -5.62968578E-19
  0.865199983        -7.33346640E-19
  0.877200007        -7.38068497E-19
  0.889199972        -5.23529589E-19
  0.901199996        -8.83339585E-20
  0.913200021         5.00467328E-19
  0.925199986         1.10870895E-18
  0.937200010         1.55875610E-18
  0.949199975         1.67396892E-18
  0.961199999         1.33495226E-18
  0.973200023         5.32019926E-19
  0.985199988        -6.04640800E-19
  0.997200012        -1.81290176E-18
   1.00919998        -2.75155965E-18
   1.02119994        -3.09127735E-18
   1.03320003        -2.62195802E-18
   1.04519999        -1.34400151E-18
   1.05719995         4.91193496E-19
   1.06920004         2.41646113E-18
   1.08120000         3.86393021E-18
   1.09319997         4.33673466E-18
   1.10520005         3.58884675E-18
   1.11720002         1.75081690E-18
   1.12919998        -6.55020029E-19
   1.14119995        -2.83851783E-18
   1.15320003        -3.98869262E-18
   1.16520000        -3.57819721E-18
   1.17719996        -1.62321550E-18
   1.18920004         1.21039922E-18
   1.20120001         3.73176454E-18
   1.21319997         4.58840808E-18
   1.22520006         2.78754614E-18
   1.23720002        -1.78639249E-18
   1.24919999        -8.05961941E-18
   1.26119995        -1.38382626E-17
   1.27320004        -1.63371182E-17
   1.28520000        -1.30937984E-17
   1.29719996        -3.03074737E-18
   1.30920005         1.26901070E-17
   1.32120001         3.03927134E-17
   1.33319998         4.44512005E-17
   1.34519994         4.87164581E-17
   1.35720003         3.85259139E-17
   1.36919999         1.27402954E-17
   1.38119996        -2.48964722E-17
   1.39320004        -6.57138418E-17
   1.40520000        -9.77252616E-17
   1.41719997        -1.08742394E-16
   1.42920005        -9.02947114E-17
   1.44120002        -4.12266784E-17
   1.45319998         3.02960623E-17
   1.46519995         1.07381457E-16
   1.47720003         1.67963351E-16
   1.48920000         1.90759893E-16
   1.50119996         1.62177163E-16
   1.51320004         8.20921635E-17
   1.52520001        -3.35902562E-17
   1.53719997        -1.55063635E-16
   1.54920006        -2.45632328E-16
   1.56120002        -2.72254918E-16
   1.57319999        -2.16856210E-16
   1.58519995        -8.48786835E-17
   1.59720004         9.22159740E-17
   1.60920000         2.62433545E-16
   1.62119997         3.66440270E-16
   1.63320005         3.55650023E-16
   1.64520001         2.10313397E-16
   1.65719998        -4.81749426E-17
   1.66919994        -3.55753626E-16
   1.68120003        -6.17468278E-16
   1.69319999        -7.31351699E-16
   1.70519996        -6.19260917E-16
   1.71720004        -2.56482106E-16
   1.72920001         3.09127533E-16
   1.74119997         9.56107286E-16
   1.75320005         1.50999558E-15
   1.76520002         1.78328006E-15
   1.77719998         1.62639633E-15
   1.78919995         9.77005071E-16
   1.80120003        -1.06630251E-16
   1.81320000        -1.43987957E-15
   1.82519996        -2.73915759E-15
   1.83720005        -3.67959371E-15
   1.84920001        -3.97130593E-15
   1.86119998        -3.43615602E-15
   1.87320006        -2.06471777E-15
   1.88520002        -3.64742115E-17
   1.89719999         2.30539138E-15
   1.90919995         4.52165881E-15
   1.92120004         6.17238668E-15
   1.93320000         6.91634546E-15
   1.94519997         6.58824556E-15
   1.95720005         5.23195650E-15
   1.96920002         3.07928113E-15
   1.98119998         4.79249865E-16
   1.99319994        -2.20168639E-15
   2.00519991        -4.67755480E-15
   2.01719999        -6.80580004E-15
   2.02920008        -8.59052938E-15
   2.04119992        -1.01188513E-14
   2.05320001        -1.14457046E-14
   2.06520009        -1.24638654E-14
   2.07719994        -1.28088441E-14
   2.08920002        -1.18475930E-14
   2.10120010        -8.78294816E-15
   2.11319995        -2.87479594E-15
   2.12520003         6.25898903E-15
   2.13720012         1.83337452E-14
   2.14919996         3.21740417E-14
   2.16120005         4.56651555E-14
   2.17319989         5.59421047E-14
   2.18519998         5.98271432E-14
   2.19720006         5.44628158E-14
   2.20919991         3.80273307E-14
   2.22119999         1.03788802E-14
   2.23320007        -2.65314910E-14
   2.24519992        -6.86064364E-14
   2.25720000        -1.09969291E-13
   2.26920009        -1.43724794E-13
   2.28119993        -1.62999971E-13
   2.29320002        -1.62086490E-13
   2.30520010        -1.37480454E-13
   2.31719995        -8.86362923E-14
   2.32920003        -1.83117207E-14
   2.34120011         6.75350956E-14
   2.35319996         1.60252982E-13
   2.36520004         2.49306598E-13
   2.37719989         3.23262847E-13
   2.38919997         3.70847829E-13
   2.40120006         3.82012293E-13
   2.41319990         3.48989365E-13
   2.42519999         2.67353793E-13
   2.43720007         1.37075965E-13
   2.44919991        -3.64952107E-14
   2.46120000        -2.41874988E-13
   2.47320008        -4.61149673E-13
   2.48519993        -6.70432731E-13
   2.49720001        -8.41325328E-13
   2.50920010        -9.43519243E-13
   2.52119994        -9.48478817E-13
   2.53320003        -8.33891495E-13
   2.54520011        -5.88334611E-13
   2.55719995        -2.15429359E-13
   2.56920004         2.63309421E-13
   2.58119988         8.07641118E-13
   2.59319997         1.36028211E-12
   2.60520005         1.85128410E-12
   2.61719990         2.20491876E-12
   2.62919998         2.34852090E-12
   2.64120007         2.22243708E-12
   2.65319991         1.79001898E-12
   2.66520000         1.04647779E-12
   2.67720008         2.54030720E-14
   2.68919992        -1.19818641E-12
   2.70120001        -2.50922959E-12
   2.71320009        -3.75915401E-12
   2.72519994        -4.77785866E-12
   2.73720002        -5.39088956E-12
   2.74920011        -5.44084786E-12
   2.76119995        -4.81123821E-12
   2.77320004        -3.45012517E-12
   2.78520012        -1.39028936E-12
   2.79719996         1.23777616E-12
   2.80920005         4.20354073E-12
   2.82119989         7.18747934E-12
   2.83319998         9.80675090E-12
   2.84520006         1.16547657E-11
   2.85719991         1.23516293E-11
   2.86919999         1.16001870E-11
   2.88120008         9.24062996E-12
   2.89319992         5.29565020E-12
   2.90520000        -1.71199684E-15
   2.91720009        -6.20403555E-12
   2.92919993        -1.26733190E-11
   2.94120002        -1.86333136E-11
   2.95320010        -2.32473416E-11
   2.96519995        -2.57148972E-11
   2.97720003        -2.53772628E-11
   2.98920012        -2.18203042E-11
   3.00119996        -1.49618078E-11
   3.01320004        -5.11125951E-12
   3.02519989         7.00815014E-12
   3.03719997         2.02825586E-11
   3.04920006         3.32788692E-11
   3.06119990         4.43634574E-11
   3.07319999         5.18621569E-11
   3.08520007         5.42503820E-11
   3.09719992         5.03574821E-11
   3.10920000         3.95650006E-11
   3.12120008         2.19753122E-11
   3.13319993        -1.47433498E-12
   3.14520001        -2.89764532E-11
   3.15720010        -5.79161268E-11
   3.16919994        -8.50438886E-11
   3.18120003        -1.06758845E-10
   3.19320011        -1.19487767E-10
   3.20519996        -1.20130170E-10
   3.21720004        -1.06524109E-10
   3.22919989        -7.78755949E-11
   3.24119997        -3.50884564E-11
   3.25320005         1.90659658E-11
   3.26519990         7.99892028E-11
   3.27719998         1.41534839E-10
   3.28920007         1.96527253E-10
   3.30119991         2.37488862E-10
   3.31320000         2.57511512E-10
   3.32520008         2.51180660E-10
   3.33719993         2.15441512E-10
   3.34920001         1.50290433E-10
   3.36120009         5.91832069E-11
   3.37319994        -5.09263985E-11
   3.38520002        -1.69968206E-10
   3.39720011        -2.85564322E-10
   3.40919995        -3.84222515E-10
   3.42120004        -4.52823390E-10
   3.43319988        -4.80267714E-10
   3.44519997        -4.59115912E-10
   3.45720005        -3.87033183E-10
   3.46919990        -2.67848799E-10
   3.48119998        -1.12053873E-10
   3.49320006         6.34049618E-11
   3.50519991         2.36125508E-10
   3.51719999         3.80063481E-10
   3.52920008         4.68097394E-10
   3.54119992         4.75192663E-10
   3.55320001         3.81925297E-10
   3.56520009         1.78047757E-10
   3.57719994        -1.34270831E-10
   3.58920002        -5.37916878E-10
   3.60120010        -9.99374916E-10
   3.61319995        -1.46862100E-09
   3.62520003        -1.88051597E-09
   3.63720012        -2.15766804E-09
   3.64919996        -2.21452368E-09
   3.66120005        -1.96221861E-09
   3.67319989        -1.31350053E-09
   3.68519998        -1.86849994E-10
   3.69720006         1.49120449E-09
   3.70919991         3.78661991E-09
   3.72119999         6.76222145E-09
   3.73320007         1.04867572E-08
   3.74519992         1.50492028E-08
   3.75720000         2.05785007E-08
   3.76920009         2.72684808E-08
   3.78119993         3.54072291E-08
   3.79320002         4.54095606E-08
   3.80520010         5.78508299E-08
   3.81719995         7.34997556E-08
   3.82920003         9.33476088E-08
   3.84120011         1.18630780E-07
   3.85319996         1.50843832E-07
   3.86520004         1.91739872E-07
   3.87719989         2.43315895E-07
   3.88919997         3.07780795E-07
   3.90120006         3.87504599E-07
   3.91319990         4.84948430E-07
   3.92519999         6.02576051E-07
   3.93720007         7.42748000E-07
   3.94919991         9.07601418E-07
   3.96120000         1.09891960E-06
   3.97320008         1.31799538E-06
   3.98519993         1.56549493E-06
   3.99720001         1.84132807E-06
   4.00920010         2.14453007E-06
   4.02120018         2.47316484E-06
   4.03319979         2.82425162E-06
   4.04519987         3.19372521E-06
   4.05719995         3.57643103E-06
   4.06920004         3.96616224E-06
   4.08120012         4.35573565E-06
   4.09320021         4.73711634E-06
   4.10519981         5.10157861E-06
   4.11719990         5.43991155E-06
   4.12919998         5.74265641E-06
   4.14120007         6.00037538E-06
   4.15320015         6.20393939E-06
   4.16520023         6.34482876E-06
   4.17719984         6.41543693E-06
   4.18919992         6.40936469E-06
   4.20120001         6.32169167E-06
   4.21320009         6.14922101E-06
   4.22520018         5.89067895E-06
   4.23719978         5.54686085E-06
   4.24919987         5.12072074E-06
   4.26119995         4.61739000E-06
   4.27320004         4.04412594E-06
   4.28520012         3.41018767E-06
   4.29720020         2.72663783E-06
   4.30919981         2.00607747E-06
   4.32119989         1.26231566E-06
   4.33319998         5.09991082E-07
   4.34520006        -2.35849768E-07
   4.35720015        -9.60196758E-07
   4.36920023        -1.64853145E-06
   4.38119984        -2.28727254E-06
   4.39319992        -2.86419481E-06
   4.40520000        -3.36880680E-06
   4.41720009        -3.79266635E-06
   4.42920017        -4.12962527E-06
   4.44119978        -4.37598692E-06
   4.45319986        -4.53057828E-06
   4.46519995        -4.59472312E-06
   4.47720003        -4.57211854E-06
   4.48920012        -4.46863123E-06
   4.50120020        -4.29200691E-06
   4.51319981        -4.05151377E-06
   4.52519989        -3.75754234E-06
   4.53719997        -3.42116550E-06
   4.54920006        -3.05369326E-06
   4.56120014        -2.66623442E-06
   4.57320023        -2.26928864E-06
   4.58519983        -1.87238436E-06
   4.59719992        -1.48378297E-06
   4.60920000        -1.11025452E-06
   4.62120008        -7.56937197E-07
   4.63320017        -4.27282487E-07
   4.64519978        -1.23085385E-07
   4.65719986         1.55407690E-07
   4.66919994         4.09321387E-07
   4.68120003         6.40918529E-07
   4.69320011         8.53325673E-07
   4.70520020         1.05023616E-06
   4.71719980         1.23560653E-06
   4.72919989         1.41336602E-06
   4.74119997         1.58715090E-06
   4.75320005         1.76008098E-06
   4.76520014         1.93458618E-06
   4.77720022         2.11229167E-06
   4.78919983         2.29396255E-06
   4.80119991         2.47950925E-06
   4.81320000         2.66805023E-06
   4.82520008         2.85802048E-06
   4.83720016         3.04732089E-06
   4.84919977         3.23349332E-06
   4.86119986         3.41391024E-06
   4.87319994         3.58596571E-06
   4.88520002         3.74725437E-06
   4.89720011         3.89572824E-06
   4.90920019         4.02982459E-06
   4.92119980         4.14855231E-06
   4.93319988         4.25154076E-06
   4.94519997         4.33904506E-06
   4.95720005         4.41191105E-06
   4.96920013         4.47150569E-06
   4.98120022         4.51961887E-06
   4.99319983         4.55834697E-06
   5.00519991         4.58996101E-06
   5.01719999         4.61678064E-06
   5.02920008         4.64104869E-06
   5.04120016         4.66482697E-06
   5.05319977         4.68991266E-06
   5.06519985         4.71777912E-06
   5.07719994         4.74955050E-06
   5.08920002         4.78599350E-06
   5.10120010         4.82754876E-06
   5.11320019         4.87436955E-06
   5.12519979         4.92638310E-06
   5.13719988         4.98335794E-06
   5.14919996         5.04496893E-06
   5.16120005         5.11086000E-06
   5.17320013         5.18069101E-06
   5.18520021         5.25417181E-06
   5.19719982         5.33107550E-06
   5.20919991         5.41123063E-06
   5.22119999         5.49450215E-06
   5.23320007         5.58075180E-06
   5.24520016         5.66979816E-06
   5.25719976         5.76136745E-06
   5.26919985         5.85505722E-06
   5.28119993         5.95030315E-06
   5.29320002         6.04636580E-06
   5.30520010         6.14233704E-06
   5.31720018         6.23716369E-06
   5.32919979         6.32969341E-06
   5.34119987         6.41874112E-06
   5.35319996         6.50315997E-06
   5.36520004         6.58193176E-06
   5.37720013         6.65424614E-06
   5.38920021         6.71957969E-06
   5.40119982         6.77776188E-06
   5.41319990         6.82901691E-06
   5.42519999         6.87398870E-06
   5.43720007         6.91373771E-06
   5.44920015         6.94971004E-06
   5.46120024         6.98369195E-06
   5.47319984         7.01773797E-06
   5.48519993         7.05409184E-06
   5.49720001         7.09510050E-06
   5.50920010         7.14312864E-06
   5.52120018         7.20048092E-06
   5.53319979         7.26933786E-06
   5.54519987         7.35170306E-06
   5.55719995         7.44937051E-06
   5.56920004         7.56390273E-06
   5.58120012         7.69662256E-06
   5.59320021         7.84861186E-06
   5.60519981         8.02070736E-06
   5.61719990         8.21349749E-06
   5.62919998         8.42730697E-06
   5.64120007         8.66216305E-06
   5.65320015         8.91775835E-06
   5.66520023         9.19338527E-06
   5.67719984         9.48787056E-06
   5.68919992         9.79950437E-06
   5.70120001         1.01259639E-05
   5.71320009         1.04642659E-05
   5.72520018         1.08107297E-05
   5.73719978         1.11609861E-05
   5.74919987         1.15100220E-05
   5.76119995         1.18522748E-05
   5.77320004         1.21817848E-05
   5.78520012         1.24923899E-05
   5.79720020         1.27779676E-05
   5.80919981         1.30327107E-05
   5.82119989         1.32514278E-05
   5.83319998         1.34298352E-05
   5.84520006         1.35648452E-05
   5.85720015         1.36548124E-05
   5.86920023         1.36997214E-05
   5.88119984         1.37013167E-05
   5.89319992         1.36631306E-05
   5.90520000         1.35904329E-05
   5.91720009         1.34900811E-05
   5.92920017         1.33702733E-05
   5.94119978         1.32402311E-05
   5.95319986         1.31097941E-05
   5.96519995         1.29889859E-05
   5.97720003         1.28875436E-05
   5.98920012         1.28144484E-05
   6.00120020         1.27774902E-05
   6.01319981         1.27828653E-05
   6.02519989         1.28348693E-05
   6.03719997         1.29356677E-05
   6.04920006         1.30851722E-05
   6.06120014         1.32810383E-05
   6.07320023         1.35187684E-05
   6.08519983         1.37919324E-05
   6.09719992         1.40924822E-05
   6.10920000         1.44111527E-05
   6.12120008         1.47379315E-05
   6.13320017         1.50625647E-05
   6.14519978         1.53750898E-05
   6.15719986         1.56663446E-05
   6.16919994         1.59284682E-05
   6.18120003         1.61553162E-05
   6.19320011         1.63428213E-05
   6.20520020         1.64892590E-05
   6.21719980         1.65953861E-05
   6.22919989         1.66644932E-05
   6.24119997         1.67023263E-05
   6.25320005         1.67168891E-05
   6.26520014         1.67181461E-05
   6.27720022         1.67176313E-05
   6.28919983         1.67279632E-05
   6.30119991         1.67623057E-05
   6.31320000         1.68337665E-05
   6.32520008         1.69548111E-05
   6.33720016         1.71366428E-05
   6.34919977         1.73886292E-05
   6.36119986         1.77177808E-05
   6.37319994         1.81283049E-05
   6.38520002         1.86212510E-05
   6.39720011         1.91942891E-05
   6.40920019         1.98416019E-05
   6.42119980         2.05539127E-05
   6.43319988         2.13186831E-05
   6.44519997         2.21204191E-05
   6.45720005         2.29411362E-05
   6.46920013         2.37609438E-05
   6.48120022         2.45587198E-05
   6.49319983         2.53128856E-05
   6.50519991         2.60022171E-05
   6.51719999         2.66066945E-05
   6.52920008         2.71083300E-05
   6.54120016         2.74919639E-05
   6.55319977         2.77459676E-05
   6.56519985         2.78628540E-05
   6.57719994         2.78397529E-05
   6.58920002         2.76787250E-05
   6.60120010         2.73869118E-05
   6.61320019         2.69764914E-05
   6.62519979         2.64644732E-05
   6.63719988         2.58722866E-05
   6.64919996         2.52252357E-05
   6.66120005         2.45517822E-05
   6.67320013         2.38827088E-05
   6.68520021         2.32501934E-05
   6.69719982         2.26868106E-05
   6.70919991         2.22244998E-05
   6.72119999         2.18935438E-05
   6.73320007         2.17215656E-05
   6.74520016         2.17326142E-05
   6.75719976         2.19463363E-05
   6.76919985         2.23772677E-05
   6.78119993         2.30342885E-05
   6.79320002         2.39202436E-05
   6.80520010         2.50317189E-05
   6.81720018         2.63590264E-05
   6.82919979         2.78863554E-05
   6.84119987         2.95921182E-05
   6.85319996         3.14494318E-05
   6.86520004         3.34267643E-05
   6.87720013         3.54887015E-05
   6.88920021         3.75967902E-05
   6.90119982         3.97104559E-05
   6.91319990         4.17879601E-05
   6.92519999         4.37873459E-05
   6.93720007         4.56673552E-05
   6.94920015         4.73882828E-05
   6.96120024         4.89127378E-05
   6.97319984         5.02063194E-05
   6.98519993         5.12381448E-05
   6.99720001         5.19812711E-05
   7.00920010         5.24129609E-05
   7.02120018         5.25148280E-05
   7.03319979         5.22728951E-05
   7.04519987         5.16774780E-05
   7.05719995         5.07230543E-05
   7.06920004         4.94080450E-05
   7.08120012         4.77345529E-05
   7.09320021         4.57080896E-05
   7.10519981         4.33373352E-05
   7.11719990         4.06338731E-05
   7.12919998         3.76120042E-05
   7.14120007         3.42885760E-05
   7.15320015         3.06828806E-05
   7.16520023         2.68165786E-05
   7.17719984         2.27136297E-05
   7.18919992         1.84002711E-05
   7.20120001         1.39049762E-05
   7.21320009         9.25838958E-06
   7.22520018         4.49323716E-06
   7.23719978        -3.55832469E-07
   7.24919987        -5.25246605E-06
   7.26119995        -1.01589076E-05
   7.27320004        -1.50363630E-05
   7.28520012        -1.98454618E-05
   7.29720020        -2.45467781E-05
   7.30919981        -2.91014094E-05
   7.32119989        -3.34715878E-05
   7.33319998        -3.76213247E-05
   7.34520006        -4.15170398E-05
   7.35720015        -4.51281630E-05
   7.36920023        -4.84277043E-05
   7.38119984        -5.13927298E-05
   7.39319992        -5.40047586E-05
   7.40520000        -5.62501009E-05
   7.41720009        -5.81200038E-05
   7.42920017        -5.96107930E-05
   7.44119978        -6.07238107E-05
   7.45319986        -6.14653181E-05
   7.46519995        -6.18462655E-05
   7.47720003        -6.18819904E-05
   7.48920012        -6.15918543E-05
   7.50120020        -6.09988347E-05
   7.51319981        -6.01290049E-05
   7.52519989        -5.90111122E-05
   7.53719997        -5.76759994E-05
   7.54920006        -5.61561028E-05
   7.56120014        -5.44849172E-05
   7.57320023        -5.26964832E-05
   7.58519983        -5.08248522E-05
   7.59719992        -4.89036065E-05
   7.60920000        -4.69653824E-05
   7.62120008        -4.50414300E-05
   7.63320017        -4.31612025E-05
   7.64519978        -4.13519847E-05
   7.65719986        -3.96385803E-05
   7.66919994        -3.80430611E-05
   7.68120003        -3.65845844E-05
   7.69320011        -3.52792704E-05
   7.70520020        -3.41401828E-05
   7.71719980        -3.31773663E-05
   7.72919989        -3.23980094E-05
   7.74119997        -3.18066050E-05
   7.75320005        -3.14052850E-05
   7.76520014        -3.11940858E-05
   7.77720022        -3.11713593E-05
   7.78919983        -3.13341116E-05
   7.80119991        -3.16783808E-05
   7.81320000        -3.21995467E-05
   7.82520008        -3.28926253E-05
   7.83720016        -3.37524616E-05
   7.84919977        -3.47738351E-05
   7.86119986        -3.59514779E-05
   7.87319994        -3.72799586E-05
   7.88520002        -3.87535256E-05
   7.89720011        -4.03658087E-05
   7.90920019        -4.21094919E-05
   7.92119980        -4.39759679E-05
   7.93319988        -4.59549301E-05
   7.94519997        -4.80340641E-05
   7.95720005        -5.01987633E-05
   7.96920013        -5.24319403E-05
   7.98120022        -5.47139753E-05
   7.99319983        -5.70227639E-05
   8.00520039        -5.93339428E-05
   8.01720047        -6.16212565E-05
   8.02919960        -6.38570418E-05
   8.04119968        -6.60128280E-05
   8.05319977        -6.80600642E-05
   8.06519985        -6.99709053E-05
   8.07719994        -7.17189832E-05
   8.08920002        -7.32802146E-05
   8.10120010        -7.46335645E-05
   8.11320019        -7.57617163E-05
   8.12520027        -7.66516241E-05
   8.13720036        -7.72949788E-05
   8.14920044        -7.76885063E-05
   8.16119957        -7.78340982E-05
   8.17319965        -7.77388123E-05
   8.18519974        -7.74147193E-05
   8.19719982        -7.68785612E-05
   8.20919991        -7.61513511E-05
   8.22119999        -7.52577907E-05
   8.23320007        -7.42255943E-05
   8.24520016        -7.30847532E-05
   8.25720024        -7.18667507E-05
   8.26920033        -7.06036590E-05
   8.28120041        -6.93272814E-05
   8.29319954        -6.80682715E-05
   8.30519962        -6.68552530E-05
   8.31719971        -6.57139899E-05
   8.32919979        -6.46666740E-05
   8.34119987        -6.37312041E-05
   8.35319996        -6.29206988E-05
   8.36520004        -6.22430452E-05
   8.37720013        -6.17006590E-05
   8.38920021        -6.12904551E-05
   8.40120029        -6.10038987E-05
   8.41320038        -6.08273585E-05
   8.42520046        -6.07425718E-05
   8.43719959        -6.07272923E-05
   8.44919968        -6.07561014E-05
   8.46119976        -6.08013033E-05
   8.47319984        -6.08339033E-05
   8.48519993        -6.08246301E-05
   8.49720001        -6.07449474E-05
   8.50920010        -6.05679452E-05
   8.52120018        -6.02692089E-05
   8.53320026        -5.98275510E-05
   8.54520035        -5.92255492E-05
   8.55720043        -5.84499285E-05
   8.56919956        -5.74918049E-05
   8.58119965        -5.63467038E-05
   8.59319973        -5.50144578E-05
   8.60519981        -5.34989449E-05
   8.61719990        -5.18077286E-05
   8.62919998        -4.99515845E-05
   8.64120007        -4.79440168E-05
   8.65320015        -4.58007162E-05
   8.66520023        -4.35390284E-05
   8.67720032        -4.11774745E-05
   8.68920040        -3.87352593E-05
   8.70119953        -3.62318897E-05
   8.71319962        -3.36868179E-05
   8.72519970        -3.11191288E-05
   8.73719978        -2.85472925E-05
   8.74919987        -2.59889275E-05
   8.76119995        -2.34606141E-05
   8.77320004        -2.09777154E-05
   8.78520012        -1.85541885E-05
   8.79720020        -1.62024371E-05
   8.80920029        -1.39331269E-05
   8.82120037        -1.17550353E-05
   8.83320045        -9.67490359E-06
   8.84519958        -7.69730832E-06
   8.85719967        -5.82457096E-06
   8.86919975        -4.05671699E-06
   8.88119984        -2.39148540E-06
   8.89319992        -8.24418521E-07
   8.90520000         6.50970378E-07
   8.91720009         2.04294747E-06
   8.92920017         3.36122230E-06
   8.94120026         4.61654099E-06
   8.95320034         5.82020766E-06
   8.96520042         6.98357644E-06
   8.97719955         8.11750579E-06
   8.98919964         9.23182870E-06
   9.00119972         1.03348466E-05
   9.01319981         1.14328923E-05
   9.02519989         1.25299666E-05
   9.03719997         1.36274830E-05
   9.04920006         1.47241453E-05
   9.06120014         1.58159510E-05
   9.07320023         1.68963379E-05
   9.08520031         1.79564777E-05