 -0.622799993         1.00000002E-24
 -0.610800028         1.00000002E-24
 -0.598800004         1.00000002E-24
 -0.586799979         1.00000002E-24
 -0.574800014         1.00000002E-24
 -0.562799990         1.00000002E-24
 -0.550800025         1.00000002E-24
 -0.538800001         9.99999329E-25
 -0.526799977         9.99994793E-25
 -0.514800012         9.99983158E-25
 -0.502799988         1.00000081E-24
 -0.490799993         1.00025315E-24
 -0.478799999         1.00135706E-24
 -0.466800004         1.00455954E-24
 -0.454800010         1.01163779E-24
 -0.442799985         1.02435965E-24
 -0.430799991         1.04422405E-24
 -0.418799996         1.07423055E-24
 -0.406800002         1.12366057E-24
 -0.394800007         1.21157094E-24
 -0.382800013         1.35491534E-24
 -0.370799989         1.52065167E-24
 -0.358799994         1.53485215E-24
 -0.346799999         9.92749698E-25
 -0.334800005        -7.04010089E-25
 -0.322800010        -3.99795811E-24
 -0.310799986        -8.40114224E-24
 -0.298799992        -1.14899421E-23
 -0.286799997        -8.39456629E-24
 -0.274800003         7.00081631E-24
 -0.262800008         3.80190661E-23
 -0.250800014         7.84520151E-23
 -0.238800004         1.05884836E-22
 -0.226799995         8.09604413E-23
 -0.214800000        -4.00937482E-23
 -0.202800006        -2.75487848E-22
 -0.190799996        -5.75900773E-22
 -0.178800002        -7.90715902E-22
 -0.166800007        -6.75847455E-22
 -0.154799998         2.29870392E-23
 -0.142800003         1.40116510E-21
 -0.130799994         3.18053207E-21
 -0.118799999         4.55450048E-21
 -0.106799997         4.24500205E-21
  -9.48000029E-02     9.08120114E-22
  -8.28000009E-02    -6.08759291E-21
  -7.07999989E-02    -1.56956471E-20
  -5.88000007E-02    -2.44705341E-20
  -4.67999987E-02    -2.66855978E-20
  -3.48000005E-02    -1.58189390E-20
  -2.28000004E-02     1.24613806E-20
  -1.08000003E-02     5.63961531E-20
   1.20000006E-03     1.04743128E-19
   1.31999999E-02     1.35935424E-19
   2.52000000E-02     1.21801867E-19
   3.72000001E-02     3.68649616E-20
   4.91999984E-02    -1.27764560E-19
   6.12000003E-02    -3.49497250E-19
   7.32000023E-02    -5.64419143E-19
   8.51999968E-02    -6.69731177E-19
   9.71999988E-02    -5.44598551E-19
  0.109200001        -9.14279629E-20
  0.121200003         7.07526972E-19
  0.133200005         1.73240354E-18
  0.145199999         2.68981578E-18
  0.157199994         3.12693690E-18
  0.169200003         2.52092246E-18
  0.181199998         4.54149712E-19
  0.193200007        -3.14321188E-18
  0.205200002        -7.74231458E-18
  0.217199996        -1.20578035E-17
  0.229200006        -1.41108840E-17
  0.241200000        -1.16283752E-17
  0.253199995        -2.81972491E-18
  0.265199989         1.25665535E-17
  0.277200013         3.21923739E-17
  0.289200008         5.05467937E-17
  0.301200002         5.93676922E-17
  0.313199997         4.94850048E-17
  0.325199991         1.41215430E-17
  0.337199986        -4.69316074E-17
  0.349200010        -1.23558986E-16
  0.361200005        -1.93810853E-16
  0.373199999        -2.26487213E-16
  0.385199994        -1.88890081E-16
  0.397199988        -5.91857390E-17
  0.409200013         1.59398458E-16
  0.421200007         4.27441095E-16
  0.433200002         6.67241681E-16
  0.445199996         7.74869869E-16
  0.457199991         6.48038650E-16
  0.469199985         2.25900193E-16
  0.481200010        -4.69565949E-16
  0.493200004        -1.30589822E-15
  0.505200028        -2.04255282E-15
  0.517199993        -2.37465644E-15
  0.529200017        -2.01806277E-15
  0.541199982        -8.20022284E-16
  0.553200006         1.13566260E-15
  0.565199971         3.46939232E-15
  0.577199996         5.53027642E-15
  0.589200020         6.52481634E-15
  0.601199985         5.73956301E-15
  0.613200009         2.81074035E-15
  0.625199974        -2.03764787E-15
  0.637199998        -7.87885484E-15
  0.649200022        -1.31681165E-14
  0.661199987        -1.60574916E-14
  0.673200011        -1.49019540E-14
  0.685199976        -8.84317644E-15
  0.697200000         1.69837708E-15
  0.709200025         1.48057226E-14
  0.721199989         2.72610320E-14
  0.733200014         3.51942495E-14
  0.745199978         3.50897324E-14
  0.757200003         2.49223893E-14
  0.769200027         5.10548135E-15
  0.781199992        -2.10758060E-14
  0.793200016        -4.77799054E-14
  0.805199981        -6.77293643E-14
  0.817200005        -7.39642315E-14
  0.829200029        -6.18415502E-14
  0.841199994        -3.07580669E-14
  0.853200018         1.49322490E-14
  0.865199983         6.61902716E-14
  0.877200007         1.10865446E-13
  0.889199972         1.36344806E-13
  0.901199996         1.32731757E-13
  0.913200021         9.57989384E-14
  0.925199986         2.89244641E-14
  0.937200010        -5.66121314E-14
  0.949199975        -1.43255809E-13
  0.961199999        -2.10557862E-13
  0.973200023        -2.39698940E-13
  0.985199988        -2.18195267E-13
  0.997200012        -1.43683527E-13
   1.00919998        -2.57798238E-14
   1.02119994         1.14648715E-13
   1.03320003         2.48928346E-13
   1.04519999         3.46248665E-13
   1.05719995         3.80493217E-13
   1.06920004         3.36767073E-13
   1.08120000         2.16053046E-13
   1.09319997         3.66792303E-14
   1.10520005        -1.68120428E-13
   1.11720002        -3.56414686E-13
   1.12919998        -4.86471486E-13
   1.14119995        -5.26456970E-13
   1.15320003        -4.62619689E-13
   1.16520000        -3.03748617E-13
   1.17719996        -8.04082753E-14
   1.18920004         1.61337672E-13
   1.20120001         3.70555285E-13
   1.21319997         5.03952294E-13
   1.22520006         5.37029134E-13
   1.23720002         4.70683063E-13
   1.24919999         3.31060944E-13
   1.26119995         1.62189801E-13
   1.27320004         1.29742569E-14
   1.28520000        -7.80444977E-14
   1.29719996        -9.57870258E-14
   1.30920005        -5.54237916E-14
   1.32120001        -1.51877269E-16
   1.33319998         1.03492739E-14
   1.34519994        -8.15951785E-14
   1.35720003        -3.10823389E-13
   1.36919999        -6.71842139E-13
   1.38119996        -1.10993506E-12
   1.39320004        -1.52429306E-12
   1.40520000        -1.78377603E-12
   1.41719997        -1.75289362E-12
   1.42920005        -1.32311946E-12
   1.44120002        -4.43325715E-13
   1.45319998         8.56881460E-13
   1.46519995         2.45593910E-12
   1.47720003         4.14429211E-12
   1.48920000         5.64439511E-12
   1.50119996         6.64547237E-12
   1.51320004         6.84983060E-12
   1.52520001         6.02573243E-12
   1.53719997         4.06003052E-12
   1.54920006         1.00210118E-12
   1.56120002        -2.91057261E-12
   1.57319999        -7.25472070E-12
   1.58519995        -1.14587697E-11
   1.59720004        -1.48777310E-11
   1.60920000        -1.69000109E-11
   1.62119997        -1.70714033E-11
   1.63320005        -1.52127512E-11
   1.64520001        -1.15024101E-11
   1.65719998        -6.49494087E-12
   1.66919994        -1.05558769E-12
   1.68120003         3.79443482E-12
   1.69319999         7.10589053E-12
   1.70519996         8.26441693E-12
   1.71720004         7.23140384E-12
   1.72920001         4.69617184E-12
   1.74119997         2.07529154E-12
   1.75320005         1.31177209E-12
   1.76520002         4.45600718E-12
   1.77719998         1.30488181E-11
   1.78919995         2.73682587E-11
   1.80120003         4.56414247E-11
   1.81320000         6.33526356E-11
   1.82519996         7.28002103E-11
   1.83720005         6.30588290E-11
   1.84920001         2.04936085E-11
   1.86119998        -7.00499311E-11
   1.87320006        -2.23298754E-10
   1.88520002        -4.50821380E-10
   1.89719999        -7.57563789E-10
   1.90919995        -1.13779774E-09
   1.92120004        -1.57072999E-09
   1.93320000        -2.01615191E-09
   1.94519997        -2.41060349E-09
   1.95720005        -2.66462474E-09
   1.96920002        -2.66170574E-09
   1.98119998        -2.25943220E-09
   1.99319994        -1.29318267E-09
   2.00519991         4.17689300E-10
   2.01719999         3.06176151E-09
   2.02920008         6.82694834E-09
   2.04119992         1.18936656E-08
   2.05320001         1.84331892E-08
   2.06520009         2.66156253E-08
   2.07719994         3.66331676E-08
   2.08920002         4.87449583E-08
   2.10120010         6.33504698E-08
   2.11319995         8.10985554E-08
   2.12520003         1.03038353E-07
   2.13720012         1.30817440E-07
   2.14919996         1.66929908E-07
   2.16120005         2.15015319E-07
   2.17319989         2.80204489E-07
   2.18519998         3.69505642E-07
   2.19720006         4.92217680E-07
   2.20919991         6.60355738E-07
   2.22119999         8.89064495E-07
   2.23320007         1.19699712E-06
   2.24519992         1.60662603E-06
   2.25720000         2.14445572E-06
   2.26920009         2.84110297E-06
   2.28119993         3.73121520E-06
   2.29320002         4.85318924E-06
   2.30520010         6.24867198E-06
   2.31719995         7.96182667E-06
   2.32920003         1.00383422E-05
   2.34120011         1.25242159E-05
   2.35319996         1.54642912E-05
   2.36520004         1.89006114E-05
   2.37719989         2.28706103E-05
   2.38919997         2.74052163E-05
   2.40120006         3.25269175E-05
   2.41319990         3.82478793E-05
   2.42519999         4.45682199E-05
   2.43720007         5.14744715E-05
   2.44919991         5.89383853E-05
   2.46120000         6.69161163E-05
   2.47320008         7.53479253E-05
   2.48519993         8.41582878E-05
   2.49720001         9.32567345E-05
   2.50920010         1.02539096E-04
   2.52119994         1.11889509E-04
   2.53320003         1.21182798E-04
   2.54520011         1.30287459E-04
   2.55719995         1.39068987E-04
   2.56920004         1.47393555E-04
   2.58119988         1.55131798E-04
   2.59319997         1.62162629E-04
   2.60520005         1.68377082E-04
   2.61719990         1.73681648E-04
   2.62919998         1.78001457E-04
   2.64120007         1.81282725E-04
   2.65319991         1.83494660E-04
   2.66520000         1.84630524E-04
   2.67720008         1.84708057E-04
   2.68919992         1.83768891E-04
   2.70120001         1.81877229E-04
   2.71320009         1.79117793E-04
   2.72519994         1.75592970E-04
   2.73720002         1.71419393E-04
   2.74920011         1.66724174E-04
   2.76119995         1.61640681E-04
   2.77320004         1.56304261E-04
   2.78520012         1.50848093E-04
   2.79719996         1.45399070E-04
   2.80920005         1.40074219E-04
   2.82119989         1.34977585E-04
   2.83319998         1.30197775E-04
   2.84520006         1.25806095E-04
   2.85719991         1.21855723E-04
   2.86919999         1.18381366E-04
   2.88120008         1.15399860E-04
   2.89319992         1.12911403E-04
   2.90520000         1.10901405E-04
   2.91720009         1.09342756E-04
   2.92919993         1.08198547E-04
   2.94120002         1.07424894E-04
   2.95320010         1.06973857E-04
   2.96519995         1.06796266E-04
   2.97720003         1.06844265E-04
   2.98920012         1.07073552E-04
   3.00119996         1.07445150E-04
   3.01320004         1.07926717E-04
   3.02519989         1.08493245E-04
   3.03719997         1.09127359E-04
   3.04920006         1.09818982E-04
   3.06119990         1.10564637E-04
   3.07319999         1.11366360E-04
   3.08520007         1.12230337E-04
   3.09719992         1.13165355E-04
   3.10920000         1.14181203E-04
   3.12120008         1.15287068E-04
   3.13319993         1.16490097E-04
   3.14520001         1.17794210E-04
   3.15720010         1.19199045E-04
   3.16919994         1.20699413E-04
   3.18120003         1.22285026E-04
   3.19320011         1.23940554E-04
   3.20519996         1.25646096E-04
   3.21720004         1.27378007E-04
   3.22919989         1.29109831E-04
   3.24119997         1.30813656E-04
   3.25320005         1.32461428E-04
   3.26519990         1.34026472E-04
   3.27719998         1.35484835E-04
   3.28920007         1.36816656E-04
   3.30119991         1.38007323E-04
   3.31320000         1.39048512E-04
   3.32520008         1.39938813E-04
   3.33719993         1.40684104E-04
   3.34920001         1.41297773E-04
   3.36120009         1.41800410E-04
   3.37319994         1.42219345E-04
   3.38520002         1.42587887E-04
   3.39720011         1.42944307E-04
   3.40919995         1.43330763E-04
   3.42120004         1.43791913E-04
   3.43319988         1.44373655E-04
   3.44519997         1.45121798E-04
   3.45720005         1.46080711E-04
   3.46919990         1.47292099E-04
   3.48119998         1.48793973E-04
   3.49320006         1.50619584E-04
   3.50519991         1.52796667E-04
   3.51719999         1.55346861E-04
   3.52920008         1.58285111E-04
   3.54119992         1.61619435E-04
   3.55320001         1.65350735E-04
   3.56520009         1.69472740E-04
   3.57719994         1.73972134E-04
   3.58920002         1.78828835E-04
   3.60120010         1.84016215E-04
   3.61319995         1.89501661E-04
   3.62520003         1.95246990E-04
   3.63720012         2.01209201E-04
   3.64919996         2.07341087E-04
   3.66120005         2.13592008E-04
   3.67319989         2.19908747E-04
   3.68519998         2.26236269E-04
   3.69720006         2.32518694E-04
   3.70919991         2.38699984E-04
   3.72119999         2.44724826E-04
   3.73320007         2.50539277E-04
   3.74519992         2.56091531E-04
   3.75720000         2.61332258E-04
   3.76920009         2.66215327E-04
   3.78119993         2.70697958E-04
   3.79320002         2.74741178E-04
   3.80520010         2.78310123E-04
   3.81719995         2.81374203E-04
   3.82920003         2.83907546E-04
   3.84120011         2.85889284E-04
   3.85319996         2.87303934E-04
   3.86520004         2.88141920E-04
   3.87719989         2.88400159E-04
   3.88919997         2.88082549E-04
   3.90120006         2.87200644E-04
   3.91319990         2.85774178E-04
   3.92519999         2.83831469E-04
   3.93720007         2.81409622E-04
   3.94919991         2.78554653E-04
   3.96120000         2.75321101E-04
   3.97320008         2.71771394E-04
   3.98519993         2.67974858E-04
   3.99720001         2.64006463E-04
   4.00920010         2.59944849E-04
   4.02120018         2.55870575E-04
   4.03319979         2.51863850E-04
   4.04519987         2.48002063E-04
   4.05719995         2.44357623E-04
   4.06920004         2.40995520E-04
   4.08120012         2.37971166E-04
   4.09320021         2.35328611E-04
   4.10519981         2.33098981E-04
   4.11719990         2.31299317E-04
   4.12919998         2.29931917E-04
   4.14120007         2.28984121E-04
   4.15320015         2.28428398E-04
   4.16520023         2.28223071E-04
   4.17719984         2.28313191E-04
   4.18919992         2.28631921E-04
   4.20120001         2.29102050E-04
   4.21320009         2.29637852E-04
   4.22520018         2.30147067E-04
   4.23719978         2.30532998E-04
   4.24919987         2.30696853E-04
   4.26119995         2.30539983E-04
   4.27320004         2.29966405E-04
   4.28520012         2.28885081E-04
   4.29720020         2.27212426E-04
   4.30919981         2.24874500E-04
   4.32119989         2.21809343E-04
   4.33319998         2.17968874E-04
   4.34520006         2.13320702E-04
   4.35720015         2.07849458E-04
   4.36920023         2.01557967E-04
   4.38119984         1.94467662E-04
   4.39319992         1.86618781E-04
   4.40520000         1.78069822E-04
   4.41720009         1.68896528E-04
   4.42920017         1.59190371E-04
   4.44119978         1.49056446E-04
   4.45319986         1.38611067E-04
   4.46519995         1.27978798E-04
   4.47720003         1.17289455E-04
   4.48920012         1.06674910E-04
   4.50120020         9.62656923E-05
   4.51319981         8.61878871E-05
   4.52519989         7.65600271E-05
   4.53719997         6.74903640E-05
   4.54920006         5.90743584E-05
   4.56120014         5.13926643E-05
   4.57320023         4.45094374E-05
   4.58519983         3.84711384E-05
   4.59719992         3.33058015E-05
   4.60920000         2.90227854E-05
   4.62120008         2.56129697E-05
   4.63320017         2.30494406E-05
   4.64519978         2.12886171E-05
   4.65719986         2.02717929E-05
   4.66919994         1.99270926E-05
   4.68120003         2.01717867E-05
   4.69320011         2.09149166E-05
   4.70520020         2.20601542E-05
   4.71719980         2.35088155E-05
   4.72919989         2.51629517E-05
   4.74119997         2.69283664E-05
   4.75320005         2.87174898E-05
   4.76520014         3.04519363E-05
   4.77720022         3.20646905E-05
   4.78919983         3.35017721E-05
   4.80119991         3.47233290E-05
   4.81320000         3.57040990E-05
   4.82520008         3.64332373E-05
   4.83720016         3.69134978E-05
   4.84919977         3.71598471E-05
   4.86119986         3.71975766E-05
   4.87319994         3.70600574E-05
   4.88520002         3.67862085E-05
   4.89720011         3.64179105E-05
   4.90920019         3.59974620E-05
   4.92119980         3.55651937E-05
   4.93319988         3.51574272E-05
   4.94519997         3.48048416E-05
   4.95720005         3.45312837E-05
   4.96920013         3.43530519E-05
   4.98120022         3.42786989E-05
   4.99319983         3.43092397E-05
   5.00519991         3.44387299E-05
   5.01719999         3.46551642E-05
   5.02920008         3.49415604E-05
   5.04120016         3.52771858E-05
   5.05319977         3.56387791E-05
   5.06519985         3.60018275E-05
   5.07719994         3.63416657E-05
   5.08920002         3.66345557E-05
   5.10120010         3.68585570E-05
   5.11320019         3.69943009E-05
   5.12519979         3.70256494E-05
   5.13719988         3.69401896E-05
   5.14919996         3.67297071E-05
   5.16120005         3.63905165E-05
   5.17320013         3.59237711E-05
   5.18520021         3.53356882E-05
   5.19719982         3.46376582E-05
   5.20919991         3.38462887E-05
   5.22119999         3.29832656E-05
   5.23320007         3.20750878E-05
   5.24520016         3.11525437E-05
   5.25719976         3.02499957E-05
   5.26919985         2.94044039E-05
   5.28119993         2.86541053E-05
   5.29320002         2.80374061E-05
   5.30520010         2.75909788E-05
   5.31720018         2.73481655E-05
   5.32919979         2.73372625E-05
   5.34119987         2.75798393E-05
   5.35319996         2.80892509E-05
   5.36520004         2.88693827E-05
   5.37720013         2.99137519E-05
   5.38920021         3.12050106E-05
   5.40119982         3.27149355E-05
   5.41319990         3.44049295E-05
   5.42519999         3.62269857E-05
   5.43720007         3.81251884E-05
   5.44920015         4.00376193E-05
   5.46120024         4.18986092E-05
   5.47319984         4.36412593E-05
   5.48519993         4.52001441E-05
   5.49720001         4.65139965E-05
   5.50920010         4.75283232E-05
   5.52120018         4.81978241E-05
   5.53319979         4.84884440E-05
   5.54519987         4.83790573E-05
   5.55719995         4.78626171E-05
   5.56920004         4.69467741E-05
   5.58120012         4.56539092E-05
   5.59320021         4.40205949E-05
   5.60519981         4.20964789E-05
   5.61719990         3.99426463E-05
   5.62919998         3.76295247E-05
   5.64120007         3.52344214E-05
   5.65320015         3.28387468E-05
   5.66520023         3.05250614E-05
   5.67719984         2.83740792E-05
   5.68919992         2.64616647E-05
   5.70120001         2.48560391E-05
   5.71320009         2.36152318E-05
   5.72520018         2.27849196E-05
   5.73719978         2.23967381E-05
   5.74919987         2.24671185E-05
   5.76119995         2.29967300E-05
   5.77320004         2.39705405E-05
   5.78520012         2.53584803E-05
   5.79720020         2.71167173E-05
   5.80919981         2.91894557E-05
   5.82119989         3.15112156E-05
   5.83319998         3.40094557E-05
   5.84520006         3.66074237E-05
   5.85720015         3.92271650E-05
   5.86920023         4.17924348E-05
   5.88119984         4.42315213E-05
   5.89319992         4.64797267E-05
   5.90520000         4.84814991E-05
   5.91720009         5.01920949E-05
   5.92920017         5.15787215E-05
   5.94119978         5.26211552E-05
   5.95319986         5.33118618E-05
   5.96519995         5.36555817E-05
   5.97720003         5.36685620E-05
   5.98920012         5.33773891E-05
   6.00120020         5.28175806E-05
   6.01319981         5.20320100E-05
   6.02519989         5.10692298E-05
   6.03719997         4.99817870E-05
   6.04920006         4.88245751E-05
   6.06120014         4.76533169E-05
   6.07320023         4.65231096E-05
   6.08519983         4.54871551E-05
   6.09719992         4.45955593E-05
   6.10920000         4.38942843E-05
   6.12120008         4.34241265E-05
   6.13320017         4.32198394E-05
   6.14519978         4.33092100E-05
   6.15719986         4.37122726E-05
   6.16919994         4.44405669E-05
   6.18120003         4.54964975E-05
   6.19320011         4.68728358E-05
   6.20520020         4.85524288E-05
   6.21719980         5.05081516E-05
   6.22919989         5.27031589E-05
   6.24119997         5.50914629E-05
   6.25320005         5.76188941E-05
   6.26520014         6.02244072E-05
   6.27720022         6.28417620E-05
   6.28919983         6.54015166E-05
   6.30119991         6.78332362E-05
   6.31320000         7.00679011E-05
   6.32520008         7.20404205E-05
   6.33720016         7.36919683E-05
   6.34919977         7.49722822E-05
   6.36119986         7.58416281E-05
   6.37319994         7.62724158E-05
   6.38520002         7.62503478E-05
   6.39720011         7.57750822E-05
   6.40920019         7.48604143E-05
   6.42119980         7.35338326E-05
   6.43319988         7.18357333E-05
   6.44519997         6.98180374E-05
   6.45720005         6.75424817E-05
   6.46920013         6.50786315E-05
   6.48120022         6.25015455E-05
   6.49319983         5.98894403E-05
   6.50519991         5.73212019E-05
   6.51719999         5.48739517E-05
   6.52920008         5.26207405E-05
   6.54120016         5.06283795E-05
   6.55319977         4.89555387E-05
   6.56519985         4.76510759E-05
   6.57719994         4.67527316E-05
   6.58920002         4.62861353E-05
   6.60120010         4.62641874E-05
   6.61320019         4.66868005E-05
   6.62519979         4.75410416E-05
   6.63719988         4.88016667E-05
   6.64919996         5.04319796E-05
   6.66120005         5.23850867E-05
   6.67320013         5.46054398E-05
   6.68520021         5.70306947E-05
   6.69719982         5.95936981E-05
   6.70919991         6.22247535E-05
   6.72119999         6.48538262E-05
   6.73320007         6.74129042E-05
   6.74520016         6.98381045E-05
   6.75719976         7.20717799E-05
   6.76919985         7.40643081E-05
   6.78119993         7.57755697E-05
   6.79320002         7.71760897E-05
   6.80520010         7.82477728E-05
   6.81720018         7.89841870E-05
   6.82919979         7.93904037E-05
   6.84119987         7.94824446E-05
   6.85319996         7.92862556E-05
   6.86520004         7.88363832E-05
   6.87720013         7.81743365E-05
   6.88920021         7.73467182E-05
   6.90119982         7.64032084E-05
   6.91319990         7.53945133E-05
   6.92519999         7.43703349E-05
   6.93720007         7.33774577E-05
   6.94920015         7.24580532E-05
   6.96120024         7.16482100E-05
   6.97319984         7.09768210E-05
   6.98519993         7.04648264E-05
   6.99720001         7.01248428E-05
   7.00920010         6.99611628E-05
   7.02120018         6.99701486E-05
   7.03319979         7.01409444E-05
   7.04519987         7.04564591E-05
   7.05719995         7.08946318E-05
   7.06920004         7.14297785E-05
   7.08120012         7.20341195E-05
   7.09320021         7.26791477E-05
   7.10519981         7.33371344E-05
   7.11719990         7.39823008E-05
   7.12919998         7.45919679E-05
   7.14120007         7.51473417E-05
   7.15320015         7.56341469E-05
   7.16520023         7.60429830E-05
   7.17719984         7.63693315E-05
   7.18919992         7.66134181E-05
   7.20120001         7.67798338E-05
   7.21320009         7.68769096E-05
   7.22520018         7.69159815E-05
   7.23719978         7.69105973E-05
   7.24919987         7.68755272E-05
   7.26119995         7.68258833E-05
   7.27320004         7.67762249E-05
   7.28520012         7.67396486E-05
   7.29720020         7.67271413E-05
   7.30919981         7.67468737E-05
   7.32119989         7.68038008E-05
   7.33319998         7.68993268E-05
   7.34520006         7.70312108E-05
   7.35720015         7.71935665E-05
   7.36920023         7.73771171E-05
   7.38119984         7.75695953E-05
   7.39319992         7.77562891E-05
   7.40520000         7.79207185E-05
   7.41720009         7.80454648E-05
   7.42920017         7.81130220E-05
   7.44119978         7.81068011E-05
   7.45319986         7.80119808E-05
   7.46519995         7.78164831E-05
   7.47720003         7.75117514E-05
   7.48920012         7.70934712E-05
   7.50120020         7.65621371E-05
   7.51319981         7.59233444E-05
   7.52519989         7.51880070E-05
   7.53719997         7.43722558E-05
   7.54920006         7.34971472E-05
   7.56120014         7.25881400E-05
   7.57320023         7.16743234E-05
   7.58519983         7.07874860E-05
   7.59719992         6.99609591E-05
   7.60920000         6.92283356E-05
   7.62120008         6.86221319E-05
   7.63320017         6.81723322E-05
   7.64519978         6.79050718E-05
   7.65719986         6.78413126E-05
   7.66919994         6.79957593E-05
   7.68120003         6.83759354E-05
   7.69320011         6.89815424E-05
   7.70520020         6.98041404E-05
   7.71719980         7.08271400E-05
   7.72919989         7.20261742E-05
   7.74119997         7.33697889E-05
   7.75320005         7.48204329E-05
   7.76520014         7.63358257E-05
   7.77720022         7.78704343E-05
   7.78919983         7.93772124E-05
   7.80119991         8.08093173E-05
   7.81320000         8.21219364E-05
   7.82520008         8.32738879E-05
   7.83720016         8.42291411E-05
   7.84919977         8.49580392E-05
   7.86119986         8.54382888E-05
   7.87319994         8.56554907E-05
   7.88520002         8.56034385E-05
   7.89720011         8.52839803E-05
   7.90920019         8.47066549E-05
   7.92119980         8.38878987E-05
   7.93319988         8.28501434E-05
   7.94519997         8.16207175E-05
   7.95720005         8.02306095E-05
   7.96920013         7.87132522E-05
   7.98120022         7.71033956E-05
   7.99319983         7.54359862E-05
   8.00520039         7.37453229E-05
   8.01720047         7.20643438E-05
   8.02919960         7.04241029E-05
   8.04119968         6.88534565E-05
   8.05319977         6.73789764E-05
   8.06519985         6.60248770E-05
   8.07719994         6.48131681E-05
   8.08920002         6.37637786E-05
   8.10120010         6.28946364E-05
   8.11320019         6.22217485E-05
   8.12520027         6.17591359E-05
   8.13720036         6.15186509E-05
   8.14920044         6.15096724E-05
   8.16119957         6.17386686E-05
   8.17319965         6.22086227E-05
   8.18519974         6.29184724E-05
   8.19719982         6.38624479E-05
   8.20919991         6.50296206E-05
   8.22119999         6.64034233E-05
   8.23320007         6.79615041E-05
   8.24520016         6.96757561E-05
   8.25720024         7.15127098E-05
   8.26920033         7.34341229E-05
   8.28120041         7.53979912E-05
   8.29319954         7.73597785E-05
   8.30519962         7.92738938E-05
   8.31719971         8.10952624E-05
   8.32919979         8.27810291E-05
   8.34119987         8.42922091E-05
   8.35319996         8.55951657E-05
   8.36520004         8.66629489E-05
   8.37720013         8.74763064E-05
   8.38920021         8.80242806E-05
   8.40120029         8.83045359E-05
   8.41320038         8.83231914E-05
   8.42520046         8.80943116E-05
   8.43719959         8.76390768E-05
   8.44919968         8.69846772E-05
   8.46119976         8.61629669E-05
   8.47319984         8.52090670E-05
   8.48519993         8.41599322E-05
   8.49720001         8.30529025E-05
   8.50920010         8.19244524E-05
   8.52120018         8.08090554E-05
   8.53320026         7.97382381E-05
   8.54520035         7.87398676E-05
   8.55720043         7.78376343E-05
   8.56919956         7.70507468E-05
   8.58119965         7.63937496E-05
   8.59319973         7.58765382E-05
   8.60519981         7.55044821E-05
   8.61719990         7.52786582E-05
   8.62919998         7.51960761E-05
   8.64120007         7.52500491E-05
   8.65320015         7.54305656E-05
   8.66520023         7.57246744E-05
   8.67720032         7.61169576E-05
   8.68920040         7.65899968E-05
   8.70119953         7.71249543E-05
   8.71319962         7.77021123E-05
   8.72519970         7.83015348E-05
   8.73719978         7.89037294E-05
   8.74919987         7.94902589E-05
   8.76119995         8.00444104E-05
   8.77320004         8.05517629E-05
   8.78520012         8.10005658E-05
   8.79720020         8.13821171E-05
   8.80920029         8.16908141E-05
   8.82120037         8.19241177E-05
   8.83320045         8.20822243E-05
   8.84519958         8.21675712E-05
   8.85719967         8.21842114E-05
   8.86919975         8.21369904E-05
   8.88119984         8.20307177E-05
   8.89319992         8.18692642E-05
   8.90520000         8.16548200E-05
   8.91720009         8.13872321E-05
   8.92920017         8.10635756E-05
   8.94120026         8.06780372E-05
   8.95320034         8.02220966E-05
   8.96520042         7.96849854E-05
   8.97719955         7.90545528E-05
   8.98919964         7.83183204E-05
   9.00119972         7.74647488E-05
   9.01319981         7.64846263E-05
   9.02519989         7.53724744E-05
   9.03719997         7.41277399E-05
   9.04920006         7.27559236E-05
   9.06120014         7.12692490E-05
   9.07320023         6.96870484E-05
   9.08520031         6.80356679E-05