 -0.622799993         9.99999921E-25
 -0.610800028         9.99999921E-25
 -0.598800004         9.99999921E-25
 -0.586799979         9.99999921E-25
 -0.574800014         9.99999921E-25
 -0.562799990         9.85338448E-25
 -0.550800025         1.00618045E-24
 -0.538800001         1.92560355E-24
 -0.526799977         8.10792816E-24
 -0.514800012         3.36927668E-23
 -0.502799988         1.13612303E-22
 -0.490799993         3.19263898E-22
 -0.478799999         7.77250337E-22
 -0.466800004         1.68723630E-21
 -0.454800010         3.32885872E-21
 -0.442799985         6.03495465E-21
 -0.430799991         1.00939445E-20
 -0.418799996         1.55488322E-20
 -0.406800002         2.19186286E-20
 -0.394800007         2.80037957E-20
 -0.382800013         3.21168027E-20
 -0.370799989         3.31701364E-20
 -0.358799994         3.28422692E-20
 -0.346799999         3.83488945E-20
 -0.334800005         6.42431891E-20
 -0.322800010         1.30678639E-19
 -0.310799986         2.55666664E-19
 -0.298799992         4.41084291E-19
 -0.286799997         6.56830624E-19
 -0.274800003         8.33246380E-19
 -0.262800008         8.75318492E-19
 -0.250800014         7.08732226E-19
 -0.238800004         3.54160197E-19
 -0.226799995         3.53739467E-21
 -0.214800000         4.89097421E-20
 -0.202800006         1.00598945E-18
 -0.190799996         3.29745356E-18
 -0.178800002         6.92342356E-18
 -0.166800007         1.11370655E-17
 -0.154799998         1.43251304E-17
 -0.142800003         1.43108781E-17
 -0.130799994         9.19746176E-18
 -0.118799999        -1.36291892E-18
 -0.106799997        -1.49042577E-17
  -9.48000029E-02    -2.55862332E-17
  -8.28000009E-02    -2.50849370E-17
  -7.07999989E-02    -5.35196692E-18
  -5.88000007E-02     3.70824407E-17
  -4.67999987E-02     9.65736608E-17
  -3.48000005E-02     1.55755939E-16
  -2.28000004E-02     1.87232901E-16
  -1.08000003E-02     1.61063408E-16
   1.20000006E-03     5.74927120E-17
   1.31999999E-02    -1.18417456E-16
   2.52000000E-02    -3.26152789E-16
   3.72000001E-02    -4.89967849E-16
   4.91999984E-02    -5.15056648E-16
   6.12000003E-02    -3.19862908E-16
   7.32000023E-02     1.22412579E-16
   8.51999968E-02     7.47136158E-16
   9.71999988E-02     1.38428773E-15
  0.109200001         1.78277396E-15
  0.121200003         1.67859812E-15
  0.133200005         8.96285266E-16
  0.145199999        -5.44928006E-16
  0.157199994        -2.36131800E-15
  0.169200003        -4.01291388E-15
  0.181199998        -4.81504730E-15
  0.193200007        -4.14645243E-15
  0.205200002        -1.70694101E-15
  0.217199996         2.25733010E-15
  0.229200006         6.85745931E-15
  0.241200000         1.06726253E-14
  0.253199995         1.20929259E-14
  0.265199989         9.83986401E-15
  0.277200013         3.52779905E-15
  0.289200008        -5.92580015E-15
  0.301200002        -1.62340285E-14
  0.313199997        -2.41410658E-14
  0.325199991        -2.62788025E-14
  0.337199986        -2.03026377E-14
  0.349200010        -5.98240736E-15
  0.361200005         1.41462642E-14
  0.373199999         3.49139188E-14
  0.385199994         4.95910347E-14
  0.397199988         5.17742079E-14
  0.409200013         3.76401520E-14
  0.421200007         7.88419284E-15
  0.433200002        -3.14005447E-14
  0.445199996        -6.94648671E-14
  0.457199991        -9.34071410E-14
  0.469199985        -9.20094486E-14
  0.481200010        -5.99174370E-14
  0.493200004        -8.22565077E-16
  0.505200028         7.16704528E-14
  0.517199993         1.36326727E-13
  0.529200017         1.69671094E-13
  0.541199982         1.53374031E-13
  0.553200006         8.15894661E-14
  0.565199971        -3.42449762E-14
  0.577199996        -1.65334231E-13
  0.589200020        -2.71252476E-13
  0.601199985        -3.10821193E-13
  0.613200009        -2.55612941E-13
  0.625199974        -1.02132956E-13
  0.637199998         1.21652674E-13
  0.649200022         3.58777271E-13
  0.661199987         5.35734055E-13
  0.673200011         5.82826756E-13
  0.685199976         4.57279939E-13
  0.697200000         1.62102089E-13
  0.709200025        -2.46193175E-13
  0.721199989        -6.65482806E-13
  0.733200014        -9.71701669E-13
  0.745199978        -1.05334372E-12
  0.757200003        -8.47576729E-13
  0.769200027        -3.66814570E-13
  0.781199992         2.93970496E-13
  0.793200016         9.74126162E-13
  0.805199981         1.48627801E-12
  0.817200005         1.66801761E-12
  0.829200029         1.43188109E-12
  0.841199994         7.98173105E-13
  0.853200018        -1.00956793E-13
  0.865199983        -1.04984597E-12
  0.877200007        -1.80393818E-12
  0.889199972        -2.15598372E-12
  0.901199996        -1.99467027E-12
  0.913200021        -1.33796067E-12
  0.925199986        -3.30622926E-13
  0.937200010         7.93658271E-13
  0.949199975         1.77412262E-12
  0.961199999         2.38971798E-12
  0.973200023         2.51053258E-12
  0.985199988         2.11920260E-12
  0.997200012         1.29832603E-12
   1.00919998         1.91992201E-13
   1.02119994        -1.04139321E-12
   1.03320003        -2.26522121E-12
   1.04519999        -3.37514456E-12
   1.05719995        -4.28055247E-12
   1.06920004        -4.86708460E-12
   1.08120000        -4.96056148E-12
   1.09319997        -4.31575999E-12
   1.10520005        -2.64733287E-12
   1.11720002         2.93525024E-13
   1.12919998         4.60996952E-12
   1.14119995         1.01453212E-11
   1.15320003         1.63970400E-11
   1.16520000         2.24871354E-11
   1.17719996         2.72031148E-11
   1.18920004         2.91046597E-11
   1.20120001         2.66751916E-11
   1.21319997         1.84914566E-11
   1.22520006         3.39034400E-12
   1.23720002        -1.93674382E-11
   1.24919999        -4.99121959E-11
   1.26119995        -8.75097564E-11
   1.27320004        -1.30172664E-10
   1.28520000        -1.74079487E-10
   1.29719996        -2.12763696E-10
   1.30920005        -2.36064890E-10
   1.32120001        -2.28863345E-10
   1.33319998        -1.69632572E-10
   1.34519994        -2.88281170E-11
   1.35720003         2.32944858E-10
   1.36919999         6.67151501E-10
   1.38119996         1.34026434E-09
   1.39320004         2.33798114E-09
   1.40520000         3.77153508E-09
   1.41719997         5.78717341E-09
   1.42920005         8.58030358E-09
   1.44120002         1.24160033E-08
   1.45319998         1.76581150E-08
   1.46519995         2.48094221E-08
   1.47720003         3.45657725E-08
   1.48920000         4.78873083E-08
   1.50119996         6.60899460E-08
   1.51320004         9.09606328E-08
   1.52520001         1.24898875E-07
   1.53719997         1.71086924E-07
   1.54920006         2.33689022E-07
   1.56120002         3.18079827E-07
   1.57319999         4.31097817E-07
   1.58519995         5.81318375E-07
   1.59720004         7.79338052E-07
   1.60920000         1.03805564E-06
   1.62119997         1.37293671E-06
   1.63320005         1.80223742E-06
   1.64520001         2.34717186E-06
   1.65719998         3.03199067E-06
   1.66919994         3.88394938E-06
   1.68120003         4.93313564E-06
   1.69319999         6.21213485E-06
   1.70519996         7.75551507E-06
   1.71720004         9.59910176E-06
   1.72920001         1.17790532E-05
   1.74119997         1.43307298E-05
   1.75320005         1.72873588E-05
   1.76520002         2.06785535E-05
   1.77719998         2.45286901E-05
   1.78919995         2.88552255E-05
   1.80120003         3.36670091E-05
   1.81320000         3.89626839E-05
   1.82519996         4.47292296E-05
   1.83720005         5.09408019E-05
   1.84920001         5.75578742E-05
   1.86119998         6.45268374E-05
   1.87320006         7.17800795E-05
   1.88520002         7.92366409E-05
   1.89719999         8.68034331E-05
   1.90919995         9.43770356E-05
   1.92120004         1.01846068E-04
   1.93320000         1.09094064E-04
   1.94519997         1.16002746E-04
   1.95720005         1.22455589E-04
   1.96920002         1.28341548E-04
   1.98119998         1.33558817E-04
   1.99319994         1.38018368E-04
   2.00519991         1.41647164E-04
   2.01719999         1.44390884E-04
   2.02920008         1.46216000E-04
   2.04119992         1.47111161E-04
   2.05320001         1.47087572E-04
   2.06520009         1.46178718E-04
   2.07719994         1.44439022E-04
   2.08920002         1.41941797E-04
   2.10120010         1.38776464E-04
   2.11319995         1.35045164E-04
   2.12520003         1.30858913E-04
   2.13720012         1.26333602E-04
   2.14919996         1.21585901E-04
   2.16120005         1.16729381E-04
   2.17319989         1.11870941E-04
   2.18519998         1.07107735E-04
   2.19720006         1.02524798E-04
   2.20919991         9.81933263E-05
   2.22119999         9.41697290E-05
   2.23320007         9.04954359E-05
   2.24519992         8.71974407E-05
   2.25720000         8.42893787E-05
   2.26920009         8.17731561E-05
   2.28119993         7.96409367E-05
   2.29320002         7.78772592E-05
   2.30520010         7.64612123E-05
   2.31719995         7.53685381E-05
   2.32920003         7.45734651E-05
   2.34120011         7.40502874E-05
   2.35319996         7.37744631E-05
   2.36520004         7.37234368E-05
   2.37719989         7.38769886E-05
   2.38919997         7.42172342E-05
   2.40120006         7.47284212E-05
   2.41319990         7.53964123E-05
   2.42519999         7.62081763E-05
   2.43720007         7.71510968E-05
   2.44919991         7.82124916E-05
   2.46120000         7.93791187E-05
   2.47320008         8.06368698E-05
   2.48519993         8.19706765E-05
   2.49720001         8.33645463E-05
   2.50920010         8.48017298E-05
   2.52119994         8.62650922E-05
   2.53320003         8.77374914E-05
   2.54520011         8.92022363E-05
   2.55719995         9.06435089E-05
   2.56920004         9.20467573E-05
   2.58119988         9.33990304E-05
   2.59319997         9.46892324E-05
   2.60520005         9.59083263E-05
   2.61719990         9.70494148E-05
   2.62919998         9.81078920E-05
   2.64120007         9.90815242E-05
   2.65319991         9.99705589E-05
   2.66520000         1.00778008E-04
   2.67720008         1.01509759E-04
   2.68919992         1.02174978E-04
   2.70120001         1.02786427E-04
   2.71320009         1.03360850E-04
   2.72519994         1.03919243E-04
   2.73720002         1.04487139E-04
   2.74920011         1.05094674E-04
   2.76119995         1.05776504E-04
   2.77320004         1.06571424E-04
   2.78520012         1.07521759E-04
   2.79719996         1.08672379E-04
   2.80920005         1.10069530E-04
   2.82119989         1.11759262E-04
   2.83319998         1.13785703E-04
   2.84520006         1.16189163E-04
   2.85719991         1.19004180E-04
   2.86919999         1.22257537E-04
   2.88120008         1.25966530E-04
   2.89319992         1.30137414E-04
   2.90520000         1.34764225E-04
   2.91720009         1.39828073E-04
   2.92919993         1.45296828E-04
   2.94120002         1.51125612E-04
   2.95320010         1.57257527E-04
   2.96519995         1.63625242E-04
   2.97720003         1.70152969E-04
   2.98920012         1.76758913E-04
   3.00119996         1.83358177E-04
   3.01320004         1.89865910E-04
   3.02519989         1.96200679E-04
   3.03719997         2.02287760E-04
   3.04920006         2.08062542E-04
   3.06119990         2.13473424E-04
   3.07319999         2.18484609E-04
   3.08520007         2.23078241E-04
   3.09719992         2.27255980E-04
   3.10920000         2.31039929E-04
   3.12120008         2.34472842E-04
   3.13319993         2.37617496E-04
   3.14520001         2.40555179E-04
   3.15720010         2.43383576E-04
   3.16919994         2.46213749E-04
   3.18120003         2.49166565E-04
   3.19320011         2.52368423E-04
   3.20519996         2.55946681E-04
   3.21720004         2.60024681E-04
   3.22919989         2.64716713E-04
   3.24119997         2.70122982E-04
   3.25320005         2.76324979E-04
   3.26519990         2.83380854E-04
   3.27719998         2.91321950E-04
   3.28920007         3.00149492E-04
   3.30119991         3.09832540E-04
   3.31320000         3.20306601E-04
   3.32520008         3.31473653E-04
   3.33719993         3.43202759E-04
   3.34920001         3.55332391E-04
   3.36120009         3.67673143E-04
   3.37319994         3.80012149E-04
   3.38520002         3.92117799E-04
   3.39720011         4.03745595E-04
   3.40919995         4.14644368E-04
   3.42120004         4.24562924E-04
   3.43319988         4.33256995E-04
   3.44519997         4.40495904E-04
   3.45720005         4.46068996E-04
   3.46919990         4.49791871E-04
   3.48119998         4.51511471E-04
   3.49320006         4.51110682E-04
   3.50519991         4.48511593E-04
   3.51719999         4.43677796E-04
   3.52920008         4.36615519E-04
   3.54119992         4.27373277E-04
   3.55320001         4.16040566E-04
   3.56520009         4.02745063E-04
   3.57719994         3.87649226E-04
   3.58920002         3.70945665E-04
   3.60120010         3.52851901E-04
   3.61319995         3.33604781E-04
   3.62520003         3.13454540E-04
   3.63720012         2.92658777E-04
   3.64919996         2.71476514E-04
   3.66120005         2.50162819E-04
   3.67319989         2.28963720E-04
   3.68519998         2.08111655E-04
   3.69720006         1.87821803E-04
   3.70919991         1.68289116E-04
   3.72119999         1.49685846E-04
   3.73320007         1.32160058E-04
   3.74519992         1.15834759E-04
   3.75720000         1.00807367E-04
   3.76920009         8.71500306E-05
   3.78119993         7.49100509E-05
   3.79320002         6.41107908E-05
   3.80520010         5.47528034E-05
   3.81719995         4.68152029E-05
   3.82920003         4.02572405E-05
   3.84120011         3.50200571E-05
   3.85319996         3.10286814E-05
   3.86520004         2.81941884E-05
   3.87719989         2.64160990E-05
   3.88919997         2.55849754E-05
   3.90120006         2.55851955E-05
   3.91319990         2.62978356E-05
   3.92519999         2.76036644E-05
   3.93720007         2.93860685E-05
   3.94919991         3.15338984E-05
   3.96120000         3.39440448E-05
   3.97320008         3.65236556E-05
   3.98519993         3.91918766E-05
   3.99720001         4.18809905E-05
   4.00920010         4.45369296E-05
   4.02120018         4.71190579E-05
   4.03319979         4.95993154E-05
   4.04519987         5.19606983E-05
   4.05719995         5.41952468E-05
   4.06920004         5.63016838E-05
   4.08120012         5.82828070E-05
   4.09320021         6.01429492E-05
   4.10519981         6.18855702E-05
   4.11719990         6.35112738E-05
   4.12919998         6.50163347E-05
   4.14120007         6.63918981E-05
   4.15320015         6.76237978E-05
   4.16520023         6.86931962E-05
   4.17719984         6.95777489E-05
   4.18919992         7.02533798E-05
   4.20120001         7.06964711E-05
   4.21320009         7.08861553E-05
   4.22520018         7.08067164E-05
   4.23719978         7.04497579E-05
   4.24919987         6.98159420E-05
   4.26119995         6.89163062E-05
   4.27320004         6.77728676E-05
   4.28520012         6.64185936E-05
   4.29720020         6.48966088E-05
   4.30919981         6.32588417E-05
   4.32119989         6.15640820E-05
   4.33319998         5.98755978E-05
   4.34520006         5.82585635E-05
   4.35720015         5.67773204E-05
   4.36920023         5.54927792E-05
   4.38119984         5.44599679E-05
   4.39319992         5.37260385E-05
   4.40520000         5.33285893E-05
   4.41720009         5.32945742E-05
   4.42920017         5.36396219E-05
   4.44119978         5.43678943E-05
   4.45319986         5.54723192E-05
   4.46519995         5.69352014E-05
   4.47720003         5.87290997E-05
   4.48920012         6.08178962E-05
   4.50120020         6.31580115E-05
   4.51319981         6.56997217E-05
   4.52519989         6.83884573E-05
   4.53719997         7.11662069E-05
   4.54920006         7.39728639E-05
   4.56120014         7.67476595E-05
   4.57320023         7.94305743E-05
   4.58519983         8.19638153E-05
   4.59719992         8.42932714E-05
   4.60920000         8.63701134E-05
   4.62120008         8.81522064E-05
   4.63320017         8.96056154E-05
   4.64519978         9.07059293E-05
   4.65719986         9.14393386E-05
   4.66919994         9.18034784E-05
   4.68120003         9.18078586E-05
   4.69320011         9.14738557E-05
   4.70520020         9.08341754E-05
   4.71719980         8.99318329E-05
   4.72919989         8.88185896E-05
   4.74119997         8.75529659E-05
   4.75320005         8.61978551E-05
   4.76520014         8.48178461E-05
   4.77720022         8.34765669E-05
   4.78919983         8.22338916E-05
   4.80119991         8.11434438E-05
   4.81320000         8.02504219E-05
   4.82520008         7.95898668E-05
   4.83720016         7.91854618E-05
   4.84919977         7.90490230E-05
   4.86119986         7.91805433E-05
   4.87319994         7.95688902E-05
   4.88520002         8.01930510E-05
   4.89720011         8.10237980E-05
   4.90920019         8.20257410E-05
   4.92119980         8.31594662E-05
   4.93319988         8.43837333E-05
   4.94519997         8.56576153E-05
   4.95720005         8.69422802E-05
   4.96920013         8.82025270E-05
   4.98120022         8.94078912E-05
   4.99319983         9.05332199E-05
   5.00519991         9.15589117E-05
   5.01719999         9.24706692E-05
   5.02920008         9.32588882E-05
   5.04120016         9.39178790E-05
   5.05319977         9.44448257E-05
   5.06519985         9.48387460E-05
   5.07719994         9.50995309E-05
   5.08920002         9.52271293E-05
   5.10120010         9.52209884E-05
   5.11320019         9.50797985E-05
   5.12519979         9.48015513E-05
   5.13719988         9.43839113E-05
   5.14919996         9.38248559E-05
   5.16120005         9.31235700E-05
   5.17320013         9.22814070E-05
   5.18520021         9.13029362E-05
   5.19719982         9.01968742E-05
   5.20919991         8.89769071E-05
   5.22119999         8.76622653E-05
   5.23320007         8.62779561E-05
   5.24520016         8.48546333E-05
   5.25719976         8.34281454E-05
   5.26919985         8.20386340E-05
   5.28119993         8.07293472E-05
   5.29320002         7.95451124E-05
   5.30520010         7.85306547E-05
   5.31720018         7.77287642E-05
   5.32919979         7.71784034E-05
   5.34119987         7.69130056E-05
   5.35319996         7.69588514E-05
   5.36520004         7.73337306E-05
   5.37720013         7.80460032E-05
   5.38920021         7.90939448E-05
   5.40119982         8.04655865E-05
   5.41319990         8.21389403E-05
   5.42519999         8.40826324E-05
   5.43720007         8.62569213E-05
   5.44920015         8.86150083E-05
   5.46120024         9.11046227E-05
   5.47319984         9.36697616E-05
   5.48519993         9.62525082E-05
   5.49720001         9.87948879E-05
   5.50920010         1.01240541E-04
   5.52120018         1.03536382E-04
   5.53319979         1.05633982E-04
   5.54519987         1.07490632E-04
   5.55719995         1.09070294E-04
   5.56920004         1.10344125E-04
   5.58120012         1.11290807E-04
   5.59320021         1.11896588E-04
   5.60519981         1.12155132E-04
   5.61719990         1.12067137E-04
   5.62919998         1.11639871E-04
   5.64120007         1.10886547E-04
   5.65320015         1.09825698E-04
   5.66520023         1.08480439E-04
   5.67719984         1.06877851E-04
   5.68919992         1.05048195E-04
   5.70120001         1.03024329E-04
   5.71320009         1.00840996E-04
   5.72520018         9.85341903E-05
   5.73719978         9.61404730E-05
   5.74919987         9.36962751E-05
   5.76119995         9.12372125E-05
   5.77320004         8.87972928E-05
   5.78520012         8.64082322E-05
   5.79720020         8.40986613E-05
   5.80919981         8.18934714E-05
   5.82119989         7.98131805E-05
   5.83319998         7.78734538E-05
   5.84520006         7.60848197E-05
   5.85720015         7.44525751E-05
   5.86920023         7.29769672E-05
   5.88119984         7.16536524E-05
   5.89319992         7.04744089E-05
   5.90520000         6.94281625E-05
   5.91720009         6.85021369E-05
   5.92920017         6.76832205E-05
   5.94119978         6.69593792E-05
   5.95319986         6.63210012E-05
   5.96519995         6.57621495E-05
   5.97720003         6.52815288E-05
   5.98920012         6.48831847E-05
   6.00120020         6.45767504E-05
   6.01319981         6.43772801E-05
   6.02519989         6.43045933E-05
   6.03719997         6.43822132E-05
   6.04920006         6.46358239E-05
   6.06120014         6.50915172E-05
   6.07320023         6.57737328E-05
   6.08519983         6.67032145E-05
   6.09719992         6.78949073E-05
   6.10920000         6.93561378E-05
   6.12120008         7.10851455E-05
   6.13320017         7.30699539E-05
   6.14519978         7.52879132E-05
   6.15719986         7.77056994E-05
   6.16919994         8.02800205E-05
   6.18120003         8.29588171E-05
   6.19320011         8.56830520E-05
   6.20520020         8.83889152E-05
   6.21719980         9.10103408E-05
   6.22919989         9.34816781E-05
   6.24119997         9.57404118E-05
   6.25320005         9.77298187E-05
   6.26520014         9.94012516E-05
   6.27720022         1.00716177E-04
   6.28919983         1.01647624E-04
   6.30119991         1.02181184E-04
   6.31320000         1.02315425E-04
   6.32520008         1.02061713E-04
   6.33720016         1.01443533E-04
   6.34919977         1.00495330E-04
   6.36119986         9.92609857E-05
   6.37319994         9.77920063E-05
   6.38520002         9.61454934E-05
   6.39720011         9.43820851E-05
   6.40920019         9.25638960E-05
   6.42119980         9.07525464E-05
   6.43319988         8.90074007E-05
   6.44519997         8.73839672E-05
   6.45720005         8.59326392E-05
   6.46920013         8.46975672E-05
   6.48120022         8.37159314E-05
   6.49319983         8.30173012E-05
   6.50519991         8.26233590E-05
   6.51719999         8.25476818E-05
   6.52920008         8.27957119E-05
   6.54120016         8.33649174E-05
   6.55319977         8.42449590E-05
   6.56519985         8.54179889E-05
   6.57719994         8.68590359E-05
   6.58920002         8.85364716E-05
   6.60120010         9.04126136E-05
   6.61320019         9.24443739E-05
   6.62519979         9.45840802E-05
   6.63719988         9.67804881E-05
   6.64919996         9.89798282E-05
   6.66120005         1.01127094E-04
   6.67320013         1.03167367E-04
   6.68520021         1.05047271E-04
   6.69719982         1.06716412E-04
   6.70919991         1.08128865E-04
   6.72119999         1.09244538E-04
   6.73320007         1.10030436E-04
   6.74520016         1.10461711E-04
   6.75719976         1.10522524E-04
   6.76919985         1.10206616E-04
   6.78119993         1.09517510E-04
   6.79320002         1.08468499E-04
   6.80520010         1.07082233E-04
   6.81720018         1.05390020E-04
   6.82919979         1.03430844E-04
   6.84119987         1.01250262E-04
   6.85319996         9.88990287E-05
   6.86520004         9.64317223E-05
   6.87720013         9.39053425E-05
   6.88920021         9.13778786E-05
   6.90119982         8.89069997E-05
   6.91319990         8.65488619E-05
   6.92519999         8.43569360E-05
   6.93720007         8.23810260E-05
   6.94920015         8.06663884E-05
   6.96120024         7.92529027E-05
   6.97319984         7.81743802E-05
   6.98519993         7.74579312E-05
   6.99720001         7.71234336E-05
   7.00920010         7.71830673E-05
   7.02120018         7.76409215E-05
   7.03319979         7.84927397E-05
   7.04519987         7.97257962E-05
   7.05719995         8.13188817E-05
   7.06920004         8.32425503E-05
   7.08120012         8.54595637E-05
   7.09320021         8.79255458E-05
   7.10519981         9.05900088E-05
   7.11719990         9.33974952E-05
   7.12919998         9.62890699E-05
   7.14120007         9.92039131E-05
   7.15320015         1.02081045E-04
   7.16520023         1.04861050E-04
   7.17719984         1.07487787E-04
   7.18919992         1.09909844E-04
   7.20120001         1.12081863E-04
   7.21320009         1.13965420E-04
   7.22520018         1.15529663E-04
   7.23719978         1.16751507E-04
   7.24919987         1.17615447E-04
   7.26119995         1.18113072E-04
   7.27320004         1.18242300E-04
   7.28520012         1.18006385E-04
   7.29720020         1.17412907E-04
   7.30919981         1.16472795E-04
   7.32119989         1.15199480E-04
   7.33319998         1.13608345E-04
   7.34520006         1.11716421E-04
   7.35720015         1.09542547E-04
   7.36920023         1.07107728E-04
   7.38119984         1.04435952E-04
   7.39319992         1.01555066E-04
   7.40520000         9.84978251E-05
   7.41720009         9.53028430E-05
   7.42920017         9.20153980E-05
   7.44119978         8.86878333E-05
   7.45319986         8.53795718E-05
   7.46519995         8.21565191E-05
   7.47720003         7.90899430E-05
   7.48920012         7.62546624E-05
   7.50120020         7.37267110E-05
   7.51319981         7.15805800E-05
   7.52519989         6.98860531E-05
   7.53719997         6.87049687E-05
   7.54920006         6.80880476E-05
   7.56120014         6.80719240E-05
   7.57320023         6.86767744E-05
   7.58519983         6.99045195E-05
   7.59719992         7.17378862E-05
   7.60920000         7.41402837E-05
   7.62120008         7.70566476E-05
   7.63320017         8.04151641E-05
   7.64519978         8.41297224E-05
   7.65719986         8.81030501E-05
   7.66919994         9.22303007E-05
   7.68120003         9.64028732E-05
   7.69320011         1.00512312E-04
   7.70520020         1.04453953E-04
   7.71719980         1.08130269E-04
   7.72919989         1.11453643E-04
   7.74119997         1.14348550E-04
   7.75320005         1.16752992E-04
   7.76520014         1.18619289E-04
   7.77720022         1.19914206E-04
   7.78919983         1.20618519E-04
   7.80119991         1.20726159E-04
   7.81320000         1.20243087E-04
   7.82520008         1.19186014E-04
   7.83720016         1.17581141E-04
   7.84919977         1.15462986E-04
   7.86119986         1.12873407E-04
   7.87319994         1.09860935E-04
   7.88520002         1.06480213E-04
   7.89720011         1.02791717E-04
   7.90920019         9.88615429E-05
   7.92119980         9.47612352E-05
   7.93319988         9.05673660E-05
   7.94519997         8.63610767E-05
   7.95720005         8.22271322E-05
   7.96920013         7.82526622E-05
   7.98120022         7.45254365E-05
   7.99319983         7.11317771E-05
   8.00520039         6.81540405E-05
   8.01720047         6.56680131E-05
   8.02919960         6.37400371E-05
   8.04119968         6.24243767E-05
   8.05319977         6.17607584E-05
   8.06519985         6.17723854E-05
   8.07719994         6.24644890E-05
   8.08920002         6.38236961E-05
   8.10120010         6.58181016E-05
   8.11320019         6.83982144E-05
   8.12520027         7.14985945E-05
   8.13720036         7.50403051E-05
   8.14920044         7.89338301E-05
   8.16119957         8.30823847E-05
   8.17319965         8.73854733E-05
   8.18519974         9.17423968E-05
   8.19719982         9.60555699E-05
   8.20919991         1.00233519E-04
   8.22119999         1.04193292E-04
   8.23320007         1.07862441E-04
   8.24520016         1.11180212E-04
   8.25720024         1.14098235E-04
   8.26920033         1.16580639E-04
   8.28120041         1.18603639E-04
   8.29319954         1.20154800E-04
   8.30519962         1.21232013E-04
   8.31719971         1.21842480E-04
   8.32919979         1.22001504E-04
   8.34119987         1.21731515E-04
   8.35319996         1.21061174E-04
   8.36520004         1.20024662E-04
   8.37720013         1.18661104E-04
   8.38920021         1.17014097E-04
   8.40120029         1.15131370E-04
   8.41320038         1.13064343E-04
   8.42520046         1.10867644E-04
   8.43719959         1.08598455E-04
   8.44919968         1.06315572E-04
   8.46119976         1.04078325E-04
   8.47319984         1.01945159E-04
   8.48519993         9.99719341E-05
   8.49720001         9.82101337E-05
   8.50920010         9.67049127E-05
   8.52120018         9.54931675E-05
   8.53320026         9.46017535E-05
   8.54520035         9.40459795E-05
   8.55720043         9.38284793E-05
   8.56919956         9.39387173E-05
   8.58119965         9.43529158E-05
   8.59319973         9.50348112E-05
   8.60519981         9.59370154E-05
   8.61719990         9.70029141E-05
   8.62919998         9.81692283E-05
   8.64120007         9.93688445E-05
   8.65320015         1.00534045E-04
   8.66520023         1.01599697E-04
   8.67720032         1.02506354E-04
   8.68920040         1.03203092E-04
   8.70119953         1.03649872E-04
   8.71319962         1.03819286E-04
   8.72519970         1.03697588E-04
   8.73719978         1.03284990E-04
   8.74919987         1.02595186E-04
   8.76119995         1.01654092E-04
   8.77320004         1.00498066E-04
   8.78520012         9.91715642E-05
   8.79720020         9.77245145E-05
   8.80920029         9.62095437E-05
   8.82120037         9.46792497E-05
   8.83320045         9.31836767E-05
   8.84519958         9.17681537E-05
   8.85719967         9.04715926E-05
   8.86919975         8.93253018E-05
   8.88119984         8.83523753E-05
   8.89319992         8.75675687E-05
   8.90520000         8.69777068E-05
   8.91720009         8.65823749E-05
   8.92920017         8.63750247E-05
   8.94120026         8.63440800E-05
   8.95320034         8.64742324E-05
   8.96520042         8.67475610E-05
   8.97719955         8.71445154E-05
   8.98919964         8.76447593E-05
   9.00119972         8.82277091E-05
   9.01319981         8.88729192E-05
   9.02519989         8.95602279E-05
   9.03719997         9.02698521E-05
   9.04920006         9.09823939E-05
   9.06120014         9.16788558E-05
   9.07320023         9.23408079E-05
   9.08520031         9.29506423E-05