 -0.622799993         1.00000002E-24
 -0.610800028         1.00000002E-24
 -0.598800004         1.00000002E-24
 -0.586799979         1.00000002E-24
 -0.574800014         1.00000002E-24
 -0.562799990         8.47864841E-25
 -0.550800025         1.98290759E-24
 -0.538800001         2.03815578E-23
 -0.526799977         1.29217827E-22
 -0.514800012         5.51405291E-22
 -0.502799988         1.80962702E-21
 -0.490799993         4.92010502E-21
 -0.478799999         1.15973985E-20
 -0.466800004         2.44169952E-20
 -0.454800010         4.68341682E-20
 -0.442799985         8.28720719E-20
 -0.430799991         1.36248835E-19
 -0.418799996         2.08905769E-19
 -0.406800002         2.99508555E-19
 -0.394800007         4.03417070E-19
 -0.382800013         5.16229048E-19
 -0.370799989         6.42273796E-19
 -0.358799994         8.06636134E-19
 -0.346799999         1.06504260E-18
 -0.334800005         1.50280540E-18
 -0.322800010         2.21577801E-18
 -0.310799986         3.27540320E-18
 -0.298799992         4.69443154E-18
 -0.286799997         6.42154744E-18
 -0.274800003         8.39020214E-18
 -0.262800008         1.06212944E-17
 -0.250800014         1.33358902E-17
 -0.238800004         1.69955490E-17
 -0.226799995         2.21882150E-17
 -0.214800000         2.93430709E-17
 -0.202800006         3.83810282E-17
 -0.190799996         4.85319836E-17
 -0.178800002         5.85820758E-17
 -0.166800007         6.76690386E-17
 -0.154799998         7.64137737E-17
 -0.142800003         8.77814720E-17
 -0.130799994         1.06846629E-16
 -0.118799999         1.38854495E-16
 -0.106799997         1.85745524E-16
  -9.48000029E-02     2.42452461E-16
  -8.28000009E-02     2.95255013E-16
  -7.07999989E-02     3.24557826E-16
  -5.88000007E-02     3.13087835E-16
  -4.67999987E-02     2.57745455E-16
  -3.48000005E-02     1.80136287E-16
  -2.28000004E-02     1.28860962E-16
  -1.08000003E-02     1.67752916E-16
   1.20000006E-03     3.49305508E-16
   1.31999999E-02     6.80525328E-16
   2.52000000E-02     1.09621246E-15
   3.72000001E-02     1.45771035E-15
   4.91999984E-02     1.58961254E-15
   6.12000003E-02     1.35198539E-15
   7.32000023E-02     7.25457250E-16
   8.51999968E-02    -1.30220357E-16
   9.71999988E-02    -8.86205733E-16
  0.109200001        -1.14646767E-15
  0.121200003        -6.25650510E-16
  0.133200005         6.60100452E-16
  0.145199999         2.28558013E-15
  0.157199994         3.48450148E-15
  0.169200003         3.43091902E-15
  0.181199998         1.67501506E-15
  0.193200007        -1.43254278E-15
  0.205200002        -4.55885118E-15
  0.217199996        -5.65465474E-15
  0.229200006        -2.73134583E-15
  0.241200000         5.02012203E-15
  0.253199995         1.61827796E-14
  0.265199989         2.66968793E-14
  0.277200013         3.05615078E-14
  0.289200008         2.18138716E-14
  0.301200002        -2.59003977E-15
  0.313199997        -3.99417234E-14
  0.325199991        -8.03023080E-14
  0.337199986        -1.07600255E-13
  0.349200010        -1.03863851E-13
  0.361200005        -5.60043243E-14
  0.373199999         3.67333964E-14
  0.385199994         1.57490340E-13
  0.397199988         2.71621077E-13
  0.409200013         3.33497092E-13
  0.421200007         2.99987140E-13
  0.433200002         1.47594298E-13
  0.445199996        -1.12131814E-13
  0.457199991        -4.25257973E-13
  0.469199985        -7.01372337E-13
  0.481200010        -8.34433705E-13
  0.493200004        -7.35235061E-13
  0.505200028        -3.67042659E-13
  0.517199993         2.27351300E-13
  0.529200017         9.18804095E-13
  0.541199982         1.51257284E-12
  0.553200006         1.79610873E-12
  0.565199971         1.60395200E-12
  0.577199996         8.81804720E-13
  0.589200020        -2.71589446E-13
  0.601199985        -1.60302229E-12
  0.613200009        -2.75226369E-12
  0.625199974        -3.34234680E-12
  0.637199998        -3.09170940E-12
  0.649200022        -1.91662419E-12
  0.661199987         9.68629355E-15
  0.673200011         2.26637524E-12
  0.685199976         4.27015151E-12
  0.697200000         5.42122857E-12
  0.709200025         5.27424979E-12
  0.721199989         3.68630864E-12
  0.733200014         8.95477486E-13
  0.745199978        -2.50098033E-12
  0.757200003        -5.67279990E-12
  0.769200027        -7.76085186E-12
  0.781199992        -8.10756930E-12
  0.793200016        -6.45022360E-12
  0.805199981        -3.01988577E-12
  0.817200005         1.48743084E-12
  0.829200029         6.06601141E-12
  0.841199994         9.64429751E-12
  0.853200018         1.13527330E-11
  0.865199983         1.07421572E-11
  0.877200007         7.89180093E-12
  0.889199972         3.37689252E-12
  0.901199996        -1.89367185E-12
  0.913200021        -6.92090265E-12
  0.925199986        -1.08677546E-11
  0.937200010        -1.32442720E-11
  0.949199975        -1.39708392E-11
  0.961199999        -1.33019177E-11
  0.973200023        -1.16360125E-11
  0.985199988        -9.27378573E-12
  0.997200012        -6.20382348E-12
   1.00919998        -1.98935464E-12
   1.02119994         4.19903608E-12
   1.03320003         1.34014466E-11
   1.04519999         2.65758301E-11
   1.05719995         4.42608866E-11
   1.06920004         6.62658192E-11
   1.08120000         9.14377185E-11
   1.09319997         1.17513693E-10
   1.10520005         1.41014339E-10
   1.11720002         1.57085095E-10
   1.12919998         1.59159450E-10
   1.14119995         1.38304132E-10
   1.15320003         8.21104504E-11
   1.16520000        -2.70004765E-11
   1.17719996        -2.14191401E-10
   1.18920004        -5.15519905E-10
   1.20120001        -9.82402382E-10
   1.21319997        -1.68764847E-09
   1.22520006        -2.73367151E-09
   1.23720002        -4.26374136E-09
   1.24919999        -6.47747855E-09
   1.26119995        -9.65208358E-09
   1.27320004        -1.41712038E-08
   1.28520000        -2.05637463E-08
   1.29719996        -2.95552560E-08
   1.30920005        -4.21348645E-08
   1.32120001        -5.96410601E-08
   1.33319998        -8.38694945E-08
   1.34519994        -1.17205900E-07
   1.35720003        -1.62786662E-07
   1.36919999        -2.24688435E-07
   1.38119996        -3.08146667E-07
   1.39320004        -4.19800642E-07
   1.40520000        -5.67960910E-07
   1.41719997        -7.62889840E-07
   1.42920005        -1.01708508E-06
   1.44120002        -1.34554966E-06
   1.45319998        -1.76603237E-06
   1.46519995        -2.29921170E-06
   1.47720003        -2.96880739E-06
   1.48920000        -3.80158122E-06
   1.50119996        -4.82721043E-06
   1.51320004        -6.07800621E-06
   1.52520001        -7.58844362E-06
   1.53719997        -9.39450729E-06
   1.54920006        -1.15328103E-05
   1.56120002        -1.40395314E-05
   1.57319999        -1.69491232E-05
   1.58519995        -2.02928768E-05
   1.59720004        -2.40973386E-05
   1.60920000        -2.83826430E-05
   1.62119997        -3.31608389E-05
   1.63320005        -3.84342784E-05
   1.64520001        -4.41941338E-05
   1.65719998        -5.04191885E-05
   1.66919994        -5.70749035E-05
   1.68120003        -6.41128936E-05
   1.69319999        -7.14709531E-05
   1.70519996        -7.90734630E-05
   1.71720004        -8.68325005E-05
   1.72920001        -9.46494692E-05
   1.74119997        -1.02417231E-04
   1.75320005        -1.10022796E-04
   1.76520002        -1.17350421E-04
   1.77719998        -1.24285012E-04
   1.78919995        -1.30715722E-04
   1.80120003        -1.36539515E-04
   1.81320000        -1.41664757E-04
   1.82519996        -1.46014427E-04
   1.83720005        -1.49528787E-04
   1.84920001        -1.52167762E-04
   1.86119998        -1.53912304E-04
   1.87320006        -1.54765235E-04
   1.88520002        -1.54751164E-04
   1.89719999        -1.53915476E-04
   1.90919995        -1.52322682E-04
   1.92120004        -1.50054009E-04
   1.93320000        -1.47204279E-04
   1.94519997        -1.43878380E-04
   1.95720005        -1.40187520E-04
   1.96920002        -1.36245188E-04
   1.98119998        -1.32163332E-04
   1.99319994        -1.28048719E-04
   2.00519991        -1.23999809E-04
   2.01719999        -1.20103978E-04
   2.02920008        -1.16435585E-04
   2.04119992        -1.13054688E-04
   2.05320001        -1.10006476E-04
   2.06520009        -1.07321401E-04
   2.07719994        -1.05015963E-04
   2.08920002        -1.03094048E-04
   2.10120010        -1.01548685E-04
   2.11319995        -1.00364043E-04
   2.12520003        -9.95176379E-05
   2.13720012        -9.89824475E-05
   2.14919996        -9.87289532E-05
   2.16120005        -9.87268868E-05
   2.17319989        -9.89466862E-05
   2.18519998        -9.93605863E-05
   2.19720006        -9.99433105E-05
   2.20919991        -1.00672391E-04
   2.22119999        -1.01528225E-04
   2.23320007        -1.02493839E-04
   2.24519992        -1.03554456E-04
   2.25720000        -1.04697057E-04
   2.26920009        -1.05909836E-04
   2.28119993        -1.07181790E-04
   2.29320002        -1.08502325E-04
   2.30520010        -1.09861103E-04
   2.31719995        -1.11247959E-04
   2.32920003        -1.12652975E-04
   2.34120011        -1.14066715E-04
   2.35319996        -1.15480558E-04
   2.36520004        -1.16886971E-04
   2.37719989        -1.18279968E-04
   2.38919997        -1.19655371E-04
   2.40120006        -1.21011108E-04
   2.41319990        -1.22347337E-04
   2.42519999        -1.23666570E-04
   2.43720007        -1.24973652E-04
   2.44919991        -1.26275583E-04
   2.46120000        -1.27581414E-04
   2.47320008        -1.28901913E-04
   2.48519993        -1.30249377E-04
   2.49720001        -1.31637353E-04
   2.50920010        -1.33080321E-04
   2.52119994        -1.34593443E-04
   2.53320003        -1.36192291E-04
   2.54520011        -1.37892581E-04
   2.55719995        -1.39709795E-04
   2.56920004        -1.41658878E-04
   2.58119988        -1.43753772E-04
   2.59319997        -1.46006976E-04
   2.60520005        -1.48429011E-04
   2.61719990        -1.51027794E-04
   2.62919998        -1.53807996E-04
   2.64120007        -1.56770475E-04
   2.65319991        -1.59911637E-04
   2.66520000        -1.63222969E-04
   2.67720008        -1.66690632E-04
   2.68919992        -1.70295156E-04
   2.70120001        -1.74011453E-04
   2.71320009        -1.77808848E-04
   2.72519994        -1.81651412E-04
   2.73720002        -1.85498473E-04
   2.74920011        -1.89305210E-04
   2.76119995        -1.93023443E-04
   2.77320004        -1.96602428E-04
   2.78520012        -1.99989692E-04
   2.79719996        -2.03131844E-04
   2.80920005        -2.05975273E-04
   2.82119989        -2.08466707E-04
   2.83319998        -2.10553699E-04
   2.84520006        -2.12184983E-04
   2.85719991        -2.13310705E-04
   2.86919999        -2.13882580E-04
   2.88120008        -2.13854219E-04
   2.89319992        -2.13181353E-04
   2.90520000        -2.11822320E-04
   2.91720009        -2.09738690E-04
   2.92919993        -2.06896293E-04
   2.94120002        -2.03266318E-04
   2.95320010        -1.98826921E-04
   2.96519995        -1.93564891E-04
   2.97720003        -1.87477752E-04
   2.98920012        -1.80575749E-04
   3.00119996        -1.72883883E-04
   3.01320004        -1.64443903E-04
   3.02519989        -1.55315764E-04
   3.03719997        -1.45578742E-04
   3.04920006        -1.35331764E-04
   3.06119990        -1.24693048E-04
   3.07319999        -1.13798778E-04
   3.08520007        -1.02800841E-04
   3.09719992        -9.18636943E-05
   3.10920000        -8.11602222E-05
   3.12120008        -7.08669540E-05
   3.13319993        -6.11586365E-05
   3.14520001        -5.22024638E-05
   3.15720010        -4.41521443E-05
   3.16919994        -3.71422175E-05
   3.18120003        -3.12827760E-05
   3.19320011        -2.66549996E-05
   3.20519996        -2.33075934E-05
   3.21720004        -2.12545165E-05
   3.22919989        -2.04740390E-05
   3.24119997        -2.09092541E-05
   3.25320005        -2.24700470E-05
   3.26519990        -2.50364210E-05
   3.27719998        -2.84630987E-05
   3.28920007        -3.25850851E-05
   3.30119991        -3.72240356E-05
   3.31320000        -4.21950281E-05
   3.32520008        -4.73135042E-05
   3.33719993        -5.24019997E-05
   3.34920001        -5.72964054E-05
   3.36120009        -6.18514678E-05
   3.37319994        -6.59452999E-05
   3.38520002        -6.94827395E-05
   3.39720011        -7.23975027E-05
   3.40919995        -7.46529549E-05
   3.42120004        -7.62416603E-05
   3.43319988        -7.71837804E-05
   3.44519997        -7.75243607E-05
   3.45720005        -7.73297725E-05
   3.46919990        -7.66835219E-05
   3.48119998        -7.56815862E-05
   3.49320006        -7.44275385E-05
   3.50519991        -7.30276806E-05
   3.51719999        -7.15863644E-05
   3.52920008        -7.02016041E-05
   3.54119992        -6.89612134E-05
   3.55320001        -6.79395016E-05
   3.56520009        -6.71946400E-05
   3.57719994        -6.67666900E-05
   3.58920002        -6.66764463E-05
   3.60120010        -6.69249348E-05
   3.61319995        -6.74937473E-05
   3.62520003        -6.83459584E-05
   3.63720012        -6.94278278E-05
   3.64919996        -7.06710198E-05
   3.66120005        -7.19953678E-05
   3.67319989        -7.33120978E-05
   3.68519998        -7.45273937E-05
   3.69720006        -7.55461733E-05
   3.70919991        -7.62760028E-05
   3.72119999        -7.66309822E-05
   3.73320007        -7.65354853E-05
   3.74519992        -7.59275645E-05
   3.75720000        -7.47619852E-05
   3.76920009        -7.30126412E-05
   3.78119993        -7.06742576E-05
   3.79320002        -6.77634162E-05
   3.80520010        -6.43185995E-05
   3.81719995        -6.03994740E-05
   3.82920003        -5.60852386E-05
   3.84120011        -5.14722014E-05
   3.85319996        -4.66706006E-05
   3.86520004        -4.18008713E-05
   3.87719989        -3.69894187E-05
   3.88919997        -3.23641580E-05
   3.90120006        -2.80499189E-05
   3.91319990        -2.41639773E-05
   3.92519999        -2.08118327E-05
   3.93720007        -1.80834213E-05
   3.94919991        -1.60499349E-05
   3.96120000        -1.47613018E-05
   3.97320008        -1.42444978E-05
   3.98519993        -1.45026643E-05
   3.99720001        -1.55151065E-05
   4.00920010        -1.72380969E-05
   4.02120018        -1.96064939E-05
   4.03319979        -2.25360272E-05
   4.04519987        -2.59261942E-05
   4.05719995        -2.96636226E-05
   4.06920004        -3.36257872E-05
   4.08120012        -3.76848984E-05
   4.09320021        -4.17119227E-05
   4.10519981        -4.55804729E-05
   4.11719990        -4.91705905E-05
   4.12919998        -5.23721865E-05
   4.14120007        -5.50881232E-05
   4.15320015        -5.72368190E-05
   4.16520023        -5.87543182E-05
   4.17719984        -5.95957827E-05
   4.18919992        -5.97363614E-05
   4.20120001        -5.91714597E-05
   4.21320009        -5.79163898E-05
   4.22520018        -5.60054577E-05
   4.23719978        -5.34905266E-05
   4.24919987        -5.04391210E-05
   4.26119995        -4.69321458E-05
   4.27320004        -4.30612963E-05
   4.28520012        -3.89262641E-05
   4.29720020        -3.46317865E-05
   4.30919981        -3.02846729E-05
   4.32119989        -2.59908775E-05
   4.33319998        -2.18526347E-05
   4.34520006        -1.79658455E-05
   4.35720015        -1.44176656E-05
   4.36920023        -1.12844273E-05
   4.38119984        -8.62989418E-06
   4.39319992        -6.50392030E-06
   4.40520000        -4.94150754E-06
   4.41720009        -3.96229234E-06
   4.42920017        -3.57046497E-06
   4.44119978        -3.75507648E-06
   4.45319986        -4.49075242E-06
   4.46519995        -5.73877196E-06
   4.47720003        -7.44845465E-06
   4.48920012        -9.55884116E-06
   4.50120020        -1.20006061E-05
   4.51319981        -1.46981374E-05
   4.52519989        -1.75717614E-05
   4.53719997        -2.05400047E-05
   4.54920006        -2.35218631E-05
   4.56120014        -2.64389946E-05
   4.57320023        -2.92177756E-05
   4.58519983        -3.17911654E-05
   4.59719992        -3.41003215E-05
   4.60920000        -3.60959421E-05
   4.62120008        -3.77393080E-05
   4.63320017        -3.90029527E-05
   4.64519978        -3.98710654E-05
   4.65719986        -4.03394915E-05
   4.66919994        -4.04154562E-05
   4.68120003        -4.01169673E-05
   4.69320011        -3.94719063E-05
   4.70520020        -3.85169078E-05
   4.71719980        -3.72959839E-05
   4.72919989        -3.58589823E-05
   4.74119997        -3.42598796E-05
   4.75320005        -3.25550027E-05
   4.76520014        -3.08012059E-05
   4.77720022        -2.90540720E-05
   4.78919983        -2.73661335E-05
   4.80119991        -2.57852698E-05
   4.81320000        -2.43532413E-05
   4.82520008        -2.31044560E-05
   4.83720016        -2.20650236E-05
   4.84919977        -2.12521154E-05
   4.86119986        -2.06737222E-05
   4.87319994        -2.03287655E-05
   4.88520002        -2.02076462E-05
   4.89720011        -2.02931678E-05
   4.90920019        -2.05618326E-05
   4.92119980        -2.09854443E-05
   4.93319988        -2.15329364E-05
   4.94519997        -2.21723385E-05
   4.95720005        -2.28727731E-05
   4.96920013        -2.36063643E-05
   4.98120022        -2.43499053E-05
   4.99319983        -2.50862704E-05
   5.00519991        -2.58053497E-05
   5.01719999        -2.65045546E-05
   5.02920008        -2.71887511E-05
   5.04120016        -2.78697044E-05
   5.05319977        -2.85649367E-05
   5.06519985        -2.92962104E-05
   5.07719994        -3.00876054E-05
   5.08920002        -3.09633833E-05
   5.10120010        -3.19457613E-05
   5.11320019        -3.30527619E-05
   5.12519979        -3.42962994E-05
   5.13719988        -3.56806086E-05
   5.14919996        -3.72011746E-05
   5.16120005        -3.88442459E-05
   5.17320013        -4.05869177E-05
   5.18520021        -4.23978963E-05
   5.19719982        -4.42388082E-05
   5.20919991        -4.60660267E-05
   5.22119999        -4.78328875E-05
   5.23320007        -4.94922024E-05
   5.24520016        -5.09988131E-05
   5.25719976        -5.23121234E-05
   5.26919985        -5.33983875E-05
   5.28119993        -5.42326416E-05
   5.29320002        -5.48000789E-05
   5.30520010        -5.50968980E-05
   5.31720018        -5.51304911E-05
   5.32919979        -5.49189936E-05
   5.34119987        -5.44901995E-05
   5.35319996        -5.38799759E-05
   5.36520004        -5.31302539E-05
   5.37720013        -5.22867049E-05
   5.38920021        -5.13962950E-05
   5.40119982        -5.05048483E-05
   5.41319990        -4.96548128E-05
   5.42519999        -4.88832629E-05
   5.43720007        -4.82204232E-05
   5.44920015        -4.76885871E-05
   5.46120024        -4.73016844E-05
   5.47319984        -4.70653176E-05
   5.48519993        -4.69774131E-05
   5.49720001        -4.70292434E-05
   5.50920010        -4.72068568E-05
   5.52120018        -4.74927328E-05
   5.53319979        -4.78675393E-05
   5.54519987        -4.83118529E-05
   5.55719995        -4.88077567E-05
   5.56920004        -4.93401531E-05
   5.58120012        -4.98977206E-05
   5.59320021        -5.04735071E-05
   5.60519981        -5.10650680E-05
   5.61719990        -5.16741893E-05
   5.62919998        -5.23062481E-05
   5.64120007        -5.29692188E-05
   5.65320015        -5.36724983E-05
   5.66520023        -5.44255745E-05
   5.67719984        -5.52367055E-05
   5.68919992        -5.61116722E-05
   5.70120001        -5.70527554E-05
   5.71320009        -5.80579690E-05
   5.72520018        -5.91206517E-05
   5.73719978        -6.02293912E-05
   5.74919987        -6.13683442E-05
   5.76119995        -6.25178654E-05
   5.77320004        -6.36553814E-05
   5.78520012        -6.47565175E-05
   5.79720020        -6.57962883E-05
   5.80919981        -6.67503773E-05
   5.82119989        -6.75962365E-05
   5.83319998        -6.83141625E-05
   5.84520006        -6.88880245E-05
   5.85720015        -6.93058246E-05
   5.86920023        -6.95599156E-05
   5.88119984        -6.96469215E-05
   5.89319992        -6.95673880E-05
   5.90520000        -6.93252005E-05
   5.91720009        -6.89268636E-05
   5.92920017        -6.83806138E-05
   5.94119978        -6.76956333E-05
   5.95319986        -6.68811845E-05
   5.96519995        -6.59460711E-05
   5.97720003        -6.48981732E-05
   5.98920012        -6.37442718E-05
   6.00120020        -6.24901950E-05
   6.01319981        -6.11411233E-05
   6.02519989        -5.97022445E-05
   6.03719997        -5.81795139E-05
   6.04920006        -5.65805058E-05
   6.06120014        -5.49153410E-05
   6.07320023        -5.31975056E-05
   6.08519983        -5.14444764E-05
   6.09719992        -4.96781759E-05
   6.10920000        -4.79250848E-05
   6.12120008        -4.62159987E-05
   6.13320017        -4.45854530E-05
   6.14519978        -4.30707951E-05
   6.15719986        -4.17109004E-05
   6.16919994        -4.05446917E-05
   6.18120003        -3.96093892E-05
   6.19320011        -3.89387278E-05
   6.20520020        -3.85611675E-05
   6.21719980        -3.84982523E-05
   6.22919989        -3.87631917E-05
   6.24119997        -3.93597948E-05
   6.25320005        -4.02818550E-05
   6.26520014        -4.15129762E-05
   6.27720022        -4.30268992E-05
   6.28919983        -4.47883067E-05
   6.30119991        -4.67540776E-05
   6.31320000        -4.88748519E-05
   6.32520008        -5.10968930E-05
   6.33720016        -5.33640887E-05
   6.34919977        -5.56200102E-05
   6.36119986        -5.78099098E-05
   6.37319994        -5.98825864E-05
   6.38520002        -6.17920086E-05
   6.39720011        -6.34986354E-05
   6.40920019        -6.49703434E-05
   6.42119980        -6.61830345E-05
   6.43319988        -6.71207890E-05
   6.44519997        -6.77756761E-05
   6.45720005        -6.81472375E-05
   6.46920013        -6.82416357E-05
   6.48120022        -6.80707089E-05
   6.49319983        -6.76508644E-05
   6.50519991        -6.70019872E-05
   6.51719999        -6.61463419E-05
   6.52920008        -6.51076625E-05
   6.54120016        -6.39102873E-05
   6.55319977        -6.25785469E-05
   6.56519985        -6.11362484E-05
   6.57719994        -5.96062964E-05
   6.58920002        -5.80105225E-05
   6.60120010        -5.63695867E-05
   6.61320019        -5.47029449E-05
   6.62519979        -5.30289944E-05
   6.63719988        -5.13652012E-05
   6.64919996        -4.97283072E-05
   6.66120005        -4.81345305E-05
   6.67320013        -4.65997873E-05
   6.68520021        -4.51398555E-05
   6.69719982        -4.37705057E-05
   6.70919991        -4.25075996E-05
   6.72119999        -4.13670750E-05
   6.73320007        -4.03649246E-05
   6.74520016        -3.95170682E-05
   6.75719976        -3.88391782E-05
   6.76919985        -3.83464539E-05
   6.78119993        -3.80532911E-05
   6.79320002        -3.79728845E-05
   6.80520010        -3.81167738E-05
   6.81720018        -3.84942396E-05
   6.82919979        -3.91117210E-05
   6.84119987        -3.99721139E-05
   6.85319996        -4.10740904E-05
   6.86520004        -4.24114332E-05
   6.87720013        -4.39724463E-05
   6.88920021        -4.57394599E-05
   6.90119982        -4.76885252E-05
   6.91319990        -4.97892906E-05
   6.92519999        -5.20051472E-05
   6.93720007        -5.42935959E-05
   6.94920015        -5.66069575E-05
   6.96120024        -5.88933326E-05
   6.97319984        -6.10978896E-05
   6.98519993        -6.31643779E-05
   6.99720001        -6.50368893E-05
   7.00920010        -6.66618434E-05
   7.02120018        -6.79898949E-05
   7.03319979        -6.89780281E-05
   7.04519987        -6.95914132E-05
   7.05719995        -6.98051444E-05
   7.06920004        -6.96056086E-05
   7.08120012        -6.89915178E-05
   7.09320021        -6.79745281E-05
   7.10519981        -6.65793195E-05
   7.11719990        -6.48431669E-05
   7.12919998        -6.28149937E-05
   7.14120007        -6.05539426E-05
   7.15320015        -5.81274289E-05
   7.16520023        -5.56088271E-05
   7.17719984        -5.30748694E-05
   7.18919992        -5.06028337E-05
   7.20120001        -4.82676514E-05
   7.21320009        -4.61391828E-05
   7.22520018        -4.42796190E-05
   7.23719978        -4.27412633E-05
   7.24919987        -4.15647955E-05
   7.26119995        -4.07780026E-05
   7.27320004        -4.03951271E-05
   7.28520012        -4.04168095E-05
   7.29720020        -4.08305423E-05
   7.30919981        -4.16117291E-05
   7.32119989        -4.27251616E-05
   7.33319998        -4.41268676E-05
   7.34520006        -4.57662281E-05
   7.35720015        -4.75882334E-05
   7.36920023        -4.95358145E-05
   7.38119984        -5.15520369E-05
   7.39319992        -5.35821418E-05
   7.40520000        -5.55753250E-05
   7.41720009        -5.74861442E-05
   7.42920017        -5.92756078E-05
   7.44119978        -6.09118470E-05
   7.45319986        -6.23704545E-05
   7.46519995        -6.36344121E-05
   7.47720003        -6.46938497E-05
   7.48920012        -6.55454423E-05
   7.50120020        -6.61917220E-05
   7.51319981        -6.66402484E-05
   7.52519989        -6.69026704E-05
   7.53719997        -6.69938454E-05
   7.54920006        -6.69309520E-05
   7.56120014        -6.67326385E-05
   7.57320023        -6.64183026E-05
   7.58519983        -6.60073783E-05
   7.59719992        -6.55187105E-05
   7.60920000        -6.49700960E-05
   7.62120008        -6.43777457E-05
   7.63320017        -6.37558842E-05
   7.64519978        -6.31164148E-05
   7.65719986        -6.24685927E-05
   7.66919994        -6.18187842E-05
   7.68120003        -6.11703872E-05
   7.69320011        -6.05237547E-05
   7.70520020        -5.98762854E-05
   7.71719980        -5.92226716E-05
   7.72919989        -5.85552480E-05
   7.74119997        -5.78644904E-05
   7.75320005        -5.71396522E-05
   7.76520014        -5.63694884E-05
   7.77720022        -5.55430634E-05
   7.78919983        -5.46506344E-05
   7.80119991        -5.36845619E-05
   7.81320000        -5.26401636E-05
   7.82520008        -5.15165520E-05
   7.83720016        -5.03172378E-05
   7.84919977        -4.90506573E-05
   7.86119986        -4.77303729E-05
   7.87319994        -4.63750475E-05
   7.88520002        -4.50081097E-05
   7.89720011        -4.36571208E-05
   7.90920019        -4.23528872E-05
   7.92119980        -4.11283036E-05
   7.93319988        -4.00170757E-05
   7.94519997        -3.90522873E-05
   7.95720005        -3.82649487E-05
   7.96920013        -3.76825810E-05
   7.98120022        -3.73278999E-05
   7.99319983        -3.72176983E-05
   8.00520039        -3.73619696E-05
   8.01720047        -3.77633332E-05
   8.02919960        -3.84167834E-05
   8.04119968        -3.93098817E-05
   8.05319977        -4.04232451E-05
   8.06519985        -4.17314477E-05
   8.07719994        -4.32042107E-05
   8.08920002        -4.48078790E-05
   8.10120010        -4.65070407E-05
   8.11320019        -4.82662399E-05
   8.12520027        -5.00516908E-05
   8.13720036        -5.18328779E-05
   8.14920044        -5.35839572E-05
   8.16119957        -5.52848396E-05
   8.17319965        -5.69219847E-05
   8.18519974        -5.84887384E-05
   8.19719982        -5.99852501E-05
   8.20919991        -6.14179371E-05
   8.22119999        -6.27985282E-05
   8.23320007        -6.41427396E-05
   8.24520016        -6.54686592E-05
   8.25720024        -6.67949062E-05
   8.26920033        -6.81387100E-05
   8.28120041        -6.95140407E-05
   8.29319954        -7.09298984E-05
   8.30519962        -7.23888443E-05
   8.31719971        -7.38859744E-05
   8.32919979        -7.54083158E-05
   8.34119987        -7.69347462E-05
   8.35319996        -7.84364238E-05
   8.36520004        -7.98778347E-05
   8.37720013        -8.12182625E-05
   8.38920021        -8.24136878E-05
   8.40120029        -8.34190650E-05
   8.41320038        -8.41907531E-05
   8.42520046        -8.46889743E-05
   8.43719959        -8.48803029E-05
   8.44919968        -8.47398114E-05
   8.46119976        -8.42528680E-05
   8.47319984        -8.34164748E-05
   8.48519993        -8.22400398E-05
   8.49720001        -8.07454926E-05
   8.50920010        -7.89668120E-05
   8.52120018        -7.69488834E-05
   8.53320026        -7.47458762E-05
   8.54520035        -7.24191050E-05
   8.55720043        -7.00345263E-05
   8.56919956        -6.76600685E-05
   8.58119965        -6.53628449E-05
   8.59319973        -6.32064475E-05
   8.60519981        -6.12484364E-05
   8.61719990        -5.95381280E-05
   8.62919998        -5.81148488E-05
   8.64120007        -5.70066295E-05
   8.65320015        -5.62294517E-05
   8.66520023        -5.57870699E-05
   8.67720032        -5.56712948E-05
   8.68920040        -5.58628381E-05
   8.70119953        -5.63325302E-05
   8.71319962        -5.70428965E-05
   8.72519970        -5.79499392E-05
   8.73719978        -5.90050913E-05
   8.74919987        -6.01571519E-05
   8.76119995        -6.13542070E-05
   8.77320004        -6.25453613E-05
   8.78520012        -6.36822660E-05
   8.79720020        -6.47204361E-05
   8.80920029        -6.56202028E-05
   8.82120037        -6.63474493E-05
   8.83320045        -6.68740613E-05
   8.84519958        -6.71781236E-05
   8.85719967        -6.72439273E-05
   8.86919975        -6.70618901E-05
   8.88119984        -6.66282795E-05
   8.89319992        -6.59449797E-05
   8.90520000        -6.50192087E-05
   8.91720009        -6.38632482E-05
   8.92920017        -6.24941749E-05
   8.94120026        -6.09336566E-05
   8.95320034        -5.92076758E-05
   8.96520042        -5.73462567E-05
   8.97719955        -5.53831633E-05
   8.98919964        -5.33554667E-05
   9.00119972        -5.13030536E-05
   9.01319981        -4.92679574E-05
   9.02519989        -4.72935899E-05
   9.03719997        -4.54238179E-05
   9.04920006        -4.37019335E-05
   9.06120014        -4.21694749E-05
   9.07320023        -4.08650230E-05
   9.08520031        -3.98229749E-05