 -0.622799993         1.00000002E-24
 -0.610800028         1.00000002E-24
 -0.598800004         1.00000002E-24
 -0.586799979         1.00000002E-24
 -0.574800014         1.00000002E-24
 -0.562799990         1.20046683E-24
 -0.550800025         6.00389167E-25
 -0.538800001        -1.59573924E-23
 -0.526799977        -1.25694610E-22
 -0.514800012        -5.80978563E-22
 -0.502799988        -1.99878703E-21
 -0.490799993        -5.58601368E-21
 -0.478799999        -1.33049715E-20
 -0.466800004        -2.78902297E-20
 -0.454800010        -5.27461767E-20
 -0.442799985        -9.19307013E-20
 -0.430799991        -1.50458376E-19
 -0.418799996        -2.34779371E-19
 -0.406800002        -3.52481072E-19
 -0.394800007        -5.09554838E-19
 -0.382800013        -7.04109889E-19
 -0.370799989        -9.18355251E-19
 -0.358799994        -1.11592631E-18
 -0.346799999        -1.25659116E-18
 -0.334800005        -1.33976583E-18
 -0.322800010        -1.47633790E-18
 -0.310799986        -1.96352639E-18
 -0.298799992        -3.30770605E-18
 -0.286799997        -6.12450771E-18
 -0.274800003        -1.08691342E-17
 -0.262800008        -1.74294367E-17
 -0.250800014        -2.47393624E-17
 -0.238800004        -3.06899327E-17
 -0.226799995        -3.26432502E-17
 -0.214800000        -2.87050632E-17
 -0.202800006        -1.95506504E-17
 -0.190799996        -1.01070883E-17
 -0.178800002        -9.98582444E-18
 -0.166800007        -3.15335874E-17
 -0.154799998        -8.49868192E-17
 -0.142800003        -1.71518229E-16
 -0.130799994        -2.76631087E-16
 -0.118799999        -3.67677785E-16
 -0.106799997        -3.99339268E-16
  -9.48000029E-02    -3.28966818E-16
  -8.28000009E-02    -1.39693865E-16
  -7.07999989E-02     1.35866308E-16
  -5.88000007E-02     4.02699210E-16
  -4.67999987E-02     5.13338071E-16
  -3.48000005E-02     3.08019720E-16
  -2.28000004E-02    -3.18208838E-16
  -1.08000003E-02    -1.33883436E-15
   1.20000006E-03    -2.53981199E-15
   1.31999999E-02    -3.51909854E-15
   2.52000000E-02    -3.76815566E-15
   3.72000001E-02    -2.83772067E-15
   4.91999984E-02    -5.54737494E-16
   6.12000003E-02     2.77872165E-15
   7.32000023E-02     6.29532801E-15
   8.51999968E-02     8.66429748E-15
   9.71999988E-02     8.42324122E-15
  0.109200001         4.50010436E-15
  0.121200003        -3.20649320E-15
  0.133200005        -1.33938364E-14
  0.145199999        -2.32936093E-14
  0.157199994        -2.91462546E-14
  0.169200003        -2.72288634E-14
  0.181199998        -1.52497610E-14
  0.193200007         6.28131173E-15
  0.205200002         3.32251621E-14
  0.217199996         5.80206659E-14
  0.229200006         7.12055266E-14
  0.241200000         6.41391982E-14
  0.253199995         3.23426690E-14
  0.265199989        -2.15425788E-14
  0.277200013        -8.63557882E-14
  0.289200008        -1.43570418E-13
  0.301200002        -1.71391181E-13
  0.313199997        -1.51261788E-13
  0.325199991        -7.52374915E-14
  0.337199986         4.80905327E-14
  0.349200010         1.91607580E-13
  0.361200005         3.13464342E-13
  0.373199999         3.67001243E-13
  0.385199994         3.15140871E-13
  0.397199988         1.45568792E-13
  0.409200013        -1.18265898E-13
  0.421200007        -4.15219020E-13
  0.433200002        -6.56687107E-13
  0.445199996        -7.48779348E-13
  0.457199991        -6.22076555E-13
  0.469199985        -2.60937864E-13
  0.481200010         2.77565135E-13
  0.493200004         8.63994531E-13
  0.505200028         1.32080664E-12
  0.517199993         1.46830573E-12
  0.529200017         1.18234697E-12
  0.541199982         4.47651085E-13
  0.553200006        -6.11634387E-13
  0.565199971        -1.73916458E-12
  0.577199996        -2.59744895E-12
  0.589200020        -2.85588632E-12
  0.601199985        -2.29563677E-12
  0.613200009        -9.01690452E-13
  0.625199974         1.08933414E-12
  0.637199998         3.20928418E-12
  0.649200022         4.85329832E-12
  0.661199987         5.43425851E-12
  0.673200011         4.56073070E-12
  0.685199976         2.18890552E-12
  0.697200000        -1.30122464E-12
  0.709200025        -5.14035776E-12
  0.721199989        -8.32230292E-12
  0.733200014        -9.84789594E-12
  0.745199978        -9.00362250E-12
  0.757200003        -5.60075337E-12
  0.769200027        -1.02997824E-13
  0.781199992         6.40596170E-12
  0.793200016         1.24240522E-11
  0.805199981         1.63645954E-11
  0.817200005         1.69461233E-11
  0.829200029         1.35411595E-11
  0.841199994         6.39166367E-12
  0.853200018        -3.37090490E-12
  0.865199983        -1.39145926E-11
  0.877200007        -2.30654905E-11
  0.889199972        -2.87531301E-11
  0.901199996        -2.94392011E-11
  0.913200021        -2.44334240E-11
  0.925199986        -1.40331262E-11
  0.937200010         5.28949334E-13
  0.949199975         1.72956215E-11
  0.961199999         3.38877433E-11
  0.973200023         4.78201229E-11
  0.985199988         5.67673651E-11
  0.997200012         5.87489710E-11
   1.00919998         5.22415514E-11
   1.02119994         3.62555194E-11
   1.03320003         1.04240921E-11
   1.04519999        -2.48598017E-11
   1.05719995        -6.82516335E-11
   1.06920004        -1.17233140E-10
   1.08120000        -1.67904815E-10
   1.09319997        -2.14833054E-10
   1.10520005        -2.50959503E-10
   1.11720002        -2.67525335E-10
   1.12919998        -2.53899540E-10
   1.14119995        -1.97148006E-10
   1.15320003        -8.11499340E-11
   1.16520000         1.14939537E-10
   1.17719996         4.19068780E-10
   1.18920004         8.69713079E-10
   1.20120001         1.52059565E-09
   1.21319997         2.44709386E-09
   1.22520006         3.75496167E-09
   1.23720002         5.59233104E-09
   1.24919999         8.16637158E-09
   1.26119995         1.17664314E-08
   1.27320004         1.67959193E-08
   1.28520000         2.38155184E-08
   1.29719996         3.36005570E-08
   1.30920005         4.72155115E-08
   1.32120001         6.61085053E-08
   1.33319998         9.22285963E-08
   1.34519994         1.28168310E-07
   1.35720003         1.77333249E-07
   1.36919999         2.44140267E-07
   1.38119996         3.34243651E-07
   1.39320004         4.54788278E-07
   1.40520000         6.14685291E-07
   1.41719997         8.24903623E-07
   1.42920005         1.09876635E-06
   1.44120002         1.45223657E-06
   1.45319998         1.90417438E-06
   1.46519995         2.47653747E-06
   1.47720003         3.19450419E-06
   1.48920000         4.08647747E-06
   1.50119996         5.18395291E-06
   1.51320004         6.52120207E-06
   1.52520001         8.13476254E-06
   1.53719997         1.00626958E-05
   1.54920006         1.23436203E-05
   1.56120002         1.50154965E-05
   1.57319999         1.81142041E-05
   1.58519995         2.16719036E-05
   1.59720004         2.57152751E-05
   1.60920000         3.02636436E-05
   1.62119997         3.53271025E-05
   1.63320005         4.09047279E-05
   1.64520001         4.69829574E-05
   1.65719998         5.35342660E-05
   1.66919994         6.05162131E-05
   1.68120003         6.78710421E-05
   1.69319999         7.55257497E-05
   1.70519996         8.33929225E-05
   1.71720004         9.13721233E-05
   1.72920001         9.93520516E-05
   1.74119997         1.07213251E-04
   1.75320005         1.14831440E-04
   1.76520002         1.22081241E-04
   1.77719998         1.28840227E-04
   1.78919995         1.34993097E-04
   1.80120003         1.40435761E-04
   1.81320000         1.45079131E-04
   1.82519996         1.48852530E-04
   1.83720005         1.51706350E-04
   1.84920001         1.53613873E-04
   1.86119998         1.54572394E-04
   1.87320006         1.54603040E-04
   1.88520002         1.53749788E-04
   1.89719999         1.52077439E-04
   1.90919995         1.49668791E-04
   1.92120004         1.46620994E-04
   1.93320000         1.43041456E-04
   1.94519997         1.39043375E-04
   1.95720005         1.34741262E-04
   1.96920002         1.30246655E-04
   1.98119998         1.25664214E-04
   1.99319994         1.21088582E-04
   2.00519991         1.16601826E-04
   2.01719999         1.12271984E-04
   2.02920008         1.08152417E-04
   2.04119992         1.04282175E-04
   2.05320001         1.00687132E-04
   2.06520009         9.73818169E-05
   2.07719994         9.43718114E-05
   2.08920002         9.16563586E-05
   2.10120010         8.92310709E-05
   2.11319995         8.70904696E-05
   2.12520003         8.52301091E-05
   2.13720012         8.36481995E-05
   2.14919996         8.23465380E-05
   2.16120005         8.13306979E-05
   2.17319989         8.06095341E-05
   2.18519998         8.01940187E-05
   2.19720006         8.00955386E-05
   2.20919991         8.03238509E-05
   2.22119999         8.08848781E-05
   2.23320007         8.17785840E-05
   2.24519992         8.29970741E-05
   2.25720000         8.45231771E-05
   2.26920009         8.63296445E-05
   2.28119993         8.83790563E-05
   2.29320002         9.06244240E-05
   2.30520010         9.30106180E-05
   2.31719995         9.54763455E-05
   2.32920003         9.79567267E-05
   2.34120011         1.00386234E-04
   2.35319996         1.02701764E-04
   2.36520004         1.04845705E-04
   2.37719989         1.06768792E-04
   2.38919997         1.08432556E-04
   2.40120006         1.09811233E-04
   2.41319990         1.10892986E-04
   2.42519999         1.11680485E-04
   2.43720007         1.12190770E-04
   2.44919991         1.12454392E-04
   2.46120000         1.12514004E-04
   2.47320008         1.12422531E-04
   2.48519993         1.12240923E-04
   2.49720001         1.12035719E-04
   2.50920010         1.11876601E-04
   2.52119994         1.11833921E-04
   2.53320003         1.11976493E-04
   2.54520011         1.12369533E-04
   2.55719995         1.13072965E-04
   2.56920004         1.14139984E-04
   2.58119988         1.15615992E-04
   2.59319997         1.17537849E-04
   2.60520005         1.19933437E-04
   2.61719990         1.22821381E-04
   2.62919998         1.26211118E-04
   2.64120007         1.30103173E-04
   2.65319991         1.34489499E-04
   2.66520000         1.39354190E-04
   2.67720008         1.44674137E-04
   2.68919992         1.50420106E-04
   2.70120001         1.56557784E-04
   2.71320009         1.63049233E-04
   2.72519994         1.69854378E-04
   2.73720002         1.76932721E-04
   2.74920011         1.84245189E-04
   2.76119995         1.91756102E-04
   2.77320004         1.99435090E-04
   2.78520012         2.07258898E-04
   2.79719996         2.15213018E-04
   2.80920005         2.23292998E-04
   2.82119989         2.31505226E-04
   2.83319998         2.39867251E-04
   2.84520006         2.48407421E-04
   2.85719991         2.57163716E-04
   2.86919999         2.66181945E-04
   2.88120008         2.75513186E-04
   2.89319992         2.85210641E-04
   2.90520000         2.95325794E-04
   2.91720009         3.05904279E-04
   2.92919993         3.16981866E-04
   2.94120002         3.28580005E-04
   2.95320010         3.40702070E-04
   2.96519995         3.53329931E-04
   2.97720003         3.66421271E-04
   2.98920012         3.79907870E-04
   3.00119996         3.93694994E-04
   3.01320004         4.07661486E-04
   3.02519989         4.21661476E-04
   3.03719997         4.35526832E-04
   3.04920006         4.49070678E-04
   3.06119990         4.62091761E-04
   3.07319999         4.74379456E-04
   3.08520007         4.85719036E-04
   3.09719992         4.95897373E-04
   3.10920000         5.04708383E-04
   3.12120008         5.11958555E-04
   3.13319993         5.17471402E-04
   3.14520001         5.21092268E-04
   3.15720010         5.22691756E-04
   3.16919994         5.22168586E-04
   3.18120003         5.19452384E-04
   3.19320011         5.14504325E-04
   3.20519996         5.07318880E-04
   3.21720004         4.97923582E-04
   3.22919989         4.86378791E-04
   3.24119997         4.72776941E-04
   3.25320005         4.57241200E-04
   3.26519990         4.39923606E-04
   3.27719998         4.21003031E-04
   3.28920007         4.00682446E-04
   3.30119991         3.79185978E-04
   3.31320000         3.56755336E-04
   3.32520008         3.33645818E-04
   3.33719993         3.10122035E-04
   3.34920001         2.86453083E-04
   3.36120009         2.62907415E-04
   3.37319994         2.39747373E-04
   3.38520002         2.17223700E-04
   3.39720011         1.95569984E-04
   3.40919995         1.74997476E-04
   3.42120004         1.55690141E-04
   3.43319988         1.37800555E-04
   3.44519997         1.21446632E-04
   3.45720005         1.06709420E-04
   3.46919990         9.36321667E-05
   3.48119998         8.22206566E-05
   3.49320006         7.24450365E-05
   3.50519991         6.42428495E-05
   3.51719999         5.75233462E-05
   3.52920008         5.21728143E-05
   3.54119992         4.80606395E-05
   3.55320001         4.50458538E-05
   3.56520009         4.29837601E-05
   3.57719994         4.17322699E-05
   3.58920002         4.11576511E-05
   3.60120010         4.11393266E-05
   3.61319995         4.15734212E-05
   3.62520003         4.23749698E-05
   3.63720012         4.34786380E-05
   3.64919996         4.48380051E-05
   3.66120005         4.64234727E-05
   3.67319989         4.82191208E-05
   3.68519998         5.02186813E-05
   3.69720006         5.24210518E-05
   3.70919991         5.48256976E-05
   3.72119999         5.74283004E-05
   3.73320007         6.02169966E-05
   3.74519992         6.31695293E-05
   3.75720000         6.62515013E-05
   3.76920009         6.94157789E-05
   3.78119993         7.26032013E-05
   3.79320002         7.57444868E-05
   3.80520010         7.87630706E-05
   3.81719995         8.15787862E-05
   3.82920003         8.41120709E-05
   3.84120011         8.62883317E-05
   3.85319996         8.80422012E-05
   3.86520004         8.93214092E-05
   3.87719989         9.00899977E-05
   3.88919997         9.03306936E-05
   3.90120006         9.00462837E-05
   3.91319990         8.92599783E-05
   3.92519999         8.80147345E-05
   3.93720007         8.63716123E-05
   3.94919991         8.44072856E-05
   3.96120000         8.22109287E-05
   3.97320008         7.98805122E-05
   3.98519993         7.75188018E-05
   3.99720001         7.52293054E-05
   4.00920010         7.31122273E-05
   4.02120018         7.12606197E-05
   4.03319979         6.97569558E-05
   4.04519987         6.86701023E-05
   4.05719995         6.80528683E-05
   4.06920004         6.79401928E-05
   4.08120012         6.83478793E-05
   4.09320021         6.92721442E-05
   4.10519981         7.06897335E-05
   4.11719990         7.25588106E-05
   4.12919998         7.48204475E-05
   4.14120007         7.74007349E-05
   4.15320015         8.02135328E-05
   4.16520023         8.31636280E-05
   4.17719984         8.61503358E-05
   4.18919992         8.90713491E-05
   4.20120001         9.18267324E-05
   4.21320009         9.43228806E-05
   4.22520018         9.64762949E-05
   4.23719978         9.82170604E-05
   4.24919987         9.94918009E-05
   4.26119995         1.00265970E-04
   4.27320004         1.00525409E-04
   4.28520012         1.00277073E-04
   4.29720020         9.95488008E-05
   4.30919981         9.83882419E-05
   4.32119989         9.68609020E-05
   4.33319998         9.50473259E-05
   4.34520006         9.30397728E-05
   4.35720015         9.09382143E-05
   4.36920023         8.88461655E-05
   4.38119984         8.68662974E-05
   4.39319992         8.50961806E-05
   4.40520000         8.36242980E-05
   4.41720009         8.25264869E-05
   4.42920017         8.18630360E-05
   4.44119978         8.16764586E-05
   4.45319986         8.19900961E-05
   4.46519995         8.28075863E-05
   4.47720003         8.41131114E-05
   4.48920012         8.58725398E-05
   4.50120020         8.80352018E-05
   4.51319981         9.05363704E-05
   4.52519989         9.33001647E-05
   4.53719997         9.62428312E-05
   4.54920006         9.92761998E-05
   4.56120014         1.02311198E-04
   4.57320023         1.05261250E-04
   4.58519983         1.08045431E-04
   4.59719992         1.10591289E-04
   4.60920000         1.12837195E-04
   4.62120008         1.14734154E-04
   4.63320017         1.16247189E-04
   4.64519978         1.17355885E-04
   4.65719986         1.18054588E-04
   4.66919994         1.18351891E-04
   4.68120003         1.18269643E-04
   4.69320011         1.17841482E-04
   4.70520020         1.17111020E-04
   4.71719980         1.16129660E-04
   4.72919989         1.14954244E-04
   4.74119997         1.13644623E-04
   4.75320005         1.12261194E-04
   4.76520014         1.10862507E-04
   4.77720022         1.09503184E-04
   4.78919983         1.08231943E-04
   4.80119991         1.07090062E-04
   4.81320000         1.06110179E-04
   4.82520008         1.05315492E-04
   4.83720016         1.04719380E-04
   4.84919977         1.04325394E-04
   4.86119986         1.04127656E-04
   4.87319994         1.04111510E-04
   4.88520002         1.04254585E-04
   4.89720011         1.04527920E-04
   4.90920019         1.04897415E-04
   4.92119980         1.05325264E-04
   4.93319988         1.05771571E-04
   4.94519997         1.06195919E-04
   4.95720005         1.06558960E-04
   4.96920013         1.06823922E-04
   4.98120022         1.06958025E-04
   4.99319983         1.06933832E-04
   5.00519991         1.06730418E-04
   5.01719999         1.06334381E-04
   5.02920008         1.05740626E-04
   5.04120016         1.04952989E-04
   5.05319977         1.03984537E-04
   5.06519985         1.02857593E-04
   5.07719994         1.01603466E-04
   5.08920002         1.00261816E-04
   5.10120010         9.88796673E-05
   5.11320019         9.75100993E-05
   5.12519979         9.62105260E-05
   5.13719988         9.50407702E-05
   5.14919996         9.40607933E-05
   5.16120005         9.33283154E-05
   5.17320013         9.28963564E-05
   5.18520021         9.28107038E-05
   5.19719982         9.31076647E-05
   5.20919991         9.38119119E-05
   5.22119999         9.49348178E-05
   5.23320007         9.64732171E-05
   5.24520016         9.84087601E-05
   5.25719976         1.00707854E-04
   5.26919985         1.03322374E-04
   5.28119993         1.06190899E-04
   5.29320002         1.09240747E-04
   5.30520010         1.12390393E-04
   5.31720018         1.15552481E-04
   5.32919979         1.18636999E-04
   5.34119987         1.21554738E-04
   5.35319996         1.24220605E-04
   5.36520004         1.26556784E-04
   5.37720013         1.28495565E-04
   5.38920021         1.29981709E-04
   5.40119982         1.30974149E-04
   5.41319990         1.31447116E-04
   5.42519999         1.31390538E-04
   5.43720007         1.30809785E-04
   5.44920015         1.29724882E-04
   5.46120024         1.28169137E-04
   5.47319984         1.26187268E-04
   5.48519993         1.23833452E-04
   5.49720001         1.21169040E-04
   5.50920010         1.18260286E-04
   5.52120018         1.15176132E-04
   5.53319979         1.11986083E-04
   5.54519987         1.08758373E-04
   5.55719995         1.05558305E-04
   5.56920004         1.02446829E-04
   5.58120012         9.94794173E-05
   5.59320021         9.67051092E-05
   5.60519981         9.41658000E-05
   5.61719990         9.18956648E-05
   5.62919998         8.99207225E-05
   5.64120007         8.82585373E-05
   5.65320015         8.69180221E-05
   5.66520023         8.58994390E-05
   5.67719984         8.51944496E-05
   5.68919992         8.47864503E-05
   5.70120001         8.46511030E-05
   5.71320009         8.47571282E-05
   5.72520018         8.50673896E-05
   5.73719978         8.55402541E-05
   5.74919987         8.61312146E-05
   5.76119995         8.67946874E-05
   5.77320004         8.74859761E-05
   5.78520012         8.81631495E-05
   5.79720020         8.87889837E-05
   5.80919981         8.93325778E-05
   5.82119989         8.97706705E-05
   5.83319998         9.00885716E-05
   5.84520006         9.02805768E-05
   5.85720015         9.03498149E-05
   5.86920023         9.03075997E-05
   5.88119984         9.01722160E-05
   5.89319992         8.99673541E-05
   5.90520000         8.97200807E-05
   5.91720009         8.94587793E-05
   5.92920017         8.92109965E-05
   5.94119978         8.90014708E-05
   5.95319986         8.88504801E-05
   5.96519995         8.87726128E-05
   5.97720003         8.87761489E-05
   5.98920012         8.88629438E-05
   6.00120020         8.90290321E-05
   6.01319981         8.92656753E-05
   6.02519989         8.95608973E-05
   6.03719997         8.99013830E-05
   6.04920006         9.02744359E-05
   6.06120014         9.06699643E-05
   6.07320023         9.10822782E-05
   6.08519983         9.15114942E-05
   6.09719992         9.19644008E-05
   6.10920000         9.24547494E-05
   6.12120008         9.30028837E-05
   6.13320017         9.36346696E-05
   6.14519978         9.43798659E-05
   6.15719986         9.52699265E-05
   6.16919994         9.63355051E-05
   6.18120003         9.76038355E-05
   6.19320011         9.90960325E-05
   6.20520020         1.00824778E-04
   6.21719980         1.02792314E-04
   6.22919989         1.04989107E-04
   6.24119997         1.07393207E-04
   6.25320005         1.09970322E-04
   6.26520014         1.12674759E-04
   6.27720022         1.15450952E-04
   6.28919983         1.18235825E-04
   6.30119991         1.20961413E-04
   6.31320000         1.23557926E-04
   6.32520008         1.25956896E-04
   6.33720016         1.28094223E-04
   6.34919977         1.29912922E-04
   6.36119986         1.31365392E-04
   6.37319994         1.32415182E-04
   6.38520002         1.33038018E-04
   6.39720011         1.33222085E-04
   6.40920019         1.32967805E-04
   6.42119980         1.32286848E-04
   6.43319988         1.31200679E-04
   6.44519997         1.29738837E-04
   6.45720005         1.27936903E-04
   6.46920013         1.25834558E-04
   6.48120022         1.23473714E-04
   6.49319983         1.20896890E-04
   6.50519991         1.18145974E-04
   6.51719999         1.15261471E-04
   6.52920008         1.12282032E-04
   6.54120016         1.09244567E-04
   6.55319977         1.06184540E-04
   6.56519985         1.03136663E-04
   6.57719994         1.00135629E-04
   6.58920002         9.72168491E-05
   6.60120010         9.44170824E-05
   6.61320019         9.17748985E-05
   6.62519979         8.93306642E-05
   6.63719988         8.71262673E-05
   6.64919996         8.52044395E-05
   6.66120005         8.36076506E-05
   6.67320013         8.23768059E-05
   6.68520021         8.15496242E-05
   6.69719982         8.11590216E-05
   6.70919991         8.12314902E-05
   6.72119999         8.17856780E-05
   6.73320007         8.28311822E-05
   6.74520016         8.43676899E-05
   6.75719976         8.63845562E-05
   6.76919985         8.88606955E-05
   6.78119993         9.17649231E-05
   6.79320002         9.50565809E-05
   6.80520010         9.86864688E-05
   6.81720018         1.02597936E-04
   6.82919979         1.06728126E-04
   6.84119987         1.11009205E-04
   6.85319996         1.15369607E-04
   6.86520004         1.19735188E-04
   6.87720013         1.24030368E-04
   6.88920021         1.28179119E-04
   6.90119982         1.32105954E-04
   6.91319990         1.35736904E-04
   6.92519999         1.39000520E-04
   6.93720007         1.41829063E-04
   6.94920015         1.44159640E-04
   6.96120024         1.45935686E-04
   6.97319984         1.47108512E-04
   6.98519993         1.47638799E-04
   6.99720001         1.47498329E-04
   7.00920010         1.46671533E-04
   7.02120018         1.45156882E-04
   7.03319979         1.42967911E-04
   7.04519987         1.40134027E-04
   7.05719995         1.36700590E-04
   7.06920004         1.32728543E-04
   7.08120012         1.28293468E-04
   7.09320021         1.23483900E-04
   7.10519981         1.18399119E-04
   7.11719990         1.13146511E-04
   7.12919998         1.07838452E-04
   7.14120007         1.02588987E-04
   7.15320015         9.75104776E-05
   7.16520023         9.27103465E-05
   7.17719984         8.82880486E-05
   7.18919992         8.43325615E-05
   7.20120001         8.09202975E-05
   7.21320009         7.81136187E-05
   7.22520018         7.59599934E-05
   7.23719978         7.44916397E-05
   7.24919987         7.37258015E-05
   7.26119995         7.36653092E-05
   7.27320004         7.42995035E-05
   7.28520012         7.56053560E-05
   7.29720020         7.75485460E-05
   7.30919981         8.00846319E-05
   7.32119989         8.31600119E-05
   7.33319998         8.67127528E-05
   7.34520006         9.06732384E-05
   7.35720015         9.49647656E-05
   7.36920023         9.95039591E-05
   7.38119984         1.04201346E-04
   7.39319992         1.08961984E-04
   7.40520000         1.13686387E-04
   7.41720009         1.18271819E-04
   7.42920017         1.22613958E-04
   7.44119978         1.26609055E-04
   7.45319986         1.30156506E-04
   7.46519995         1.33161811E-04
   7.47720003         1.35539711E-04
   7.48920012         1.37217561E-04
   7.50120020         1.38138319E-04
   7.51319981         1.38263567E-04
   7.52519989         1.37575771E-04
   7.53719997         1.36079849E-04
   7.54920006         1.33804031E-04
   7.56120014         1.30799628E-04
   7.57320023         1.27139792E-04
   7.58519983         1.22917452E-04
   7.59719992         1.18242249E-04
   7.60920000         1.13236681E-04
   7.62120008         1.08031832E-04
   7.63320017         1.02762671E-04
   7.64519978         9.75632574E-05
   7.65719986         9.25622153E-05
   7.66919994         8.78784922E-05
   7.68120003         8.36178224E-05
   7.69320011         7.98698748E-05
   7.70520020         7.67063902E-05
   7.71719980         7.41801341E-05
   7.72919989         7.23248668E-05
   7.74119997         7.11560497E-05
   7.75320005         7.06723076E-05
   7.76520014         7.08574153E-05
   7.77720022         7.16826326E-05
   7.78919983         7.31091277E-05
   7.80119991         7.50903855E-05
   7.81320000         7.75744120E-05
   7.82520008         8.05055388E-05
   7.83720016         8.38259220E-05
   7.84919977         8.74764519E-05
   7.86119986         9.13973345E-05
   7.87319994         9.55283540E-05
   7.88520002         9.98087271E-05
   7.89720011         1.04177037E-04
   7.90920019         1.08571039E-04
   7.92119980         1.12927679E-04
   7.93319988         1.17183394E-04
   7.94519997         1.21274730E-04
   7.95720005         1.25139384E-04
   7.96920013         1.28717642E-04
   7.98120022         1.31954090E-04
   7.99319983         1.34799629E-04
   8.00520039         1.37213385E-04
   8.01720047         1.39164709E-04
   8.02919960         1.40634773E-04
   8.04119968         1.41617813E-04
   8.05319977         1.42121644E-04
   8.06519985         1.42167744E-04
   8.07719994         1.41790297E-04
   8.08920002         1.41034820E-04
   8.10120010         1.39955955E-04
   8.11320019         1.38614821E-04
   8.12520027         1.37075913E-04
   8.13720036         1.35404029E-04
   8.14920044         1.33661058E-04
   8.16119957         1.31903274E-04
   8.17319965         1.30178974E-04
   8.18519974         1.28526794E-04
   8.19719982         1.26974730E-04
   8.20919991         1.25540013E-04
   8.22119999         1.24229715E-04
   8.23320007         1.23041915E-04
   8.24520016         1.21967561E-04
   8.25720024         1.20992547E-04
   8.26920033         1.20100049E-04
   8.28120041         1.19272721E-04
   8.29319954         1.18494732E-04
   8.30519962         1.17753327E-04
   8.31719971         1.17039912E-04
   8.32919979         1.16350522E-04
   8.34119987         1.15685660E-04
   8.35319996         1.15049545E-04
   8.36520004         1.14448936E-04
   8.37720013         1.13891518E-04
   8.38920021         1.13384172E-04
   8.40120029         1.12931244E-04
   8.41320038         1.12532980E-04
   8.42520046         1.12184331E-04
   8.43719959         1.11874229E-04
   8.44919968         1.11585505E-04
   8.46119976         1.11295310E-04
   8.47319984         1.10976245E-04
   8.48519993         1.10597968E-04
   8.49720001         1.10129244E-04
   8.50920010         1.09540233E-04
   8.52120018         1.08804918E-04
   8.53320026         1.07903339E-04
   8.54520035         1.06823652E-04
   8.55720043         1.05563566E-04
   8.56919956         1.04131308E-04
   8.58119965         1.02545811E-04
   8.59319973         1.00836231E-04
   8.60519981         9.90406697E-05
   8.61719990         9.72043708E-05
   8.62919998         9.53773342E-05
   8.64120007         9.36116485E-05
   8.65320015         9.19586892E-05
   8.66520023         9.04663684E-05
   8.67720032         8.91767049E-05
   8.68920040         8.81237575E-05
   8.70119953         8.73322497E-05
   8.71319962         8.68167626E-05
   8.72519970         8.65817201E-05
   8.73719978         8.66220071E-05
   8.74919987         8.69242504E-05
   8.76119995         8.74685211E-05
   8.77320004         8.82304084E-05
   8.78520012         8.91831878E-05
   8.79720020         9.02999454E-05
   8.80920029         9.15553901E-05
   8.82120037         9.29273301E-05
   8.83320045         9.43974810E-05
   8.84519958         9.59518366E-05
   8.85719967         9.75802759E-05
   8.86919975         9.92757123E-05
   8.88119984         1.01032725E-04
   8.89319992         1.02845959E-04
   8.90520000         1.04708357E-04
   8.91720009         1.06609470E-04
   8.92920017         1.08534085E-04
   8.94120026         1.10461267E-04
   8.95320034         1.12363989E-04
   8.96520042         1.14209397E-04
   8.97719955         1.15959818E-04
   8.98919964         1.17574295E-04
   9.00119972         1.19010772E-04
   9.01319981         1.20228549E-04
   9.02519989         1.21191042E-04
   9.03719997         1.21868303E-04
   9.04920006         1.22239493E-04
   9.06120014         1.22294703E-04
   9.07320023         1.22036188E-04
   9.08520031         1.21478828E-04