 -0.622799993       0.00000000    
 -0.610800028       0.00000000    
 -0.598800004       0.00000000    
 -0.586799979       0.00000000    
 -0.574800014       0.00000000    
 -0.562799990       0.00000000    
 -0.550800025      -2.34160533E-27
 -0.538800001      -2.79071255E-26
 -0.526799977      -1.76670762E-25
 -0.514800012      -7.87506086E-25
 -0.502799988      -2.76376728E-24
 -0.490799993      -8.09467530E-24
 -0.478799999      -2.04776395E-23
 -0.466800004      -4.57308631E-23
 -0.454800010      -9.14820472E-23
 -0.442799985      -1.65672541E-22
 -0.430799991      -2.74024984E-22
 -0.418799996      -4.17872571E-22
 -0.406800002      -5.95171647E-22
 -0.394800007      -8.07958609E-22
 -0.382800013      -1.07752584E-21
 -0.370799989      -1.46342548E-21
 -0.358799994      -2.07519825E-21
 -0.346799999      -3.06013307E-21
 -0.334800005      -4.55184890E-21
 -0.322800010      -6.57834123E-21
 -0.310799986      -8.95642894E-21
 -0.298799992      -1.12379934E-20
 -0.286799997      -1.28084782E-20
 -0.274800003      -1.32448467E-20
 -0.262800008      -1.29831038E-20
 -0.250800014      -1.41890653E-20
 -0.238800004      -2.14611154E-20
 -0.226799995      -4.16812433E-20
 -0.214800000      -8.21471515E-20
 -0.202800006      -1.46355496E-19
 -0.190799996      -2.27774754E-19
 -0.178800002      -3.03739480E-19
 -0.166800007      -3.33781543E-19
 -0.154799998      -2.68091615E-19
 -0.142800003      -7.05640639E-20
 -0.130799994       2.44665653E-19
 -0.118799999       5.74335901E-19
 -0.106799997       7.07768871E-19
  -9.48000029E-02   3.59268244E-19
  -8.28000009E-02  -7.24922374E-19
  -7.07999989E-02  -2.58789886E-18
  -5.88000007E-02  -4.86105880E-18
  -4.67999987E-02  -6.64324549E-18
  -3.48000005E-02  -6.59429294E-18
  -2.28000004E-02  -3.35254028E-18
  -1.08000003E-02   3.72112203E-18
   1.20000006E-03   1.36546848E-17
   1.31999999E-02   2.32229865E-17
   2.52000000E-02   2.70746736E-17
   3.72000001E-02   1.90806629E-17
   4.91999984E-02  -5.00373547E-18
   6.12000003E-02  -4.41068849E-17
   7.32000023E-02  -8.89219423E-17
   8.51999968E-02  -1.21299816E-16
   9.71999988E-02  -1.17650838E-16
  0.109200001      -5.70378818E-17
  0.121200003       6.72729846E-17
  0.133200005       2.36392258E-16
  0.145199999       3.99977269E-16
  0.157199994       4.81698479E-16
  0.169200003       3.99403299E-16
  0.181199998       9.83675707E-17
  0.193200007      -4.10662828E-16
  0.205200002      -1.02302786E-15
  0.217199996      -1.53818843E-15
  0.229200006      -1.69733385E-15
  0.241200000      -1.26256116E-15
  0.253199995      -1.22978371E-16
  0.265199989       1.60427617E-15
  0.277200013       3.52113544E-15
  0.289200008       4.98454791E-15
  0.301200002       5.25227893E-15
  0.313199997       3.72416416E-15
  0.325199991       2.21881816E-16
  0.337199986      -4.78481373E-15
  0.349200010      -1.01091070E-14
  0.361200005      -1.40149707E-14
  0.373199999      -1.46397160E-14
  0.385199994      -1.06014830E-14
  0.397199988      -1.63370643E-15
  0.409200013       1.09679755E-14
  0.421200007       2.42963981E-14
  0.433200002       3.43109601E-14
  0.445199996       3.68264447E-14
  0.457199991       2.88183309E-14
  0.469199985       9.69619875E-15
  0.481200010      -1.78752446E-14
  0.493200004      -4.79763663E-14
  0.505200028      -7.24388065E-14
  0.517199993      -8.27617394E-14
  0.529200017      -7.25385667E-14
  0.541199982      -3.97623219E-14
  0.553200006       1.16966373E-14
  0.565199971       7.20175804E-14
  0.577199996       1.27014488E-13
  0.589200020       1.61190560E-13
  0.601199985       1.61630841E-13
  0.613200009       1.21790273E-13
  0.625199974       4.41562477E-14
  0.637199998      -5.90390841E-14
  0.649200022      -1.67448805E-13
  0.661199987      -2.56412621E-13
  0.673200011      -3.02209700E-13
  0.685199976      -2.87650790E-13
  0.697200000      -2.06757273E-13
  0.709200025      -6.74192622E-14
  0.721199989       1.08691952E-13
  0.733200014       2.89146582E-13
  0.745199978       4.36332909E-13
  0.757200003       5.14698364E-13
  0.769200027       4.98395108E-13
  0.781199992       3.77880154E-13
  0.793200016       1.64043976E-13
  0.805199981      -1.11308423E-13
  0.817200005      -3.99294801E-13
  0.829200029      -6.42038018E-13
  0.841199994      -7.83997433E-13
  0.853200018      -7.84594069E-13
  0.865199983      -6.29420073E-13
  0.877200007      -3.37045875E-13
  0.889199972       4.11142034E-14
  0.901199996       4.29140149E-13
  0.913200021       7.42448583E-13
  0.925199986       9.08196424E-13
  0.937200010       8.85404543E-13
  0.949199975       6.79092416E-13
  0.961199999       3.43392415E-13
  0.973200023      -2.90265824E-14
  0.985199988      -3.30251153E-13
  0.997200012      -4.68118437E-13
   1.00919998      -3.96688352E-13
   1.02119994      -1.36756342E-13
   1.03320003       2.21507925E-13
   1.04519999       5.37460647E-13
   1.05719995       6.58012707E-13
   1.06920004       4.66093798E-13
   1.08120000      -7.37059136E-14
   1.09319997      -8.86773511E-13
   1.10520005      -1.78885205E-12
   1.11720002      -2.51981292E-12
   1.12919998      -2.80641808E-12
   1.14119995      -2.44076742E-12
   1.15320003      -1.35494675E-12
   1.16520000       3.29094960E-13
   1.17719996       2.29147148E-12
   1.18920004       4.05649169E-12
   1.20120001       5.08213220E-12
   1.21319997       4.88284066E-12
   1.22520006       3.16328105E-12
   1.23720002      -6.31075392E-14
   1.24919999      -4.39555944E-12
   1.26119995      -9.02652866E-12
   1.27320004      -1.27919741E-11
   1.28520000      -1.42925160E-11
   1.29719996      -1.20772290E-11
   1.30920005      -4.87288595E-12
   1.32120001       8.16748492E-12
   1.33319998       2.72325062E-11
   1.34519994       5.16827518E-11
   1.35720003       7.99988131E-11
   1.36919999       1.09908256E-10
   1.38119996       1.38750553E-10
   1.39320004       1.64125963E-10
   1.40520000       1.84846818E-10
   1.41719997       2.02170128E-10
   1.42920005       2.21241248E-10
   1.44120002       2.52630472E-10
   1.45319998       3.13804788E-10
   1.46519995       4.30360469E-10
   1.47720003       6.36856068E-10
   1.48920000       9.77138925E-10
   1.50119996       1.50415147E-09
   1.51320004       2.27934738E-09
   1.52520001       3.37202777E-09
   1.53719997       4.85912244E-09
   1.54920006       6.82621959E-09
   1.56120002       9.37093070E-09
   1.57319999       1.26099780E-08
   1.58519995       1.66917484E-08
   1.59720004       2.18163159E-08
   1.60920000       2.82652088E-08
   1.62119997       3.64432786E-08
   1.63320005       4.69350638E-08
   1.64520001       6.05777188E-08
   1.65719998       7.85521337E-08
   1.66919994       1.02493033E-07
   1.68120003       1.34617849E-07
   1.69319999       1.77872693E-07
   1.70519996       2.36092319E-07
   1.71720004       3.14168972E-07
   1.72920001       4.18223294E-07
   1.74119997       5.55768622E-07
   1.75320005       7.35858009E-07
   1.76520002       9.69201437E-07
   1.77719998       1.26824102E-06
   1.78919995       1.64716812E-06
   1.80120003       2.12187069E-06
   1.81320000       2.70979581E-06
   1.82519996       3.42971566E-06
   1.83720005       4.30139016E-06
   1.84920001       5.34511946E-06
   1.86119998       6.58118734E-06
   1.87320006       8.02919749E-06
   1.88520002       9.70731980E-06
   1.89719999       1.16314577E-05
   1.90919995       1.38143669E-05
   1.92120004       1.62647557E-05
   1.93320000       1.89863913E-05
   1.94519997       2.19772664E-05
   1.95720005       2.52288701E-05
   1.96920002       2.87255898E-05
   1.98119998       3.24443026E-05
   1.99319994       3.63541949E-05
   2.00519991       4.04168495E-05
   2.01719999       4.45865917E-05
   2.02920008       4.88111837E-05
   2.04119992       5.30328070E-05
   2.05320001       5.71892851E-05
   2.06520009       6.12156873E-05
   2.07719994       6.50460497E-05
   2.08920002       6.86153289E-05
   2.10120010       7.18614392E-05
   2.11319995       7.47273298E-05
   2.12520003       7.71629857E-05
   2.13720012       7.91272687E-05
   2.14919996       8.05895761E-05
   2.16120005       8.15311359E-05
   2.17319989       8.19459237E-05
   2.18519998       8.18411791E-05
   2.19720006       8.12373764E-05
   2.20919991       8.01677743E-05
   2.22119999       7.86774108E-05
   2.23320007       7.68217360E-05
   2.24519992       7.46647420E-05
   2.25720000       7.22768455E-05
   2.26920009       6.97324867E-05
   2.28119993       6.71076559E-05
   2.29320002       6.44773099E-05
   2.30520010       6.19129496E-05
   2.31719995       5.94803423E-05
   2.32920003       5.72375757E-05
   2.34120011       5.52333986E-05
   2.35319996       5.35060572E-05
   2.36520004       5.20825270E-05
   2.37719989       5.09782803E-05
   2.38919997       5.01974537E-05
   2.40120006       4.97335059E-05
   2.41319990       4.95702552E-05
   2.42519999       4.96832436E-05
   2.43720007       5.00413335E-05
   2.44919991       5.06085235E-05
   2.46120000       5.13458035E-05
   2.47320008       5.22130467E-05
   2.48519993       5.31708138E-05
   2.49720001       5.41819900E-05
   2.50920010       5.52132806E-05
   2.52119994       5.62363675E-05
   2.53320003       5.72288482E-05
   2.54520011       5.81748027E-05
   2.55719995       5.90650525E-05
   2.56920004       5.98970801E-05
   2.58119988       6.06746798E-05
   2.59319997       6.14072414E-05
   2.60520005       6.21088475E-05
   2.61719990       6.27971676E-05
   2.62919998       6.34922035E-05
   2.64120007       6.42149389E-05
   2.65319991       6.49860231E-05
   2.66520000       6.58245117E-05
   2.67720008       6.67467320E-05
   2.68919992       6.77652861E-05
   2.70120001       6.88884393E-05
   2.71320009       7.01195968E-05
   2.72519994       7.14572889E-05
   2.73720002       7.28952655E-05
   2.74920011       7.44230492E-05
   2.76119995       7.60266485E-05
   2.77320004       7.76895467E-05
   2.78520012       7.93937434E-05
   2.79719996       8.11209975E-05
   2.80920005       8.28538905E-05
   2.82119989       8.45769246E-05
   2.83319998       8.62773450E-05
   2.84520006       8.79457439E-05
   2.85719991       8.95764606E-05
   2.86919999       9.11675234E-05
   2.88120008       9.27204164E-05
   2.89319992       9.42395127E-05
   2.90520000       9.57312586E-05
   2.91720009       9.72032285E-05
   2.92919993       9.86631203E-05
   2.94120002       1.00117672E-04
   2.95320010       1.01571772E-04
   2.96519995       1.03027713E-04
   2.97720003       1.04484745E-04
   2.98920012       1.05938816E-04
   3.00119996       1.07382824E-04
   3.01320004       1.08807020E-04
   3.02519989       1.10199879E-04
   3.03719997       1.11549045E-04
   3.04920006       1.12842608E-04
   3.06119990       1.14070353E-04
   3.07319999       1.15224939E-04
   3.08520007       1.16303054E-04
   3.09719992       1.17306248E-04
   3.10920000       1.18241449E-04
   3.12120008       1.19121141E-04
   3.13319993       1.19963021E-04
   3.14520001       1.20789271E-04
   3.15720010       1.21625373E-04
   3.16919994       1.22498503E-04
   3.18120003       1.23435602E-04
   3.19320011       1.24461207E-04
   3.20519996       1.25595179E-04
   3.21720004       1.26850253E-04
   3.22919989       1.28229833E-04
   3.24119997       1.29725930E-04
   3.25320005       1.31317414E-04
   3.26519990       1.32968635E-04
   3.27719998       1.34628572E-04
   3.28920007       1.36230621E-04
   3.30119991       1.37692710E-04
   3.31320000       1.38918331E-04
   3.32520008       1.39797892E-04
   3.33719993       1.40210861E-04
   3.34920001       1.40028264E-04
   3.36120009       1.39115858E-04
   3.37319994       1.37337556E-04
   3.38520002       1.34559275E-04
   3.39720011       1.30652887E-04
   3.40919995       1.25500446E-04
   3.42120004       1.18998301E-04
   3.43319988       1.11061141E-04
   3.44519997       1.01625723E-04
   3.45720005       9.06543064E-05
   3.46919990       7.81375566E-05
   3.48119998       6.40968574E-05
   3.49320006       4.85859127E-05
   3.50519991       3.16915430E-05
   3.51719999       1.35336277E-05
   3.52920008      -5.73586976E-06
   3.54119992      -2.59348180E-05
   3.55320001      -4.68537291E-05
   3.56520009      -6.82594691E-05
   3.57719994      -8.98997387E-05
   3.58920002      -1.11508278E-04
   3.60120010      -1.32810572E-04
   3.61319995      -1.53529982E-04
   3.62520003      -1.73394015E-04
   3.63720012      -1.92140767E-04
   3.64919996      -2.09524893E-04
   3.66120005      -2.25323442E-04
   3.67319989      -2.39341054E-04
   3.68519998      -2.51414400E-04
   3.69720006      -2.61415727E-04
   3.70919991      -2.69255368E-04
   3.72119999      -2.74883234E-04
   3.73320007      -2.78289284E-04
   3.74519992      -2.79502681E-04
   3.75720000      -2.78590131E-04
   3.76920009      -2.75653059E-04
   3.78119993      -2.70824152E-04
   3.79320002      -2.64263013E-04
   3.80520010      -2.56151543E-04
   3.81719995      -2.46688753E-04
   3.82920003      -2.36085674E-04
   3.84120011      -2.24560019E-04
   3.85319996      -2.12331404E-04
   3.86520004      -1.99616552E-04
   3.87719989      -1.86625242E-04
   3.88919997      -1.73556546E-04
   3.90120006      -1.60595970E-04
   3.91319990      -1.47912986E-04
   3.92519999      -1.35659167E-04
   3.93720007      -1.23967169E-04
   3.94919991      -1.12949994E-04
   3.96120000      -1.02700775E-04
   3.97320008      -9.32930270E-05
   3.98519993      -8.47811098E-05
   3.99720001      -7.72010317E-05
   4.00920010      -7.05712882E-05
   4.02120018      -6.48939895E-05
   4.03319979      -6.01559477E-05
   4.04519987      -5.63298818E-05
   4.05719995      -5.33756756E-05
   4.06920004      -5.12416955E-05
   4.08120012      -4.98661102E-05
   4.09320021      -4.91783758E-05
   4.10519981      -4.91006795E-05
   4.11719990      -4.95495551E-05
   4.12919998      -5.04375457E-05
   4.14120007      -5.16749096E-05
   4.15320015      -5.31714541E-05
   4.16520023      -5.48383177E-05
   4.17719984      -5.65897972E-05
   4.18919992      -5.83450928E-05
   4.20120001      -6.00299500E-05
   4.21320009      -6.15781391E-05
   4.22520018      -6.29327478E-05
   4.23719978      -6.40471844E-05
   4.24919987      -6.48859059E-05
   4.26119995      -6.54248506E-05
   4.27320004      -6.56514967E-05
   4.28520012      -6.55646145E-05
   4.29720020      -6.51736409E-05
   4.30919981      -6.44977990E-05
   4.32119989      -6.35648466E-05
   4.33319998      -6.24096574E-05
   4.34520006      -6.10725765E-05
   4.35720015      -5.95976890E-05
   4.36920023      -5.80309461E-05
   4.38119984      -5.64184083E-05
   4.39319992      -5.48045100E-05
   4.40520000      -5.32304912E-05
   4.41720009      -5.17330445E-05
   4.42920017      -5.03431911E-05
   4.44119978      -4.90854800E-05
   4.45319986      -4.79774462E-05
   4.46519995      -4.70294326E-05
   4.47720003      -4.62447024E-05
   4.48920012      -4.56198177E-05
   4.50120020      -4.51453234E-05
   4.51319981      -4.48066385E-05
   4.52519989      -4.45850783E-05
   4.53719997      -4.44590478E-05
   4.54920006      -4.44052384E-05
   4.56120014      -4.43998579E-05
   4.57320023      -4.44197613E-05
   4.58519983      -4.44434882E-05
   4.59719992      -4.44520992E-05
   4.60920000      -4.44298821E-05
   4.62120008      -4.43647550E-05
   4.63320017      -4.42485034E-05
   4.64519978      -4.40767290E-05
   4.65719986      -4.38486277E-05
   4.66919994      -4.35665424E-05
   4.68120003      -4.32353772E-05
   4.69320011      -4.28618841E-05
   4.70520020      -4.24538630E-05
   4.71719980      -4.20193646E-05
   4.72919989      -4.15659269E-05
   4.74119997      -4.10998764E-05
   4.75320005      -4.06257495E-05
   4.76520014      -4.01459038E-05
   4.77720022      -3.96602773E-05
   4.78919983      -3.91663634E-05
   4.80119991      -3.86593783E-05
   4.81320000      -3.81326390E-05
   4.82520008      -3.75780837E-05
   4.83720016      -3.69869413E-05
   4.84919977      -3.63505023E-05
   4.86119986      -3.56609125E-05
   4.87319994      -3.49119655E-05
   4.88520002      -3.40997867E-05
   4.89720011      -3.32234449E-05
   4.90920019      -3.22853484E-05
   4.92119980      -3.12914599E-05
   4.93319988      -3.02512399E-05
   4.94519997      -2.91773958E-05
   4.95720005      -2.80853583E-05
   4.96920013      -2.69925858E-05
   4.98120022      -2.59176504E-05
   4.99319983      -2.48792239E-05
   5.00519991      -2.38949742E-05
   5.01719999      -2.29804664E-05
   5.02920008      -2.21481077E-05
   5.04120016      -2.14062529E-05
   5.05319977      -2.07584708E-05
   5.06519985      -2.02031133E-05
   5.07719994      -1.97331610E-05
   5.08920002      -1.93364049E-05
   5.10120010      -1.89959810E-05
   5.11320019      -1.86912093E-05
   5.12519979      -1.83987413E-05
   5.13719988      -1.80939351E-05
   5.14919996      -1.77523580E-05
   5.16120005      -1.73513909E-05
   5.17320013      -1.68717706E-05
   5.18520021      -1.62989872E-05
   5.19719982      -1.56244623E-05
   5.20919991      -1.48463814E-05
   5.22119999      -1.39701215E-05
   5.23320007      -1.30082399E-05
   5.24520016      -1.19799624E-05
   5.25719976      -1.09102148E-05
   5.26919985      -9.82821621E-06
   5.28119993      -8.76571357E-06
   5.29320002      -7.75495209E-06
   5.30520010      -6.82651262E-06
   5.31720018      -6.00714293E-06
   5.32919979      -5.31773730E-06
   5.34119987      -4.77159347E-06
   5.35319996      -4.37308336E-06
   5.36520004      -4.11684232E-06
   5.37720013      -3.98755174E-06
   5.38920021      -3.96035603E-06
   5.40119982      -4.00192221E-06
   5.41319990      -4.07209791E-06
   5.42519999      -4.12608460E-06
   5.43720007      -4.11701376E-06
   5.44920015      -3.99876717E-06
   5.46120024      -3.72887553E-06
   5.47319984      -3.27131261E-06
   5.48519993      -2.59899343E-06
   5.49720001      -1.69582563E-06
   5.50920010      -5.58162526E-07
   5.52120018       8.04436581E-07
   5.53319979       2.36921005E-06
   5.54519987       4.10096300E-06
   5.55719995       5.95358142E-06
   5.56920004       7.87220506E-06
   5.58120012       9.79594461E-06
   5.59320021       1.16609926E-05
   5.60519981       1.34039547E-05
   5.61719990       1.49652142E-05
   5.62919998       1.62921406E-05
   5.64120007       1.73419503E-05
   5.65320015       1.80840943E-05
   5.66520023       1.85019890E-05
   5.67719984       1.85940589E-05
   5.68919992       1.83739994E-05
   5.70120001       1.78702794E-05
   5.71320009       1.71249085E-05
   5.72520018       1.61915686E-05
   5.73719978       1.51331933E-05
   5.74919987       1.40191551E-05
   5.76119995       1.29221708E-05
   5.77320004       1.19151191E-05
   5.78520012       1.10678748E-05
   5.79720020       1.04443279E-05
   5.80919981       1.00996949E-05
   5.82119989       1.00782236E-05
   5.83319998       1.04113606E-05
   5.84520006       1.11164563E-05
   5.85720015       1.21960184E-05
   5.86920023       1.36375238E-05
   5.88119984       1.54137851E-05
   5.89319992       1.74838297E-05
   5.90520000       1.97942354E-05
   5.91720009       2.22809085E-05
   5.92920017       2.48711767E-05
   5.94119978       2.74861795E-05
   5.95319986       3.00434458E-05
   5.96519995       3.24595931E-05
   5.97720003       3.46530978E-05
   5.98920012       3.65469750E-05
   6.00120020       3.80713973E-05
   6.01319981       3.91660687E-05
   6.02519989       3.97823496E-05
   6.03719997       3.98850316E-05
   6.04920006       3.94536983E-05
   6.06120014       3.84836421E-05
   6.07320023       3.69862646E-05
   6.08519983       3.49889706E-05
   6.09719992       3.25345245E-05
   6.10920000       2.96798971E-05
   6.12120008       2.64946375E-05
   6.13320017       2.30587957E-05
   6.14519978       1.94604891E-05
   6.15719986       1.57931827E-05
   6.16919994       1.21527682E-05
   6.18120003       8.63455625E-06
   6.19320011       5.33026787E-06
   6.20520020       2.32514753E-06
   6.21719980      -3.04717418E-07
   6.22919989      -2.49477193E-06
   6.24119997      -4.19398111E-06
   6.25320005      -5.36637253E-06
   6.26520014      -5.99207806E-06
   6.27720022      -6.06783988E-06
   6.28919983      -5.60696753E-06
   6.30119991      -4.63874858E-06
   6.31320000      -3.20732647E-06
   6.32520008      -1.37009260E-06
   6.33720016       8.04366891E-07
   6.34919977       3.23868699E-06
   6.36119986       5.84942882E-06
   6.37319994       8.54997870E-06
   6.38520002       1.12535272E-05
   6.39720011       1.38760397E-05
   6.40920019       1.63390814E-05
   6.42119980       1.85724221E-05
   6.43319988       2.05162960E-05
   6.44519997       2.21232403E-05
   6.45720005       2.33594546E-05
   6.46920013       2.42056103E-05
   6.48120022       2.46570980E-05
   6.49319983       2.47237058E-05
   6.50519991       2.44287439E-05
   6.51719999       2.38076645E-05
   6.52920008       2.29062516E-05
   6.54120016       2.17784454E-05
   6.55319977       2.04839289E-05
   6.56519985       1.90855735E-05
   6.57719994       1.76468293E-05
   6.58920002       1.62292345E-05
   6.60120010       1.48900899E-05
   6.61320019       1.36804165E-05
   6.62519979       1.26432506E-05
   6.63719988       1.18123380E-05
   6.64919996       1.12112548E-05
   6.66120005       1.08529566E-05
   6.67320013       1.07397591E-05
   6.68520021       1.08636896E-05
   6.69719982       1.12072084E-05
   6.70919991       1.17442187E-05
   6.72119999       1.24413236E-05
   6.73320007       1.32592759E-05
   6.74520016       1.41545415E-05
   6.75719976       1.50809592E-05
   6.76919985       1.59914143E-05
   6.78119993       1.68394818E-05
   6.79320002       1.75810346E-05
   6.80520010       1.81757205E-05
   6.81720018       1.85883309E-05
   6.82919979       1.87900041E-05
   6.84119987       1.87592286E-05
   6.85319996       1.84826476E-05
   6.86520004       1.79556100E-05
   6.87720013       1.71824722E-05
   6.88920021       1.61766093E-05
   6.90119982       1.49601219E-05
   6.91319990       1.35632463E-05
   6.92519999       1.20234399E-05
   6.93720007       1.03841876E-05
   6.94920015       8.69353153E-06
   6.96120024       7.00238206E-06
   6.97319984       5.36265952E-06
   6.98519993       3.82533790E-06
   6.99720001       2.43847308E-06
   7.00920010       1.24529777E-06
   7.02120018       2.82467369E-07
   7.03319979      -4.21455525E-07
   7.04519987      -8.47206707E-07
   7.05719995      -9.85654083E-07
   7.06920004      -8.38212145E-07
   7.08120012      -4.16814629E-07
   7.09320021       2.56560810E-07
   7.10519981       1.15079399E-06
   7.11719990       2.22690778E-06
   7.12919998       3.43967372E-06
   7.14120007       4.73946375E-06
   7.15320015       6.07425545E-06
   7.16520023       7.39169491E-06
   7.17719984       8.64113281E-06
   7.18919992       9.77553645E-06
   7.20120001       1.07532105E-05
   7.21320009       1.15392440E-05
   7.22520018       1.21066578E-05
   7.23719978       1.24371973E-05
   7.24919987       1.25217548E-05
   7.26119995       1.23604332E-05
   7.27320004       1.19622400E-05
   7.28520012       1.13444630E-05
   7.29720020       1.05317531E-05
   7.30919981       9.55496762E-06
   7.32119989       8.44983333E-06
   7.33319998       7.25548489E-06
   7.34520006       6.01294141E-06
   7.35720015       4.76357718E-06
   7.36920023       3.54763642E-06
   7.38119984       2.40285021E-06
   7.39319992       1.36319341E-06
   7.40520000       4.57818686E-07
   7.41720009      -2.89790705E-07
   7.42920017      -8.62434717E-07
   7.44119978      -1.24955147E-06
   7.45319986      -1.44730507E-06
   7.46519995      -1.45841670E-06
   7.47720003      -1.29174259E-06
   7.48920012      -9.61630576E-07
   7.50120020      -4.87089778E-07
   7.51319981       1.09188541E-07
   7.52519989       8.01904434E-07
   7.53719997       1.56426825E-06
   7.54920006       2.36910660E-06
   7.56120014       3.18990828E-06
   7.57320023       4.00174576E-06
   7.58519983       4.78204174E-06
   7.59719992       5.51112680E-06
   7.60920000       6.17256956E-06
   7.62120008       6.75326282E-06
   7.63320017       7.24327037E-06
   7.64519978       7.63545904E-06
   7.65719986       7.92495121E-06
   7.66919994       8.10846905E-06
   7.68120003       8.18361605E-06
   7.69320011       8.14819214E-06
   7.70520020       7.99960253E-06
   7.71719980       7.73441752E-06
   7.72919989       7.34814785E-06
   7.74119997       6.83526287E-06
   7.75320005       6.18945660E-06
   7.76520014       5.40417432E-06
   7.77720022       4.47335287E-06
   7.78919983       3.39234361E-06
   7.80119991       2.15895125E-06
   7.81320000       7.74509715E-07
   7.82520008      -7.55084329E-07
   7.83720016      -2.41847442E-06
   7.84919977      -4.19816797E-06
   7.86119986      -6.07016045E-06
   7.87319994      -8.00392809E-06
   7.88520002      -9.96281597E-06
   7.89720011      -1.19048591E-05
   7.90920019      -1.37839888E-05
   7.92119980      -1.55516154E-05
   7.93319988      -1.71584725E-05
   7.94519997      -1.85566860E-05
   7.95720005      -1.97018908E-05
   7.96920013      -2.05553333E-05
   7.98120022      -2.10858216E-05
   7.99319983      -2.12713931E-05
   8.00520039      -2.11006409E-05
   8.01720047      -2.05735796E-05
   8.02919960      -1.97020327E-05
   8.04119968      -1.85094868E-05
   8.05319977      -1.70304211E-05
   8.06519985      -1.53091478E-05
   8.07719994      -1.33982103E-05
   8.08920002      -1.13564229E-05
   8.10120010      -9.24665983E-06
   8.11320019      -7.13349573E-06
   8.12520027      -5.08082076E-06
   8.13720036      -3.14955537E-06
   8.14920044      -1.39555777E-06
   8.16119957       1.32175501E-07
   8.17319965       1.39294332E-06
   8.18519974       2.35537323E-06
   8.19719982       2.99802264E-06
   8.20919991       3.30956095E-06
   8.22119999       3.28856140E-06
   8.23320007       2.94294387E-06
   8.24520016       2.28913837E-06
   8.25720024       1.35103835E-06
   8.26920033       1.58820384E-07
   8.28120041      -1.25229667E-06
   8.29319954      -2.84328257E-06
   8.30519962      -4.57246369E-06
   8.31719971      -6.39658765E-06
   8.32919979      -8.27175427E-06
   8.34119987      -1.01542164E-05
   8.35319996      -1.20010418E-05
   8.36520004      -1.37706738E-05
   8.37720013      -1.54234149E-05
   8.38920021      -1.69218638E-05
   8.40120029      -1.82313161E-05
   8.41320038      -1.93202177E-05
   8.42520046      -2.01606035E-05
   8.43719959      -2.07285975E-05
   8.44919968      -2.10049166E-05
   8.46119976      -2.09753834E-05
   8.47319984      -2.06314253E-05
   8.48519993      -1.99705100E-05
   8.49720001      -1.89964921E-05
   8.50920010      -1.77198381E-05
   8.52120018      -1.61576809E-05
   8.53320026      -1.43337074E-05
   8.54520035      -1.22778383E-05
   8.55720043      -1.00257184E-05
   8.56919956      -7.61800493E-06
   8.58119965      -5.09949132E-06
   8.59319973      -2.51808046E-06
   8.60519981       7.63324621E-08
   8.61719990       2.63304651E-06
   8.62919998       5.10173913E-06
   8.64120007       7.43361716E-06
   8.65320015       9.58247801E-06
   8.66520023       1.15056637E-05
   8.67720032       1.31648685E-05
   8.68920040       1.45267959E-05
   8.70119953       1.55636590E-05
   8.71319962       1.62535362E-05
   8.72519970       1.65806032E-05
   8.73719978       1.65352158E-05
   8.74919987       1.61139287E-05
   8.76119995       1.53194087E-05
   8.77320004       1.41602959E-05
   8.78520012       1.26509876E-05
   8.79720020       1.08113900E-05
   8.80920029       8.66660685E-06
   8.82120037       6.24657378E-06
   8.83320045       3.58564398E-06
   8.84519958       7.22099344E-07
   8.85719967      -2.30240539E-06
   8.86919975      -5.44347677E-06
   8.88119984      -8.65469792E-06
   8.89319992      -1.18884227E-05
   8.90520000      -1.50966316E-05
   8.91720009      -1.82318563E-05
   8.92920017      -2.12481355E-05
   8.94120026      -2.41019734E-05
   8.95320034      -2.67533032E-05
   8.96520042      -2.91663764E-05
   8.97719955      -3.13106066E-05
   8.98919964      -3.31612719E-05
   9.00119972      -3.47001187E-05
   9.01319981      -3.59157639E-05
   9.02519989      -3.68039582E-05
   9.03719997      -3.73676412E-05
   9.04920006      -3.76167955E-05
   9.06120014      -3.75681011E-05
   9.07320023      -3.72444010E-05
   9.08520031      -3.66739878E-05
   9.09720039      -3.58896978E-05
   9.10919952      -3.49279399E-05
   9.12119961      -3.38275204E-05
   9.13319969      -3.26285117E-05
   9.14519978      -3.13709752E-05
   9.15719986      -3.00937791E-05
   9.16919994      -2.88334031E-05
   9.18120003      -2.76228566E-05
   9.19320011      -2.64907103E-05
   9.20520020      -2.54602983E-05
   9.21720028      -2.45491101E-05
   9.22920036      -2.37684199E-05
   9.24120045      -2.31231552E-05
   9.25319958      -2.26120428E-05
   9.26519966      -2.22279868E-05
   9.27719975      -2.19587037E-05
   9.28919983      -2.17875622E-05
   9.30119991      -2.16945864E-05
   9.31320000      -2.16575863E-05
   9.32520008      -2.16533354E-05
   9.33720016      -2.16587559E-05
   9.34920025      -2.16520457E-05
   9.36120033      -2.16136814E-05
   9.37320042      -2.15272612E-05
   9.38519955      -2.13801432E-05
   9.39719963      -2.11638398E-05
   9.40919971      -2.08741640E-05
   9.42119980      -2.05111337E-05
   9.43319988      -2.00786126E-05
   9.44519997      -1.95837765E-05
