 -0.622799993         1.00000002E-24
 -0.610800028         1.00000002E-24
 -0.598800004         1.00000002E-24
 -0.586799979         1.00000002E-24
 -0.574800014         1.00000002E-24
 -0.562799990         9.99527196E-25
 -0.550800025         9.94088986E-25
 -0.538800001         9.57018144E-25
 -0.526799977         7.68591913E-25
 -0.514800012         3.95032383E-27
 -0.502799988        -2.55698416E-24
 -0.490799993        -9.79674762E-24
 -0.478799999        -2.73575921E-23
 -0.466800004        -6.43173379E-23
 -0.454800010        -1.32251988E-22
 -0.442799985        -2.41565062E-22
 -0.430799991        -3.95569189E-22
 -0.418799996        -5.86419557E-22
 -0.406800002        -8.01398013E-22
 -0.394800007        -1.04929062E-21
 -0.382800013        -1.40870656E-21
 -0.370799989        -2.07895105E-21
 -0.358799994        -3.38399407E-21
 -0.346799999        -5.66061988E-21
 -0.334800005        -8.98617029E-21
 -0.322800010        -1.27997540E-20
 -0.310799986        -1.56390321E-20
 -0.298799992        -1.53790357E-20
 -0.286799997        -1.03700346E-20
 -0.274800003        -1.55411435E-21
 -0.262800008         5.07852343E-21
 -0.250800014        -2.73128576E-21
 -0.238800004        -4.13008436E-20
 -0.226799995        -1.23634977E-19
 -0.214800000        -2.47355670E-19
 -0.202800006        -3.82193089E-19
 -0.190799996        -4.65339708E-19
 -0.178800002        -4.14596235E-19
 -0.166800007        -1.65396909E-19
 -0.154799998         2.73144577E-19
 -0.142800003         7.64161186E-19
 -0.130799994         1.02651398E-18
 -0.118799999         6.93999881E-19
 -0.106799997        -5.30934717E-19
  -9.48000029E-02    -2.65442776E-18
  -8.28000009E-02    -5.18331927E-18
  -7.07999989E-02    -7.06287256E-18
  -5.88000007E-02    -6.89085870E-18
  -4.67999987E-02    -3.46342239E-18
  -3.48000005E-02     3.44445121E-18
  -2.28000004E-02     1.23495667E-17
  -1.08000003E-02     1.98075710E-17
   1.20000006E-03     2.10482873E-17
   1.31999999E-02     1.16684819E-17
   2.52000000E-02    -9.91262640E-18
   3.72000001E-02    -4.00839218E-17
   4.91999984E-02    -6.90084095E-17
   6.12000003E-02    -8.21372746E-17
   7.32000023E-02    -6.48164964E-17
   8.51999968E-02    -9.26753720E-18
   9.71999988E-02     7.82813093E-17
  0.109200001         1.73651773E-16
  0.121200003         2.37308615E-16
  0.133200005         2.25254119E-16
  0.145199999         1.06892057E-16
  0.157199994        -1.15256130E-16
  0.169200003        -3.92087475E-16
  0.181199998        -6.29312551E-16
  0.193200007        -7.09141542E-16
  0.205200002        -5.30880282E-16
  0.217199996        -6.03017578E-17
  0.229200006         6.29889804E-16
  0.241200000         1.34880955E-15
  0.253199995         1.82057365E-15
  0.265199989         1.76392028E-15
  0.277200013         1.00190540E-15
  0.289200008        -4.32204517E-16
  0.301200002        -2.23592071E-15
  0.313199997        -3.86318979E-15
  0.325199991        -4.65073773E-15
  0.337199986        -4.02702248E-15
  0.349200010        -1.74936433E-15
  0.361200005         1.91027000E-15
  0.373199999         6.11190345E-15
  0.385199994         9.57971563E-15
  0.397199988         1.09192644E-14
  0.409200013         9.05438834E-15
  0.421200007         3.66344757E-15
  0.433200002        -4.52934860E-15
  0.445199996        -1.37311164E-14
  0.457199991        -2.13847782E-14
  0.469199985        -2.47666555E-14
  0.481200010        -2.17488923E-14
  0.493200004        -1.15332099E-14
  0.505200028         4.85183013E-15
  0.517199993         2.44547001E-14
  0.529200017         4.27818927E-14
  0.541199982         5.46226001E-14
  0.553200006         5.51829632E-14
  0.565199971         4.13254093E-14
  0.577199996         1.26769331E-14
  0.589200020        -2.76280396E-14
  0.601199985        -7.27801201E-14
  0.613200009        -1.12870467E-13
  0.625199974        -1.36308716E-13
  0.637199998        -1.32066843E-13
  0.649200022        -9.25495913E-14
  0.661199987        -1.66442245E-14
  0.673200011         8.77646615E-14
  0.685199976         2.02722726E-13
  0.697200000         3.01477322E-13
  0.709200025         3.52678498E-13
  0.721199989         3.27427213E-13
  0.733200014         2.08150920E-13
  0.745199978        -2.69396161E-15
  0.757200003        -2.76788087E-13
  0.769200027        -5.59727232E-13
  0.781199992        -7.78315238E-13
  0.793200016        -8.55536453E-13
  0.805199981        -7.31035024E-13
  0.817200005        -3.82597410E-13
  0.829200029         1.57423838E-13
  0.841199994         7.96881766E-13
  0.853200018         1.39412809E-12
  0.865199983         1.78458138E-12
  0.877200007         1.81971105E-12
  0.889199972         1.41012863E-12
  0.901199996         5.61593198E-13
  0.913200021        -6.07404589E-13
  0.925199986        -1.87469311E-12
  0.937200010        -2.95227102E-12
  0.949199975        -3.54751471E-12
  0.961199999        -3.43507145E-12
  0.973200023        -2.52209343E-12
  0.985199988        -8.89022742E-13
  0.997200012         1.20746620E-12
   1.00919998         3.37418786E-12
   1.02119994         5.15793701E-12
   1.03320003         6.14273086E-12
   1.04519999         6.04516957E-12
   1.05719995         4.78425589E-12
   1.06920004         2.50726198E-12
   1.08120000        -4.36280759E-13
   1.09319997        -3.56720556E-12
   1.10520005        -6.37834056E-12
   1.11720002        -8.43937246E-12
   1.12919998        -9.47771722E-12
   1.14119995        -9.41411098E-12
   1.15320003        -8.34367124E-12
   1.16520000        -6.46839440E-12
   1.17719996        -4.00140034E-12
   1.18920004        -1.07271071E-12
   1.20120001         2.33173984E-12
   1.21319997         6.37301019E-12
   1.22520006         1.12934028E-11
   1.23720002         1.72900531E-11
   1.24919999         2.43543363E-11
   1.26119995         3.21173227E-11
   1.27320004         3.97469141E-11
   1.28520000         4.59373893E-11
   1.29719996         4.90176476E-11
   1.30920005         4.71832191E-11
   1.32120001         3.88337279E-11
   1.33319998         2.29778540E-11
   1.34519994        -3.43608578E-13
   1.35720003        -2.96655929E-11
   1.36919999        -6.17737389E-11
   1.38119996        -9.14599022E-11
   1.39320004        -1.11344024E-10
   1.40520000        -1.11722485E-10
   1.41719997        -8.03863087E-11
   1.42920005        -2.35021811E-12
   1.44120002         1.40552417E-10
   1.45319998         3.70226932E-10
   1.46519995         7.13011317E-10
   1.47720003         1.20046451E-09
   1.48920000         1.87020244E-09
   1.50119996         2.76677037E-09
   1.51320004         3.94262489E-09
   1.52520001         5.45945955E-09
   1.53719997         7.39033101E-09
   1.54920006         9.82335457E-09
   1.56120002         1.28680870E-08
   1.57319999         1.66661547E-08
   1.58519995         2.14081108E-08
   1.59720004         2.73589524E-08
   1.60920000         3.48951126E-08
   1.62119997         4.45559998E-08
   1.63320005         5.71133114E-08
   1.64520001         7.36612620E-08
   1.65719998         9.57303499E-08
   1.66919994         1.25426695E-07
   1.68120003         1.65597669E-07
   1.69319999         2.20022798E-07
   1.70519996         2.93627181E-07
   1.71720004         3.92711826E-07
   1.72920001         5.25192149E-07
   1.74119997         7.00833709E-07
   1.75320005         9.31469742E-07
   1.76520002         1.23118332E-06
   1.77719998         1.61643436E-06
   1.78919995         2.10610733E-06
   1.80120003         2.72145985E-06
   1.81320000         3.48594790E-06
   1.82519996         4.42490864E-06
   1.83720005         5.56508485E-06
   1.84920001         6.93398033E-06
   1.86119998         8.55904455E-06
   1.87320006         1.04666888E-05
   1.88520002         1.26811547E-05
   1.89719999         1.52232633E-05
   1.90919995         1.81090782E-05
   1.92120004         2.13485237E-05
   1.93320000         2.49440473E-05
   1.94519997         2.88893480E-05
   1.95720005         3.31682786E-05
   1.96920002         3.77539764E-05
   1.98119998         4.26082843E-05
   1.99319994         4.76815658E-05
   2.00519991         5.29129065E-05
   2.01719999         5.82308166E-05
   2.02920008         6.35543620E-05
   2.04119992         6.87948559E-05
   2.05320001         7.38579256E-05
   2.06520009         7.86460514E-05
   2.07719994         8.30614663E-05
   2.08920002         8.70091826E-05
   2.10120010         9.04003173E-05
   2.11319995         9.31552786E-05
   2.12520003         9.52068367E-05
   2.13720012         9.65029540E-05
   2.14919996         9.70090987E-05
   2.16120005         9.67100568E-05
   2.17319989         9.56110598E-05
   2.18519998         9.37381265E-05
   2.19720006         9.11376264E-05
   2.20919991         8.78750288E-05
   2.22119999         8.40328648E-05
   2.23320007         7.97079556E-05
   2.24519992         7.50080872E-05
   2.25720000         7.00481905E-05
   2.26920009         6.49461799E-05
   2.28119993         5.98188017E-05
   2.29320002         5.47774507E-05
   2.30520010         4.99243979E-05
   2.31719995         4.53493813E-05
   2.32920003         4.11268957E-05
   2.34120011         3.73141920E-05
   2.35319996         3.39501348E-05
   2.36520004         3.10549294E-05
   2.37719989         2.86307186E-05
   2.38919997         2.66629886E-05
   2.40120006         2.51226702E-05
   2.41319990         2.39688452E-05
   2.42519999         2.31518534E-05
   2.43720007         2.26166358E-05
   2.44919991         2.23061234E-05
   2.46120000         2.21644987E-05
   2.47320008         2.21401569E-05
   2.48519993         2.21882128E-05
   2.49720001         2.22724575E-05
   2.50920010         2.23666793E-05
   2.52119994         2.24553096E-05
   2.53320003         2.25333897E-05
   2.54520011         2.26059037E-05
   2.55719995         2.26865250E-05
   2.56920004         2.27958990E-05
   2.58119988         2.29595498E-05
   2.59319997         2.32055536E-05
   2.60520005         2.35621046E-05
   2.61719990         2.40551253E-05
   2.62919998         2.47060343E-05
   2.64120007         2.55297928E-05
   2.65319991         2.65333438E-05
   2.66520000         2.77145136E-05
   2.67720008         2.90614462E-05
   2.68919992         3.05526009E-05
   2.70120001         3.21573134E-05
   2.71320009         3.38369427E-05
   2.72519994         3.55464654E-05
   2.73720002         3.72365721E-05
   2.74920011         3.88560729E-05
   2.76119995         4.03545200E-05
   2.77320004         4.16849434E-05
   2.78520012         4.28065432E-05
   2.79719996         4.36871815E-05
   2.80920005         4.43055796E-05
   2.82119989         4.46530503E-05
   2.83319998         4.47346865E-05
   2.84520006         4.45699479E-05
   2.85719991         4.41926095E-05
   2.86919999         4.36500013E-05
   2.88120008         4.30016808E-05
   2.89319992         4.23175297E-05
   2.90520000         4.16753792E-05
   2.91720009         4.11583351E-05
   2.92919993         4.08519045E-05
   2.94120002         4.08410524E-05
   2.95320010         4.12073459E-05
   2.96519995         4.20263204E-05
   2.97720003         4.33650930E-05
   2.98920012         4.52803870E-05
   3.00119996         4.78169095E-05
   3.01320004         5.10061218E-05
   3.02519989         5.48654170E-05
   3.03719997         5.93975310E-05
   3.04920006         6.45903201E-05
   3.06119990         7.04166305E-05
   3.07319999         7.68344107E-05
   3.08520007         8.37868502E-05
   3.09719992         9.12027317E-05
   3.10920000         9.89968321E-05
   3.12120008         1.07070562E-04
   3.13319993         1.15312774E-04
   3.14520001         1.23600985E-04
   3.15720010         1.31802954E-04
   3.16919994         1.39778742E-04
   3.18120003         1.47383354E-04
   3.19320011         1.54469890E-04
   3.20519996         1.60893193E-04
   3.21720004         1.66514015E-04
   3.22919989         1.71203385E-04
   3.24119997         1.74847286E-04
   3.25320005         1.77351030E-04
   3.26519990         1.78643488E-04
   3.27719998         1.78680668E-04
   3.28920007         1.77448426E-04
   3.30119991         1.74964312E-04
   3.31320000         1.71278007E-04
   3.32520008         1.66470723E-04
   3.33719993         1.60653013E-04
   3.34920001         1.53961621E-04
   3.36120009         1.46554929E-04
   3.37319994         1.38607618E-04
   3.38520002         1.30304732E-04
   3.39720011         1.21835088E-04
   3.40919995         1.13384915E-04
   3.42120004         1.05131563E-04
   3.43319988         9.72378475E-05
   3.44519997         8.98471117E-05
   3.45720005         8.30793724E-05
   3.46919990         7.70285405E-05
   3.48119998         7.17608127E-05
   3.49320006         6.73143877E-05
   3.50519991         6.37001358E-05
   3.51719999         6.09034360E-05
   3.52920008         5.88867733E-05
   3.54119992         5.75930571E-05
   3.55320001         5.69493604E-05
   3.56520009         5.68710093E-05
   3.57719994         5.72656390E-05
   3.58920002         5.80372616E-05
   3.60120010         5.90900308E-05
   3.61319995         6.03316475E-05
   3.62520003         6.16763064E-05
   3.63720012         6.30471040E-05
   3.64919996         6.43778767E-05
   3.66120005         6.56143966E-05
   3.67319989         6.67149725E-05
   3.68519998         6.76504715E-05
   3.69720006         6.84037368E-05
   3.70919991         6.89685257E-05
   3.72119999         6.93480470E-05
   3.73320007         6.95530180E-05
   3.74519992         6.95997078E-05
   3.75720000         6.95076233E-05
   3.76920009         6.92973772E-05
   3.78119993         6.89885710E-05
   3.79320002         6.85980849E-05
   3.80520010         6.81385718E-05
   3.81719995         6.76175914E-05
   3.82920003         6.70371519E-05
   3.84120011         6.63938918E-05
   3.85319996         6.56796692E-05
   3.86520004         6.48827772E-05
   3.87719989         6.39894497E-05
   3.88919997         6.29856077E-05
   3.90120006         6.18587510E-05
   3.91319990         6.05997811E-05
   3.92519999         5.92045726E-05
   3.93720007         5.76752682E-05
   3.94919991         5.60210538E-05
   3.96120000         5.42584057E-05
   3.97320008         5.24107891E-05
   3.98519993         5.05077660E-05
   3.99720001         4.85836499E-05
   4.00920010         4.66757119E-05
   4.02120018         4.48221545E-05
   4.03319979         4.30599321E-05
   4.04519987         4.14226452E-05
   4.05719995         3.99386081E-05
   4.06920004         3.86292340E-05
   4.08120012         3.75079253E-05
   4.09320021         3.65794367E-05
   4.10519981         3.58398320E-05
   4.11719990         3.52770112E-05
   4.12919998         3.48717513E-05
   4.14120007         3.45991866E-05
   4.15320015         3.44306718E-05
   4.16520023         3.43358115E-05
   4.17719984         3.42845779E-05
   4.18919992         3.42493513E-05
   4.20120001         3.42067469E-05
   4.21320009         3.41390987E-05
   4.22520018         3.40355145E-05
   4.23719978         3.38924183E-05
   4.24919987         3.37135643E-05
   4.26119995         3.35095210E-05
   4.27320004         3.32966520E-05
   4.28520012         3.30957155E-05
   4.29720020         3.29301365E-05
   4.30919981         3.28241258E-05
   4.32119989         3.28007700E-05
   4.33319998         3.28801907E-05
   4.34520006         3.30780167E-05
   4.35720015         3.34041688E-05
   4.36920023         3.38621212E-05
   4.38119984         3.44486507E-05
   4.39319992         3.51541348E-05
   4.40520000         3.59633195E-05
   4.41720009         3.68565125E-05
   4.42920017         3.78111217E-05
   4.44119978         3.88033768E-05
   4.45319986         3.98100965E-05
   4.46519995         4.08103660E-05
   4.47720003         4.17869633E-05
   4.48920012         4.27274572E-05
   4.50120020         4.36248120E-05
   4.51319981         4.44775433E-05
   4.52519989         4.52893582E-05
   4.53719997         4.60683477E-05
   4.54920006         4.68257676E-05
   4.56120014         4.75746092E-05
   4.57320023         4.83279873E-05
   4.58519983         4.90975835E-05
   4.59719992         4.98922200E-05
   4.60920000         5.07167315E-05
   4.62120008         5.15712381E-05
   4.63320017         5.24508432E-05
   4.64519978         5.33458260E-05
   4.65719986         5.42422822E-05
   4.66919994         5.51231533E-05
   4.68120003         5.59695436E-05
   4.69320011         5.67622119E-05
   4.70520020         5.74830847E-05
   4.71719980         5.81166641E-05
   4.72919989         5.86512324E-05
   4.74119997         5.90796953E-05
   4.75320005         5.94000703E-05
   4.76520014         5.96155514E-05
   4.77720022         5.97341714E-05
   4.78919983         5.97681428E-05
   4.80119991         5.97329272E-05
   4.81320000         5.96461286E-05
   4.82520008         5.95264100E-05
   4.83720016         5.93924160E-05
   4.84919977         5.92619253E-05
   4.86119986         5.91512216E-05
   4.87319994         5.90747914E-05
   4.88520002         5.90453092E-05
   4.89720011         5.90738709E-05
   4.90920019         5.91704775E-05
   4.92119980         5.93445802E-05
   4.93319988         5.96056670E-05
   4.94519997         5.99637315E-05
   4.95720005         6.04295128E-05
   4.96920013         6.10145071E-05
   4.98120022         6.17305632E-05
   4.99319983         6.25891989E-05
   5.00519991         6.36005861E-05
   5.01719999         6.47722991E-05
   5.02920008         6.61079321E-05
   5.04120016         6.76057098E-05
   5.05319977         6.92572576E-05
   5.06519985         7.10466556E-05
   5.07719994         7.29499297E-05
   5.08920002         7.49350365E-05
   5.10120010         7.69624676E-05
   5.11320019         7.89864644E-05
   5.12519979         8.09567791E-05
   5.13719988         8.28209741E-05
   5.14919996         8.45270115E-05
   5.16120005         8.60261207E-05
   5.17320013         8.72755991E-05
   5.18520021         8.82414533E-05
   5.19719982         8.89006114E-05
   5.20919991         8.92426324E-05
   5.22119999         8.92706521E-05
   5.23320007         8.90016017E-05
   5.24520016         8.84655237E-05
   5.25719976         8.77042112E-05
   5.26919985         8.67689596E-05
   5.28119993         8.57179184E-05
   5.29320002         8.46129115E-05
   5.30520010         8.35160827E-05
   5.31720018         8.24865638E-05
   5.32919979         8.15773601E-05
   5.34119987         8.08326731E-05
   5.35319996         8.02858558E-05
   5.36520004         7.99580521E-05
   5.37720013         7.98576584E-05
   5.38920021         7.99806367E-05
   5.40119982         8.03115909E-05
   5.41319990         8.08255281E-05
   5.42519999         8.14902232E-05
   5.43720007         8.22689399E-05
   5.44920015         8.31233556E-05
   5.46120024         8.40164648E-05
   5.47319984         8.49152784E-05
   5.48519993         8.57931227E-05
   5.49720001         8.66313421E-05
   5.50920010         8.74203906E-05
   5.52120018         8.81601591E-05
   5.53319979         8.88595678E-05
   5.54519987         8.95354460E-05
   5.55719995         9.02107786E-05
   5.56920004         9.09124283E-05
   5.58120012         9.16686186E-05
   5.59320021         9.25061322E-05
   5.60519981         9.34475538E-05
   5.61719990         9.45088468E-05
   5.62919998         9.56971126E-05
   5.64120007         9.70090186E-05
   5.65320015         9.84297731E-05
   5.66520023         9.99329059E-05
   5.67719984         1.01480626E-04
   5.68919992         1.03025086E-04
   5.70120001         1.04510153E-04
   5.71320009         1.05873864E-04
   5.72520018         1.07051252E-04
   5.73719978         1.07977539E-04
   5.74919987         1.08591383E-04
   5.76119995         1.08838140E-04
   5.77320004         1.08672859E-04
   5.78520012         1.08062966E-04
   5.79720020         1.06990337E-04
   5.80919981         1.05452782E-04
   5.82119989         1.03464765E-04
   5.83319998         1.01057361E-04
   5.84520006         9.82774145E-05
   5.85720015         9.51858601E-05
   5.86920023         9.18553997E-05
   5.88119984         8.83675384E-05
   5.89319992         8.48091149E-05
   5.90520000         8.12685248E-05
   5.91720009         7.78318281E-05
   5.92920017         7.45789221E-05
   5.94119978         7.15799033E-05
   5.95319986         6.88919463E-05
   5.96519995         6.65567641E-05
   5.97720003         6.45988621E-05
   5.98920012         6.30245704E-05
   6.00120020         6.18220947E-05
   6.01319981         6.09624585E-05
   6.02519989         6.04013221E-05
   6.03719997         6.00816638E-05
   6.04920006         5.99370724E-05
   6.06120014         5.98955558E-05
   6.07320023         5.98836741E-05
   6.08519983         5.98306797E-05
   6.09719992         5.96725695E-05
   6.10920000         5.93557161E-05
   6.12120008         5.88399416E-05
   6.13320017         5.81008680E-05
   6.14519978         5.71313940E-05
   6.15719986         5.59422333E-05
   6.16919994         5.45615148E-05
   6.18120003         5.30334510E-05
   6.19320011         5.14161402E-05
   6.20520020         4.97786459E-05
   6.21719980         4.81975694E-05
   6.22919989         4.67531609E-05
   6.24119997         4.55253503E-05
   6.25320005         4.45897676E-05
   6.26520014         4.40140320E-05
   6.27720022         4.38544885E-05
   6.28919983         4.41534867E-05
   6.30119991         4.49374020E-05
   6.31320000         4.62154276E-05
   6.32520008         4.79791888E-05
   6.33720016         5.02032053E-05
   6.34919977         5.28460732E-05
   6.36119986         5.58523643E-05
   6.37319994         5.91550888E-05
   6.38520002         6.26786059E-05
   6.39720011         6.63417450E-05
   6.40920019         7.00611417E-05
   6.42119980         7.37544251E-05
   6.43319988         7.73432548E-05
   6.44519997         8.07559918E-05
   6.45720005         8.39299901E-05
   6.46920013         8.68132629E-05
   6.48120022         8.93656907E-05
   6.49319983         9.15595665E-05
   6.50519991         9.33795454E-05
   6.51719999         9.48221641E-05
   6.52920008         9.58947712E-05
   6.54120016         9.66140942E-05
   6.55319977         9.70045730E-05
   6.56519985         9.70963883E-05
   6.57719994         9.69234679E-05
   6.58920002         9.65215295E-05
   6.60120010         9.59261451E-05
   6.61320019         9.51710826E-05
   6.62519979         9.42868865E-05
   6.63719988         9.32998009E-05
   6.64919996         9.22310792E-05
   6.66120005         9.10966337E-05
   6.67320013         8.99071238E-05
   6.68520021         8.86683920E-05
   6.69719982         8.73821991E-05
   6.70919991         8.60473228E-05
   6.72119999         8.46606999E-05
   6.73320007         8.32188452E-05
   6.74520016         8.17191540E-05
   6.75719976         8.01612478E-05
   6.76919985         7.85480661E-05
   6.78119993         7.68867831E-05
   6.79320002         7.51893822E-05
   6.80520010         7.34729256E-05
   6.81720018         7.17593794E-05
   6.82919979         7.00751552E-05
   6.84119987         6.84503320E-05
   6.85319996         6.69174624E-05
   6.86520004         6.55103941E-05
   6.87720013         6.42628220E-05
   6.88920021         6.32068841E-05
   6.90119982         6.23718515E-05
   6.91319990         6.17829792E-05
   6.92519999         6.14605524E-05
   6.93720007         6.14192322E-05
   6.94920015         6.16677353E-05
   6.96120024         6.22087609E-05
   6.97319984         6.30391587E-05
   6.98519993         6.41503721E-05
   6.99720001         6.55289477E-05
   7.00920010         6.71571979E-05
   7.02120018         6.90137676E-05
   7.03319979         7.10741515E-05
   7.04519987         7.33112029E-05
   7.05719995         7.56953741E-05
   7.06920004         7.81948911E-05
   7.08120012         8.07758188E-05
   7.09320021         8.34020830E-05
   7.10519981         8.60354412E-05
   7.11719990         8.86355410E-05
   7.12919998         9.11601237E-05
   7.14120007         9.35653734E-05
   7.15320015         9.58065211E-05
   7.16520023         9.78386888E-05
   7.17719984         9.96179442E-05
   7.18919992         1.01102560E-04
   7.20120001         1.02254460E-04
   7.21320009         1.03040657E-04
   7.22520018         1.03434730E-04
   7.23719978         1.03418111E-04
   7.24919987         1.02981248E-04
   7.26119995         1.02124308E-04
   7.27320004         1.00857644E-04
   7.28520012         9.92018104E-05
   7.29720020         9.71871123E-05
   7.30919981         9.48527886E-05
   7.32119989         9.22458639E-05
   7.33319998         8.94196128E-05
   7.34520006         8.64319300E-05
   7.35720015         8.33434824E-05
   7.36920023         8.02159193E-05
   7.38119984         7.71100167E-05
   7.39319992         7.40840915E-05
   7.40520000         7.11924804E-05
   7.41720009         6.84843035E-05
   7.42920017         6.60024016E-05
   7.44119978         6.37825651E-05
   7.45319986         6.18529666E-05
   7.46519995         6.02337859E-05
   7.47720003         5.89370175E-05
   7.48920012         5.79664666E-05
   7.50120020         5.73178950E-05
   7.51319981         5.69792937E-05
   7.52519989         5.69313343E-05
   7.53719997         5.71479795E-05
   7.54920006         5.75972699E-05
   7.56120014         5.82423054E-05
   7.57320023         5.90424352E-05
   7.58519983         5.99546256E-05
   7.59719992         6.09350172E-05
   7.60920000         6.19406055E-05
   7.62120008         6.29309798E-05
   7.63320017         6.38700876E-05
   7.64519978         6.47278721E-05
   7.65719986         6.54817195E-05
   7.66919994         6.61176091E-05
   7.68120003         6.66308915E-05
   7.69320011         6.70265290E-05
   7.70520020         6.73188770E-05
   7.71719980         6.75308911E-05
   7.72919989         6.76927593E-05
   7.74119997         6.78401266E-05
   7.75320005         6.80118683E-05
   7.76520014         6.82476166E-05
   7.77720022         6.85851628E-05
   7.78919983         6.90579182E-05
   7.80119991         6.96925636E-05
   7.81320000         7.05069979E-05
   7.82520008         7.15089191E-05
   7.83720016         7.26948492E-05
   7.84919977         7.40499090E-05
   7.86119986         7.55482906E-05
   7.87319994         7.71542982E-05
   7.88520002         7.88241305E-05
   7.89720011         8.05080272E-05
   7.90920019         8.21528884E-05
   7.92119980         8.37050175E-05
   7.93319988         8.51129953E-05
   7.94519997         8.63303430E-05
   7.95720005         8.73179961E-05
   7.96920013         8.80462903E-05
   7.98120022         8.84964757E-05
   7.99319983         8.86616253E-05
   8.00520039         8.85469271E-05
   8.01720047         8.81693268E-05
   8.02919960         8.75566548E-05
   8.04119968         8.67461422E-05
   8.05319977         8.57825871E-05
   8.06519985         8.47161500E-05
   8.07719994         8.36000181E-05
   8.08920002         8.24879826E-05
   8.10120010         8.14320811E-05
   8.11320019         8.04804804E-05
   8.12520027         7.96755412E-05
   8.13720036         7.90523627E-05
   8.14920044         7.86376331E-05
   8.16119957         7.84489821E-05
   8.17319965         7.84947115E-05
   8.18519974         7.87739191E-05
   8.19719982         7.92770516E-05
   8.20919991         7.99866539E-05
   8.22119999         8.08784098E-05
   8.23320007         8.19222987E-05
   8.24520016         8.30839053E-05
   8.25720024         8.43256857E-05
   8.26920033         8.56082042E-05
   8.28120041         8.68913412E-05
   8.29319954         8.81353990E-05
   8.30519962         8.93020624E-05
   8.31719971         9.03552209E-05
   8.32919979         9.12618270E-05
   8.34119987         9.19924569E-05
   8.35319996         9.25220447E-05
   8.36520004         9.28303343E-05
   8.37720013         9.29025191E-05
   8.38920021         9.27296351E-05
   8.40120029         9.23090265E-05
   8.41320038         9.16446661E-05
   8.42520046         9.07473805E-05
   8.43719959         8.96348647E-05
   8.44919968         8.83315297E-05
   8.46119976         8.68681018E-05
   8.47319984         8.52808662E-05
   8.48519993         8.36107210E-05
   8.49720001         8.19018969E-05
   8.50920010         8.02003997E-05
   8.52120018         7.85522425E-05
   8.53320026         7.70015904E-05
   8.54520035         7.55888395E-05
   8.55720043         7.43486889E-05
   8.56919956         7.33085035E-05
   8.58119965         7.24869096E-05
   8.59319973         7.18927331E-05
   8.60519981         7.15244823E-05
   8.61719990         7.13703121E-05
   8.62919998         7.14084817E-05
   8.64120007         7.16084323E-05
   8.65320015         7.19322197E-05
   8.66520023         7.23364428E-05
   8.67720032         7.27744482E-05
   8.68920040         7.31986293E-05
   8.70119953         7.35628928E-05
   8.71319962         7.38249510E-05
   8.72519970         7.39484385E-05
   8.73719978         7.39046882E-05
   8.74919987         7.36740840E-05
   8.76119995         7.32469271E-05
   8.77320004         7.26238068E-05
   8.78520012         7.18154042E-05
   8.79720020         7.08418665E-05
   8.80920029         6.97316427E-05
   8.82120037         6.85200575E-05
   8.83320045         6.72475435E-05
   8.84519958         6.59576981E-05
   8.85719967         6.46953195E-05
   8.86919975         6.35043616E-05
   8.88119984         6.24260792E-05
   8.89319992         6.14972960E-05
   8.90520000         6.07489528E-05
   8.91720009         6.02049186E-05
   8.92920017         5.98811312E-05
   8.94120026         5.97850994E-05
   8.95320034         5.99157283E-05
   8.96520042         6.02635555E-05
   8.97719955         6.08112532E-05
   8.98919964         6.15344979E-05
   9.00119972         6.24030872E-05
   9.01319981         6.33823074E-05
   9.02519989         6.44345128E-05
   9.03719997         6.55207841E-05
   9.04920006         6.66027408E-05
   9.06120014         6.76442287E-05
   9.07320023         6.86130224E-05
   9.08520031         6.94823248E-05