 -0.622799993       0.00000000    
 -0.610800028       0.00000000    
 -0.598800004       0.00000000    
 -0.586799979       0.00000000    
 -0.574800014       0.00000000    
 -0.562799990       2.70600403E-28
 -0.550800025       4.12465978E-27
 -0.538800001       3.43289648E-26
 -0.526799977       1.96373906E-25
 -0.514800012       8.48067086E-25
 -0.502799988       2.92492249E-24
 -0.490799993       8.37402278E-24
 -0.478799999       2.04826283E-23
 -0.466800004       4.38096933E-23
 -0.454800010       8.36628263E-23
 -0.442799985       1.45592610E-22
 -0.430799991       2.35577974E-22
 -0.418799996       3.60328109E-22
 -0.406800002       5.23902798E-22
 -0.394800007       7.13599940E-22
 -0.382800013       8.70324564E-22
 -0.370799989       8.53333636E-22
 -0.358799994       4.37551382E-22
 -0.346799999      -5.90545262E-22
 -0.334800005      -2.17871154E-21
 -0.322800010      -3.61769299E-21
 -0.310799986      -3.20420103E-21
 -0.298799992       1.64983021E-21
 -0.286799997       1.33919216E-20
 -0.274800003       3.21733353E-20
 -0.262800008       5.30726028E-20
 -0.250800014       6.42709513E-20
 -0.238800004       4.86159669E-20
 -0.226799995      -9.20737890E-21
 -0.214800000      -1.09811160E-19
 -0.202800006      -2.24598742E-19
 -0.190799996      -2.88498135E-19
 -0.178800002      -2.11397185E-19
 -0.166800007       8.35802549E-20
 -0.154799998       5.98429915E-19
 -0.142800003       1.19712215E-18
 -0.130799994       1.58079602E-18
 -0.118799999       1.34656122E-18
 -0.106799997       1.55583070E-19
  -9.48000029E-02  -2.01354869E-18
  -8.28000009E-02  -4.61942322E-18
  -7.07999989E-02  -6.47297491E-18
  -5.88000007E-02  -5.97284538E-18
  -4.67999987E-02  -1.73781465E-18
  -3.48000005E-02   6.46683144E-18
  -2.28000004E-02   1.68444975E-17
  -1.08000003E-02   2.52430145E-17
   1.20000006E-03   2.59125808E-17
   1.31999999E-02   1.35844754E-17
   2.52000000E-02  -1.34651206E-17
   3.72000001E-02  -5.04167278E-17
   4.91999984E-02  -8.45748237E-17
   6.12000003E-02  -9.73084221E-17
   7.32000023E-02  -7.00532048E-17
   8.51999968E-02   6.48122397E-18
   9.71999988E-02   1.22800018E-16
  0.109200001       2.45321123E-16
  0.121200003       3.19968840E-16
  0.133200005       2.87319531E-16
  0.145199999       1.07696183E-16
  0.157199994      -2.10850376E-16
  0.169200003      -5.93326357E-16
  0.181199998      -9.00196229E-16
  0.193200007      -9.60035613E-16
  0.205200002      -6.31119643E-16
  0.217199996       1.22911363E-16
  0.229200006       1.17064983E-15
  0.241200000       2.19658301E-15
  0.253199995       2.75691564E-15
  0.265199989       2.41304715E-15
  0.277200013       9.17342399E-16
  0.289200008      -1.60588278E-15
  0.301200002      -4.56083493E-15
  0.313199997      -6.93382060E-15
  0.325199991      -7.53550410E-15
  0.337199986      -5.40441452E-15
  0.349200010      -2.70676763E-16
  0.361200005       7.07947088E-15
  0.373199999       1.47132503E-14
  0.385199994       1.98631022E-14
  0.397199988       1.96585336E-14
  0.409200013       1.21452421E-14
  0.421200007      -2.68824477E-15
  0.433200002      -2.22440847E-14
  0.445199996      -4.13573662E-14
  0.457199991      -5.32473032E-14
  0.469199985      -5.13188396E-14
  0.481200010      -3.14482700E-14
  0.493200004       5.87632538E-15
  0.505200028       5.43081645E-14
  0.517199993       1.01937840E-13
  0.529200017       1.33448604E-13
  0.541199982       1.33934232E-13
  0.553200006       9.36153146E-14
  0.565199971       1.22321756E-14
  0.577199996      -9.82909636E-14
  0.589200020      -2.14117501E-13
  0.601199985      -3.03315858E-13
  0.613200009      -3.32938429E-13
  0.625199974      -2.78085958E-13
  0.637199998      -1.30856209E-13
  0.649200022       9.33271269E-14
  0.661199987       3.54301712E-13
  0.673200011       5.92102051E-13
  0.685199976       7.38267249E-13
  0.697200000       7.31867041E-13
  0.709200025       5.37035585E-13
  0.721199989       1.57781584E-13
  0.733200014      -3.54279106E-13
  0.745199978      -9.02663144E-13
  0.757200003      -1.36062580E-12
  0.769200027      -1.59629926E-12
  0.781199992      -1.50412983E-12
  0.793200016      -1.03600071E-12
  0.805199981      -2.24266718E-13
  0.817200005       8.10490618E-13
  0.829200029       1.87169399E-12
  0.841199994       2.71957045E-12
  0.853200018       3.12011549E-12
  0.865199983       2.90107261E-12
  0.877200007       2.00252987E-12
  0.889199972       5.09076505E-13
  0.901199996      -1.34705105E-12
  0.913200021      -3.21688292E-12
  0.925199986      -4.69717407E-12
  0.937200010      -5.41389286E-12
  0.949199975      -5.10979063E-12
  0.961199999      -3.71601881E-12
  0.973200023      -1.38927205E-12
  0.985199988       1.49789198E-12
  0.997200012       4.41605086E-12
   1.00919998       6.77831532E-12
   1.02119994       8.06090871E-12
   1.03320003       7.91913410E-12
   1.04519999       6.27206273E-12
   1.05719995       3.33467282E-12
   1.06920004      -4.12909426E-13
   1.08120000      -4.31528294E-12
   1.09319997      -7.67281117E-12
   1.10520005      -9.88506325E-12
   1.11720002      -1.05733313E-11
   1.12919998      -9.65214974E-12
   1.14119995      -7.33071763E-12
   1.15320003      -4.04175478E-12
   1.16520000      -3.14293486E-13
   1.17719996       3.37645645E-12
   1.18920004       6.73892973E-12
   1.20120001       9.73160007E-12
   1.21319997       1.25345680E-11
   1.22520006       1.54174035E-11
   1.23720002       1.85235802E-11
   1.24919999       2.16216472E-11
   1.26119995       2.38960362E-11
   1.27320004       2.38586078E-11
   1.28520000       1.94501169E-11
   1.29719996       8.36735715E-12
   1.30920005      -1.13999305E-11
   1.32120001      -4.08996760E-11
   1.33319998      -7.95510810E-11
   1.34519994      -1.24657729E-10
   1.35720003      -1.71287637E-10
   1.36919999      -2.12680165E-10
   1.38119996      -2.41274778E-10
   1.39320004      -2.50359317E-10
   1.40520000      -2.36224845E-10
   1.41719997      -2.00607683E-10
   1.42920005      -1.53118601E-10
   1.44120002      -1.13322046E-10
   1.45319998      -1.12144280E-10
   1.46519995      -1.92359198E-10
   1.47720003      -4.08019341E-10
   1.48920000      -8.22856561E-10
   1.50119996      -1.50785517E-09
   1.51320004      -2.53840238E-09
   1.52520001      -3.99162259E-09
   1.53719997      -5.94473937E-09
   1.54920006      -8.47552872E-09
   1.56120002      -1.16662058E-08
   1.57319999      -1.56123310E-08
   1.58519995      -2.04386090E-08
   1.59720004      -2.63236153E-08
   1.60920000      -3.35356916E-08
   1.62119997      -4.24821742E-08
   1.63320005      -5.37739844E-08
   1.64520001      -6.83072301E-08
   1.65719998      -8.73627428E-08
   1.66919994      -1.12723669E-07
   1.68120003      -1.46810152E-07
   1.69319999      -1.92828665E-07
   1.70519996      -2.54932331E-07
   1.71720004      -3.38386741E-07
   1.72920001      -4.49734443E-07
   1.74119997      -5.96949121E-07
   1.75320005      -7.89569867E-07
   1.76520002      -1.03880370E-06
   1.77719998      -1.35758432E-06
   1.78919995      -1.76057199E-06
   1.80120003      -2.26408429E-06
   1.81320000      -2.88594265E-06
   1.82519996      -3.64522316E-06
   1.83720005      -4.56190219E-06
   1.84920001      -5.65639402E-06
   1.86119998      -6.94897517E-06
   1.87320006      -8.45909835E-06
   1.88520002      -1.02046106E-05
   1.89719999      -1.22008887E-05
   1.90919995      -1.44599171E-05
   1.92120004      -1.69893374E-05
   1.93320000      -1.97915015E-05
   1.94519997      -2.28626013E-05
   1.95720005      -2.61918594E-05
   1.96920002      -2.97609076E-05
   1.98119998      -3.35433324E-05
   1.99319994      -3.75045020E-05
   2.00519991      -4.16016301E-05
   2.01719999      -4.57841998E-05
   2.02920008      -4.99946982E-05
   2.04119992      -5.41697373E-05
   2.05320001      -5.82414323E-05
   2.06520009      -6.21391955E-05
   2.07719994      -6.57916607E-05
   2.08920002      -6.91289461E-05
   2.10120010      -7.20849348E-05
   2.11319995      -7.45996440E-05
   2.12520003      -7.66214507E-05
   2.13720012      -7.81092240E-05
   2.14919996      -7.90341146E-05
   2.16120005      -7.93809741E-05
   2.17319989      -7.91493003E-05
   2.18519998      -7.83536816E-05
   2.19720006      -7.70236074E-05
   2.20919991      -7.52027699E-05
   2.22119999      -7.29476669E-05
   2.23320007      -7.03258338E-05
   2.24519992      -6.74134717E-05
   2.25720000      -6.42928135E-05
   2.26920009      -6.10491697E-05
   2.28119993      -5.77679602E-05
   2.29320002      -5.45316871E-05
   2.30520010      -5.14171479E-05
   2.31719995      -4.84929406E-05
   2.32920003      -4.58173563E-05
   2.34120011      -4.34368303E-05
   2.35319996      -4.13849157E-05
   2.36520004      -3.96818978E-05
   2.37719989      -3.83350089E-05
   2.38919997      -3.73391667E-05
   2.40120006      -3.66782842E-05
   2.41319990      -3.63269319E-05
   2.42519999      -3.62523606E-05
   2.43720007      -3.64166735E-05
   2.44919991      -3.67790963E-05
   2.46120000      -3.72981922E-05
   2.47320008      -3.79338853E-05
   2.48519993      -3.86492866E-05
   2.49720001      -3.94120943E-05
   2.50920010      -4.01957186E-05
   2.52119994      -4.09799104E-05
   2.53320003      -4.17510018E-05
   2.54520011      -4.25017715E-05
   2.55719995      -4.32309062E-05
   2.56920004      -4.39422220E-05
   2.58119988      -4.46435806E-05
   2.59319997      -4.53457324E-05
   2.60520005      -4.60609954E-05
   2.61719990      -4.68020262E-05
   2.62919998      -4.75805937E-05
   2.64120007      -4.84065276E-05
   2.65319991      -4.92868749E-05
   2.66520000      -5.02252587E-05
   2.67720008      -5.12215192E-05
   2.68919992      -5.22716582E-05
   2.70120001      -5.33680031E-05
   2.71320009      -5.44996947E-05
   2.72519994      -5.56533596E-05
   2.73720002      -5.68139585E-05
   2.74920011      -5.79658517E-05
   2.76119995      -5.90938434E-05
   2.77320004      -6.01842985E-05
   2.78520012      -6.12262083E-05
   2.79719996      -6.22120933E-05
   2.80920005      -6.31387957E-05
   2.82119989      -6.40080107E-05
   2.83319998      -6.48265413E-05
   2.84520006      -6.56063203E-05
   2.85719991      -6.63641185E-05
   2.86919999      -6.71209782E-05
   2.88120008      -6.79013974E-05
   2.89319992      -6.87323336E-05
   2.90520000      -6.96420611E-05
   2.91720009      -7.06589271E-05
   2.92919993      -7.18101583E-05
   2.94120002      -7.31206965E-05
   2.95320010      -7.46122314E-05
   2.96519995      -7.63023709E-05
   2.97720003      -7.82041170E-05
   2.98920012      -8.03255898E-05
   3.00119996      -8.26700707E-05
   3.01320004      -8.52362718E-05
   3.02519989      -8.80188891E-05
   3.03719997      -9.10093295E-05
   3.04920006      -9.41965700E-05
   3.06119990      -9.75680377E-05
   3.07319999      -1.01110491E-04
   3.08520007      -1.04810810E-04
   3.09719992      -1.08656517E-04
   3.10920000      -1.12636211E-04
   3.12120008      -1.16739568E-04
   3.13319993      -1.20957076E-04
   3.14520001      -1.25279563E-04
   3.15720010      -1.29697291E-04
   3.16919994      -1.34198752E-04
   3.18120003      -1.38769508E-04
   3.19320011      -1.43390513E-04
   3.20519996      -1.48036677E-04
   3.21720004      -1.52675289E-04
   3.22919989      -1.57264585E-04
   3.24119997      -1.61752541E-04
   3.25320005      -1.66075886E-04
   3.26519990      -1.70159648E-04
   3.27719998      -1.73916982E-04
   3.28920007      -1.77249720E-04
   3.30119991      -1.80049363E-04
   3.31320000      -1.82198768E-04
   3.32520008      -1.83574462E-04
   3.33719993      -1.84049597E-04
   3.34920001      -1.83497526E-04
   3.36120009      -1.81795855E-04
   3.37319994      -1.78830989E-04
   3.38520002      -1.74502857E-04
   3.39720011      -1.68729952E-04
   3.40919995      -1.61454140E-04
   3.42120004      -1.52645254E-04
   3.43319988      -1.42305202E-04
   3.44519997      -1.30471148E-04
   3.45720005      -1.17217976E-04
   3.46919990      -1.02659382E-04
   3.48119998      -8.69476135E-05
   3.49320006      -7.02718753E-05
   3.50519991      -5.28551136E-05
   3.51719999      -3.49493566E-05
   3.52920008      -1.68296301E-05
   3.54119992       1.21329617E-06
   3.55320001       1.88811755E-05
   3.56520009       3.58771831E-05
   3.57719994       5.19151472E-05
   3.58920002       6.67286295E-05
   3.60120010       8.00795970E-05
   3.61319995       9.17661018E-05
   3.62520003       1.01628873E-04
   3.63720012       1.09556218E-04
   3.64919996       1.15487295E-04
   3.66120005       1.19413460E-04
   3.67319989       1.21377561E-04
   3.68519998       1.21471516E-04
   3.69720006       1.19831879E-04
   3.70919991       1.16634008E-04
   3.72119999       1.12084912E-04
   3.73320007       1.06415078E-04
   3.74519992       9.98698088E-05
   3.75720000       9.27002548E-05
   3.76920009       8.51546865E-05
   3.78119993       7.74702785E-05
   3.79320002       6.98657168E-05
   3.80520010       6.25349130E-05
   3.81719995       5.56420018E-05
   3.82920003       4.93177831E-05
   3.84120011       4.36576047E-05
   3.85319996       3.87207801E-05
   3.86520004       3.45313892E-05
   3.87719989       3.10803844E-05
   3.88919997       2.83288227E-05
   3.90120006       2.62120229E-05
   3.91319990       2.46444379E-05
   3.92519999       2.35249681E-05
   3.93720007       2.27424862E-05
   3.94919991       2.21813407E-05
   3.96120000       2.17266170E-05
   3.97320008       2.12689320E-05
   3.98519993       2.07086450E-05
   3.99720001       1.99593305E-05
   4.00920010       1.89504462E-05
   4.02120018       1.76291251E-05
   4.03319979       1.59611373E-05
   4.04519987       1.39310087E-05
   4.05719995       1.15414141E-05
   4.06920004       8.81189044E-06
   4.08120012       5.77704395E-06
   4.09320021       2.48433048E-06
   4.10519981      -1.00841146E-06
   4.11719990      -4.63557171E-06
   4.12919998      -8.32638943E-06
   4.14120007      -1.20074928E-05
   4.15320015      -1.56052647E-05
   4.16520023      -1.90479914E-05
   4.17719984      -2.22677554E-05
   4.18919992      -2.52020691E-05
   4.20120001      -2.77952586E-05
   4.21320009      -2.99996154E-05
   4.22520018      -3.17763479E-05
   4.23719978      -3.30963558E-05
   4.24919987      -3.39408725E-05
   4.26119995      -3.43019747E-05
   4.27320004      -3.41829546E-05
   4.28520012      -3.35986260E-05
   4.29720020      -3.25754154E-05
   4.30919981      -3.11513468E-05
   4.32119989      -2.93758021E-05
   4.33319998      -2.73089809E-05
   4.34520006      -2.50211051E-05
   4.35720015      -2.25912245E-05
   4.36920023      -2.01056464E-05
   4.38119984      -1.76559533E-05
   4.39319992      -1.53366364E-05
   4.40520000      -1.32423347E-05
   4.41720009      -1.14648083E-05
   4.42920017      -1.00897078E-05
   4.44119978      -9.19324521E-06
   4.45319986      -8.83895154E-06
   4.46519995      -9.07464255E-06
   4.47720003      -9.92975492E-06
   4.48920012      -1.14132417E-05
   4.50120020      -1.35121318E-05
   4.51319981      -1.61909011E-05
   4.52519989      -1.93917385E-05
   4.53719997      -2.30357527E-05
   4.54920006      -2.70251294E-05
   4.56120014      -3.12461816E-05
   4.57320023      -3.55731936E-05
   4.58519983      -3.98729389E-05
   4.59719992      -4.40096192E-05
   4.60920000      -4.78501097E-05
   4.62120008      -5.12691950E-05
   4.63320017      -5.41545742E-05
   4.64519978      -5.64114744E-05
   4.65719986      -5.79665284E-05
   4.66919994      -5.87708855E-05
   4.68120003      -5.88023249E-05
   4.69320011      -5.80662745E-05
   4.70520020      -5.65957380E-05
   4.71719980      -5.44501090E-05
   4.72919989      -5.17128974E-05
   4.74119997      -4.84885240E-05
   4.75320005      -4.48982937E-05
   4.76520014      -4.10756948E-05
   4.77720022      -3.71612696E-05
   4.78919983      -3.32972595E-05
   4.80119991      -2.96222079E-05
   4.81320000      -2.62657486E-05
   4.82520008      -2.33438222E-05
   4.83720016      -2.09544269E-05
   4.84919977      -1.91741383E-05
   4.86119986      -1.80554853E-05
   4.87319994      -1.76252979E-05
   4.88520002      -1.78840819E-05
   4.89720011      -1.88064660E-05
   4.90920019      -2.03426644E-05
   4.92119980      -2.24209289E-05
   4.93319988      -2.49508576E-05
   4.94519997      -2.78274219E-05
   4.95720005      -3.09355491E-05
   4.96920013      -3.41550331E-05
   4.98120022      -3.73655676E-05
   4.99319983      -4.04516650E-05
   5.00519991      -4.33072673E-05
   5.01719999      -4.58397881E-05
   5.02920008      -4.79734663E-05
   5.04120016      -4.96518478E-05
   5.05319977      -5.08393059E-05
   5.06519985      -5.15215506E-05
   5.07719994      -5.17050903E-05
   5.08920002      -5.14157728E-05
   5.10120010      -5.06964243E-05
   5.11320019      -4.96038083E-05
   5.12519979      -4.82050382E-05
   5.13719988      -4.65736593E-05
   5.14919996      -4.47856764E-05
   5.16120005      -4.29156571E-05
   5.17320013      -4.10332068E-05
   5.18520021      -3.91998910E-05
   5.19719982      -3.74668816E-05
   5.20919991      -3.58732650E-05
   5.22119999      -3.44452346E-05
   5.23320007      -3.31960400E-05
   5.24520016      -3.21267034E-05
   5.25719976      -3.12274387E-05
   5.26919985      -3.04795813E-05
   5.28119993      -2.98579562E-05
   5.29320002      -2.93334615E-05
   5.30520010      -2.88756873E-05
   5.31720018      -2.84554517E-05
   5.32919979      -2.80470467E-05
   5.34119987      -2.76301180E-05
   5.35319996      -2.71910394E-05
   5.36520004      -2.67237610E-05
   5.37720013      -2.62300764E-05
   5.38920021      -2.57193624E-05
   5.40119982      -2.52077898E-05
   5.41319990      -2.47171138E-05
   5.42519999      -2.42731130E-05
   5.43720007      -2.39038091E-05
   5.44920015      -2.36375563E-05
   5.46120024      -2.35011503E-05
   5.47319984      -2.35180469E-05
   5.48519993      -2.37067907E-05
   5.49720001      -2.40797690E-05
   5.50920010      -2.46422842E-05
   5.52120018      -2.53920643E-05
   5.53319979      -2.63191396E-05
   5.54519987      -2.74061549E-05
   5.55719995      -2.86290124E-05
   5.56920004      -2.99578533E-05
   5.58120012      -3.13582896E-05
   5.59320021      -3.27928392E-05
   5.60519981      -3.42224666E-05
   5.61719990      -3.56081619E-05
   5.62919998      -3.69125082E-05
   5.64120007      -3.81011014E-05
   5.65320015      -3.91438443E-05
   5.66520023      -4.00159515E-05
   5.67719984      -4.06987310E-05
   5.68919992      -4.11800429E-05
   5.70120001      -4.14544265E-05
   5.71320009      -4.15229297E-05
   5.72520018      -4.13926246E-05
   5.73719978      -4.10758839E-05
   5.74919987      -4.05894025E-05
   5.76119995      -3.99530691E-05
   5.77320004      -3.91887224E-05
   5.78520012      -3.83188963E-05
   5.79720020      -3.73655457E-05
   5.80919981      -3.63489307E-05
   5.82119989      -3.52866155E-05
   5.83319998      -3.41927116E-05
   5.84520006      -3.30773728E-05
   5.85720015      -3.19465835E-05
   5.86920023      -3.08022063E-05
   5.88119984      -2.96423859E-05
   5.89319992      -2.84621528E-05
   5.90520000      -2.72543239E-05
   5.91720009      -2.60105353E-05
   5.92920017      -2.47224889E-05
   5.94119978      -2.33831925E-05
   5.95319986      -2.19882877E-05
   5.96519995      -2.05372689E-05
   5.97720003      -1.90346072E-05
   5.98920012      -1.74906636E-05
   6.00120020      -1.59223546E-05
   6.01319981      -1.43535044E-05
   6.02519989      -1.28148486E-05
   6.03719997      -1.13436654E-05
   6.04920006      -9.98302767E-06
   6.06120014      -8.78067749E-06
   6.07320023      -7.78756566E-06
   6.08519983      -7.05609045E-06
   6.09719992      -6.63809942E-06
   6.10920000      -6.58273439E-06
   6.12120008      -6.93419452E-06
   6.13320017      -7.72951989E-06
   6.14519978      -8.99649694E-06
   6.15719986      -1.07517726E-05
   6.16919994      -1.29992941E-05
   6.18120003      -1.57291379E-05
   6.19320011      -1.89168077E-05
   6.20520020      -2.25230651E-05
   6.21719980      -2.64942846E-05
   6.22919989      -3.07633964E-05
   6.24119997      -3.52513161E-05
   6.25320005      -3.98689044E-05
   6.26520014      -4.45193327E-05
   6.27720022      -4.91008177E-05
   6.28919983      -5.35096078E-05
   6.30119991      -5.76431339E-05
   6.31320000      -6.14032324E-05
   6.32520008      -6.46992921E-05
   6.33720016      -6.74512848E-05
   6.34919977      -6.95924464E-05
   6.36119986      -7.10716340E-05
   6.37319994      -7.18552546E-05
   6.38520002      -7.19285308E-05
   6.39720011      -7.12962719E-05
   6.40920019      -6.99829179E-05
   6.42119980      -6.80319863E-05
   6.43319988      -6.55047916E-05
   6.44519997      -6.24785753E-05
   6.45720005      -5.90440868E-05
   6.46920013      -5.53026803E-05
   6.48120022      -5.13630039E-05
   6.49319983      -4.73375039E-05
   6.50519991      -4.33387941E-05
   6.51719999      -3.94760937E-05
   6.52920008      -3.58518555E-05
   6.54120016      -3.25587607E-05
   6.55319977      -2.96771414E-05
   6.56519985      -2.72729994E-05
   6.57719994      -2.53966155E-05
   6.58920002      -2.40818335E-05
   6.60120010      -2.33459796E-05
   6.61320019      -2.31903759E-05
   6.62519979      -2.36013893E-05
   6.63719988      -2.45519077E-05
   6.64919996      -2.60031393E-05
   6.66120005      -2.79066135E-05
   6.67320013      -3.02062654E-05
   6.68520021      -3.28405185E-05
   6.69719982      -3.57442441E-05
   6.70919991      -3.88505432E-05
   6.72119999      -4.20923279E-05
   6.73320007      -4.54036453E-05
   6.74520016      -4.87207835E-05
   6.75719976      -5.19831374E-05
   6.76919985      -5.51339253E-05
   6.78119993      -5.81207496E-05
   6.79320002      -6.08960436E-05
   6.80520010      -6.34175012E-05
   6.81720018      -6.56483826E-05
   6.82919979      -6.75578776E-05
   6.84119987      -6.91213281E-05
   6.85319996      -7.03205078E-05
   6.86520004      -7.11437824E-05
   6.87720013      -7.15860879E-05
   6.88920021      -7.16489376E-05
   6.90119982      -7.13401460E-05
   6.91319990      -7.06734791E-05
   6.92519999      -6.96681236E-05
   6.93720007      -6.83480393E-05
   6.94920015      -6.67411732E-05
   6.96120024      -6.48786663E-05
   6.97319984      -6.27940535E-05
   6.98519993      -6.05224195E-05
   6.99720001      -5.80997257E-05
   7.00920010      -5.55622173E-05
   7.02120018      -5.29459612E-05
   7.03319979      -5.02865223E-05
   7.04519987      -4.76187997E-05
   7.05719995      -4.49769104E-05
   7.06920004      -4.23941929E-05
   7.08120012      -3.99031887E-05
   7.09320021      -3.75356212E-05
   7.10519981      -3.53223077E-05
   7.11719990      -3.32929594E-05
   7.12919998      -3.14759200E-05
   7.14120007      -2.98977411E-05
   7.15320015      -2.85826900E-05
   7.16520023      -2.75521979E-05
   7.17719984      -2.68242657E-05
   7.18919992      -2.64129103E-05
   7.20120001      -2.63276688E-05
   7.21320009      -2.65732324E-05
   7.22520018      -2.71492227E-05
   7.23719978      -2.80501336E-05
   7.24919987      -2.92654495E-05
   7.26119995      -3.07799201E-05
   7.27320004      -3.25739638E-05
   7.28520012      -3.46241613E-05
   7.29720020      -3.69037880E-05
   7.30919981      -3.93833689E-05
   7.32119989      -4.20311735E-05
   7.33319998      -4.48136452E-05
   7.34520006      -4.76957648E-05
   7.35720015      -5.06412980E-05
   7.36920023      -5.36130137E-05
   7.38119984      -5.65728478E-05
   7.39319992      -5.94820995E-05
   7.40520000      -6.23016240E-05
   7.41720009      -6.49922222E-05
   7.42920017      -6.75150222E-05
   7.44119978      -6.98321819E-05
   7.45319986      -7.19076052E-05
   7.46519995      -7.37078881E-05
   7.47720003      -7.52033011E-05
   7.48920012      -7.63688440E-05
   7.50120020      -7.71852574E-05
   7.51319981      -7.76399029E-05
   7.52519989      -7.77274690E-05
   7.53719997      -7.74503569E-05
   7.54920006      -7.68187965E-05
   7.56120014      -7.58505630E-05
   7.57320023      -7.45703146E-05
   7.58519983      -7.30086613E-05
   7.59719992      -7.12008696E-05
   7.60920000      -6.91854220E-05
   7.62120008      -6.70024019E-05
   7.63320017      -6.46920016E-05
   7.64519978      -6.22930456E-05
   7.65719986      -5.98418337E-05
   7.66919994      -5.73712423E-05
   7.68120003      -5.49102260E-05
   7.69320011      -5.24837269E-05
   7.70520020      -5.01129580E-05
   7.71719980      -4.78160109E-05
   7.72919989      -4.56087182E-05
   7.74119997      -4.35056281E-05
   7.75320005      -4.15210234E-05
   7.76520014      -3.96697724E-05
   7.77720022      -3.79679805E-05
   7.78919983      -3.64332518E-05
   7.80119991      -3.50846130E-05
   7.81320000      -3.39419676E-05
   7.82520008      -3.30251169E-05
   7.83720016      -3.23524800E-05
   7.84919977      -3.19395076E-05
   7.86119986      -3.17970007E-05
   7.87319994      -3.19294304E-05
   7.88520002      -3.23334934E-05
   7.89720011      -3.29969407E-05
   7.90920019      -3.38979371E-05
   7.92119980      -3.50050141E-05
   7.93319988      -3.62775754E-05
   7.94519997      -3.76671560E-05
   7.95720005      -3.91191752E-05
   7.96920013      -4.05752326E-05
   7.98120022      -4.19757562E-05
   7.99319983      -4.32628258E-05
   8.00520039      -4.43829995E-05
   8.01720047      -4.52899440E-05
   8.02919960      -4.59467192E-05
   8.04119968      -4.63275064E-05
   8.05319977      -4.64187688E-05
   8.06519985      -4.62196476E-05
   8.07719994      -4.57417118E-05
   8.08920002      -4.50079824E-05
   8.10120010      -4.40514050E-05
   8.11320019      -4.29128268E-05
   8.12520027      -4.16386611E-05
   8.13720036      -4.02784099E-05
   8.14920044      -3.88821827E-05
   8.16119957      -3.74984302E-05
   8.17319965      -3.61719358E-05
   8.18519974      -3.49422735E-05
   8.19719982      -3.38426689E-05
   8.20919991      -3.28994320E-05
   8.22119999      -3.21317893E-05
   8.23320007      -3.15521684E-05
   8.24520016      -3.11668118E-05
   8.25720024      -3.09766328E-05
   8.26920033      -3.09781863E-05
   8.28120041      -3.11646763E-05
   8.29319954      -3.15268917E-05
   8.30519962      -3.20539984E-05
   8.31719971      -3.27341149E-05
   8.32919979      -3.35547156E-05
   8.34119987      -3.45027693E-05
   8.35319996      -3.55647317E-05
   8.36520004      -3.67263674E-05
   8.37720013      -3.79725243E-05
   8.38920021      -3.92868860E-05
   8.40120029      -4.06517465E-05
   8.41320038      -4.20479082E-05
   8.42520046      -4.34546964E-05
   8.43719959      -4.48501196E-05
   8.44919968      -4.62112075E-05
   8.46119976      -4.75144589E-05
   8.47319984      -4.87364414E-05
   8.48519993      -4.98544068E-05
   8.49720001      -5.08469784E-05
   8.50920010      -5.16948276E-05
   8.52120018      -5.23812196E-05
   8.53320026      -5.28925266E-05
   8.54520035      -5.32185513E-05
   8.55720043      -5.33526872E-05
   8.56919956      -5.32919694E-05
   8.58119965      -5.30369289E-05
   8.59319973      -5.25913420E-05
   8.60519981      -5.19618770E-05
   8.61719990      -5.11577200E-05
   8.62919998      -5.01901523E-05
   8.64120007      -4.90721686E-05
   8.65320015      -4.78181755E-05
   8.66520023      -4.64437144E-05
   8.67720032      -4.49653198E-05
   8.68920040      -4.34004287E-05
   8.70119953      -4.17673655E-05
   8.71319962      -4.00853896E-05
   8.72519970      -3.83747538E-05
   8.73719978      -3.66567474E-05
   8.74919987      -3.49537149E-05
   8.76119995      -3.32889722E-05
   8.77320004      -3.16866608E-05
   8.78520012      -3.01714172E-05
   8.79720020      -2.87679668E-05
   8.80920029      -2.75005677E-05
   8.82120037      -2.63923557E-05
   8.83320045      -2.54645984E-05
   8.84519958      -2.47359148E-05
   8.85719967      -2.42214846E-05
   8.86919975      -2.39323035E-05
   8.88119984      -2.38745124E-05
   8.89319992      -2.40488571E-05
   8.90520000      -2.44503135E-05
   8.91720009      -2.50678804E-05
   8.92920017      -2.58846248E-05
   8.94120026      -2.68779349E-05
   8.95320034      -2.80200111E-05
   8.96520042      -2.92786190E-05
   8.97719955      -3.06180154E-05
   8.98919964      -3.20001054E-05
   9.00119972      -3.33857024E-05
   9.01319981      -3.47358873E-05
   9.02519989      -3.60134327E-05
   9.03719997      -3.71841561E-05
   9.04920006      -3.82182261E-05
   9.06120014      -3.90913010E-05
   9.07320023      -3.97855110E-05
   9.08520031      -4.02902078E-05
   9.09720039      -4.06024374E-05
   9.10919952      -4.07271509E-05
   9.12119961      -4.06771251E-05
   9.13319969      -4.04725615E-05
   9.14519978      -4.01404468E-05
   9.15719986      -3.97135918E-05
   9.16919994      -3.92294824E-05
   9.18120003      -3.87289256E-05
   9.19320011      -3.82545986E-05
   9.20520020      -3.78494478E-05
   9.21720028      -3.75551535E-05
   9.22920036      -3.74105475E-05
   9.24120045      -3.74502088E-05
   9.25319958      -3.77031065E-05
   9.26519966      -3.81915233E-05
   9.27719975      -3.89301349E-05
   9.28919983      -3.99253731E-05
   9.30119991      -4.11751025E-05
   9.31320000      -4.26685438E-05
   9.32520008      -4.43865283E-05
   9.33720016      -4.63020442E-05
   9.34920025      -4.83810472E-05
   9.36120033      -5.05835014E-05
   9.37320042      -5.28646342E-05
   9.38519955      -5.51763333E-05
   9.39719963      -5.74686310E-05
   9.40919971      -5.96912614E-05
   9.42119980      -6.17951737E-05
   9.43319988      -6.37340199E-05
   9.44519997      -6.54655087E-05
