 -0.622799993       0.00000000    
 -0.610800028       0.00000000    
 -0.598800004       0.00000000    
 -0.586799979      -5.90632341E-19
 -0.574800014      -6.69916828E-18
 -0.562799990      -3.61013946E-17
 -0.550800025      -1.28201520E-16
 -0.538800001      -3.40552402E-16
 -0.526799977      -7.18597500E-16
 -0.514800012      -1.23649436E-15
 -0.502799988      -1.73530962E-15
 -0.490799993      -1.91842586E-15
 -0.478799999      -1.47902530E-15
 -0.466800004      -4.03852286E-16
 -0.454800010       5.92351369E-16
 -0.442799985      -3.22469625E-16
 -0.430799991      -6.15433641E-15
 -0.418799996      -2.05119633E-14
 -0.406800002      -4.62833066E-14
 -0.394800007      -8.37973693E-14
 -0.382800013      -1.29168526E-13
 -0.370799989      -1.73877704E-13
 -0.358799994      -2.06646752E-13
 -0.346799999      -2.18115483E-13
 -0.334800005      -2.07731117E-13
 -0.322800010      -1.90884323E-13
 -0.310799986      -2.03214751E-13
 -0.298799992      -2.98814413E-13
 -0.286799997      -5.40274368E-13
 -0.274800003      -9.81187137E-13
 -0.262800008      -1.64522627E-12
 -0.250800014      -2.50905741E-12
 -0.238800004      -3.49760238E-12
 -0.226799995      -4.49835698E-12
 -0.214800000      -5.39626243E-12
 -0.202800006      -6.12304348E-12
 -0.190799996      -6.70726061E-12
 -0.178800002      -7.30660931E-12
 -0.166800007      -8.20491505E-12
 -0.154799998      -9.76408711E-12
 -0.142800003      -1.23348371E-11
 -0.130799994      -1.61457150E-11
 -0.118799999      -2.12025848E-11
 -0.106799997      -2.72348411E-11
  -9.48000029E-02  -3.37170014E-11
  -8.28000009E-02  -3.99750580E-11
  -7.07999989E-02  -4.53605729E-11
  -5.88000007E-02  -4.94497082E-11
  -4.67999987E-02  -5.22082655E-11
  -3.48000005E-02  -5.40643641E-11
  -2.28000004E-02  -5.58502619E-11
  -1.08000003E-02  -5.86103180E-11
   1.20000006E-03  -6.33136460E-11
   1.31999999E-02  -7.05451947E-11
   2.52000000E-02  -8.02653638E-11
   3.72000001E-02  -9.17184315E-11
   4.91999984E-02  -1.03534674E-10
   6.12000003E-02  -1.14017656E-10
   7.32000023E-02  -1.21552962E-10
   8.51999968E-02  -1.25032609E-10
   9.71999988E-02  -1.24176835E-10
  0.109200001      -1.19654800E-10
  0.121200003      -1.12957553E-10
  0.133200005      -1.06044548E-10
  0.145199999      -1.00851348E-10
  0.157199994      -9.87911836E-11
  0.169200003      -1.00392472E-10
  0.181199998      -1.05183293E-10
  0.193200007      -1.11869090E-10
  0.205200002      -1.18767149E-10
  0.217199996      -1.24383628E-10
  0.229200006      -1.27967220E-10
  0.241200000      -1.29865049E-10
  0.253199995      -1.31545982E-10
  0.265199989      -1.35238543E-10
  0.277200013      -1.43235590E-10
  0.289200008      -1.57020813E-10
  0.301200002      -1.76443402E-10
  0.313199997      -1.99186181E-10
  0.325199991      -2.20726964E-10
  0.337199986      -2.34888914E-10
  0.349200010      -2.34936071E-10
  0.361200005      -2.15028231E-10
  0.373199999      -1.71744938E-10
  0.385199994      -1.05352491E-10
  0.397199988      -2.05346556E-11
  0.409200013       7.35711908E-11
  0.421200007       1.64029706E-10
  0.433200002       2.35299780E-10
  0.445199996       2.70713924E-10
  0.457199991       2.53993854E-10
  0.469199985       1.70646705E-10
  0.481200010       9.24726008E-12
  0.493200004      -2.37222048E-10
  0.505200028      -5.69699343E-10
  0.517199993      -9.80782455E-10
  0.529200017      -1.45178825E-09
  0.541199982      -1.94930938E-09
  0.553200006      -2.42177078E-09
  0.565199971      -2.79673551E-09
  0.577199996      -2.97981995E-09
  0.589200020      -2.85597079E-09
  0.601199985      -2.29353936E-09
  0.613200009      -1.15114063E-09
  0.625199974       7.13211712E-10
  0.637199998       3.43163653E-09
  0.649200022       7.11583592E-09
  0.661199987       1.18478614E-08
  0.673200011       1.76737185E-08
  0.685199976       2.46014853E-08
  0.697200000       3.26058824E-08
  0.709200025       4.16418260E-08
  0.721199989       5.16700744E-08
  0.733200014       6.26988381E-08
  0.745199978       7.48457722E-08
  0.757200003       8.84246703E-08
  0.769200027       1.04060945E-07
  0.781199992       1.22838301E-07
  0.793200016       1.46477376E-07
  0.805199981       1.77544834E-07
  0.817200005       2.19688189E-07
  0.829200029       2.77889853E-07
  0.841199994       3.58730261E-07
  0.853200018       4.70648729E-07
  0.865199983       6.24187180E-07
  0.877200007       8.32202090E-07
  0.889199972       1.11002635E-06
  0.901199996       1.47556386E-06
  0.913200021       1.94929908E-06
  0.925199986       2.55420559E-06
  0.937200010       3.31553656E-06
  0.949199975       4.26049519E-06
  0.961199999       5.41777490E-06
  0.973200023       6.81697520E-06
  0.985199988       8.48790751E-06
  0.997200012       1.04598057E-05
   1.00919998       1.27604681E-05
   1.02119994       1.54153586E-05
   1.03320003       1.84467026E-05
   1.04519999       2.18726072E-05
   1.05719995       2.57062457E-05
   1.06920004       2.99551193E-05
   1.08120000       3.46204579E-05
   1.09319997       3.96967444E-05
   1.10520005       4.51713859E-05
   1.11720002       5.10245882E-05
   1.12919998       5.72293757E-05
   1.14119995       6.37517951E-05
   1.15320003       7.05512721E-05
   1.16520000       7.75811495E-05
   1.17719996       8.47893389E-05
   1.18920004       9.21191458E-05
   1.20120001       9.95102091E-05
   1.21319997       1.06899504E-04
   1.22520006       1.14222588E-04
   1.23720002       1.21414771E-04
   1.24919999       1.28412605E-04
   1.26119995       1.35155249E-04
   1.27320004       1.41586032E-04
   1.28520000       1.47654078E-04
   1.29719996       1.53315748E-04
   1.30920005       1.58536219E-04
   1.32120001       1.63290752E-04
   1.33319998       1.67565871E-04
   1.34519994       1.71360123E-04
   1.35720003       1.74684508E-04
   1.36919999       1.77562411E-04
   1.38119996       1.80029136E-04
   1.39320004       1.82130738E-04
   1.40520000       1.83922326E-04
   1.41719997       1.85465993E-04
   1.42920005       1.86828198E-04
   1.44120002       1.88076840E-04
   1.45319998       1.89278289E-04
   1.46519995       1.90494291E-04
   1.47720003       1.91779196E-04
   1.48920000       1.93177504E-04
   1.50119996       1.94722088E-04
   1.51320004       1.96433000E-04
   1.52520001       1.98317211E-04
   1.53719997       2.00369090E-04
   1.54920006       2.02571857E-04
   1.56120002       2.04899683E-04
   1.57319999       2.07320452E-04
   1.58519995       2.09798891E-04
   1.59720004       2.12300001E-04
   1.60920000       2.14792279E-04
   1.62119997       2.17250708E-04
   1.63320005       2.19659210E-04
   1.64520001       2.22012211E-04
   1.65719998       2.24315547E-04
   1.66919994       2.26586169E-04
   1.68120003       2.28851088E-04
   1.69319999       2.31145328E-04
   1.70519996       2.33509243E-04
   1.71720004       2.35985266E-04
   1.72920001       2.38614419E-04
   1.74119997       2.41432746E-04
   1.75320005       2.44468014E-04
   1.76520002       2.47736985E-04
   1.77719998       2.51243211E-04
   1.78919995       2.54975690E-04
   1.80120003       2.58908694E-04
   1.81320000       2.63002148E-04
   1.82519996       2.67203170E-04
   1.83720005       2.71448371E-04
   1.84920001       2.75666476E-04
   1.86119998       2.79781903E-04
   1.87320006       2.83717818E-04
   1.88520002       2.87399715E-04
   1.89719999       2.90758355E-04
   1.90919995       2.93732242E-04
   1.92120004       2.96269776E-04
   1.93320000       2.98330386E-04
   1.94519997       2.99884938E-04
   1.95720005       3.00915533E-04
   1.96920002       3.01414577E-04
   1.98119998       3.01383174E-04
   1.99319994       3.00829270E-04
   2.00519991       2.99765059E-04
   2.01719999       2.98204861E-04
   2.02920008       2.96162470E-04
   2.04119992       2.93649238E-04
   2.05320001       2.90672237E-04
   2.06520009       2.87232979E-04
   2.07719994       2.83326895E-04
   2.08920002       2.78943306E-04
   2.10120010       2.74066057E-04
   2.11319995       2.68674892E-04
   2.12520003       2.62747228E-04
   2.13720012       2.56260508E-04
   2.14919996       2.49194738E-04
   2.16120005       2.41535105E-04
   2.17319989       2.33275045E-04
   2.18519998       2.24418531E-04
   2.19720006       2.14982560E-04
   2.20919991       2.04998898E-04
   2.22119999       1.94515334E-04
   2.23320007       1.83596276E-04
   2.24519992       1.72322485E-04
   2.25720000       1.60790209E-04
   2.26920009       1.49109386E-04
   2.28119993       1.37401294E-04
   2.29320002       1.25795559E-04
   2.30520010       1.14426795E-04
   2.31719995       1.03430917E-04
   2.32920003       9.29412927E-05
   2.34120011       8.30850768E-05
   2.35319996       7.39795723E-05
   2.36520004       6.57291021E-05
   2.37719989       5.84222544E-05
   2.38919997       5.21296861E-05
   2.40120006       4.69026309E-05
   2.41319990       4.27719460E-05
   2.42519999       3.97478907E-05
   2.43720007       3.78204131E-05
   2.44919991       3.69600239E-05
   2.46120000       3.71190872E-05
   2.47320008       3.82334219E-05
   2.48519993       4.02241967E-05
   2.49720001       4.29999163E-05
   2.50920010       4.64585537E-05
   2.52119994       5.04896816E-05
   2.53320003       5.49766155E-05
   2.54520011       5.97985527E-05
   2.55719995       6.48327041E-05
   2.56920004       6.99564116E-05
   2.58119988       7.50492545E-05
   2.59319997       7.99951667E-05
   2.60520005       8.46845433E-05
   2.61719990       8.90163356E-05
   2.62919998       9.29000744E-05
   2.64120007       9.62577760E-05
   2.65319991       9.90257031E-05
   2.66520000       1.01155827E-04
   2.67720008       1.02617036E-04
   2.68919992       1.03395876E-04
   2.70120001       1.03496845E-04
   2.71320009       1.02942220E-04
   2.72519994       1.01771322E-04
   2.73720002       1.00039273E-04
   2.74920011       9.78153257E-05
   2.76119995       9.51807597E-05
   2.77320004       9.22264444E-05
   2.78520012       8.90501979E-05
   2.79719996       8.57539708E-05
   2.80920005       8.24410308E-05
   2.82119989       7.92131541E-05
   2.83319998       7.61678821E-05
   2.84520006       7.33960333E-05
   2.85719991       7.09793312E-05
   2.86919999       6.89882436E-05
   2.88120008       6.74801631E-05
   2.89319992       6.64977197E-05
   2.90520000       6.60674777E-05
   2.91720009       6.61988306E-05
   2.92919993       6.68833309E-05
   2.94120002       6.80943267E-05
   2.95320010       6.97870710E-05
   2.96519995       7.18993979E-05
   2.97720003       7.43529890E-05
   2.98920012       7.70552579E-05
   3.00119996       7.99020418E-05
   3.01320004       8.27809199E-05
   3.02519989       8.55752078E-05
   3.03719997       8.81685701E-05
   3.04920006       9.04500048E-05
   3.06119990       9.23190164E-05
   3.07319999       9.36907454E-05
   3.08520007       9.45008069E-05
   3.09719992       9.47094522E-05
   3.10920000       9.43048290E-05
   3.12120008       9.33050687E-05
   3.13319993       9.17590078E-05
   3.14520001       8.97453501E-05
   3.15720010       8.73703029E-05
   3.16919994       8.47636329E-05
   3.18120003       8.20733621E-05
   3.19320011       7.94593070E-05
   3.20519996       7.70857296E-05
   3.21720004       7.51135594E-05
   3.22919989       7.36925504E-05
   3.24119997       7.29537933E-05
   3.25320005       7.30030661E-05
   3.26519990       7.39152747E-05
   3.27719998       7.57303860E-05
   3.28920007       7.84510048E-05
   3.30119991       8.20417263E-05
   3.31320000       8.64302347E-05
   3.32520008       9.15101700E-05
   3.33719993       9.71454210E-05
   3.34920001       1.03175764E-04
   3.36120009       1.09423410E-04
   3.37319994       1.15700241E-04
   3.38520002       1.21815312E-04
   3.39720011       1.27582374E-04
   3.40919995       1.32826943E-04
   3.42120004       1.37392883E-04
   3.43319988       1.41148106E-04
   3.44519997       1.43989193E-04
   3.45720005       1.45844955E-04
   3.46919990       1.46678693E-04
   3.48119998       1.46489285E-04
   3.49320006       1.45310987E-04
   3.50519991       1.43211975E-04
   3.51719999       1.40291813E-04
   3.52920008       1.36677816E-04
   3.54119992       1.32520479E-04
   3.55320001       1.27988125E-04
   3.56520009       1.23260761E-04
   3.57719994       1.18523676E-04
   3.58920002       1.13960603E-04
   3.60120010       1.09746921E-04
   3.61319995       1.06043095E-04
   3.62520003       1.02988553E-04
   3.63720012       1.00696459E-04
   3.64919996       9.92493005E-05
   3.66120005       9.86958839E-05
   3.67319989       9.90495682E-05
   3.68519998       1.00288118E-04
   3.69720006       1.02355014E-04
   3.70919991       1.05162326E-04
   3.72119999       1.08594897E-04
   3.73320007       1.12515801E-04
   3.74519992       1.16772651E-04
   3.75720000       1.21204539E-04
   3.76920009       1.25649225E-04
   3.78119993       1.29950160E-04
   3.79320002       1.33962996E-04
   3.80520010       1.37561292E-04
   3.81719995       1.40641117E-04
   3.82920003       1.43124256E-04
   3.84120011       1.44960053E-04
   3.85319996       1.46125836E-04
   3.86520004       1.46625753E-04
   3.87719989       1.46488659E-04
   3.88919997       1.45764643E-04
   3.90120006       1.44521036E-04
   3.91319990       1.42837831E-04
   3.92519999       1.40802906E-04
   3.93720007       1.38507487E-04
   3.94919991       1.36041883E-04
   3.96120000       1.33491776E-04
   3.97320008       1.30935383E-04
   3.98519993       1.28441301E-04
   3.99720001       1.26067185E-04
   4.00920010       1.23859252E-04
   4.02120018       1.21852347E-04
   4.03319979       1.20070523E-04
   4.04519987       1.18528005E-04
   4.05719995       1.17230338E-04
   4.06920004       1.16175543E-04
   4.08120012       1.15355317E-04
   4.09320021       1.14755967E-04
   4.10519981       1.14359333E-04
   4.11719990       1.14143542E-04
   4.12919998       1.14083603E-04
   4.14120007       1.14152092E-04
   4.15320015       1.14319824E-04
   4.16520023       1.14556678E-04
   4.17719984       1.14832699E-04
   4.18919992       1.15119234E-04
   4.20120001       1.15390525E-04
   4.21320009       1.15625284E-04
   4.22520018       1.15808412E-04
   4.23719978       1.15932620E-04
   4.24919987       1.15999843E-04
   4.26119995       1.16022195E-04
   4.27320004       1.16022442E-04
   4.28520012       1.16033632E-04
   4.29720020       1.16098076E-04
   4.30919981       1.16265364E-04
   4.32119989       1.16589683E-04
   4.33319998       1.17126408E-04
   4.34520006       1.17928241E-04
   4.35720015       1.19041055E-04
   4.36920023       1.20499812E-04
   4.38119984       1.22324840E-04
   4.39319992       1.24518672E-04
   4.40520000       1.27063802E-04
   4.41720009       1.29921682E-04
   4.42920017       1.33032852E-04
   4.44119978       1.36318413E-04
   4.45319986       1.39682787E-04
   4.46519995       1.43017634E-04
   4.47720003       1.46206628E-04
   4.48920012       1.49130967E-04
   4.50120020       1.51674976E-04
   4.51319981       1.53731875E-04
   4.52519989       1.55208938E-04
   4.53719997       1.56031965E-04
   4.54920006       1.56148817E-04
   4.56120014       1.55531598E-04
   4.57320023       1.54177775E-04
   4.58519983       1.52109715E-04
   4.59719992       1.49373373E-04
   4.60920000       1.46035629E-04
   4.62120008       1.42181045E-04
   4.63320017       1.37908064E-04
   4.64519978       1.33324778E-04
   4.65719986       1.28544954E-04
   4.66919994       1.23684018E-04
   4.68120003       1.18855671E-04
   4.69320011       1.14168870E-04
   4.70520020       1.09725450E-04
   4.71719980       1.05618237E-04
   4.72919989       1.01929785E-04
   4.74119997       9.87313979E-05
   4.75320005       9.60824691E-05
   4.76520014       9.40300379E-05
   4.77720022       9.26082721E-05
   4.78919983       9.18379956E-05
   4.80119991       9.17261859E-05
   4.81320000       9.22652980E-05
   4.82520008       9.34327691E-05
   4.83720016       9.51905677E-05
   4.84919977       9.74851137E-05
   4.86119986       1.00247598E-04
   4.87319994       1.03394923E-04
   4.88520002       1.06831336E-04
   4.89720011       1.10450841E-04
   4.90920019       1.14140348E-04
   4.92119980       1.17783493E-04
   4.93319988       1.21264973E-04
   4.94519997       1.24475206E-04
   4.95720005       1.27315026E-04
   4.96920013       1.29700071E-04
   4.98120022       1.31564753E-04
   4.99319983       1.32865156E-04
   5.00519991       1.33581067E-04
   5.01719999       1.33716472E-04
   5.02920008       1.33298876E-04
   5.04120016       1.32377114E-04
   5.05319977       1.31017849E-04
   5.06519985       1.29301145E-04
   5.07719994       1.27315128E-04
   5.08920002       1.25150313E-04
   5.10120010       1.22893980E-04
   5.11320019       1.20624820E-04
   5.12519979       1.18408519E-04
   5.13719988       1.16294330E-04
   5.14919996       1.14313014E-04
   5.16120005       1.12476293E-04
   5.17320013       1.10777721E-04
   5.18520021       1.09194989E-04
   5.19719982       1.07693399E-04
   5.20919991       1.06230240E-04
   5.22119999       1.04759645E-04
   5.23320007       1.03237639E-04
   5.24520016       1.01626800E-04
   5.25719976       9.99002295E-05
   5.26919985       9.80446130E-05
   5.28119993       9.60619655E-05
   5.29320002       9.39700694E-05
   5.30520010       9.18015794E-05
   5.31720018       8.96018537E-05
   5.32919979       8.74258840E-05
   5.34119987       8.53344100E-05
   5.35319996       8.33896411E-05
   5.36520004       8.16510656E-05
   5.37720013       8.01714850E-05
   5.38920021       7.89937476E-05
   5.40119982       7.81483614E-05
   5.41319990       7.76521993E-05
   5.42519999       7.75082954E-05
   5.43720007       7.77067689E-05
   5.44920015       7.82267452E-05
   5.46120024       7.90389022E-05
   5.47319984       8.01085916E-05
   5.48519993       8.13990846E-05
   5.49720001       8.28745760E-05
   5.50920010       8.45027607E-05
   5.52120018       8.62567540E-05
   5.53319979       8.81160522E-05
   5.54519987       9.00667073E-05
   5.55719995       9.21004539E-05
   5.56920004       9.42131810E-05
   5.58120012       9.64027204E-05
   5.59320021       9.86662853E-05
   5.60519981       1.00997873E-04
   5.61719990       1.03385806E-04
   5.62919998       1.05810796E-04
   5.64120007       1.08244705E-04
   5.65320015       1.10650180E-04
   5.66520023       1.12981310E-04
   5.67719984       1.15185183E-04
   5.68919992       1.17204399E-04
   5.70120001       1.18980242E-04
   5.71320009       1.20456403E-04
   5.72520018       1.21582758E-04
   5.73719978       1.22319179E-04
   5.74919987       1.22638827E-04
   5.76119995       1.22530662E-04
   5.77320004       1.22001213E-04
   5.78520012       1.21075100E-04
   5.79720020       1.19794488E-04
   5.80919981       1.18217366E-04
   5.82119989       1.16414842E-04
   5.83319998       1.14467461E-04
   5.84520006       1.12461028E-04
   5.85720015       1.10481989E-04
   5.86920023       1.08612810E-04
   5.88119984       1.06927699E-04
   5.89319992       1.05488762E-04
   5.90520000       1.04343068E-04
   5.91720009       1.03520724E-04
   5.92920017       1.03033941E-04
   5.94119978       1.02877289E-04
   5.95319986       1.03029022E-04
   5.96519995       1.03453283E-04
   5.97720003       1.04103034E-04
   5.98920012       1.04923522E-04
   6.00120020       1.05855906E-04
   6.01319981       1.06840889E-04
   6.02519989       1.07822016E-04
   6.03719997       1.08748471E-04
   6.04920006       1.09577253E-04
   6.06120014       1.10274530E-04
   6.07320023       1.10816225E-04
   6.08519983       1.11187815E-04
   6.09719992       1.11383481E-04
   6.10920000       1.11404719E-04
   6.12120008       1.11258603E-04
   6.13320017       1.10955822E-04
   6.14519978       1.10508903E-04
   6.15719986       1.09930566E-04
   6.16919994       1.09232511E-04
   6.18120003       1.08424734E-04
   6.19320011       1.07515356E-04
   6.20520020       1.06511070E-04
   6.21719980       1.05417967E-04
   6.22919989       1.04242870E-04
   6.24119997       1.02994745E-04
   6.25320005       1.01686164E-04
   6.26520014       1.00334633E-04
   6.27720022       9.89635228E-05
   6.28919983       9.76025258E-05
   6.30119991       9.62875638E-05
   6.31320000       9.50600006E-05
   6.32520008       9.39652455E-05
   6.33720016       9.30508613E-05
   6.34919977       9.23641564E-05
   6.36119986       9.19495506E-05
   6.37319994       9.18458391E-05
   6.38520002       9.20835664E-05
   6.39720011       9.26827488E-05
   6.40920019       9.36511278E-05
   6.42119980       9.49830064E-05
   6.43319988       9.66589068E-05
   6.44519997       9.86460072E-05
   6.45720005       1.00899262E-04
   6.46920013       1.03363323E-04
   6.48120022       1.05974890E-04
   6.49319983       1.08665496E-04
   6.50519991       1.11364439E-04
   6.51719999       1.14001741E-04
   6.52920008       1.16510928E-04
   6.54120016       1.18831405E-04
   6.55319977       1.20910438E-04
   6.56519985       1.22704601E-04
   6.57719994       1.24180588E-04
   6.58920002       1.25315404E-04
   6.60120010       1.26096245E-04
   6.61320019       1.26519662E-04
   6.62519979       1.26590618E-04
   6.63719988       1.26321189E-04
   6.64919996       1.25729261E-04
   6.66120005       1.24837257E-04
   6.67320013       1.23670936E-04
   6.68520021       1.22258483E-04
   6.69719982       1.20629658E-04
   6.70919991       1.18815362E-04
   6.72119999       1.16847237E-04
   6.73320007       1.14757495E-04
   6.74520016       1.12578811E-04
   6.75719976       1.10344256E-04
   6.76919985       1.08087144E-04
   6.78119993       1.05840823E-04
   6.79320002       1.03638340E-04
   6.80520010       1.01511854E-04
   6.81720018       9.94919683E-05
   6.82919979       9.76068695E-05
   6.84119987       9.58812961E-05
   6.85319996       9.43355990E-05
   6.86520004       9.29846865E-05
   6.87720013       9.18372025E-05
   6.88920021       9.08948641E-05
   6.90119982       9.01521707E-05
   6.91319990       8.95964258E-05
   6.92519999       8.92082098E-05
   6.93720007       8.89623116E-05
   6.94920015       8.88290015E-05
   6.96120024       8.87757706E-05
   6.97319984       8.87692586E-05
   6.98519993       8.87774222E-05
   6.99720001       8.87717324E-05
   7.00920010       8.87292408E-05
   7.02120018       8.86344424E-05
   7.03319979       8.84806941E-05
   7.04519987       8.82711392E-05
   7.05719995       8.80189837E-05
   7.06920004       8.77471102E-05
   7.08120012       8.74869802E-05
   7.09320021       8.72769306E-05
   7.10519981       8.71598895E-05
   7.11719990       8.71806915E-05
   7.12919998       8.73831159E-05
   7.14120007       8.78069113E-05
   7.15320015       8.84849505E-05
   7.16520023       8.94406767E-05
   7.17719984       9.06861169E-05
   7.18919992       9.22205290E-05
   7.20120001       9.40297323E-05
   7.21320009       9.60862599E-05
   7.22520018       9.83503196E-05
   7.23719978       1.00771380E-04
   7.24919987       1.03290440E-04
   7.26119995       1.05842686E-04
   7.27320004       1.08360451E-04
   7.28520012       1.10776280E-04
   7.29720020       1.13025832E-04
   7.30919981       1.15050578E-04
   7.32119989       1.16800002E-04
   7.33319998       1.18233351E-04
   7.34520006       1.19320728E-04
   7.35720015       1.20043631E-04
   7.36920023       1.20394892E-04
   7.38119984       1.20378041E-04
   7.39319992       1.20006298E-04
   7.40520000       1.19301272E-04
   7.41720009       1.18291398E-04
   7.42920017       1.17010364E-04
   7.44119978       1.15495553E-04
   7.45319986       1.13786635E-04
   7.46519995       1.11924361E-04
   7.47720003       1.09949578E-04
   7.48920012       1.07902524E-04
   7.50120020       1.05822321E-04
   7.51319981       1.03746708E-04
   7.52519989       1.01711921E-04
   7.53719997       9.97526586E-05
   7.54920006       9.79021206E-05
   7.56120014       9.61920741E-05
   7.57320023       9.46527798E-05
   7.58519983       9.33129777E-05
   7.59719992       9.21996470E-05
   7.60920000       9.13377371E-05
   7.62120008       9.07497742E-05
   7.63320017       9.04553672E-05
   7.64519978       9.04706685E-05
   7.65719986       9.08077709E-05
   7.66919994       9.14741031E-05
   7.68120003       9.24718624E-05
   7.69320011       9.37974546E-05
   7.70520020       9.54410716E-05
   7.71719980       9.73862552E-05
   7.72919989       9.96097006E-05
   7.74119997       1.02081096E-04
   7.75320005       1.04763181E-04
   7.76520014       1.07611937E-04
   7.77720022       1.10577013E-04
   7.78919983       1.13602364E-04
   7.80119991       1.16627103E-04
   7.81320000       1.19586643E-04
   7.82520008       1.22414058E-04
   7.83720016       1.25041668E-04
   7.84919977       1.27402876E-04
   7.86119986       1.29434120E-04
   7.87319994       1.31077031E-04
   7.88520002       1.32280475E-04
   7.89720011       1.33002701E-04
   7.90920019       1.33213252E-04
   7.92119980       1.32894536E-04
   7.93319988       1.32043235E-04
   7.94519997       1.30671004E-04
   7.95720005       1.28804779E-04
   7.96920013       1.26486455E-04
   7.98120022       1.23771868E-04
   7.99319983       1.20729281E-04
   8.00520039       1.17437135E-04
   8.01720047       1.13981478E-04
   8.02919960       1.10452915E-04
   8.04119968       1.06943357E-04
   8.05319977       1.03542712E-04
   8.06519985       1.00335652E-04
   8.07719994       9.73986171E-05
   8.08920002       9.47972949E-05
   8.10120010       9.25845889E-05
   8.11320019       9.07992580E-05
   8.12520027       8.94652403E-05
   8.13720036       8.85916888E-05
   8.14920044       8.81737724E-05
   8.16119957       8.81940068E-05
   8.17319965       8.86241396E-05
   8.18519974       8.94274199E-05
   8.19719982       9.05610577E-05
   8.20919991       9.19787053E-05
   8.22119999       9.36328215E-05
   8.23320007       9.54767311E-05
   8.24520016       9.74662835E-05
   8.25720024       9.95610098E-05
   8.26920033       1.01724756E-04
   8.28120041       1.03925762E-04
   8.29319954       1.06136373E-04
   8.30519962       1.08332279E-04
   8.31719971       1.10491565E-04
   8.32919979       1.12593698E-04
   8.34119987       1.14618459E-04
   8.35319996       1.16545169E-04
   8.36520004       1.18352124E-04
   8.37720013       1.20016448E-04
   8.38920021       1.21514357E-04
   8.40120029       1.22821846E-04
   8.41320038       1.23915801E-04
   8.42520046       1.24775310E-04
   8.43719959       1.25383289E-04
   8.44919968       1.25727995E-04
   8.46119976       1.25804523E-04
   8.47319984       1.25615916E-04
   8.48519993       1.25173872E-04
   8.49720001       1.24498882E-04
   8.50920010       1.23619742E-04
   8.52120018       1.22572455E-04
   8.53320026       1.21398538E-04
   8.54520035       1.20142817E-04
   8.55720043       1.18850912E-04
   8.56919956       1.17566538E-04
   8.58119965       1.16328796E-04
   8.59319973       1.15169794E-04
   8.60519981       1.14112576E-04
   8.61719990       1.13169670E-04
   8.62919998       1.12342423E-04
   8.64120007       1.11621041E-04
   8.65320015       1.10985493E-04
   8.66520023       1.10407134E-04
   8.67720032       1.09851098E-04
   8.68920040       1.09279041E-04
   8.70119953       1.08652246E-04
   8.71319962       1.07934749E-04
   8.72519970       1.07096188E-04
   8.73719978       1.06114283E-04
   8.74919987       1.04976607E-04
   8.76119995       1.03681603E-04
   8.77320004       1.02238686E-04
   8.78520012       1.00667537E-04
   8.79720020       9.89964901E-05
   8.80920029       9.72603375E-05
   8.82120037       9.54975330E-05
   8.83320045       9.37471777E-05
   8.84519958       9.20459570E-05
   8.85719967       9.04252520E-05
   8.86919975       8.89088114E-05
   8.88119984       8.75109617E-05
   8.89319992       8.62357338E-05
   8.90520000       8.50768629E-05
   8.91720009       8.40187204E-05
   8.92920017       8.30380668E-05
   8.94120026       8.21065332E-05
   8.95320034       8.11936552E-05
   8.96520042       8.02700815E-05
   8.97719955       7.93108629E-05
   8.98919964       7.82983989E-05
   9.00119972       7.72249405E-05
   9.01319981       7.60943149E-05
   9.02519989       7.49228348E-05
   9.03719997       7.37392547E-05
   9.04920006       7.25837454E-05
   9.06120014       7.15060160E-05
   9.07320023       7.05626517E-05
   9.08520031       6.98138901E-05
   9.09720039       6.93199836E-05
   9.10919952       6.91375026E-05
   9.12119961       6.93157708E-05
   9.13319969       6.98935910E-05
   9.14519978       7.08966618E-05
   9.15719986       7.23356425E-05
   9.16919994       7.42050615E-05
   9.18120003       7.64831493E-05
   9.19320011       7.91324419E-05
   9.20520020       8.21012363E-05
   9.21720028       8.53256788E-05
   9.22920036       8.87323622E-05
   9.24120045       9.22413456E-05
   9.25319958       9.57692610E-05
   9.26519966       9.92325367E-05
   9.27719975       1.02550424E-04
   9.28919983       1.05647785E-04
   9.30119991       1.08457527E-04
   9.31320000       1.10922578E-04
   9.32520008       1.12997441E-04
   9.33720016       1.14649163E-04
   9.34920025       1.15857947E-04
   9.36120033       1.16617295E-04
   9.37320042       1.16933690E-04
   9.38519955       1.16826035E-04
   9.39719963       1.16324736E-04
   9.40919971       1.15470568E-04
   9.42119980       1.14313327E-04
   9.43319988       1.12910282E-04
   9.44519997       1.11324553E-04
