 -0.622799993         1.00000002E-24
 -0.610800028         1.00000002E-24
 -0.598800004         1.00000002E-24
 -0.586799979         1.00000002E-24
 -0.574800014         1.00000002E-24
 -0.562799990         1.00000002E-24
 -0.550800025         1.00000012E-24
 -0.538800001         1.00000022E-24
 -0.526799977         1.00000032E-24
 -0.514800012         1.00000032E-24
 -0.502799988         1.00000032E-24
 -0.490799993         1.00000032E-24
 -0.478799999         1.00000032E-24
 -0.466800004         1.00000032E-24
 -0.454800010         1.00000022E-24
 -0.442799985         1.00000012E-24
 -0.430799991         1.00000012E-24
 -0.418799996         9.99999921E-25
 -0.406800002         9.99999625E-25
 -0.394800007         9.99998935E-25
 -0.382800013         9.99997259E-25
 -0.370799989         9.99994103E-25
 -0.358799994         9.99988778E-25
 -0.346799999         9.99980890E-25
 -0.334800005         9.99970832E-25
 -0.322800010         9.99959886E-25
 -0.310799986         9.99950321E-25
 -0.298799992         9.99944996E-25
 -0.286799997         9.99948941E-25
 -0.274800003         9.99973100E-25
 -0.262800008         1.00004025E-24
 -0.250800014         1.00018432E-24
 -0.238800004         1.00042788E-24
 -0.226799995         1.00072064E-24
 -0.214800000         1.00084035E-24
 -0.202800006         1.00031142E-24
 -0.190799996         9.98465389E-25
 -0.178800002         9.94811977E-25
 -0.166800007         9.89808627E-25
 -0.154799998         9.85837600E-25
 -0.142800003         9.87727612E-25
 -0.130799994         1.00172200E-24
 -0.118799999         1.03183490E-24
 -0.106799997         1.07360626E-24
  -9.48000029E-02     1.10755627E-24
  -8.28000009E-02     1.09754671E-24
  -7.07999989E-02     1.00093590E-24
  -5.88000007E-02     7.95189788E-25
  -4.67999987E-02     5.17279170E-25
  -3.48000005E-02     2.98313569E-25
  -2.28000004E-02     3.61904633E-25
  -1.08000003E-02     9.51412400E-25
   1.20000006E-03     2.17097262E-24
   1.31999999E-02     3.77449709E-24
   2.52000000E-02     5.00613536E-24
   3.72000001E-02     4.65273357E-24
   4.91999984E-02     1.46256961E-24
   6.12000003E-02    -5.03413756E-24
   7.32000023E-02    -1.35109564E-23
   8.51999968E-02    -2.01505904E-23
   9.71999988E-02    -1.89965910E-23
  0.109200001        -3.98656104E-24
  0.121200003         2.72719470E-23
  0.133200005         6.89796447E-23
  0.145199999         1.04113155E-22
  0.157199994         1.05899376E-22
  0.169200003         4.63282201E-23
  0.181199998        -8.81313889E-23
  0.193200007        -2.77602525E-22
  0.205200002        -4.55377619E-22
  0.217199996        -5.11659020E-22
  0.229200006        -3.24372107E-22
  0.241200000         1.81571950E-22
  0.253199995         9.60109708E-22
  0.265199989         1.78562707E-21
  0.277200013         2.25229972E-21
  0.289200008         1.86890070E-21
  0.301200002         2.59793707E-22
  0.313199997        -2.56626767E-21
  0.325199991        -5.97643809E-21
  0.337199986        -8.64317064E-21
  0.349200010        -8.77944784E-21
  0.361200005        -4.74251362E-21
  0.373199999         4.07826376E-21
  0.385199994         1.63606987E-20
  0.397199988         2.83641266E-20
  0.409200013         3.43206057E-20
  0.421200007         2.79959246E-20
  0.433200002         5.31785126E-21
  0.445199996        -3.25818430E-20
  0.457199991        -7.70918243E-20
  0.469199985        -1.12039766E-19
  0.481200010        -1.16952779E-19
  0.493200004        -7.38744536E-20
  0.505200028         2.35209599E-20
  0.517199993         1.61390085E-19
  0.529200017         3.01734317E-19
  0.541199982         3.86827912E-19
  0.553200006         3.54093350E-19
  0.565199971         1.59945996E-19
  0.577199996        -1.93303372E-19
  0.589200020        -6.37283984E-19
  0.601199985        -1.03541320E-18
  0.613200009        -1.20749220E-18
  0.625199974        -9.82613743E-19
  0.637199998        -2.71171001E-19
  0.649200022         8.64702456E-19
  0.661199987         2.17076284E-18
  0.673200011         3.21851427E-18
  0.685199976         3.49790776E-18
  0.697200000         2.57896324E-18
  0.709200025         3.07539419E-19
  0.721199989        -3.02598839E-18
  0.733200014        -6.61932798E-18
  0.745199978        -9.25597569E-18
  0.757200003        -9.59365894E-18
  0.769200027        -6.60759028E-18
  0.781199992        -8.24701268E-20
  0.793200016         9.00852296E-18
  0.805199981         1.84153019E-17
  0.817200005         2.49471750E-17
  0.829200029         2.52615566E-17
  0.841199994         1.69809013E-17
  0.853200018        -1.43909742E-19
  0.865199983        -2.34143746E-17
  0.877200007        -4.71064602E-17
  0.889199972        -6.34012367E-17
  0.901199996        -6.43285657E-17
  0.913200021        -4.43846058E-17
  0.925199986        -3.15198144E-18
  0.937200010         5.29499486E-17
  0.949199975         1.10625388E-16
  0.961199999         1.51891616E-16
  0.973200023         1.58434072E-16
  0.985199988         1.17341618E-16
  0.997200012         2.67762666E-17
   1.00919998        -1.00238336E-16
   1.02119994        -2.35610790E-16
   1.03320003        -3.40579693E-16
   1.04519999        -3.74567657E-16
   1.05719995        -3.06936841E-16
   1.06920004        -1.28827134E-16
   1.08120000         1.38446423E-16
   1.09319997         4.41766301E-16
   1.10520005         7.03459063E-16
   1.11720002         8.37412135E-16
   1.12919998         7.71495396E-16
   1.14119995         4.71369441E-16
   1.15320003        -4.06920054E-17
   1.16520000        -6.78295620E-16
   1.17719996        -1.29928014E-15
   1.18920004        -1.73109701E-15
   1.20120001        -1.81006176E-15
   1.21319997        -1.42700181E-15
   1.22520006        -5.68669069E-16
   1.23720002         6.56754619E-16
   1.24919999         2.01996076E-15
   1.26119995         3.20196941E-15
   1.27320004         3.85531959E-15
   1.28520000         3.68589055E-15
   1.29719996         2.53929127E-15
   1.30920005         4.71345618E-16
   1.32120001        -2.21818786E-15
   1.33319998        -5.00492202E-15
   1.34519994        -7.21900177E-15
   1.35720003        -8.17781935E-15
   1.36919999        -7.35156327E-15
   1.38119996        -4.52823517E-15
   1.39320004         6.25162461E-17
   1.40520000         5.70639363E-15
   1.41719997         1.12709346E-14
   1.42920005         1.53894824E-14
   1.44120002         1.67432715E-14
   1.45319998         1.43935428E-14
   1.46519995         8.09247570E-15
   1.47720003        -1.50853995E-15
   1.48920000        -1.28266657E-14
   1.50119996        -2.35363385E-14
   1.51320004        -3.09779397E-14
   1.52520001        -3.27302543E-14
   1.53719997        -2.72384061E-14
   1.54920006        -1.43541236E-14
   1.56120002         4.36049851E-15
   1.57319999         2.56835467E-14
   1.58519995         4.51900920E-14
   1.59720004         5.80766785E-14
   1.60920000         6.02186283E-14
   1.62119997         4.92464888E-14
   1.63320005         2.53888165E-14
   1.64520001        -8.15524084E-15
   1.65719998        -4.54742784E-14
   1.66919994        -7.88693722E-14
   1.68120003        -1.00329338E-13
   1.69319999        -1.03295919E-13
   1.70519996        -8.43544527E-14
   1.71720004        -4.44533123E-14
   1.72920001         1.06908534E-14
   1.74119997         7.12053910E-14
   1.75320005         1.24691259E-13
   1.76520002         1.58639920E-13
   1.77719998         1.63199315E-13
   1.78919995         1.33712946E-13
   1.80120003         7.24290080E-14
   1.81320000        -1.11194521E-14
   1.82519996        -1.01331114E-13
   1.83720005        -1.79291803E-13
   1.84920001        -2.26649876E-13
   1.86119998        -2.29871975E-13
   1.87320006        -1.83940170E-13
   1.88520002        -9.45403220E-14
   1.89719999         2.19958312E-14
   1.90919995         1.41306129E-13
   1.92120004         2.35907810E-13
   1.93320000         2.81530739E-13
   1.94519997         2.63507667E-13
   1.95720005         1.81618975E-13
   1.96920002         5.19235737E-14
   1.98119998        -9.53577224E-14
   1.99319994        -2.21965919E-13
   2.00519991        -2.90754833E-13
   2.01719999        -2.75928125E-13
   2.02920008        -1.71811011E-13
   2.04119992         2.42787362E-15
   2.05320001         2.04036739E-13
   2.06520009         3.74576618E-13
   2.07719994         4.53443815E-13
   2.08920002         3.94346719E-13
   2.10120010         1.80852119E-13
   2.11319995        -1.63258689E-13
   2.12520003        -5.72389412E-13
   2.13720012        -9.48126668E-13
   2.14919996        -1.17823654E-12
   2.16120005        -1.16244384E-12
   2.17319989        -8.39643405E-13
   2.18519998        -2.10138750E-13
   2.19720006         6.53089074E-13
   2.20919991         1.60816965E-12
   2.22119999         2.46420440E-12
   2.23320007         3.01464864E-12
   2.24519992         3.07840342E-12
   2.25720000         2.54065389E-12
   2.26920009         1.38499802E-12
   2.28119993        -2.90279899E-13
   2.29320002        -2.27607429E-12
   2.30520010        -4.27694555E-12
   2.31719995        -5.95279338E-12
   2.32920003        -6.97107736E-12
   2.34120011        -7.06104272E-12
   2.35319996        -6.06109607E-12
   2.36520004        -3.95173044E-12
   2.37719989        -8.68793156E-13
   2.38919997         2.90500284E-12
   2.40120006         6.96921644E-12
   2.41319990         1.08514257E-11
   2.42519999         1.40632141E-11
   2.43720007         1.61585675E-11
   2.44919991         1.67862616E-11
   2.46120000         1.57284984E-11
   2.47320008         1.29199576E-11
   2.48519993         8.44475878E-12
   2.49720001         2.51351262E-12
   2.50920010        -4.57203329E-12
   2.52119994        -1.24540682E-11
   2.53320003        -2.07373511E-11
   2.54520011        -2.89750151E-11
   2.55719995        -3.66095904E-11
   2.56920004        -4.28671092E-11
   2.58119988        -4.66171060E-11
   2.59319997        -4.62291663E-11
   2.60520005        -3.94754576E-11
   2.61719990        -2.35430547E-11
   2.62919998         4.77275988E-12
   2.64120007         4.86275395E-11
   2.65319991         1.10389253E-10
   2.66520000         1.90583313E-10
   2.67720008         2.86542290E-10
   2.68919992         3.90828203E-10
   2.70120001         4.89541019E-10
   2.71320009         5.60661795E-10
   2.72519994         5.72594638E-10
   2.73720002         4.83062423E-10
   2.74920011         2.38460918E-10
   2.76119995        -2.26329983E-10
   2.77320004        -9.87823046E-10
   2.78520012        -2.13387796E-09
   2.79719996        -3.76440656E-09
   2.80920005        -5.99387961E-09
   2.82119989        -8.95714791E-09
   2.83319998        -1.28205313E-08
   2.84520006        -1.78006960E-08
   2.85719991        -2.41942164E-08
   2.86919999        -3.24211378E-08
   2.88120008        -4.30860467E-08
   2.89319992        -5.70598786E-08
   2.90520000        -7.55855822E-08
   2.91720009        -1.00409430E-07
   2.92919993        -1.33938769E-07
   2.94120002        -1.79424831E-07
   2.95320010        -2.41167129E-07
   2.96519995        -3.24733122E-07
   2.97720003        -4.37183360E-07
   2.98920012        -5.87290003E-07
   3.00119996        -7.85732823E-07
   3.01320004        -1.04525441E-06
   3.02519989        -1.38075575E-06
   3.03719997        -1.80930817E-06
   3.04920006        -2.35006473E-06
   3.06119990        -3.02404692E-06
   3.07319999        -3.85379644E-06
   3.08520007        -4.86287445E-06
   3.09719992        -6.07520724E-06
   3.10920000        -7.51428115E-06
   3.12120008        -9.20219827E-06
   3.13319993        -1.11586105E-05
   3.14520001        -1.33995700E-05
   3.15720010        -1.59363353E-05
   3.16919994        -1.87741807E-05
   3.18120003        -2.19112590E-05
   3.19320011        -2.53376074E-05
   3.20519996        -2.90343160E-05
   3.21720004        -3.29729592E-05
   3.22919989        -3.71153110E-05
   3.24119997        -4.14134447E-05
   3.25320005        -4.58101968E-05
   3.26519990        -5.02400217E-05
   3.27719998        -5.46303017E-05
   3.28920007        -5.89029951E-05
   3.30119991        -6.29766582E-05
   3.31320000        -6.67688000E-05
   3.32520008        -7.01983736E-05
   3.33719993        -7.31884138E-05
   3.34920001        -7.56687950E-05
   3.36120009        -7.75786975E-05
   3.37319994        -7.88690595E-05
   3.38520002        -7.95045198E-05
   3.39720011        -7.94651132E-05
   3.40919995        -7.87473036E-05
   3.42120004        -7.73645297E-05
   3.43319988        -7.53470304E-05
   3.44519997        -7.27411898E-05
   3.45720005        -6.96080824E-05
   3.46919990        -6.60215810E-05
   3.48119998        -6.20659193E-05
   3.49320006        -5.78328363E-05
   3.50519991        -5.34185201E-05
   3.51719999        -4.89203558E-05
   3.52920008        -4.44337165E-05
   3.54119992        -4.00489225E-05
   3.55320001        -3.58484722E-05
   3.56520009        -3.19046922E-05
   3.57719994        -2.82779147E-05
   3.58920002        -2.50152170E-05
   3.60120010        -2.21497794E-05
   3.61319995        -1.97008649E-05
   3.62520003        -1.76743724E-05
   3.63720012        -1.60639229E-05
   3.64919996        -1.48523686E-05
   3.66120005        -1.40136335E-05
   3.67319989        -1.35147448E-05
   3.68519998        -1.33179501E-05
   3.69720006        -1.33827853E-05
   3.70919991        -1.36679864E-05
   3.72119999        -1.41331575E-05
   3.73320007        -1.47401252E-05
   3.74519992        -1.54539393E-05
   3.75720000        -1.62435026E-05
   3.76920009        -1.70818657E-05
   3.78119993        -1.79461786E-05
   3.79320002        -1.88174254E-05
   3.80520010        -1.96799410E-05
   3.81719995        -2.05208380E-05
   3.82920003        -2.13294024E-05
   3.84120011        -2.20965285E-05
   3.85319996        -2.28142562E-05
   3.86520004        -2.34754516E-05
   3.87719989        -2.40736499E-05
   3.88919997        -2.46030759E-05
   3.90120006        -2.50588218E-05
   3.91319990        -2.54371316E-05
   3.92519999        -2.57357933E-05
   3.93720007        -2.59545359E-05
   3.94919991        -2.60954203E-05
   3.96120000        -2.61631394E-05
   3.97320008        -2.61652021E-05
   3.98519993        -2.61119512E-05
   3.99720001        -2.60164215E-05
   4.00920010        -2.58939799E-05
   4.02120018        -2.57618267E-05
   4.03319979        -2.56383137E-05
   4.04519987        -2.55421746E-05
   4.05719995        -2.54916649E-05
   4.06920004        -2.55037176E-05
   4.08120012        -2.55931172E-05
   4.09320021        -2.57717838E-05
   4.10519981        -2.60482029E-05
   4.11719990        -2.64270584E-05
   4.12919998        -2.69090706E-05
   4.14120007        -2.74910817E-05
   4.15320015        -2.81663943E-05
   4.16520023        -2.89253167E-05
   4.17719984        -2.97559327E-05
   4.18919992        -3.06450056E-05
   4.20120001        -3.15790057E-05
   4.21320009        -3.25451583E-05
   4.22520018        -3.35324803E-05
   4.23719978        -3.45326916E-05
   4.24919987        -3.55409720E-05
   4.26119995        -3.65564993E-05
   4.27320004        -3.75827003E-05
   4.28520012        -3.86272222E-05
   4.29720020        -3.97015974E-05
   4.30919981        -4.08206070E-05
   4.32119989        -4.20014076E-05
   4.33319998        -4.32624292E-05
   4.34520006        -4.46221275E-05
   4.35720015        -4.60977135E-05
   4.36920023        -4.77038593E-05
   4.38119984        -4.94515116E-05
   4.39319992        -5.13469386E-05
   4.40520000        -5.33909842E-05
   4.41720009        -5.55786355E-05
   4.42920017        -5.78989457E-05
   4.44119978        -6.03352892E-05
   4.45319986        -6.28659618E-05
   4.46519995        -6.54650212E-05
   4.47720003        -6.81034071E-05
   4.48920012        -7.07502186E-05
   4.50120020        -7.33740089E-05
   4.51319981        -7.59441027E-05
   4.52519989        -7.84317817E-05
   4.53719997        -8.08113255E-05
   4.54920006        -8.30608042E-05
   4.56120014        -8.51625518E-05
   4.57320023        -8.71034135E-05
   4.58519983        -8.88746508E-05
   4.59719992        -9.04716217E-05
   4.60920000        -9.18931764E-05
   4.62120008        -9.31409304E-05
   4.63320017        -9.42184197E-05
   4.64519978        -9.51302209E-05
   4.65719986        -9.58811070E-05
   4.66919994        -9.64753053E-05
   4.68120003        -9.69159082E-05
   4.69320011        -9.72044509E-05
   4.70520020        -9.73407805E-05
   4.71719980        -9.73230635E-05
   4.72919989        -9.71480695E-05
   4.74119997        -9.68116874E-05
   4.75320005        -9.63095517E-05
   4.76520014        -9.56378644E-05
   4.77720022        -9.47942463E-05
   4.78919983        -9.37786681E-05
   4.80119991        -9.25943386E-05
   4.81320000        -9.12485048E-05
   4.82520008        -8.97531136E-05
   4.83720016        -8.81252927E-05
   4.84919977        -8.63876048E-05
   4.86119986        -8.45680479E-05
   4.87319994        -8.26997857E-05
   4.88520002        -8.08204859E-05
   4.89720011        -7.89715123E-05
   4.90920019        -7.71966734E-05
   4.92119980        -7.55408037E-05
   4.93319988        -7.40481119E-05
   4.94519997        -7.27603474E-05
   4.95720005        -7.17149233E-05
   4.96920013        -7.09429951E-05
   4.98120022        -7.04676640E-05
   4.99319983        -7.03023979E-05
   5.00519991        -7.04497434E-05
   5.01719999        -7.09003507E-05
   5.02920008        -7.16326103E-05
   5.04120016        -7.26126527E-05
   5.05319977        -7.37950759E-05
   5.06519985        -7.51241387E-05
   5.07719994        -7.65356017E-05
   5.08920002        -7.79590046E-05
   5.10120010        -7.93205254E-05
   5.11320019        -8.05460295E-05
   5.12519979        -8.15644162E-05
   5.13719988        -8.23109949E-05
   5.14919996        -8.27307595E-05
   5.16120005        -8.27813783E-05
   5.17320013        -8.24357339E-05
   5.18520021        -8.16838510E-05
   5.19719982        -8.05341624E-05
   5.20919991        -7.90138656E-05
   5.22119999        -7.71684645E-05
   5.23320007        -7.50603867E-05
   5.24520016        -7.27666848E-05
   5.25719976        -7.03760306E-05
   5.26919985        -6.79849472E-05
   5.28119993        -6.56935445E-05
   5.29320002        -6.36009863E-05
   5.30520010        -6.18007689E-05
   5.31720018        -6.03761582E-05
   5.32919979        -5.93959958E-05
   5.34119987        -5.89110205E-05
   5.35319996        -5.89509436E-05
   5.36520004        -5.95224010E-05
   5.37720013        -6.06078647E-05
   5.38920021        -6.21656145E-05
   5.40119982        -6.41306469E-05
   5.41319990        -6.64165927E-05
   5.42519999        -6.89183944E-05
   5.43720007        -7.15157075E-05
   5.44920015        -7.40767500E-05
   5.46120024        -7.64624492E-05
   5.47319984        -7.85306838E-05
   5.48519993        -8.01403949E-05
   5.49720001        -8.11554855E-05
   5.50920010        -8.14482701E-05
   5.52120018        -8.09024350E-05
   5.53319979        -7.94154839E-05
   5.54519987        -7.69005710E-05
   5.55719995        -7.32878980E-05
   5.56920004        -6.85255873E-05
   5.58120012        -6.25801622E-05
   5.59320021        -5.54367507E-05
   5.60519981        -4.70991290E-05
   5.61719990        -3.75895906E-05
   5.62919998        -2.69487682E-05
   5.64120007        -1.52354951E-05
   5.65320015        -2.52657856E-06
   5.66520023         1.10834080E-05
   5.67719984         2.54824463E-05
   5.68919992         4.05415449E-05
   5.70120001         5.61154557E-05
   5.71320009         7.20437602E-05
   5.72520018         8.81522865E-05
   5.73719978         1.04255130E-04
   5.74919987         1.20157056E-04
   5.76119995         1.35656504E-04
   5.77320004         1.50549065E-04
   5.78520012         1.64631303E-04
   5.79720020         1.77705006E-04
   5.80919981         1.89581508E-04
   5.82119989         2.00086113E-04
   5.83319998         2.09062258E-04
   5.84520006         2.16375542E-04
   5.85720015         2.21917115E-04
   5.86920023         2.25606593E-04
   5.88119984         2.27394165E-04
   5.89319992         2.27261960E-04
   5.90520000         2.25224547E-04
   5.91720009         2.21328693E-04
   5.92920017         2.15652180E-04
   5.94119978         2.08302066E-04
   5.95319986         1.99412098E-04
   5.96519995         1.89139857E-04
   5.97720003         1.77663082E-04
   5.98920012         1.65176069E-04
   6.00120020         1.51885484E-04
   6.01319981         1.38006260E-04
   6.02519989         1.23757287E-04
   6.03719997         1.09357119E-04
   6.04920006         9.50198737E-05
   6.06120014         8.09510602E-05
   6.07320023         6.73437680E-05
   6.08519983         5.43749593E-05
   6.09719992         4.22021876E-05
   6.10920000         3.09606876E-05
   6.12120008         2.07609373E-05
   6.13320017         1.16868387E-05
   6.14519978         3.79454968E-06
   6.15719986        -2.88792535E-06
   6.16919994        -8.36034815E-06
   6.18120003        -1.26490386E-05
   6.19320011        -1.58048533E-05
   6.20520020        -1.79004128E-05
   6.21719980        -1.90266801E-05
   6.22919989        -1.92890075E-05
   6.24119997        -1.88028425E-05
   6.25320005        -1.76892936E-05
   6.26520014        -1.60707277E-05
   6.27720022        -1.40666398E-05
   6.28919983        -1.17899808E-05
   6.30119991        -9.34409491E-06
   6.31320000        -6.82040263E-06
   6.32520008        -4.29690317E-06
   6.33720016        -1.83751013E-06
   6.34919977         5.07793231E-07
   6.36119986         2.70207488E-06
   6.37319994         4.71996509E-06
   6.38520002         6.54571340E-06
   6.39720011         8.17096679E-06
   6.40920019         9.59244517E-06
   6.42119980         1.08096938E-05
   6.43319988         1.18230619E-05
   6.44519997         1.26320338E-05
   6.45720005         1.32340210E-05
   6.46920013         1.36236595E-05
   6.48120022         1.37926254E-05
   6.49319983         1.37299576E-05
   6.50519991         1.34228194E-05
   6.51719999         1.28576148E-05
   6.52920008         1.20213554E-05
   6.54120016         1.09031398E-05
   6.55319977         9.49564492E-06
   6.56519985         7.79648872E-06
   6.57719994         5.80937103E-06
   6.58920002         3.54489453E-06
   6.60120010         1.02101478E-06
   6.61320019        -1.73693036E-06
   6.62519979        -4.69660927E-06
   6.63719988        -7.81948620E-06
   6.64919996        -1.10619758E-05
   6.66120005        -1.43768648E-05
   6.67320013        -1.77149577E-05
   6.68520021        -2.10268008E-05
   6.69719982        -2.42644255E-05
   6.70919991        -2.73829501E-05
   6.72119999        -3.03420238E-05
   6.73320007        -3.31069677E-05
   6.74520016        -3.56495839E-05
   6.75719976        -3.79486046E-05
   6.76919985        -3.99897654E-05
   6.78119993        -4.17655356E-05
   6.79320002        -4.32745328E-05
   6.80520010        -4.45207224E-05
   6.81720018        -4.55124464E-05
   6.82919979        -4.62614298E-05
   6.84119987        -4.67817845E-05
   6.85319996        -4.70891755E-05
   6.86520004        -4.72001775E-05
   6.87720013        -4.71318162E-05
   6.88920021        -4.69014376E-05
   6.90119982        -4.65267549E-05
   6.91319990        -4.60260926E-05
   6.92519999        -4.54187866E-05
   6.93720007        -4.47255879E-05
   6.94920015        -4.39690302E-05
   6.96120024        -4.31736480E-05
   6.97319984        -4.23659985E-05
   6.98519993        -4.15743743E-05
   6.99720001        -4.08282176E-05
   7.00920010        -4.01572543E-05
   7.02120018        -3.95903189E-05
   7.03319979        -3.91539943E-05
   7.04519987        -3.88711160E-05
   7.05719995        -3.87593172E-05
   7.06920004        -3.88296321E-05
   7.08120012        -3.90853966E-05
   7.09320021        -3.95214884E-05
   7.10519981        -4.01240140E-05
   7.11719990        -4.08704909E-05
   7.12919998        -4.17305564E-05
   7.14120007        -4.26671904E-05
   7.15320015        -4.36383671E-05
   7.16520023        -4.45990408E-05
   7.17719984        -4.55033951E-05
   7.18919992        -4.63071410E-05
   7.20120001        -4.69697916E-05
   7.21320009        -4.74567314E-05
   7.22520018        -4.77409485E-05
   7.23719978        -4.78043439E-05
   7.24919987        -4.76385612E-05
   7.26119995        -4.72452666E-05
   7.27320004        -4.66358943E-05
   7.28520012        -4.58308932E-05
   7.29720020        -4.48585524E-05
   7.30919981        -4.37534363E-05
   7.32119989        -4.25546314E-05
   7.33319998        -4.13037960E-05
   7.34520006        -4.00432000E-05
   7.35720015        -3.88138287E-05
   7.36920023        -3.76536191E-05
   7.38119984        -3.65959240E-05
   7.39319992        -3.56682867E-05
   7.40520000        -3.48914873E-05
   7.41720009        -3.42789644E-05
   7.42920017        -3.38366008E-05
   7.44119978        -3.35628247E-05
   7.45319986        -3.34490651E-05
   7.46519995        -3.34804718E-05
   7.47720003        -3.36368794E-05
   7.48920012        -3.38939753E-05
   7.50120020        -3.42245803E-05
   7.51319981        -3.46000088E-05
   7.52519989        -3.49914153E-05
   7.53719997        -3.53711257E-05
   7.54920006        -3.57138088E-05
   7.56120014        -3.59975165E-05
   7.57320023        -3.62044520E-05
   7.58519983        -3.63215077E-05
   7.59719992        -3.63405125E-05
   7.60920000        -3.62581632E-05
   7.62120008        -3.60756931E-05
   7.63320017        -3.57982644E-05
   7.64519978        -3.54341719E-05
   7.65719986        -3.49939182E-05
   7.66919994        -3.44892142E-05
   7.68120003        -3.39319959E-05
   7.69320011        -3.33335811E-05
   7.70520020        -3.27039306E-05
   7.71719980        -3.20511863E-05
   7.72919989        -3.13814271E-05
   7.74119997        -3.06986949E-05
   7.75320005        -3.00052961E-05
   7.76520014        -2.93022949E-05
   7.77720022        -2.85901897E-05
   7.78919983        -2.78696862E-05
   7.80119991        -2.71425015E-05
   7.81320000        -2.64121190E-05
   7.82520008        -2.56844196E-05
   7.83720016        -2.49681398E-05
   7.84919977        -2.42750939E-05
   7.86119986        -2.36201522E-05
   7.87319994        -2.30209444E-05
   7.88520002        -2.24973355E-05
   7.89720011        -2.20706461E-05
   7.90920019        -2.17627294E-05
   7.92119980        -2.15948985E-05
   7.93319988        -2.15868185E-05
   7.94519997        -2.17553952E-05
   7.95720005        -2.21137561E-05
   7.96920013        -2.26703523E-05
   7.98120022        -2.34282816E-05
   7.99319983        -2.43848172E-05
   8.00520039        -2.55312007E-05
   8.01720047        -2.68527019E-05
   8.02919960        -2.83289155E-05
   8.04119968        -2.99342992E-05
   8.05319977        -3.16389305E-05
   8.06519985        -3.34093857E-05
   8.07719994        -3.52097923E-05
   8.08920002        -3.70029229E-05
   8.10120010        -3.87513610E-05
   8.11320019        -4.04185994E-05
   8.12520027        -4.19701464E-05
   8.13720036        -4.33745008E-05
   8.14920044        -4.46040212E-05
   8.16119957        -4.56356393E-05
   8.17319965        -4.64514269E-05
   8.18519974        -4.70389459E-05
   8.19719982        -4.73914843E-05
   8.20919991        -4.75080851E-05
   8.22119999        -4.73934197E-05
   8.23320007        -4.70575578E-05
   8.24520016        -4.65155390E-05
   8.25720024        -4.57868919E-05
   8.26920033        -4.48950013E-05
   8.28120041        -4.38664283E-05
   8.29319954        -4.27301202E-05
   8.30519962        -4.15165778E-05
   8.31719971        -4.02569967E-05
   8.32919979        -3.89823617E-05
   8.34119987        -3.77225442E-05
   8.35319996        -3.65054511E-05
   8.36520004        -3.53561554E-05
   8.37720013        -3.42961357E-05
   8.38920021        -3.33425960E-05
   8.40120029        -3.25078690E-05
   8.41320038        -3.17989943E-05
   8.42520046        -3.12174343E-05
   8.43719959        -3.07589908E-05
   8.44919968        -3.04138866E-05
   8.46119976        -3.01671043E-05
   8.47319984        -2.99988715E-05
   8.48519993        -2.98853865E-05
   8.49720001        -2.97996976E-05
   8.50920010        -2.97127572E-05
   8.52120018        -2.95945938E-05
   8.53320026        -2.94155725E-05
   8.54520035        -2.91476990E-05
   8.55720043        -2.87659059E-05
   8.56919956        -2.82492892E-05
   8.58119965        -2.75822204E-05
   8.59319973        -2.67552841E-05
   8.60519981        -2.57660049E-05
   8.61719990        -2.46193213E-05
   8.62919998        -2.33277733E-05
   8.64120007        -2.19113954E-05
   8.65320015        -2.03973068E-05
   8.66520023        -1.88189970E-05
   8.67720032        -1.72153414E-05
   8.68920040        -1.56293518E-05
   8.70119953        -1.41067185E-05
   8.71319962        -1.26941659E-05
   8.72519970        -1.14377053E-05
   8.73719978        -1.03808343E-05
   8.74919987        -9.56276290E-06
   8.76119995        -9.01674593E-06
   8.77320004        -8.76860668E-06
   8.78520012        -8.83551274E-06
   8.79720020        -9.22509207E-06
   8.80920029        -9.93492267E-06
   8.82120037        -1.09524444E-05
   8.83320045        -1.22553038E-05
   8.84519958        -1.38121222E-05
   8.85719967        -1.55836715E-05
   8.86919975        -1.75243877E-05
   8.88119984        -1.95841731E-05
   8.89319992        -2.17103661E-05
   8.90520000        -2.38498033E-05
   8.91720009        -2.59508415E-05
   8.92920017        -2.79652304E-05
   8.94120026        -2.98497544E-05
   8.95320034        -3.15675279E-05
   8.96520042        -3.30889379E-05
   8.97719955        -3.43921165E-05
   8.98919964        -3.54630974E-05
   9.00119972        -3.62955070E-05
   9.01319981        -3.68900073E-05
   9.02519989        -3.72534705E-05
   9.03719997        -3.73980001E-05
   9.04920006        -3.73398798E-05
   9.06120014        -3.70985399E-05
   9.07320023        -3.66955537E-05
   9.08520031        -3.61537786E-05