 -0.622799993       0.00000000    
 -0.610800028       0.00000000    
 -0.598800004       0.00000000    
 -0.586799979       0.00000000    
 -0.574800014       0.00000000    
 -0.562799990       0.00000000    
 -0.550800025       0.00000000    
 -0.538800001       0.00000000    
 -0.526799977       0.00000000    
 -0.514800012       4.38723007E-37
 -0.502799988       6.78551531E-36
 -0.490799993       6.24881949E-35
 -0.478799999       4.10860439E-34
 -0.466800004       2.08399628E-33
 -0.454800010       8.52347060E-33
 -0.442799985       2.88846821E-32
 -0.430799991       8.24911624E-32
 -0.418799996       2.00360285E-31
 -0.406800002       4.14438683E-31
 -0.394800007       7.23039616E-31
 -0.382800013       1.03018002E-30
 -0.370799989       1.07909178E-30
 -0.358799994       4.15553193E-31
 -0.346799999      -1.62220270E-30
 -0.334800005      -6.01527204E-30
 -0.322800010      -1.45321405E-29
 -0.310799986      -3.06407811E-29
 -0.298799992      -6.00767365E-29
 -0.286799997      -1.08619777E-28
 -0.274800003      -1.73237567E-28
 -0.262800008      -2.24298761E-28
 -0.250800014      -1.84424042E-28
 -0.238800004       7.54583084E-29
 -0.226799995       6.86930196E-28
 -0.214800000       1.64762074E-27
 -0.202800006       2.60556520E-27
 -0.190799996       2.66683982E-27
 -0.178800002       4.47917427E-28
 -0.166800007      -5.34903353E-27
 -0.154799998      -1.46961921E-26
 -0.142800003      -2.46240420E-26
 -0.130799994      -2.81843731E-26
 -0.118799999      -1.55181975E-26
 -0.106799997       2.15665312E-26
  -9.48000029E-02   8.15223897E-26
  -8.28000009E-02   1.44341454E-25
  -7.07999989E-02   1.68327781E-25
  -5.88000007E-02   1.00057552E-25
  -4.67999987E-02  -9.78008242E-26
  -3.48000005E-02  -4.05471769E-25
  -2.28000004E-02  -7.10529433E-25
  -1.08000003E-02  -8.08508768E-25
   1.20000006E-03  -4.69649227E-25
   1.31999999E-02   4.21702508E-25
   2.52000000E-02   1.69596042E-24
   3.72000001E-02   2.79237039E-24
   4.91999984E-02   2.84581138E-24
   6.12000003E-02   1.05692087E-24
   7.32000023E-02  -2.69462895E-24
   8.51999968E-02  -7.23804651E-24
   9.71999988E-02  -9.93473754E-24
  0.109200001      -7.40286795E-24
  0.121200003       2.65934359E-24
  0.133200005       1.89634352E-23
  0.145199999       3.46355628E-23
  0.157199994       3.75098312E-23
  0.169200003       1.42962564E-23
  0.181199998      -4.11680474E-23
  0.193200007      -1.17903719E-22
  0.205200002      -1.81206739E-22
  0.217199996      -1.76344100E-22
  0.229200006      -4.79024741E-23
  0.241200000       2.25667256E-22
  0.253199995       5.92385264E-22
  0.265199989       9.02208378E-22
  0.277200013       9.22961100E-22
  0.289200008       4.15772182E-22
  0.301200002      -7.32319344E-22
  0.313199997      -2.35481942E-21
  0.325199991      -3.90279888E-21
  0.337199986      -4.48205068E-21
  0.349200010      -3.10057687E-21
  0.361200005       8.72024566E-22
  0.373199999       7.14218275E-21
  0.385199994       1.40544481E-20
  0.397199988       1.85758318E-20
  0.409200013       1.69594418E-20
  0.421200007       6.15254072E-21
  0.433200002      -1.43152668E-20
  0.445199996      -4.06064094E-20
  0.457199991      -6.39246793E-20
  0.469199985      -7.18283384E-20
  0.481200010      -5.19422314E-20
  0.493200004       2.38114501E-21
  0.505200028       8.60202632E-20
  0.517199993       1.78185496E-19
  0.529200017       2.43464768E-19
  0.541199982       2.39784021E-19
  0.553200006       1.33164265E-19
  0.565199971      -8.38400542E-20
  0.577199996      -3.76150406E-19
  0.589200020      -6.60497308E-19
  0.601199985      -8.17142983E-19
  0.613200009      -7.21944937E-19
  0.625199974      -2.94615471E-19
  0.637199998       4.49352788E-19
  0.649200022       1.36240359E-18
  0.661199987       2.16535701E-18
  0.673200011       2.49973361E-18
  0.685199976       2.03283172E-18
  0.697200000       5.96184223E-19
  0.709200025      -1.68254130E-18
  0.721199989      -4.30714558E-18
  0.733200014      -6.45060050E-18
  0.745199978      -7.13098840E-18
  0.757200003      -5.51250572E-18
  0.769200027      -1.26698148E-18
  0.781199992       5.11440107E-18
  0.793200016       1.21907860E-17
  0.805199981       1.77348086E-17
  0.817200005       1.92344523E-17
  0.829200029       1.46730062E-17
  0.841199994       3.40709056E-18
  0.853200018      -1.31318694E-17
  0.865199983      -3.12156059E-17
  0.877200007      -4.53104757E-17
  0.889199972      -4.93444834E-17
  0.901199996      -3.85655954E-17
  0.913200021      -1.15490635E-17
  0.925199986       2.82728414E-17
  0.937200010       7.22116763E-17
  0.949199975       1.07522210E-16
  0.961199999       1.20275251E-16
  0.973200023       9.94519581E-17
  0.985199988       4.12861229E-17
  0.997200012      -4.74625052E-17
   1.00919998      -1.48629533E-16
   1.02119994      -2.35073427E-16
   1.03320003      -2.76515811E-16
   1.04519999      -2.47866748E-16
   1.05719995      -1.38116570E-16
   1.06920004       4.27521781E-17
   1.08120000       2.61370942E-16
   1.09319997       4.64871640E-16
   1.10520005       5.91349117E-16
   1.11720002       5.85338201E-16
   1.12919998       4.14971393E-16
   1.14119995       8.63281421E-17
   1.15320003      -3.49611181E-16
   1.16520000      -8.00821371E-16
   1.17719996      -1.14999694E-15
   1.18920004      -1.28031105E-15
   1.20120001      -1.10626336E-15
   1.21319997      -6.02533499E-16
   1.22520006       1.76935614E-16
   1.23720002       1.09622273E-15
   1.24919999       1.95470196E-15
   1.26119995       2.52363599E-15
   1.27320004       2.59667500E-15
   1.28520000       2.04469201E-15
   1.29719996       8.62795860E-16
   1.30920005      -8.02881831E-16
   1.32120001      -2.65857850E-15
   1.33319998      -4.30144803E-15
   1.34519994      -5.29130640E-15
   1.35720003      -5.24588765E-15
   1.36919999      -3.94276727E-15
   1.38119996      -1.40612075E-15
   1.39320004       2.04477883E-15
   1.40520000       5.80489339E-15
   1.41719997       9.06136958E-15
   1.42920005       1.09375120E-14
   1.44120002       1.06841568E-14
   1.45319998       7.88417251E-15
   1.46519995       2.62456822E-15
   1.47720003      -4.41228610E-15
   1.48920000      -1.19786019E-14
   1.50119996      -1.84322823E-14
   1.51320004      -2.20392298E-14
   1.52520001      -2.13623827E-14
   1.53719997      -1.56619983E-14
   1.54920006      -5.21280381E-15
   1.56120002       8.55546899E-15
   1.57319999       2.31632188E-14
   1.58519995       3.54543394E-14
   1.59720004       4.21994017E-14
   1.60920000       4.08275708E-14
   1.62119997       3.01373543E-14
   1.63320005       1.08154173E-14
   1.64520001      -1.43900683E-14
   1.65719998      -4.09388811E-14
   1.66919994      -6.32200794E-14
   1.68120003      -7.56314905E-14
   1.69319999      -7.38275001E-14
   1.70519996      -5.58795801E-14
   1.71720004      -2.30772297E-14
   1.72920001       1.98613048E-14
   1.74119997       6.53004940E-14
   1.75320005       1.03912809E-13
   1.76520002       1.26452288E-13
   1.77719998       1.25768360E-13
   1.78919995       9.86559670E-14
   1.80120003       4.71156961E-14
   1.81320000      -2.13372919E-14
   1.82519996      -9.45225479E-14
   1.83720005      -1.57587661E-13
   1.84920001      -1.95876247E-13
   1.86119998      -1.98164171E-13
   1.87320006      -1.59594004E-13
   1.88520002      -8.35968393E-14
   1.89719999       1.77915137E-14
   1.90919995       1.25537357E-13
   1.92120004       2.17053548E-13
   1.93320000       2.70942746E-13
   1.94519997       2.72097747E-13
   1.95720005       2.15974767E-13
   1.96920002       1.10869545E-13
   1.98119998      -2.26602066E-14
   1.99319994      -1.55494094E-13
   2.00519991      -2.56278451E-13
   2.01719999      -2.99134876E-13
   2.02920008      -2.70941256E-13
   2.04119992      -1.76210053E-13
   2.05320001      -3.79223088E-14
   2.06520009       1.06499885E-13
   2.07719994       2.13722879E-13
   2.08920002       2.45911798E-13
   2.10120010       1.82379041E-13
   2.11319995       2.83623883E-14
   2.12520003      -1.81883724E-13
   2.13720012      -3.89417177E-13
   2.14919996      -5.22400265E-13
   2.16120005      -5.13461073E-13
   2.17319989      -3.19029850E-13
   2.18519998       6.39558868E-14
   2.19720006       5.88552265E-13
   2.20919991       1.15893851E-12
   2.22119999       1.64348017E-12
   2.23320007       1.89839160E-12
   2.24519992       1.79808230E-12
   2.25720000       1.26636538E-12
   2.26920009       3.01933825E-13
   2.28119993      -1.00787369E-12
   2.29320002      -2.48909096E-12
   2.30520010      -3.90015884E-12
   2.31719995      -4.96599636E-12
   2.32920003      -5.42217877E-12
   2.34120011      -5.06215989E-12
   2.35319996      -3.77956303E-12
   2.36520004      -1.59799127E-12
   2.37719989       1.31747250E-12
   2.38919997       4.67019349E-12
   2.40120006       8.06313696E-12
   2.41319990       1.10475839E-11
   2.42519999       1.31826381E-11
   2.43720007       1.40964670E-11
   2.44919991       1.35392513E-11
   2.46120000       1.14184920E-11
   2.47320008       7.80992458E-12
   2.48519993       2.94177465E-12
   2.49720001      -2.84409800E-12
   2.50920010      -9.14408046E-12
   2.52119994      -1.55420763E-11
   2.53320003      -2.16373430E-11
   2.54520011      -2.70327892E-11
   2.55719995      -3.12717421E-11
   2.56920004      -3.37226670E-11
   2.58119988      -3.34276183E-11
   2.59319997      -2.89491226E-11
   2.60520005      -1.82687598E-11
   2.61719990       1.19519217E-12
   2.62919998       3.23781765E-11
   2.64120007       7.81010256E-11
   2.65319991       1.40294693E-10
   2.66520000       2.18903645E-10
   2.67720008       3.10493825E-10
   2.68919992       4.06641054E-10
   2.70120001       4.92219709E-10
   2.71320009       5.43748158E-10
   2.72519994       5.27954735E-10
   2.73720002       4.00714961E-10
   2.74920011       1.06435506E-10
   2.76119995      -4.22150204E-10
   2.77320004      -1.26399757E-09
   2.78520012      -2.51007104E-09
   2.79719996      -4.26476898E-09
   2.80920005      -6.64969280E-09
   2.82119989      -9.81141568E-09
   2.83319998      -1.39354510E-08
   2.84520006      -1.92690219E-08
   2.85719991      -2.61557176E-08
   2.86919999      -3.50853959E-08
   2.88120008      -4.67626471E-08
   2.89319992      -6.21970813E-08
   2.90520000      -8.28179338E-08
   2.91720009      -1.10614543E-07
   2.92919993      -1.48302533E-07
   2.94120002      -1.99513863E-07
   2.95320010      -2.69006108E-07
   2.96519995      -3.62883526E-07
   2.97720003      -4.88819808E-07
   2.98920012      -6.56268583E-07
   3.00119996      -8.76645743E-07
   3.01320004      -1.16346439E-06
   3.02519989      -1.53240205E-06
   3.03719997      -2.00128011E-06
   3.04920006      -2.58993191E-06
   3.06119990      -3.31994443E-06
   3.07319999      -4.21425784E-06
   3.08520007      -5.29661156E-06
   3.09719992      -6.59083616E-06
   3.10920000      -8.11999871E-06
   3.12120008      -9.90540593E-06
   3.13319993      -1.19655133E-05
   3.14520001      -1.43147427E-05
   3.15720010      -1.69622817E-05
   3.16919994      -1.99109054E-05
   3.18120003      -2.31558734E-05
   3.19320011      -2.66839797E-05
   3.20519996      -3.04728110E-05
   3.21720004      -3.44902692E-05
   3.22919989      -3.86944230E-05
   3.24119997      -4.30337350E-05
   3.25320005      -4.74476801E-05
   3.26519990      -5.18677734E-05
   3.27719998      -5.62190216E-05
   3.28920007      -6.04217421E-05
   3.30119991      -6.43937310E-05
   3.31320000      -6.80526791E-05
   3.32520008      -7.13187983E-05
   3.33719993      -7.41175172E-05
   3.34920001      -7.63821154E-05
   3.36120009      -7.80562623E-05
   3.37319994      -7.90962877E-05
   3.38520002      -7.94729931E-05
   3.39720011      -7.91730999E-05
   3.40919995      -7.82001080E-05
   3.42120004      -7.65744553E-05
   3.43319988      -7.43332130E-05
   3.44519997      -7.15289716E-05
   3.45720005      -6.82282262E-05
   3.46919990      -6.45091641E-05
   3.48119998      -6.04590350E-05
   3.49320006      -5.61711822E-05
   3.50519991      -5.17418666E-05
   3.51719999      -4.72670217E-05
   3.52920008      -4.28391031E-05
   3.54119992      -3.85441999E-05
   3.55320001      -3.44594664E-05
   3.56520009      -3.06510592E-05
   3.57719994      -2.71726058E-05
   3.58920002      -2.40642985E-05
   3.60120010      -2.13526000E-05
   3.61319995      -1.90505598E-05
   3.62520003      -1.71586853E-05
   3.63720012      -1.56662736E-05
   3.64919996      -1.45531367E-05
   3.66120005      -1.37915486E-05
   3.67319989      -1.33483318E-05
   3.68519998      -1.31869265E-05
   3.69720006      -1.32693358E-05
   3.70919991      -1.35578402E-05
   3.72119999      -1.40164102E-05
   3.73320007      -1.46117554E-05
   3.74519992      -1.53139990E-05
   3.75720000      -1.60969666E-05
   3.76920009      -1.69381638E-05
   3.78119993      -1.78184455E-05
   3.79320002      -1.87214919E-05
   3.80520010      -1.96331821E-05
   3.81719995      -2.05409015E-05
   3.82920003      -2.14329430E-05
   3.84120011      -2.22979907E-05
   3.85319996      -2.31248232E-05
   3.86520004      -2.39021865E-05
   3.87719989      -2.46189193E-05
   3.88919997      -2.52642676E-05
   3.90120006      -2.58283781E-05
   3.91319990      -2.63029033E-05
   3.92519999      -2.66816678E-05
   3.93720007      -2.69613065E-05
   3.94919991      -2.71418285E-05
   3.96120000      -2.72270136E-05
   3.97320008      -2.72246198E-05
   3.98519993      -2.71463359E-05
   3.99720001      -2.70074943E-05
   4.00920010      -2.68265176E-05
   4.02120018      -2.66241732E-05
   4.03319979      -2.64226092E-05
   4.04519987      -2.62443027E-05
   4.05719995      -2.61109490E-05
   4.06920004      -2.60423676E-05
   4.08120012      -2.60555316E-05
   4.09320021      -2.61637451E-05
   4.10519981      -2.63760539E-05
   4.11719990      -2.66969382E-05
   4.12919998      -2.71262761E-05
   4.14120007      -2.76596311E-05
   4.15320015      -2.82887941E-05
   4.16520023      -2.90025964E-05
   4.17719984      -2.97879105E-05
   4.18919992      -3.06307702E-05
   4.20120001      -3.15175457E-05
   4.21320009      -3.24361063E-05
   4.22520018      -3.33768367E-05
   4.23719978      -3.43335269E-05
   4.24919987      -3.53039723E-05
   4.26119995      -3.62902974E-05
   4.27320004      -3.72989853E-05
   4.28520012      -3.83405495E-05
   4.29720020      -3.94289418E-05
   4.30919981      -4.05806604E-05
   4.32119989      -4.18136624E-05
   4.33319998      -4.31461303E-05
   4.34520006      -4.45951773E-05
   4.35720015      -4.61755699E-05
   4.36920023      -4.78985639E-05
   4.38119984      -4.97709225E-05
   4.39319992      -5.17941844E-05
   4.40520000      -5.39642278E-05
   4.41720009      -5.62711430E-05
   4.42920017      -5.86994829E-05
   4.44119978      -6.12287477E-05
   4.45319986      -6.38342390E-05
   4.46519995      -6.64880645E-05
   4.47720003      -6.91603200E-05
   4.48920012      -7.18203664E-05
   4.50120020      -7.44380595E-05
   4.51319981      -7.69849212E-05
   4.52519989      -7.94351436E-05
   4.53719997      -8.17663968E-05
   4.54920006      -8.39603090E-05
   4.56120014      -8.60028085E-05
   4.57320023      -8.78840438E-05
   4.58519983      -8.95981357E-05
   4.59719992      -9.11426469E-05
   4.60920000      -9.25178902E-05
   4.62120008      -9.37261866E-05
   4.63320017      -9.47709559E-05
   4.64519978      -9.56558797E-05
   4.65719986      -9.63841740E-05
   4.66919994      -9.69579851E-05
   4.68120003      -9.73778806E-05
   4.69320011      -9.76426891E-05
   4.70520020      -9.77494856E-05
   4.71719980      -9.76938318E-05
   4.72919989      -9.74702416E-05
   4.74119997      -9.70728652E-05
   4.75320005      -9.64963037E-05
   4.76520014      -9.57365482E-05
   4.77720022      -9.47919543E-05
   4.78919983      -9.36642537E-05
   4.80119991      -9.23593907E-05
   4.81320000      -9.08883740E-05
   4.82520008      -8.92677490E-05
   4.83720016      -8.75199548E-05
   4.84919977      -8.56733386E-05
   4.86119986      -8.37618209E-05
   4.87319994      -8.18242843E-05
   4.88520002      -7.99036061E-05
   4.89720011      -7.80453702E-05
   4.90920019      -7.62963027E-05
   4.92119980      -7.47025697E-05
   4.93319988      -7.33078123E-05
   4.94519997      -7.21512479E-05
   4.95720005      -7.12657056E-05
   4.96920013      -7.06758656E-05
   4.98120022      -7.03967307E-05
   4.99319983      -7.04323393E-05
   5.00519991      -7.07749641E-05
   5.01719999      -7.14047928E-05
   5.02920008      -7.22900440E-05
   5.04120016      -7.33876659E-05
   5.05319977      -7.46446240E-05
   5.06519985      -7.59995673E-05
   5.07719994      -7.73851280E-05
   5.08920002      -7.87303870E-05
   5.10120010      -7.99638583E-05
   5.11320019      -8.10164347E-05
   5.12519979      -8.18245098E-05
   5.13719988      -8.23329392E-05
   5.14919996      -8.24978051E-05
   5.16120005      -8.22887960E-05
   5.17320013      -8.16910760E-05
   5.18520021      -8.07066172E-05
   5.19719982      -7.93547661E-05
   5.20919991      -7.76721499E-05
   5.22119999      -7.57117159E-05
   5.23320007      -7.35410358E-05
   5.24520016      -7.12399342E-05
   5.25719976      -6.88973450E-05
   5.26919985      -6.66077103E-05
   5.28119993      -6.44669490E-05
   5.29320002      -6.25681423E-05
   5.30520010      -6.09972558E-05
   5.31720018      -5.98289444E-05
   5.32919979      -5.91227072E-05
   5.34119987      -5.89195806E-05
   5.35319996      -5.92395081E-05
   5.36520004      -6.00795065E-05
   5.37720013      -6.14127785E-05
   5.38920021      -6.31887451E-05
   5.40119982      -6.53340539E-05
   5.41319990      -6.77544449E-05
   5.42519999      -7.03374826E-05
   5.43720007      -7.29559324E-05
   5.44920015      -7.54716457E-05
   5.46120024      -7.77397654E-05
   5.47319984      -7.96131208E-05
   5.48519993      -8.09465200E-05
   5.49720001      -8.16008251E-05
   5.50920010      -8.14467348E-05
   5.52120018      -8.03679868E-05
   5.53319979      -7.82641000E-05
   5.54519987      -7.50524996E-05
   5.55719995      -7.06700666E-05
   5.56920004      -6.50741204E-05
   5.58120012      -5.82430184E-05
   5.59320021      -5.01761679E-05
   5.60519981      -4.08938940E-05
   5.61719990      -3.04369842E-05
   5.62919998      -1.88660360E-05
   5.64120007      -6.26076280E-06
   5.65320015       7.28087298E-06
   5.66520023       2.16435419E-05
   5.67719984       3.66955792E-05
   5.68919992       5.22901100E-05
   5.70120001       6.82663958E-05
   5.71320009       8.44514070E-05
   5.72520018       1.00661695E-04
   5.73719978       1.16705589E-04
   5.74919987       1.32385816E-04
   5.76119995       1.47502433E-04
   5.77320004       1.61856180E-04
   5.78520012       1.75252091E-04
   5.79720020       1.87503276E-04
   5.80919981       1.98434995E-04
   5.82119989       2.07888443E-04
   5.83319998       2.15724664E-04
   5.84520006       2.21827897E-04
   5.85720015       2.26108808E-04
   5.86920023       2.28506804E-04
   5.88119984       2.28991921E-04
   5.89319992       2.27565892E-04
   5.90520000       2.24262491E-04
   5.91720009       2.19146910E-04
   5.92920017       2.12314582E-04
   5.94119978       2.03889125E-04
   5.95319986       1.94019594E-04
   5.96519995       1.82877324E-04
   5.97720003       1.70652085E-04
   5.98920012       1.57548071E-04
   6.00120020       1.43779514E-04
   6.01319981       1.29566179E-04
   6.02519989       1.15128882E-04
   6.03719997       1.00684934E-04
   6.04920006       8.64438771E-05
   6.06120014       7.26033686E-05
   6.07320023       5.93454097E-05
   6.08519983       4.68329345E-05
   6.09719992       3.52069146E-05
   6.10920000       2.45839528E-05
   6.12120008       1.50545366E-05
   6.13320017       6.68190705E-06
   6.14519978      -4.98322208E-07
   6.15719986      -6.47781462E-06
   6.16919994      -1.12743974E-05
   6.18120003      -1.49302095E-05
   6.19320011      -1.75091682E-05
   6.20520020      -1.90938172E-05
   6.21719980      -1.97816898E-05
   6.22919989      -1.96813235E-05
   6.24119997      -1.89080783E-05
   6.25320005      -1.75799705E-05
   6.26520014      -1.58136827E-05
   6.27720022      -1.37209190E-05
   6.28919983      -1.14053028E-05
   6.30119991      -8.95989979E-06
   6.31320000      -6.46548688E-06
   6.32520008      -3.98960583E-06
   6.33720016      -1.58638511E-06
   6.34919977       7.02898149E-07
   6.36119986       2.84862040E-06
   6.37319994       4.83110489E-06
   6.38520002       6.63856008E-06
   6.39720011       8.26482665E-06
   6.40920019       9.70711972E-06
   6.42119980       1.09639113E-05
   6.43319988       1.20331224E-05
   6.44519997       1.29107220E-05
   6.45720005       1.35898072E-05
   6.46920013       1.40602351E-05
   6.48120022       1.43087600E-05
   6.49319983       1.43196776E-05
   6.50519991       1.40758639E-05
   6.51719999       1.35601413E-05
   6.52920008       1.27568219E-05
   6.54120016       1.16533283E-05
   6.55319977       1.02417416E-05
   6.56519985       8.52017092E-06
   6.57719994       6.49382309E-06
   6.58920002       4.17572028E-06
   6.60120010       1.58696787E-06
   6.61320019      -1.24341727E-06
   6.62519979      -4.27913346E-06
   6.63719988      -7.47763352E-06
   6.64919996      -1.07915239E-05
   6.66120005      -1.41702203E-05
   6.67320013      -1.75617861E-05
   6.68520021      -2.09148093E-05
   6.69719982      -2.41802300E-05
   6.70919991      -2.73130045E-05
   6.72119999      -3.02735134E-05
   6.73320007      -3.30286384E-05
   6.74520016      -3.55524571E-05
   6.75719976      -3.78265540E-05
   6.76919985      -3.98399061E-05
   6.78119993      -4.15884460E-05
   6.79320002      -4.30742948E-05
   6.80520010      -4.43047793E-05
   6.81720018      -4.52913409E-05
   6.82919979      -4.60483861E-05
   6.84119987      -4.65922130E-05
   6.85319996      -4.69400984E-05
   6.86520004      -4.71095882E-05
   6.87720013      -4.71180501E-05
   6.88920021      -4.69824699E-05
   6.90119982      -4.67195459E-05
   6.91319990      -4.63459182E-05
   6.92519999      -4.58785726E-05
   6.93720007      -4.53353059E-05
   6.94920015      -4.47351085E-05
   6.96120024      -4.40984695E-05
   6.97319984      -4.34474678E-05
   6.98519993      -4.28055828E-05
   6.99720001      -4.21972800E-05
   7.00920010      -4.16472540E-05
   7.02120018      -4.11794463E-05
   7.03319979      -4.08158849E-05
   7.04519987      -4.05753926E-05
   7.05719995      -4.04723105E-05
   7.06920004      -4.05153514E-05
   7.08120012      -4.07066509E-05
   7.09320021      -4.10411594E-05
   7.10519981      -4.15064496E-05
   7.11719990      -4.20829165E-05
   7.12919998      -4.27444866E-05
   7.14120007      -4.34597314E-05
   7.15320015      -4.41933298E-05
   7.16520023      -4.49078434E-05
   7.17719984      -4.55656409E-05
   7.18919992      -4.61308628E-05
   7.20120001      -4.65713092E-05
   7.21320009      -4.68601356E-05
   7.22520018      -4.69772349E-05
   7.23719978      -4.69102342E-05
   7.24919987      -4.66550264E-05
   7.26119995      -4.62158787E-05
   7.27320004      -4.56050584E-05
   7.28520012      -4.48420469E-05
   7.29720020      -4.39523974E-05
   7.30919981      -4.29663487E-05
   7.32119989      -4.19172247E-05
   7.33319998      -4.08397682E-05
   7.34520006      -3.97684889E-05
   7.35720015      -3.87360815E-05
   7.36920023      -3.77720644E-05
   7.38119984      -3.69015688E-05
   7.39319992      -3.61444654E-05
   7.40520000      -3.55147131E-05
   7.41720009      -3.50200753E-05
   7.42920017      -3.46620654E-05
   7.44119978      -3.44362234E-05
   7.45319986      -3.43326246E-05
   7.46519995      -3.43366119E-05
   7.47720003      -3.44297114E-05
   7.48920012      -3.45906774E-05
   7.50120020      -3.47966234E-05
   7.51319981      -3.50241862E-05
   7.52519989      -3.52506540E-05
   7.53719997      -3.54550284E-05
   7.54920006      -3.56189194E-05
   7.56120014      -3.57273129E-05
   7.57320023      -3.57690624E-05
   7.58519983      -3.57371682E-05
   7.59719992      -3.56287856E-05
   7.60920000      -3.54449876E-05
   7.62120008      -3.51902636E-05
   7.63320017      -3.48718640E-05
   7.64519978      -3.44989639E-05
   7.65719986      -3.40817496E-05
   7.66919994      -3.36305093E-05
   7.68120003      -3.31547599E-05
   7.69320011      -3.26625268E-05
   7.70520020      -3.21597545E-05
   7.71719980      -3.16499900E-05
   7.72919989      -3.11342992E-05
   7.74119997      -3.06114598E-05
   7.75320005      -3.00783649E-05
   7.76520014      -2.95306800E-05
   7.77720022      -2.89636373E-05
   7.78919983      -2.83729332E-05
   7.80119991      -2.77556555E-05
   7.81320000      -2.71111694E-05
   7.82520008      -2.64418813E-05
   7.83720016      -2.57538177E-05
   7.84919977      -2.50569901E-05
   7.86119986      -2.43654758E-05
   7.87319994      -2.36972392E-05
   7.88520002      -2.30736496E-05
   7.89720011      -2.25187632E-05
   7.90920019      -2.20583534E-05
   7.92119980      -2.17187808E-05
   7.93319988      -2.15257387E-05
   7.94519997      -2.15029486E-05
   7.95720005      -2.16708668E-05
   7.96920013      -2.20454967E-05
   7.98120022      -2.26373322E-05
   7.99319983      -2.34505242E-05
   8.00520039      -2.44822968E-05
   8.01720047      -2.57226457E-05
   8.02919960      -2.71543577E-05
   8.04119968      -2.87533185E-05
   8.05319977      -3.04891455E-05
   8.06519985      -3.23260720E-05
   8.07719994      -3.42240965E-05
   8.08920002      -3.61402963E-05
   8.10120010      -3.80303027E-05
   8.11320019      -3.98498050E-05
   8.12520027      -4.15560935E-05
   8.13720036      -4.31095395E-05
   8.14920044      -4.44749130E-05
   8.16119957      -4.56225571E-05
   8.17319965      -4.65293160E-05
   8.18519974      -4.71792155E-05
   8.19719982      -4.75638481E-05
   8.20919991      -4.76824971E-05
   8.22119999      -4.75419511E-05
   8.23320007      -4.71560779E-05
   8.24520016      -4.65451267E-05
   8.25720024      -4.57348724E-05
   8.26920033      -4.47555576E-05
   8.28120041      -4.36407427E-05
   8.29319954      -4.24260943E-05
   8.30519962      -4.11481160E-05
   8.31719971      -3.98429547E-05
   8.32919979      -3.85451822E-05
   8.34119987      -3.72867689E-05
   8.35319996      -3.60960803E-05
   8.36520004      -3.49970687E-05
   8.37720013      -3.40085971E-05
   8.38920021      -3.31439296E-05
   8.40120029      -3.24104258E-05
   8.41320038      -3.18093844E-05
   8.42520046      -3.13361015E-05
   8.43719959      -3.09801144E-05
   8.44919968      -3.07256378E-05
   8.46119976      -3.05521535E-05
   8.47319984      -3.04351997E-05
   8.48519993      -3.03472771E-05
   8.49720001      -3.02588905E-05
   8.50920010      -3.01397013E-05
   8.52120018      -2.99597195E-05
   8.53320026      -2.96905473E-05
   8.54520035      -2.93066096E-05
   8.55720043      -2.87863186E-05
   8.56919956      -2.81131561E-05
   8.58119965      -2.72766029E-05
   8.59319973      -2.62728918E-05
   8.60519981      -2.51055317E-05
   8.61719990      -2.37855766E-05
   8.62919998      -2.23316274E-05
   8.64120007      -2.07695211E-05
   8.65320015      -1.91317486E-05
   8.66520023      -1.74565685E-05
   8.67720032      -1.57868672E-05
   8.68920040      -1.41687633E-05
   8.70119953      -1.26500372E-05
   8.71319962      -1.12784055E-05
   8.72519970      -1.00997304E-05
   8.73719978      -9.15620240E-06
   8.74919987      -8.48460786E-06
   8.76119995      -8.11473001E-06
   8.77320004      -8.06796925E-06
   8.78520012      -8.35625997E-06
   8.79720020      -8.98132748E-06
   8.80920029      -9.93435697E-06
   8.82120037      -1.11960790E-05
   8.83320045      -1.27372978E-05
   8.84519958      -1.45198510E-05
   8.85719967      -1.64979665E-05
   8.86919975      -1.86199486E-05
   8.88119984      -2.08301281E-05
   8.89319992      -2.30709811E-05
   8.90520000      -2.52853079E-05
   8.91720009      -2.74183512E-05
   8.92920017      -2.94197725E-05
   8.94120026      -3.12453667E-05
   8.95320034      -3.28584538E-05
   8.96520042      -3.42308522E-05
   8.97719955      -3.53434771E-05
   8.98919964      -3.61864841E-05
   9.00119972      -3.67589855E-05
   9.01319981      -3.70684502E-05
   9.02519989      -3.71297792E-05
   9.03719997      -3.69641384E-05
   9.04920006      -3.65976739E-05
   9.06120014      -3.60601225E-05
   9.07320023      -3.53834621E-05
   9.08520031      -3.46005909E-05
   9.09720039      -3.37441488E-05
   9.10919952      -3.28454807E-05
   9.12119961      -3.19337596E-05
   9.13319969      -3.10352625E-05
   9.14519978      -3.01728342E-05
   9.15719986      -2.93654812E-05
   9.16919994      -2.86281193E-05
   9.18120003      -2.79714241E-05
   9.19320011      -2.74018184E-05
   9.20520020      -2.69215652E-05
   9.21720028      -2.65289800E-05
   9.22920036      -2.62187550E-05
   9.24120045      -2.59824064E-05
   9.25319958      -2.58088130E-05
   9.26519966      -2.56848762E-05
   9.27719975      -2.55962459E-05
   9.28919983      -2.55281011E-05
   9.30119991      -2.54659644E-05
   9.31320000      -2.53964845E-05
   9.32520008      -2.53081907E-05
   9.33720016      -2.51921101E-05
   9.34920025      -2.50423000E-05
   9.36120033      -2.48561937E-05
   9.37320042      -2.46347663E-05
   9.38519955      -2.43825198E-05
   9.39719963      -2.41072885E-05
   9.40919971      -2.38198518E-05
   9.42119980      -2.35334392E-05
   9.43319988      -2.32630828E-05
   9.44519997      -2.30249298E-05
