 -0.622799993         1.00000012E-24
 -0.610800028         1.00000012E-24
 -0.598800004         1.00000012E-24
 -0.586799979        -1.32794707E-18
 -0.574800014        -9.58727724E-18
 -0.562799990        -3.84392584E-17
 -0.550800025        -1.12265787E-16
 -0.538800001        -2.66910961E-16
 -0.526799977        -5.52329433E-16
 -0.514800012        -1.04563179E-15
 -0.502799988        -1.87991805E-15
 -0.490799993        -3.27730790E-15
 -0.478799999        -5.54832542E-15
 -0.466800004        -9.00440577E-15
 -0.454800010        -1.37543895E-14
 -0.442799985        -1.94363907E-14
 -0.430799991        -2.50548348E-14
 -0.418799996        -2.91836766E-14
 -0.406800002        -3.07680009E-14
 -0.394800007        -3.05368930E-14
 -0.382800013        -3.26460796E-14
 -0.370799989        -4.57413411E-14
 -0.358799994        -8.24214422E-14
 -0.346799999        -1.56339609E-13
 -0.334800005        -2.77033469E-13
 -0.322800010        -4.43856323E-13
 -0.310799986        -6.41623961E-13
 -0.298799992        -8.41117432E-13
 -0.286799997        -1.00679317E-12
 -0.274800003        -1.11175500E-12
 -0.262800008        -1.15671567E-12
 -0.250800014        -1.18646792E-12
 -0.238800004        -1.29582217E-12
 -0.226799995        -1.61836289E-12
 -0.214800000        -2.29612770E-12
 -0.202800006        -3.43551836E-12
 -0.190799996        -5.06211262E-12
 -0.178800002        -7.09155998E-12
 -0.166800007        -9.33273858E-12
 -0.154799998        -1.15316966E-11
 -0.142800003        -1.34518854E-11
 -0.130799994        -1.49714685E-11
 -0.118799999        -1.61673452E-11
 -0.106799997        -1.73529368E-11
  -9.48000029E-02    -1.90454996E-11
  -8.28000009E-02    -2.18580189E-11
  -7.07999989E-02    -2.63355119E-11
  -5.88000007E-02    -3.27782385E-11
  -4.67999987E-02    -4.11064065E-11
  -3.48000005E-02    -5.08166460E-11
  -2.28000004E-02    -6.10588524E-11
  -1.08000003E-02    -7.08276077E-11
   1.20000006E-03    -7.92253207E-11
   1.31999999E-02    -8.57259194E-11
   2.52000000E-02    -9.03590744E-11
   3.72000001E-02    -9.37500771E-11
   4.91999984E-02    -9.69876401E-11
   6.12000003E-02    -1.01340804E-10
   7.32000023E-02    -1.07893881E-10
   8.51999968E-02    -1.17198279E-10
   9.71999988E-02    -1.29044220E-10
  0.109200001        -1.42428208E-10
  0.121200003        -1.55741295E-10
  0.133200005        -1.67141898E-10
  0.145199999        -1.75020720E-10
  0.157199994        -1.78432949E-10
  0.169200003        -1.77373019E-10
  0.181199998        -1.72802037E-10
  0.193200007        -1.66401254E-10
  0.205200002        -1.60099378E-10
  0.217199996        -1.55490024E-10
  0.229200006        -1.53297403E-10
  0.241200000        -1.53051877E-10
  0.253199995        -1.53097215E-10
  0.265199989        -1.50974663E-10
  0.277200013        -1.44131054E-10
  0.289200008        -1.30803368E-10
  0.301200002        -1.10863721E-10
  0.313199997        -8.63884381E-11
  0.325199991        -6.17539284E-11
  0.337199986        -4.31563951E-11
  0.349200010        -3.75849039E-11
  0.361200005        -5.14169679E-11
  0.373199999        -8.89168530E-11
  0.385199994        -1.50965795E-10
  0.397199988        -2.34322617E-10
  0.409200013        -3.31602912E-10
  0.421200007        -4.32000463E-10
  0.433200002        -5.22596910E-10
  0.445199996        -5.89965576E-10
  0.457199991        -6.21715845E-10
  0.469199985        -6.07661754E-10
  0.481200010        -5.40432143E-10
  0.493200004        -4.15518758E-10
  0.505200028        -2.30932162E-10
  0.517199993         1.32598377E-11
  0.529200017         3.15244192E-10
  0.541199982         6.71484923E-10
  0.553200006         1.07651710E-09
  0.565199971         1.52279267E-09
  0.577199996         2.00100336E-09
  0.589200020         2.50131071E-09
  0.601199985         3.01576475E-09
  0.613200009         3.54191609E-09
  0.625199974         4.08732204E-09
  0.637199998         4.67443950E-09
  0.649200022         5.34539879E-09
  0.661199987         6.16643892E-09
  0.673200011         7.23239602E-09
  0.685199976         8.67241923E-09
  0.697200000         1.06589653E-08
  0.709200025         1.34229055E-08
  0.721199989         1.72780315E-08
  0.733200014         2.26584369E-08
  0.745199978         3.01720497E-08
  0.757200003         4.06729619E-08
  0.769200027         5.53545760E-08
  0.781199992         7.58648397E-08
  0.793200016         1.04443856E-07
  0.805199981         1.44083302E-07
  0.817200005         1.98706175E-07
  0.829200029         2.73363725E-07
  0.841199994         3.74444880E-07
  0.853200018         5.09890754E-07
  0.865199983         6.89405624E-07
  0.877200007         9.24651431E-07
  0.889199972         1.22941196E-06
  0.901199996         1.61971036E-06
  0.913200021         2.11386305E-06
  0.925199986         2.73245450E-06
  0.937200010         3.49821698E-06
  0.949199975         4.43580620E-06
  0.961199999         5.57145677E-06
  0.973200023         6.93252696E-06
  0.985199988         8.54691007E-06
  0.997200012         1.04423470E-05
   1.00919998         1.26456234E-05
   1.02119994         1.51816857E-05
   1.03320003         1.80726856E-05
   1.04519999         2.13369985E-05
   1.05719995         2.49882178E-05
   1.06920004         2.90342250E-05
   1.08120000         3.34763026E-05
   1.09319997         3.83083861E-05
   1.10520005         4.35164766E-05
   1.11720002         4.90782804E-05
   1.12919998         5.49630786E-05
   1.14119995         6.11318465E-05
   1.15320003         6.75376796E-05
   1.16520000         7.41265467E-05
   1.17719996         8.08382611E-05
   1.18920004         8.76077829E-05
   1.20120001         9.43667401E-05
   1.21319997         1.01045167E-04
   1.22520006         1.07573353E-04
   1.23720002         1.13883805E-04
   1.24919999         1.19913217E-04
   1.26119995         1.25604318E-04
   1.27320004         1.30907545E-04
   1.28520000         1.35782524E-04
   1.29719996         1.40199176E-04
   1.30920005         1.44138467E-04
   1.32120001         1.47592727E-04
   1.33319998         1.50565538E-04
   1.34519994         1.53071218E-04
   1.35720003         1.55133777E-04
   1.36919999         1.56785783E-04
   1.38119996         1.58066643E-04
   1.39320004         1.59020929E-04
   1.40520000         1.59696545E-04
   1.41719997         1.60142779E-04
   1.42920005         1.60408657E-04
   1.44120002         1.60541371E-04
   1.45319998         1.60585041E-04
   1.46519995         1.60579686E-04
   1.47720003         1.60560754E-04
   1.48920000         1.60558775E-04
   1.50119996         1.60599535E-04
   1.51320004         1.60704411E-04
   1.52520001         1.60890981E-04
   1.53719997         1.61173710E-04
   1.54920006         1.61564807E-04
   1.56120002         1.62074895E-04
   1.57319999         1.62713710E-04
   1.58519995         1.63490622E-04
   1.59720004         1.64414974E-04
   1.60920000         1.65496196E-04
   1.62119997         1.66743790E-04
   1.63320005         1.68167171E-04
   1.64520001         1.69775260E-04
   1.65719998         1.71576161E-04
   1.66919994         1.73576787E-04
   1.68120003         1.75782421E-04
   1.69319999         1.78196467E-04
   1.70519996         1.80820309E-04
   1.71720004         1.83653217E-04
   1.72920001         1.86692560E-04
   1.74119997         1.89933984E-04
   1.75320005         1.93371845E-04
   1.76520002         1.96999550E-04
   1.77719998         2.00810158E-04
   1.78919995         2.04796728E-04
   1.80120003         2.08952741E-04
   1.81320000         2.13272448E-04
   1.82519996         2.17751047E-04
   1.83720005         2.22384697E-04
   1.84920001         2.27170429E-04
   1.86119998         2.32105944E-04
   1.87320006         2.37189175E-04
   1.88520002         2.42417809E-04
   1.89719999         2.47788645E-04
   1.90919995         2.53296865E-04
   1.92120004         2.58935324E-04
   1.93320000         2.64693779E-04
   1.94519997         2.70558172E-04
   1.95720005         2.76509934E-04
   1.96920002         2.82525521E-04
   1.98119998         2.88575859E-04
   1.99319994         2.94626283E-04
   2.00519991         3.00636370E-04
   2.01719999         3.06560338E-04
   2.02920008         3.12347285E-04
   2.04119992         3.17942002E-04
   2.05320001         3.23285814E-04
   2.06520009         3.28317779E-04
   2.07719994         3.32975615E-04
   2.08920002         3.37197591E-04
   2.10120010         3.40923492E-04
   2.11319995         3.44096246E-04
   2.12520003         3.46663350E-04
   2.13720012         3.48577945E-04
   2.14919996         3.49800044E-04
   2.16120005         3.50297254E-04
   2.17319989         3.50045506E-04
   2.18519998         3.49029200E-04
   2.19720006         3.47241497E-04
   2.20919991         3.44684144E-04
   2.22119999         3.41367064E-04
   2.23320007         3.37308069E-04
   2.24519992         3.32532334E-04
   2.25720000         3.27071903E-04
   2.26920009         3.20965075E-04
   2.28119993         3.14256118E-04
   2.29320002         3.06994742E-04
   2.30520010         2.99235806E-04
   2.31719995         2.91038974E-04
   2.32920003         2.82468536E-04
   2.34120011         2.73592770E-04
   2.35319996         2.64483766E-04
   2.36520004         2.55216699E-04
   2.37719989         2.45869043E-04
   2.38919997         2.36519511E-04
   2.40120006         2.27246899E-04
   2.41319990         2.18128538E-04
   2.42519999         2.09238715E-04
   2.43720007         2.00646842E-04
   2.44919991         1.92415770E-04
   2.46120000         1.84600096E-04
   2.47320008         1.77244699E-04
   2.48519993         1.70383573E-04
   2.49720001         1.64039127E-04
   2.50920010         1.58221883E-04
   2.52119994         1.52930661E-04
   2.53320003         1.48153485E-04
   2.54520011         1.43868718E-04
   2.55719995         1.40046846E-04
   2.56920004         1.36652539E-04
   2.58119988         1.33646914E-04
   2.59319997         1.30989923E-04
   2.60520005         1.28642729E-04
   2.61719990         1.26569663E-04
   2.62919998         1.24740051E-04
   2.64120007         1.23129401E-04
   2.65319991         1.21720106E-04
   2.66520000         1.20501507E-04
   2.67720008         1.19469434E-04
   2.68919992         1.18625125E-04
   2.70120001         1.17973759E-04
   2.71320009         1.17522715E-04
   2.72519994         1.17279487E-04
   2.73720002         1.17249700E-04
   2.74920011         1.17435164E-04
   2.76119995         1.17832162E-04
   2.77320004         1.18430122E-04
   2.78520012         1.19210745E-04
   2.79719996         1.20147604E-04
   2.80920005         1.21206373E-04
   2.82119989         1.22345504E-04
   2.83319998         1.23517500E-04
   2.84520006         1.24670565E-04
   2.85719991         1.25750608E-04
   2.86919999         1.26703424E-04
   2.88120008         1.27477077E-04
   2.89319992         1.28024098E-04
   2.90520000         1.28303727E-04
   2.91720009         1.28283820E-04
   2.92919993         1.27942432E-04
   2.94120002         1.27269042E-04
   2.95320010         1.26265266E-04
   2.96519995         1.24945131E-04
   2.97720003         1.23334830E-04
   2.98920012         1.21471887E-04
   3.00119996         1.19403863E-04
   3.01320004         1.17186682E-04
   3.02519989         1.14882496E-04
   3.03719997         1.12557245E-04
   3.04920006         1.10278124E-04
   3.06119990         1.08110784E-04
   3.07319999         1.06116720E-04
   3.08520007         1.04350649E-04
   3.09719992         1.02858168E-04
   3.10920000         1.01673781E-04
   3.12120008         1.00819299E-04
   3.13319993         1.00302874E-04
   3.14520001         1.00118516E-04
   3.15720010         1.00246369E-04
   3.16919994         1.00653553E-04
   3.18120003         1.01295700E-04
   3.19320011         1.02118982E-04
   3.20519996         1.03062666E-04
   3.21720004         1.04061932E-04
   3.22919989         1.05050887E-04
   3.24119997         1.05965635E-04
   3.25320005         1.06747138E-04
   3.26519990         1.07343811E-04
   3.27719998         1.07713757E-04
   3.28920007         1.07826374E-04
   3.30119991         1.07663422E-04
   3.31320000         1.07219406E-04
   3.32520008         1.06501284E-04
   3.33719993         1.05527564E-04
   3.34920001         1.04326842E-04
   3.36120009         1.02935846E-04
   3.37319994         1.01397185E-04
   3.38520002         9.97569659E-05
   3.39720011         9.80623590E-05
   3.40919995         9.63592975E-05
   3.42120004         9.46905348E-05
   3.43319988         9.30939714E-05
   3.44519997         9.16014760E-05
   3.45720005         9.02382453E-05
   3.46919990         8.90225274E-05
   3.48119998         8.79658764E-05
   3.49320006         8.70737713E-05
   3.50519991         8.63465248E-05
   3.51719999         8.57804407E-05
   3.52920008         8.53690290E-05
   3.54119992         8.51042278E-05
   3.55320001         8.49775533E-05
   3.56520009         8.49810167E-05
   3.57719994         8.51078512E-05
   3.58920002         8.53529345E-05
   3.60120010         8.57129562E-05
   3.61319995         8.61862864E-05
   3.62520003         8.67727140E-05
   3.63720012         8.74729230E-05
   3.64919996         8.82879103E-05
   3.66120005         8.92183743E-05
   3.67319989         9.02640095E-05
   3.68519998         9.14229677E-05
   3.69720006         9.26912544E-05
   3.70919991         9.40624013E-05
   3.72119999         9.55271462E-05
   3.73320007         9.70733381E-05
   3.74519992         9.86859304E-05
   3.75720000         1.00347199E-04
   3.76920009         1.02036967E-04
   3.78119993         1.03733037E-04
   3.79320002         1.05411600E-04
   3.80520010         1.07047730E-04
   3.81719995         1.08615925E-04
   3.82920003         1.10090587E-04
   3.84120011         1.11446636E-04
   3.85319996         1.12660047E-04
   3.86520004         1.13708484E-04
   3.87719989         1.14571907E-04
   3.88919997         1.15233219E-04
   3.90120006         1.15678886E-04
   3.91319990         1.15899573E-04
   3.92519999         1.15890594E-04
   3.93720007         1.15652430E-04
   3.94919991         1.15190996E-04
   3.96120000         1.14517832E-04
   3.97320008         1.13650101E-04
   3.98519993         1.12610462E-04
   3.99720001         1.11426714E-04
   4.00920010         1.10131317E-04
   4.02120018         1.08760636E-04
   4.03319979         1.07354041E-04
   4.04519987         1.05952880E-04
   4.05719995         1.04599247E-04
   4.06920004         1.03334663E-04
   4.08120012         1.02198755E-04
   4.09320021         1.01227859E-04
   4.10519981         1.00453748E-04
   4.11719990         9.99025215E-05
   4.12919998         9.95936134E-05
   4.14120007         9.95390510E-05
   4.15320015         9.97430325E-05
   4.16520023         1.00201709E-04
   4.17719984         1.00903366E-04
   4.18919992         1.01828744E-04
   4.20120001         1.02951824E-04
   4.21320009         1.04240695E-04
   4.22520018         1.05658750E-04
   4.23719978         1.07165914E-04
   4.24919987         1.08720007E-04
   4.26119995         1.10278146E-04
   4.27320004         1.11798036E-04
   4.28520012         1.13239148E-04
   4.29720020         1.14563714E-04
   4.30919981         1.15737574E-04
   4.32119989         1.16730756E-04
   4.33319998         1.17517811E-04
   4.34520006         1.18078009E-04
   4.35720015         1.18395299E-04
   4.36920023         1.18458171E-04
   4.38119984         1.18259428E-04
   4.39319992         1.17795847E-04
   4.40520000         1.17067902E-04
   4.41720009         1.16079456E-04
   4.42920017         1.14837581E-04
   4.44119978         1.13352347E-04
   4.45319986         1.11636771E-04
   4.46519995         1.09706816E-04
   4.47720003         1.07581400E-04
   4.48920012         1.05282408E-04
   4.50120020         1.02834761E-04
   4.51319981         1.00266276E-04
   4.52519989         9.76075680E-05
   4.53719997         9.48917295E-05
   4.54920006         9.21539322E-05
   4.56120014         8.94308105E-05
   4.57320023         8.67597773E-05
   4.58519983         8.41782603E-05
   4.59719992         8.17227992E-05
   4.60920000         7.94281659E-05
   4.62120008         7.73265492E-05
   4.63320017         7.54467328E-05
   4.64519978         7.38134404E-05
   4.65719986         7.24467900E-05
   4.66919994         7.13619156E-05
   4.68120003         7.05687198E-05
   4.69320011         7.00718156E-05
   4.70520020         6.98705699E-05
   4.71719980         6.99593002E-05
   4.72919989         7.03275437E-05
   4.74119997         7.09603919E-05
   4.75320005         7.18389056E-05
   4.76520014         7.29405074E-05
   4.77720022         7.42394841E-05
   4.78919983         7.57074449E-05
   4.80119991         7.73138454E-05
   4.81320000         7.90265622E-05
   4.82520008         8.08125187E-05
   4.83720016         8.26383475E-05
   4.84919977         8.44711612E-05
   4.86119986         8.62793240E-05
   4.87319994         8.80332809E-05
   4.88520002         8.97064310E-05
   4.89720011         9.12758842E-05
   4.90920019         9.27231595E-05
   4.92119980         9.40347891E-05
   4.93319988         9.52026385E-05
   4.94519997         9.62241174E-05
   4.95720005         9.71019836E-05
   4.96920013         9.78439348E-05
   4.98120022         9.84619473E-05
   4.99319983         9.89712134E-05
   5.00519991         9.93890062E-05
   5.01719999         9.97333627E-05
   5.02920008         1.00021658E-04
   5.04120016         1.00269353E-04
   5.05319977         1.00488811E-04
   5.06519985         1.00688419E-04
   5.07719994         1.00872036E-04
   5.08920002         1.01038844E-04
   5.10120010         1.01183592E-04
   5.11320019         1.01297279E-04
   5.12519979         1.01368118E-04
   5.13719988         1.01382881E-04
   5.14919996         1.01328355E-04
   5.16120005         1.01192942E-04
   5.17320013         1.00968195E-04
   5.18520021         1.00650221E-04
   5.19719982         1.00240781E-04
   5.20919991         9.97481256E-05
   5.22119999         9.91873239E-05
   5.23320007         9.85801744E-05
   5.24520016         9.79545948E-05
   5.25719976         9.73436545E-05
   5.26919985         9.67841916E-05
   5.28119993         9.63151324E-05
   5.29320002         9.59757090E-05
   5.30520010         9.58035525E-05
   5.31720018         9.58329547E-05
   5.32919979         9.60932375E-05
   5.34119987         9.66073712E-05
   5.35319996         9.73909773E-05
   5.36520004         9.84516082E-05
   5.37720013         9.97884417E-05
   5.38920021         1.01392296E-04
   5.40119982         1.03245984E-04
   5.41319990         1.05324980E-04
   5.42519999         1.07598258E-04
   5.43720007         1.10029330E-04
   5.44920015         1.12577443E-04
   5.46120024         1.15198651E-04
   5.47319984         1.17847012E-04
   5.48519993         1.20475604E-04
   5.49720001         1.23037491E-04
   5.50920010         1.25486564E-04
   5.52120018         1.27778243E-04
   5.53319979         1.29870095E-04
   5.54519987         1.31722525E-04
   5.55719995         1.33299211E-04
   5.56920004         1.34567643E-04
   5.58120012         1.35499693E-04
   5.59320021         1.36072078E-04
   5.60519981         1.36266928E-04
   5.61719990         1.36072238E-04
   5.62919998         1.35482362E-04
   5.64120007         1.34498507E-04
   5.65320015         1.33129171E-04
   5.66520023         1.31390494E-04
   5.67719984         1.29306689E-04
   5.68919992         1.26910105E-04
   5.70120001         1.24241385E-04
   5.71320009         1.21349265E-04
   5.72520018         1.18290242E-04
   5.73719978         1.15127819E-04
   5.74919987         1.11931586E-04
   5.76119995         1.08775901E-04
   5.77320004         1.05738342E-04
   5.78520012         1.02897815E-04
   5.79720020         1.00332516E-04
   5.80919981         9.81176272E-05
   5.82119989         9.63229541E-05
   5.83319998         9.50105095E-05
   5.84520006         9.42321640E-05
   5.85720015         9.40273821E-05
   5.86920023         9.44213098E-05
   5.88119984         9.54231218E-05
   5.89319992         9.70248730E-05
   5.90520000         9.92009300E-05
   5.91720009         1.01907986E-04
   5.92920017         1.05085775E-04
   5.94119978         1.08658453E-04
   5.95319986         1.12536662E-04
   5.96519995         1.16620176E-04
   5.97720003         1.20801153E-04
   5.98920012         1.24967657E-04
   6.00120020         1.29007647E-04
   6.01319981         1.32812856E-04
   6.02519989         1.36282790E-04
   6.03719997         1.39328360E-04
   6.04920006         1.41875105E-04
   6.06120014         1.43865924E-04
   6.07320023         1.45262951E-04
   6.08519983         1.46048667E-04
   6.09719992         1.46226172E-04
   6.10920000         1.45818529E-04
   6.12120008         1.44867256E-04
   6.13320017         1.43430036E-04
   6.14519978         1.41577810E-04
   6.15719986         1.39391297E-04
   6.16919994         1.36957184E-04
   6.18120003         1.34364280E-04
   6.19320011         1.31699562E-04
   6.20520020         1.29044609E-04
   6.21719980         1.26472383E-04
   6.22919989         1.24044731E-04
   6.24119997         1.21810524E-04
   6.25320005         1.19804616E-04
   6.26520014         1.18047683E-04
   6.27720022         1.16546791E-04
   6.28919983         1.15296840E-04
   6.30119991         1.14282491E-04
   6.31320000         1.13480630E-04
   6.32520008         1.12863170E-04
   6.33720016         1.12399946E-04
   6.34919977         1.12061505E-04
   6.36119986         1.11821711E-04
   6.37319994         1.11659974E-04
   6.38520002         1.11562833E-04
   6.39720011         1.11525005E-04
   6.40920019         1.11549736E-04
   6.42119980         1.11648384E-04
   6.43319988         1.11839407E-04
   6.44519997         1.12146678E-04
   6.45720005         1.12597416E-04
   6.46920013         1.13219750E-04
   6.48120022         1.14040158E-04
   6.49319983         1.15080860E-04
   6.50519991         1.16357565E-04
   6.51719999         1.17877375E-04
   6.52920008         1.19637334E-04
   6.54120016         1.21623467E-04
   6.55319977         1.23810474E-04
   6.56519985         1.26162107E-04
   6.57719994         1.28632106E-04
   6.58920002         1.31165667E-04
   6.60120010         1.33701600E-04
   6.61320019         1.36174567E-04
   6.62519979         1.38517702E-04
   6.63719988         1.40665186E-04
   6.64919996         1.42554927E-04
   6.66120005         1.44130769E-04
   6.67320013         1.45344602E-04
   6.68520021         1.46157967E-04
   6.69719982         1.46543214E-04
   6.70919991         1.46484206E-04
   6.72119999         1.45976475E-04
   6.73320007         1.45027036E-04
   6.74520016         1.43653757E-04
   6.75719976         1.41884448E-04
   6.76919985         1.39755735E-04
   6.78119993         1.37311785E-04
   6.79320002         1.34602975E-04
   6.80520010         1.31684545E-04
   6.81720018         1.28615313E-04
   6.82919979         1.25456500E-04
   6.84119987         1.22270547E-04
   6.85319996         1.19120108E-04
   6.86520004         1.16067145E-04
   6.87720013         1.13171911E-04
   6.88920021         1.10492118E-04
   6.90119982         1.08081920E-04
   6.91319990         1.05990992E-04
   6.92519999         1.04263490E-04
   6.93720007         1.02936967E-04
   6.94920015         1.02041384E-04
   6.96120024         1.01597994E-04
   6.97319984         1.01618483E-04
   6.98519993         1.02104095E-04
   6.99720001         1.03045124E-04
   7.00920010         1.04420571E-04
   7.02120018         1.06198277E-04
   7.03319979         1.08335262E-04
   7.04519987         1.10778688E-04
   7.05719995         1.13467089E-04
   7.06920004         1.16332085E-04
   7.08120012         1.19300406E-04
   7.09320021         1.22296202E-04
   7.10519981         1.25243518E-04
   7.11719990         1.28068888E-04
   7.12919998         1.30703876E-04
   7.14120007         1.33087262E-04
   7.15320015         1.35167225E-04
   7.16520023         1.36902832E-04
   7.17719984         1.38265284E-04
   7.18919992         1.39238560E-04
   7.20120001         1.39819458E-04
   7.21320009         1.40017219E-04
   7.22520018         1.39852433E-04
   7.23719978         1.39355790E-04
   7.24919987         1.38566145E-04
   7.26119995         1.37528579E-04
   7.27320004         1.36291987E-04
   7.28520012         1.34906950E-04
   7.29720020         1.33423397E-04
   7.30919981         1.31888577E-04
   7.32119989         1.30345332E-04
   7.33319998         1.28830667E-04
   7.34520006         1.27374689E-04
   7.35720015         1.26000174E-04
   7.36920023         1.24722341E-04
   7.38119984         1.23549253E-04
   7.39319992         1.22482350E-04
   7.40520000         1.21517493E-04
   7.41720009         1.20646167E-04
   7.42920017         1.19856762E-04
   7.44119978         1.19136072E-04
   7.45319986         1.18470649E-04
   7.46519995         1.17848242E-04
   7.47720003         1.17258875E-04
   7.48920012         1.16695883E-04
   7.50120020         1.16156465E-04
   7.51319981         1.15642055E-04
   7.52519989         1.15158226E-04
   7.53719997         1.14714319E-04
   7.54920006         1.14322691E-04
   7.56120014         1.13997798E-04
   7.57320023         1.13755006E-04
   7.58519983         1.13609378E-04
   7.59719992         1.13574395E-04
   7.60920000         1.13660783E-04
   7.62120008         1.13875467E-04
   7.63320017         1.14220777E-04
   7.64519978         1.14693830E-04
   7.65719986         1.15286370E-04
   7.66919994         1.15984847E-04
   7.68120003         1.16770832E-04
   7.69320011         1.17621814E-04
   7.70520020         1.18512231E-04
   7.71719980         1.19414712E-04
   7.72919989         1.20301505E-04
   7.74119997         1.21145815E-04
   7.75320005         1.21923171E-04
   7.76520014         1.22612590E-04
   7.77720022         1.23197460E-04
   7.78919983         1.23666206E-04
   7.80119991         1.24012542E-04
   7.81320000         1.24235434E-04
   7.82520008         1.24338738E-04
   7.83720016         1.24330501E-04
   7.84919977         1.24222148E-04
   7.86119986         1.24027298E-04
   7.87319994         1.23760736E-04
   7.88520002         1.23437218E-04
   7.89720011         1.23070437E-04
   7.90920019         1.22672180E-04
   7.92119980         1.22251615E-04
   7.93319988         1.21814985E-04
   7.94519997         1.21365556E-04
   7.95720005         1.20903773E-04
   7.96920013         1.20427772E-04
   7.98120022         1.19934048E-04
   7.99319983         1.19418204E-04
   8.00520039         1.18875789E-04
   8.01720047         1.18303156E-04
   8.02919960         1.17698124E-04
   8.04119968         1.17060663E-04
   8.05319977         1.16393232E-04
   8.06519985         1.15701063E-04
   8.07719994         1.14992086E-04
   8.08920002         1.14276758E-04
   8.10120010         1.13567643E-04
   8.11320019         1.12878879E-04
   8.12520027         1.12225563E-04
   8.13720036         1.11623092E-04
   8.14920044         1.11086520E-04
   8.16119957         1.10630033E-04
   8.17319965         1.10266497E-04
   8.18519974         1.10007117E-04
   8.19719982         1.09861270E-04
   8.20919991         1.09836423E-04
   8.22119999         1.09938206E-04
   8.23320007         1.10170484E-04
   8.24520016         1.10535504E-04
   8.25720024         1.11034060E-04
   8.26920033         1.11665489E-04
   8.28120041         1.12427784E-04
   8.29319954         1.13317423E-04
   8.30519962         1.14329174E-04
   8.31719971         1.15455819E-04
   8.32919979         1.16687756E-04
   8.34119987         1.18012591E-04
   8.35319996         1.19414821E-04
   8.36520004         1.20875491E-04
   8.37720013         1.22372148E-04
   8.38920021         1.23878883E-04
   8.40120029         1.25366671E-04
   8.41320038         1.26803949E-04
   8.42520046         1.28157320E-04
   8.43719959         1.29392662E-04
   8.44919968         1.30476197E-04
   8.46119976         1.31375811E-04
   8.47319984         1.32062312E-04
   8.48519993         1.32510875E-04
   8.49720001         1.32702160E-04
   8.50920010         1.32623521E-04
   8.52120018         1.32269837E-04
   8.53320026         1.31644163E-04
   8.54520035         1.30758010E-04
   8.55720043         1.29631371E-04
   8.56919956         1.28292289E-04
   8.58119965         1.26776096E-04
   8.59319973         1.25124425E-04
   8.60519981         1.23383885E-04
   8.61719990         1.21604557E-04
   8.62919998         1.19838449E-04
   8.64120007         1.18137774E-04
   8.65320015         1.16553289E-04
   8.66520023         1.15132723E-04
   8.67720032         1.13919275E-04
   8.68920040         1.12950314E-04
   8.70119953         1.12256283E-04
   8.71319962         1.11859808E-04
   8.72519970         1.11775174E-04
   8.73719978         1.12008020E-04
   8.74919987         1.12555339E-04
   8.76119995         1.13405833E-04
   8.77320004         1.14540409E-04
   8.78520012         1.15932999E-04
   8.79720020         1.17551528E-04
   8.80920029         1.19358992E-04
   8.82120037         1.21314653E-04
   8.83320045         1.23375226E-04
   8.84519958         1.25496139E-04
   8.85719967         1.27632666E-04
   8.86919975         1.29740991E-04
   8.88119984         1.31779176E-04
   8.89319992         1.33707916E-04
   8.90520000         1.35491209E-04
   8.91720009         1.37096766E-04
   8.92920017         1.38496267E-04
   8.94120026         1.39665572E-04
   8.95320034         1.40584729E-04
   8.96520042         1.41237819E-04
   8.97719955         1.41612982E-04
   8.98919964         1.41702243E-04
   9.00119972         1.41501456E-04
   9.01319981         1.41010329E-04
   9.02519989         1.40232369E-04
   9.03719997         1.39175012E-04
   9.04920006         1.37849755E-04
   9.06120014         1.36272298E-04
   9.07320023         1.34462724E-04
   9.08520031         1.32445479E-04