 -0.622799993       0.00000000    
 -0.610800028       0.00000000    
 -0.598800004       0.00000000    
 -0.586799979       0.00000000    
 -0.574800014       0.00000000    
 -0.562799990       0.00000000    
 -0.550800025       0.00000000    
 -0.538800001       0.00000000    
 -0.526799977       0.00000000    
 -0.514800012       0.00000000    
 -0.502799988      -1.86195608E-34
 -0.490799993      -3.22303029E-33
 -0.478799999      -2.98224739E-32
 -0.466800004      -1.98903001E-31
 -0.454800010      -1.08033319E-30
 -0.442799985      -5.06386754E-30
 -0.430799991      -2.10028498E-29
 -0.418799996      -7.77292747E-29
 -0.406800002      -2.57066894E-28
 -0.394800007      -7.58945243E-28
 -0.382800013      -1.99443797E-27
 -0.370799989      -4.63546031E-27
 -0.358799994      -9.39420325E-27
 -0.346799999      -1.60600956E-26
 -0.334800005      -2.11173519E-26
 -0.322800010      -1.34860240E-26
 -0.310799986       3.07398480E-26
 -0.298799992       1.50481331E-25
 -0.286799997       3.89549326E-25
 -0.274800003       7.59731625E-25
 -0.262800008       1.16268059E-24
 -0.250800014       1.27072200E-24
 -0.238800004       4.05971981E-25
 -0.226799995      -2.47524949E-24
 -0.214800000      -8.50560951E-24
 -0.202800006      -1.81065808E-23
 -0.190799996      -2.95121163E-23
 -0.178800002      -3.67667179E-23
 -0.166800007      -2.79404877E-23
 -0.154799998       1.48843585E-23
 -0.142800003       1.11572750E-22
 -0.130799994       2.73501963E-22
 -0.118799999       4.85789785E-22
 -0.106799997       6.84766506E-22
  -9.48000029E-02   7.38950067E-22
  -8.28000009E-02   4.48376472E-22
  -7.07999989E-02  -4.18327864E-22
  -5.88000007E-02  -2.03176521E-21
  -4.67999987E-02  -4.35054553E-21
  -3.48000005E-02  -6.93473410E-21
  -2.28000004E-02  -8.78711541E-21
  -1.08000003E-02  -8.32606320E-21
   1.20000006E-03  -3.61638315E-21
   1.31999999E-02   7.03656859E-21
   2.52000000E-02   2.41113746E-20
   3.72000001E-02   4.56570869E-20
   4.91999984E-02   6.61997685E-20
   6.12000003E-02   7.63350445E-20
   7.32000023E-02   6.36783023E-20
   8.51999968E-02   1.57345262E-20
   9.71999988E-02  -7.51666971E-20
  0.109200001      -2.05467270E-19
  0.121200003      -3.54068199E-19
  0.133200005      -4.78604479E-19
  0.145199999      -5.17330336E-19
  0.157199994      -3.99324956E-19
  0.169200003      -6.42371403E-20
  0.181199998       5.09973546E-19
  0.193200007       1.27653759E-18
  0.205200002       2.09567056E-18
  0.217199996       2.72838184E-18
  0.229200006       2.86005700E-18
  0.241200000       2.16170852E-18
  0.253199995       3.88408731E-19
  0.265199989      -2.49792580E-18
  0.277200013      -6.20837141E-18
  0.289200008      -1.00488151E-17
  0.301200002      -1.29289215E-17
  0.313199997      -1.34978861E-17
  0.325199991      -1.04260376E-17
  0.337199986      -2.81533899E-18
  0.349200010       9.32585922E-18
  0.361200005       2.46582921E-17
  0.373199999       4.02895258E-17
  0.385199994       5.19139512E-17
  0.397199988       5.44369712E-17
  0.409200013       4.31121638E-17
  0.421200007       1.50759556E-17
  0.433200002      -2.90086848E-17
  0.445199996      -8.36474814E-17
  0.457199991      -1.38086593E-16
  0.469199985      -1.77257566E-16
  0.481200010      -1.84378704E-16
  0.493200004      -1.45102660E-16
  0.505200028      -5.25808705E-17
  0.517199993       8.77186791E-17
  0.529200017       2.54980872E-16
  0.541199982       4.13382519E-16
  0.553200006       5.16940820E-16
  0.565199971       5.19047443E-16
  0.577199996       3.85492503E-16
  0.589200020       1.08298344E-16
  0.601199985      -2.83478237E-16
  0.613200009      -7.20171129E-16
  0.625199974      -1.09851692E-15
  0.637199998      -1.30046440E-15
  0.649200022      -1.22179590E-15
  0.661199987      -8.05030330E-16
  0.673200011      -6.81925249E-17
  0.685199976       8.80065538E-16
  0.697200000       1.84699515E-15
  0.709200025       2.58754801E-15
  0.721199989       2.85843592E-15
  0.733200014       2.48409988E-15
  0.745199978       1.41829071E-15
  0.757200003      -2.17357588E-16
  0.769200027      -2.13350786E-15
  0.781199992      -3.91948699E-15
  0.793200016      -5.13094401E-15
  0.805199981      -5.40066005E-15
  0.817200005      -4.54420555E-15
  0.829200029      -2.62896750E-15
  0.841199994       1.88441173E-17
  0.853200018       2.87937479E-15
  0.865199983       5.36568563E-15
  0.877200007       6.97994663E-15
  0.889199972       7.45353249E-15
  0.901199996       6.82414762E-15
  0.913200021       5.41736735E-15
  0.925199986       3.72758194E-15
  0.937200010       2.22716069E-15
  0.949199975       1.16234551E-15
  0.961199999       4.09041501E-16
  0.973200023      -5.46408672E-16
  0.985199988      -2.46840944E-15
  0.997200012      -6.09153019E-15
   1.00919998      -1.17672993E-14
   1.02119994      -1.91466173E-14
   1.03320003      -2.70157465E-14
   1.04519999      -3.33760322E-14
   1.05719995      -3.57951685E-14
   1.06920004      -3.19762053E-14
   1.08120000      -2.04135533E-14
   1.09319997      -9.58857072E-16
   1.10520005       2.48766309E-14
   1.11720002       5.39974458E-14
   1.12919998       8.21893755E-14
   1.14119995       1.04871068E-13
   1.15320003       1.17934701E-13
   1.16520000       1.18442420E-13
   1.17719996       1.04985038E-13
   1.18920004       7.76201816E-14
   1.20120001       3.74573419E-14
   1.21319997      -1.39000987E-14
   1.22520006      -7.47667987E-14
   1.23720002      -1.43372957E-13
   1.24919999      -2.17311425E-13
   1.26119995      -2.92513924E-13
   1.27320004      -3.62071511E-13
   1.28520000      -4.15393875E-13
   1.29719996      -4.38247474E-13
   1.30920005      -4.14085677E-13
   1.32120001      -3.26787723E-13
   1.33319998      -1.64525701E-13
   1.34519994       7.59250315E-14
   1.35720003       3.85398582E-13
   1.36919999       7.40108170E-13
   1.38119996       1.10180994E-12
   1.39320004       1.42076346E-12
   1.40520000       1.64131274E-12
   1.41719997       1.70933461E-12
   1.42920005       1.58037472E-12
   1.44120002       1.22713309E-12
   1.45319998       6.45111080E-13
   1.46519995      -1.44349281E-13
   1.47720003      -1.09385396E-12
   1.48920000      -2.13225900E-12
   1.50119996      -3.16883434E-12
   1.51320004      -4.09857738E-12
   1.52520001      -4.80820115E-12
   1.53719997      -5.18275353E-12
   1.54920006      -5.11325227E-12
   1.56120002      -4.50600364E-12
   1.57319999      -3.29415575E-12
   1.58519995      -1.45151024E-12
   1.59720004       9.92259118E-13
   1.60920000       3.93695536E-12
   1.62119997       7.20071789E-12
   1.63320005       1.05159362E-11
   1.64520001       1.35356943E-11
   1.65719998       1.58533586E-11
   1.66919994       1.70362717E-11
   1.68120003       1.66723441E-11
   1.69319999       1.44258598E-11
   1.70519996       1.00966622E-11
   1.71720004       3.67527580E-12
   1.72920001      -4.61413286E-12
   1.74119997      -1.42905141E-11
   1.75320005      -2.46184340E-11
   1.76520002      -3.46398188E-11
   1.77719998      -4.32354708E-11
   1.78919995      -4.92136505E-11
   1.80120003      -5.14202500E-11
   1.81320000      -4.88624766E-11
   1.82519996      -4.08365529E-11
   1.83720005      -2.70486862E-11
   1.84920001      -7.71823404E-12
   1.86119998       1.63482092E-11
   1.87320006       4.37226852E-11
   1.88520002       7.23720597E-11
   1.89719999       9.97334229E-11
   1.90919995       1.22855184E-10
   1.92120004       1.38606043E-10
   1.93320000       1.43948006E-10
   1.94519997       1.36261127E-10
   1.95720005       1.13697968E-10
   1.96920002       7.55356819E-11
   1.98119998       2.24845281E-11
   1.99319994      -4.30932581E-11
   2.00519991      -1.17100690E-10
   2.01719999      -1.93798283E-10
   2.02920008      -2.66096090E-10
   2.04119992      -3.26049132E-10
   2.05320001      -3.65534963E-10
   2.06520009      -3.77064824E-10
   2.07719994      -3.54657526E-10
   2.08920002      -2.94688052E-10
   2.10120010      -1.96615141E-10
   2.11319995      -6.34970271E-11
   2.12520003       9.77823170E-11
   2.13720012       2.76629525E-10
   2.14919996       4.59225186E-10
   2.16120005       6.29366226E-10
   2.17319989       7.69627639E-10
   2.18519998       8.62775129E-10
   2.19720006       8.93334851E-10
   2.20919991       8.49207649E-10
   2.22119999       7.23198057E-10
   2.23320007       5.14322085E-10
   2.24519992       2.28753003E-10
   2.25720000      -1.19725119E-10
   2.26920009      -5.09867593E-10
   2.28119993      -9.13799592E-10
   2.29320002      -1.29855304E-09
   2.30520010      -1.62827374E-09
   2.31719995      -1.86698834E-09
   2.32920003      -1.98175032E-09
   2.34120011      -1.94591676E-09
   2.35319996      -1.74226589E-09
   2.36520004      -1.36563938E-09
   2.37719989      -8.24819157E-10
   2.38919997      -1.43386178E-10
   2.40120006       6.40604902E-10
   2.41319990       1.47620605E-09
   2.42519999       2.30236807E-09
   2.43720007       3.05179282E-09
   2.44919991       3.65560315E-09
   2.46120000       4.04850242E-09
   2.47320008       4.17406376E-09
   2.48519993       3.98975963E-09
   2.49720001       3.47136075E-09
   2.50920010       2.61635869E-09
   2.52119994       1.44613821E-09
   2.53320003       6.67665272E-12
   2.54520011      -1.63234792E-09
   2.55719995      -3.38007644E-09
   2.56920004      -5.12854959E-09
   2.58119988      -6.75818512E-09
   2.59319997      -8.14439183E-09
   2.60520005      -9.16498166E-09
   2.61719990      -9.70798286E-09
   2.62919998      -9.67940217E-09
   2.64120007      -9.01049990E-09
   2.65319991      -7.66412267E-09
   2.66520000      -5.63971048E-09
   2.67720008      -2.97661318E-09
   2.68919992       2.44553072E-10
   2.70120001       3.90273192E-09
   2.71320009       7.83959297E-09
   2.72519994       1.18651453E-08
   2.73720002       1.57658384E-08
   2.74920011       1.93152072E-08
   2.76119995       2.22869758E-08
   2.77320004       2.44706406E-08
   2.78520012       2.56893244E-08
   2.79719996       2.58197712E-08
   2.80920005       2.48141898E-08
   2.82119989       2.27235848E-08
   2.83319998       1.97220782E-08
   2.84520006       1.61316791E-08
   2.85719991       1.24467743E-08
   2.86919999       9.35757605E-09
   2.88120008       7.77165177E-09
   2.89319992       8.83262441E-09
   2.90520000       1.39350798E-08
   2.91720009       2.47347298E-08
   2.92919993       4.31529195E-08
   2.94120002       7.13745862E-08
   2.95320010       1.11838922E-07
   2.96519995       1.67221998E-07
   2.97720003       2.40410884E-07
   2.98920012       3.34468695E-07
   3.00119996       4.52590342E-07
   3.01320004       5.98048643E-07
   3.02519989       7.74131024E-07
   3.03719997       9.84066673E-07
   3.04920006       1.23094378E-06
   3.06119990       1.51761913E-06
   3.07319999       1.84661917E-06
   3.08520007       2.22003291E-06
   3.09719992       2.63940274E-06
   3.10920000       3.10560813E-06
   3.12120008       3.61875232E-06
   3.13319993       4.17804904E-06
   3.14520001       4.78172069E-06
   3.15720010       5.42690395E-06
   3.16919994       6.10957295E-06
   3.18120003       6.82449081E-06
   3.19320011       7.56518375E-06
   3.20519996       8.32395108E-06
   3.21720004       9.09191476E-06
   3.22919989       9.85911356E-06
   3.24119997       1.06146381E-05
   3.25320005       1.13468195E-05
   3.26519990       1.20434597E-05
   3.27719998       1.26921013E-05
   3.28920007       1.32803452E-05
   3.30119991       1.37961815E-05
   3.31320000       1.42283516E-05
   3.32520008       1.45667100E-05
   3.33719993       1.48025783E-05
   3.34920001       1.49290800E-05
   3.36120009       1.49414363E-05
   3.37319994       1.48372046E-05
   3.38520002       1.46164602E-05
   3.39720011       1.42818890E-05
   3.40919995       1.38388104E-05
   3.42120004       1.32950936E-05
   3.43319988       1.26609903E-05
   3.44519997       1.19488759E-05
   3.45720005       1.11729123E-05
   3.46919990       1.03486354E-05
   3.48119998       9.49248533E-06
   3.49320006       8.62130582E-06
   3.50519991       7.75182252E-06
   3.51719999       6.90011666E-06
   3.52920008       6.08113942E-06
   3.54119992       5.30826264E-06
   3.55320001       4.59290095E-06
   3.56520009       3.94421249E-06
   3.57719994       3.36889775E-06
   3.58920002       2.87109606E-06
   3.60120010       2.45239175E-06
   3.61319995       2.11192037E-06
   3.62520003       1.84656926E-06
   3.63720012       1.65126085E-06
   3.64919996       1.51930180E-06
   3.66120005       1.44278101E-06
   3.67319989       1.41299256E-06
   3.68519998       1.42086435E-06
   3.69720006       1.45737010E-06
   3.70919991       1.51390566E-06
   3.72119999       1.58261207E-06
   3.73320007       1.65663425E-06
   3.74519992       1.73030298E-06
   3.75720000       1.79923859E-06
   3.76920009       1.86037687E-06
   3.78119993       1.91191953E-06
   3.79320002       1.95322082E-06
   3.80520010       1.98462089E-06
   3.81719995       2.00723935E-06
   3.82920003       2.02274782E-06
   3.84120011       2.03313471E-06
   3.85319996       2.04048001E-06
   3.86520004       2.04675325E-06
   3.87719989       2.05364472E-06
   3.88919997       2.06244067E-06
   3.90120006       2.07394510E-06
   3.91319990       2.08844926E-06
   3.92519999       2.10575035E-06
   3.93720007       2.12520922E-06
   3.94919991       2.14584566E-06
   3.96120000       2.16645458E-06
   3.97320008       2.18573905E-06
   3.98519993       2.20244647E-06
   3.99720001       2.21549249E-06
   4.00920010       2.22407016E-06
   4.02120018       2.22772906E-06
   4.03319979       2.22642029E-06
   4.04519987       2.22050357E-06
   4.05719995       2.21071446E-06
   4.06920004       2.19809431E-06
   4.08120012       2.18388936E-06
   4.09320021       2.16942294E-06
   4.10519981       2.15595242E-06
   4.11719990       2.14452393E-06
   4.12919998       2.13583212E-06
   4.14120007       2.13009889E-06
   4.15320015       2.12698319E-06
   4.16520023       2.12552868E-06
   4.17719984       2.12415966E-06
   4.18919992       2.12072973E-06
   4.20120001       2.11262022E-06
   4.21320009       2.09689460E-06
   4.22520018       2.07049379E-06
   4.23719978       2.03047193E-06
   4.24919987       1.97425288E-06
   4.26119995       1.89989680E-06
   4.27320004       1.80635539E-06
   4.28520012       1.69370139E-06
   4.29720020       1.56331009E-06
   4.30919981       1.41797807E-06
   4.32119989       1.26196448E-06
   4.33319998       1.10094231E-06
   4.34520006       9.41855546E-07
   4.35720015       7.92679486E-07
   4.36920023       6.62092702E-07
   4.38119984       5.59067814E-07
   4.39319992       4.92403274E-07
   4.40520000       4.70216975E-07
   4.41720009       4.99429404E-07
   4.42920017       5.85270072E-07
   4.44119978       7.30835154E-07
   4.45319986       9.36729407E-07
   4.46519995       1.20081984E-06
   4.47720003       1.51812492E-06
   4.48920012       1.88085346E-06
   4.50120020       2.27860596E-06
   4.51319981       2.69873067E-06
   4.52519989       3.12683096E-06
   4.53719997       3.54739632E-06
   4.54920006       3.94453173E-06
   4.56120014       4.30274758E-06
   4.57320023       4.60776346E-06
   4.58519983       4.84729162E-06
   4.59719992       5.01173417E-06
   4.60920000       5.09477104E-06
   4.62120008       5.09378378E-06
   4.63320017       5.01009708E-06
   4.64519978       4.84900647E-06
   4.65719986       4.61959235E-06
   4.66919994       4.33432024E-06
   4.68120003       4.00844056E-06
   4.69320011       3.65922369E-06
   4.70520020       3.30506191E-06
   4.71719980       2.96448957E-06
   4.72919989       2.65517656E-06
   4.74119997       2.39294741E-06
   4.75320005       2.19088383E-06
   4.76520014       2.05856782E-06
   4.77720022       2.00150453E-06
   4.78919983       2.02076239E-06
   4.80119991       2.11285578E-06
   4.81320000       2.26987459E-06
   4.82520008       2.47986691E-06
   4.83720016       2.72744478E-06
   4.84919977       2.99458929E-06
   4.86119986       3.26160739E-06
   4.87319994       3.50819414E-06
   4.88520002       3.71453530E-06
   4.89720011       3.86239526E-06
   4.90920019       3.93612891E-06
   4.92119980       3.92356105E-06
   4.93319988       3.81668997E-06
   4.94519997       3.61216803E-06
   4.95720005       3.31154138E-06
   4.96920013       2.92123468E-06
   4.98120022       2.45227557E-06
   4.99319983       1.91978347E-06
   5.00519991       1.34224342E-06
   5.01719999       7.40609039E-07
   5.02920008       1.37276970E-07
   5.04120016      -4.45004730E-07
   5.05319977      -9.84246299E-07
   5.06519985      -1.46027992E-06
   5.07719994      -1.85572469E-06
   5.08920002      -2.15680825E-06
   5.10120010      -2.35399693E-06
   5.11320019      -2.44241210E-06
   5.12519979      -2.42200758E-06
   5.13719988      -2.29750981E-06
   5.14919996      -2.07811604E-06
   5.16120005      -1.77698939E-06
   5.17320013      -1.41055864E-06
   5.18520021      -9.97678853E-07
   5.19719982      -5.58694012E-07
   5.20919991      -1.14453130E-07
   5.22119999       3.14667460E-07
   5.23320007       7.09681956E-07
   5.24520016       1.05381378E-06
   5.25719976       1.33316712E-06
   5.26919985       1.53722578E-06
   5.28119993       1.65915731E-06
   5.29320002       1.69591920E-06
   5.30520010       1.64816208E-06
   5.31720018       1.51995391E-06
   5.32919979       1.31833735E-06
   5.34119987       1.05276729E-06
   5.35319996       7.34460059E-07
   5.36520004       3.75695834E-07
   5.37720013      -1.08783498E-08
   5.38920021      -4.12906104E-07
   5.40119982      -8.18904311E-07
   5.41319990      -1.21873779E-06
   5.42519999      -1.60397121E-06
   5.43720007      -1.96807537E-06
   5.44920015      -2.30650107E-06
   5.46120024      -2.61661103E-06
   5.47319984      -2.89749710E-06
   5.48519993      -3.14969384E-06
   5.49720001      -3.37482334E-06
   5.50920010      -3.57519298E-06
   5.52120018      -3.75337640E-06
   5.53319979      -3.91181266E-06
   5.54519987      -4.05244191E-06
   5.55719995      -4.17640285E-06
   5.56920004      -4.28381054E-06
   5.58120012      -4.37361996E-06
   5.59320021      -4.44359011E-06
   5.60519981      -4.49033723E-06
   5.61719990      -4.50947800E-06
   5.62919998      -4.49585514E-06
   5.64120007      -4.44382795E-06
   5.65320015      -4.34761114E-06
   5.66520023      -4.20164770E-06
   5.67719984      -4.00100043E-06
   5.68919992      -3.74173305E-06
   5.70120001      -3.42126123E-06
   5.71320009      -3.03868183E-06
   5.72520018      -2.59503781E-06
   5.73719978      -2.09351629E-06
   5.74919987      -1.53957092E-06
   5.76119995      -9.40946677E-07
   5.77320004      -3.07614783E-07
   5.78520012       3.48386720E-07
   5.79720020       1.01321075E-06
   5.80919981       1.67155622E-06
   5.82119989       2.30711021E-06
   5.83319998       2.90305252E-06
   5.84520006       3.44262526E-06
   5.85720015       3.90973400E-06
   5.86920023       4.28956446E-06
   5.88119984       4.56917905E-06
   5.89319992       4.73808632E-06
   5.90520000       4.78874790E-06
   5.91720009       4.71698559E-06
   5.92920017       4.52228142E-06
   5.94119978       4.20794777E-06
   5.95319986       3.78115328E-06
   5.96519995       3.25279711E-06
   5.97720003       2.63723496E-06
   5.98920012       1.95185089E-06
   6.00120020       1.21650100E-06
   6.01319981       4.52841221E-07
   6.02519989      -3.16434182E-07
   6.03719997      -1.06840719E-06
   6.04920006      -1.78077005E-06
   6.06120014      -2.43264981E-06
   6.07320023      -3.00537522E-06
   6.08519983      -3.48315825E-06
   6.09719992      -3.85366002E-06
   6.10920000      -4.10841767E-06
   6.12120008      -4.24311565E-06
   6.13320017      -4.25769213E-06
   6.14519978      -4.15627665E-06
   6.15719986      -3.94696553E-06
   6.16919994      -3.64144717E-06
   6.18120003      -3.25449696E-06
   6.19320011      -2.80336371E-06
   6.20520020      -2.30707792E-06
   6.21719980      -1.78571565E-06
   6.22919989      -1.25964311E-06
   6.24119997      -7.48774767E-07
   6.25320005      -2.71878946E-07
   6.26520014       1.54050781E-07
   6.27720022       5.14332726E-07
   6.28919983       7.97025621E-07
   6.30119991       9.93239496E-07
   6.31320000       1.09731616E-06
   6.32520008       1.10688018E-06
   6.33720016       1.02275874E-06
   6.34919977       8.48778029E-07
   6.36119986       5.91448554E-07
   6.37319994       2.59556174E-07
   6.38520002      -1.36324630E-07
   6.39720011      -5.84369445E-07
   6.40920019      -1.07207256E-06
   6.42119980      -1.58682008E-06
   6.43319988      -2.11644442E-06
   6.44519997      -2.64973846E-06
   6.45720005      -3.17690706E-06
   6.46920013      -3.68993915E-06
   6.48120022      -4.18288482E-06
   6.49319983      -4.65202311E-06
   6.50519991      -5.09591428E-06
   6.51719999      -5.51532958E-06
   6.52920008      -5.91306571E-06
   6.54120016      -6.29364922E-06
   6.55319977      -6.66295091E-06
   6.56519985      -7.02773104E-06
   6.57719994      -7.39514007E-06
   6.58920002      -7.77220976E-06
   6.60120010      -8.16535703E-06
   6.61320019      -8.57993655E-06
   6.62519979      -9.01984913E-06
   6.63719988      -9.48725028E-06
   6.64919996      -9.98234373E-06
   6.66120005      -1.05032832E-05
   6.67320013      -1.10461879E-05
   6.68520021      -1.16052506E-05
   6.69719982      -1.21729563E-05
   6.70919991      -1.27403682E-05
   6.72119999      -1.32974974E-05
   6.73320007      -1.38337055E-05
   6.74520016      -1.43381394E-05
   6.75719976      -1.48001664E-05
   6.76919985      -1.52097846E-05
   6.78119993      -1.55580055E-05
   6.79320002      -1.58371622E-05
   6.80520010      -1.60411764E-05
   6.81720018      -1.61657372E-05
   6.82919979      -1.62084161E-05
   6.84119987      -1.61687312E-05
   6.85319996      -1.60481177E-05
   6.86520004      -1.58498715E-05
   6.87720013      -1.55790422E-05
   6.88920021      -1.52422717E-05
   6.90119982      -1.48476229E-05
   6.91319990      -1.44043634E-05
   6.92519999      -1.39227441E-05
   6.93720007      -1.34137590E-05
   6.94920015      -1.28888951E-05
   6.96120024      -1.23598884E-05
   6.97319984      -1.18384723E-05
   6.98519993      -1.13361320E-05
   6.99720001      -1.08638660E-05
   7.00920010      -1.04319552E-05
   7.02120018      -1.00497373E-05
   7.03319979      -9.72539419E-06
   7.04519987      -9.46575165E-06
   7.05719995      -9.27609290E-06
   7.06920004      -9.15999317E-06
   7.08120012      -9.11918414E-06
   7.09320021      -9.15343389E-06
   7.10519981      -9.26047778E-06
   7.11719990      -9.43596933E-06
   7.12919998      -9.67349843E-06
   7.14120007      -9.96462768E-06
   7.15320015      -1.02990061E-05
   7.16520023      -1.06645166E-05
   7.17719984      -1.10474957E-05
   7.18919992      -1.14329960E-05
   7.20120001      -1.18051212E-05
   7.21320009      -1.21474204E-05
   7.22520018      -1.24433309E-05
   7.23719978      -1.26766809E-05
   7.24919987      -1.28322163E-05
   7.26119995      -1.28961701E-05
   7.27320004      -1.28568190E-05
   7.28520012      -1.27050198E-05
   7.29720020      -1.24347080E-05
   7.30919981      -1.20433078E-05
   7.32119989      -1.15320436E-05
   7.33319998      -1.09061193E-05
   7.34520006      -1.01747464E-05
   7.35720015      -9.35099615E-06
   7.36920023      -8.45148497E-06
   7.38119984      -7.49586479E-06
   7.39319992      -6.50615448E-06
   7.40520000      -5.50591403E-06
   7.41720009      -4.51929145E-06
   7.42920017      -3.56998817E-06
   7.44119978      -2.68018130E-06
   7.45319986      -1.86945852E-06
   7.46519995      -1.15382159E-06
   7.47720003      -5.44813531E-07
   7.48920012      -4.88211356E-08
   7.50120020       3.33399441E-07
   7.51319981       6.06940375E-07
   7.52519989       7.82677887E-07
   7.53719997       8.76917341E-07
   7.54920006       9.10751226E-07
   7.56120014       9.09152618E-07
   7.57320023       8.99835470E-07
   7.58519983       9.11930272E-07
   7.59719992       9.74531758E-07
   7.60920000       1.11518523E-06
   7.62120008       1.35838138E-06
   7.63320017       1.72413377E-06
   7.64519978       2.22670860E-06
   7.65719986       2.87357443E-06
   7.66919994       3.66463178E-06
   7.68120003       4.59176181E-06
   7.69320011       5.63873618E-06
   7.70520020       6.78149672E-06
   7.71719980       7.98880592E-06
   7.72919989       9.22324762E-06
   7.74119997       1.04425444E-05
   7.75320005       1.16011379E-05
   7.76520014       1.26519653E-05
   7.77720022       1.35483597E-05
   7.78919983       1.42459858E-05
   7.80119991       1.47047249E-05
   7.81320000       1.48904264E-05
   7.82520008       1.47764385E-05
   7.83720016       1.43448588E-05
   7.84919977       1.35874179E-05
   7.86119986       1.25059869E-05
   7.87319994       1.11126546E-05
   7.88520002       9.42939096E-06
   7.89720011       7.48728735E-06
   7.90920019       5.32543481E-06
   7.92119980       2.98947066E-06
   7.93319988       5.29872580E-07
   7.94519997      -1.99992019E-06
   7.95720005      -4.54548126E-06
   7.96920013      -7.05336015E-06
   7.98120022      -9.47296212E-06
   7.99319983      -1.17582413E-05
   8.00520039      -1.38691521E-05
   8.01720047      -1.57727918E-05
   8.02919960      -1.74441975E-05
   8.04119968      -1.88667655E-05
   8.05319977      -2.00323120E-05
   8.06519985      -2.09407826E-05
   8.07719994      -2.15996115E-05
   8.08920002      -2.20228503E-05
   8.10120010      -2.22300514E-05
   8.11320019      -2.22450217E-05
   8.12520027      -2.20944930E-05
   8.13720036      -2.18067889E-05
   8.14920044      -2.14105421E-05
   8.16119957      -2.09335230E-05
   8.17319965      -2.04016469E-05
   8.18519974      -1.98381713E-05
   8.19719982      -1.92630996E-05
   8.20919991      -1.86928191E-05
   8.22119999      -1.81399573E-05
   8.23320007      -1.76134163E-05
   8.24520016      -1.71185948E-05
   8.25720024      -1.66577283E-05
   8.26920033      -1.62303222E-05
   8.28120041      -1.58336497E-05
   8.29319954      -1.54632653E-05
   8.30519962      -1.51135191E-05
   8.31719971      -1.47780293E-05
   8.32919979      -1.44501355E-05
   8.34119987      -1.41232686E-05
   8.35319996      -1.37912748E-05
   8.36520004      -1.34486827E-05
   8.37720013      -1.30909057E-05
   8.38920021      -1.27144140E-05
   8.40120029      -1.23168456E-05
   8.41320038      -1.18971129E-05
   8.42520046      -1.14554678E-05
   8.43719959      -1.09935636E-05
   8.44919968      -1.05144791E-05
   8.46119976      -1.00227335E-05
   8.47319984      -9.52425762E-06
   8.48519993      -9.02631564E-06
   8.49720001      -8.53737856E-06
   8.50920010      -8.06691878E-06
   8.52120018      -7.62513855E-06
   8.53320026      -7.22262621E-06
   8.54520035      -6.86994099E-06
   8.55720043      -6.57715509E-06
   8.56919956      -6.35335209E-06
   8.58119965      -6.20612354E-06
   8.59319973      -6.14107739E-06
   8.60519981      -6.16139596E-06
   8.61719990      -6.26747351E-06
   8.62919998      -6.45665341E-06
   8.64120007      -6.72310807E-06
   8.65320015      -7.05786488E-06
   8.66520023      -7.44900171E-06
   8.67720032      -7.88201123E-06
   8.68920040      -8.34032744E-06
   8.70119953      -8.80598782E-06
   8.71319962      -9.26041685E-06
   8.72519970      -9.68528002E-06
   8.73719978      -1.00633679E-05
   8.74919987      -1.03794710E-05
   8.76119995      -1.06211855E-05
   8.77320004      -1.07796259E-05
   8.78520012      -1.08499808E-05
   8.79720020      -1.08318945E-05
   8.80920029      -1.07296455E-05
   8.82120037      -1.05520921E-05
   8.83320045      -1.03123994E-05
   8.84519958      -1.00275320E-05
   8.85719967      -9.71754434E-06
   8.86919975      -9.40468090E-06
   8.88119984      -9.11233838E-06
   8.89319992      -8.86392900E-06
   8.90520000      -8.68169354E-06
   8.91720009      -8.58552630E-06
   8.92920017      -8.59186093E-06
   8.94120026      -8.71267184E-06
   8.95320034      -8.95464109E-06
   8.96520042      -9.31853901E-06
   8.97719955      -9.79884044E-06
   8.98919964      -1.03836255E-05
   9.00119972      -1.10547635E-05
   9.01319981      -1.17883919E-05
   9.02519989      -1.25556853E-05
   9.03719997      -1.33238836E-05
   9.04920006      -1.40575512E-05
   9.06120014      -1.47200035E-05
   9.07320023      -1.52748635E-05
   9.08520031      -1.56876577E-05
   9.09720039      -1.59273804E-05
   9.10919952      -1.59680039E-05
   9.12119961      -1.57897775E-05
   9.13319969      -1.53803430E-05
   9.14519978      -1.47355559E-05
   9.15719986      -1.38599808E-05
   9.16919994      -1.27670473E-05
   9.18120003      -1.14788199E-05
   9.19320011      -1.00254001E-05
   9.20520020      -8.44396345E-06
   9.21720028      -6.77747357E-06
   9.22920036      -5.07311370E-06
   9.24120045      -3.38050654E-06
   9.25319958      -1.74979425E-06
   9.26519966      -2.29664295E-07
   9.27719975       1.13459259E-06
   9.28919983       2.30290721E-06
   9.30119991       3.24205803E-06
   9.31320000       3.92702441E-06
   9.32520008       4.34201002E-06
   9.33720016       4.48108403E-06
   9.34920025       4.34841286E-06
   9.36120033       3.95806683E-06
   9.37320042       3.33340699E-06
   9.38519955       2.50607968E-06
   9.39719963       1.51465520E-06
   9.40919971       4.02978685E-07
   9.42119980      -7.81697111E-07
   9.43319988      -1.99070951E-06
   9.44519997      -3.17602121E-06
