 -0.622799993         1.00000002E-24
 -0.610800028         1.00000002E-24
 -0.598800004         1.00000002E-24
 -0.586799979         1.00000002E-24
 -0.574800014         1.00000002E-24
 -0.562799990         1.00000002E-24
 -0.550800025         1.00000012E-24
 -0.538800001         1.00000022E-24
 -0.526799977         1.00000022E-24
 -0.514800012         1.00000022E-24
 -0.502799988         1.00000022E-24
 -0.490799993         1.00000022E-24
 -0.478799999         1.00000002E-24
 -0.466800004         9.99999329E-25
 -0.454800010         9.99996864E-25
 -0.442799985         9.99987102E-25
 -0.430799991         9.99952392E-25
 -0.418799996         9.99845797E-25
 -0.406800002         9.99558750E-25
 -0.394800007         9.98879344E-25
 -0.382800013         9.97477834E-25
 -0.370799989         9.95031971E-25
 -0.358799994         9.91722699E-25
 -0.346799999         9.89445159E-25
 -0.334800005         9.94030117E-25
 -0.322800010         1.01820762E-24
 -0.310799986         1.08353280E-24
 -0.298799992         1.21676105E-24
 -0.286799997         1.43273874E-24
 -0.274800003         1.69411528E-24
 -0.262800008         1.84285303E-24
 -0.250800014         1.51640691E-24
 -0.238800004         9.81218597E-26
 -0.226799995        -3.19566231E-24
 -0.214800000        -8.94029080E-24
 -0.202800006        -1.66886412E-23
 -0.190799996        -2.36878948E-23
 -0.178800002        -2.34068851E-23
 -0.166800007        -4.67169502E-24
 -0.154799998         4.71744186E-23
 -0.142800003         1.45256896E-22
 -0.130799994         2.90776301E-22
 -0.118799999         4.57342829E-22
 -0.106799997         5.73520205E-22
  -9.48000029E-02     5.11934276E-22
  -8.28000009E-02     9.83000647E-23
  -7.07999989E-02    -8.43936826E-22
  -5.88000007E-02    -2.40180191E-21
  -4.67999987E-02    -4.43663088E-21
  -3.48000005E-02    -6.43224328E-21
  -2.28000004E-02    -7.39001948E-21
  -1.08000003E-02    -5.86465077E-21
   1.20000006E-03    -2.45021510E-22
   1.31999999E-02     1.06464753E-20
   2.52000000E-02     2.66531342E-20
   3.72000001E-02     4.52497070E-20
   4.91999984E-02     6.07294809E-20
   6.12000003E-02     6.41313194E-20
   7.32000023E-02     4.44785291E-20
   8.51999968E-02    -8.25184232E-21
   9.71999988E-02    -9.84396692E-20
  0.109200001        -2.19124306E-19
  0.121200003        -3.46867902E-19
  0.133200005        -4.39514250E-19
  0.145199999        -4.39505927E-19
  0.157199994        -2.84933917E-19
  0.169200003         7.10731806E-20
  0.181199998         6.34671903E-19
  0.193200007         1.34476686E-18
  0.205200002         2.05431008E-18
  0.217199996         2.53011843E-18
  0.229200006         2.48127714E-18
  0.241200000         1.62190442E-18
  0.253199995        -2.34258196E-19
  0.265199989        -3.06155571E-18
  0.277200013        -6.51923333E-18
  0.289200008        -9.89444001E-18
  0.301200002        -1.21320306E-17
  0.313199997        -1.19843069E-17
  0.325199991        -8.29256009E-18
  0.337199986        -3.77325131E-19
  0.349200010         1.15298902E-17
  0.361200005         2.59247470E-17
  0.373199999         3.98797471E-17
  0.385199994         4.92478554E-17
  0.397199988         4.93198069E-17
  0.409200013         3.59416362E-17
  0.421200007         6.96197390E-18
  0.433200002        -3.62802343E-17
  0.445199996        -8.78558124E-17
  0.457199991        -1.37028808E-16
  0.469199985        -1.69360267E-16
  0.481200010        -1.69349441E-16
  0.493200004        -1.24448410E-16
  0.505200028        -2.97991352E-17
  0.517199993         1.07440127E-16
  0.529200017         2.65631068E-16
  0.541199982         4.09494955E-16
  0.553200006         4.95229671E-16
  0.565199971         4.79930191E-16
  0.577199996         3.34037607E-16
  0.589200020         5.41678562E-17
  0.601199985        -3.27350706E-16
  0.613200009        -7.40134478E-16
  0.625199974        -1.08359570E-15
  0.637199998        -1.24586042E-15
  0.649200022        -1.13156338E-15
  0.661199987        -6.93006094E-16
  0.673200011         4.34415008E-17
  0.685199976         9.64679047E-16
  0.697200000         1.87928257E-15
  0.709200025         2.54996579E-15
  0.721199989         2.74669724E-15
  0.733200014         2.31012524E-15
  0.745199978         1.20949529E-15
  0.757200003        -4.22690325E-16
  0.769200027        -2.29393886E-15
  0.781199992        -3.99942488E-15
  0.793200016        -5.10861283E-15
  0.805199981        -5.27280170E-15
  0.817200005        -4.32613057E-15
  0.829200029        -2.34988835E-15
  0.841199994         3.23736892E-16
  0.853200018         3.17746495E-15
  0.865199983         5.63308801E-15
  0.877200007         7.20286156E-15
  0.889199972         7.62396653E-15
  0.901199996         6.93129771E-15
  0.913200021         5.43796761E-15
  0.925199986         3.61968095E-15
  0.937200010         1.93157414E-15
  0.949199975         6.14230653E-16
  0.961199999        -4.40983087E-16
  0.973200023        -1.70562726E-15
  0.985199988        -3.87670293E-15
  0.997200012        -7.60545293E-15
   1.00919998        -1.31605483E-14
   1.02119994        -2.01306443E-14
   1.03320003        -2.72795804E-14
   1.04519999        -3.26394287E-14
   1.05719995        -3.38655529E-14
   1.06920004        -2.87984731E-14
   1.08120000        -1.61033127E-14
   1.09319997         4.18653107E-15
   1.10520005         3.03898921E-14
   1.11720002         5.92723909E-14
   1.12919998         8.65249102E-14
   1.14119995         1.07522444E-13
   1.15320003         1.18169228E-13
   1.16520000         1.15600902E-13
   1.17719996         9.85535167E-14
   1.18920004         6.73170558E-14
   1.20120001         2.33371214E-14
   1.21319997        -3.13331209E-14
   1.22520006        -9.44517969E-14
   1.23720002        -1.63619715E-13
   1.24919999        -2.35794538E-13
   1.26119995        -3.06365908E-13
   1.27320004        -3.68098672E-13
   1.28520000        -4.10419908E-13
   1.29719996        -4.19568324E-13
   1.30920005        -3.79992533E-13
   1.32120001        -2.77095973E-13
   1.33319998        -1.01029570E-13
   1.34519994         1.49154398E-13
   1.35720003         4.61947917E-13
   1.36919999         8.11447968E-13
   1.38119996         1.15784259E-12
   1.39320004         1.45069080E-12
   1.40520000         1.63478183E-12
   1.41719997         1.65778339E-12
   1.42920005         1.47846167E-12
   1.44120002         1.07410511E-12
   1.45319998         4.45944144E-13
   1.46519995        -3.78212652E-13
   1.47720003        -1.34433317E-12
   1.48920000        -2.37516539E-12
   1.50119996        -3.37518663E-12
   1.51320004        -4.23672295E-12
   1.52520001        -4.84667645E-12
   1.53719997        -5.09373446E-12
   1.54920006        -4.87635887E-12
   1.56120002        -4.11214032E-12
   1.57319999        -2.74900046E-12
   1.58519995        -7.78240699E-13
   1.59720004         1.75146334E-12
   1.60920000         4.72105428E-12
   1.62119997         7.93196585E-12
   1.63320005         1.11043041E-11
   1.64520001         1.38856383E-11
   1.65719998         1.58727823E-11
   1.66919994         1.66472183E-11
   1.68120003         1.58226401E-11
   1.69319999         1.31006221E-11
   1.70519996         8.32831894E-12
   1.71720004         1.55059179E-12
   1.72920001        -6.95148366E-12
   1.74119997        -1.66430897E-11
   1.75320005        -2.67447002E-11
   1.76520002        -3.62706150E-11
   1.77719998        -4.40967193E-11
   1.78919995        -4.90540976E-11
   1.80120003        -5.00421302E-11
   1.81320000        -4.61525540E-11
   1.82519996        -3.67943245E-11
   1.83720005        -2.18085099E-11
   1.84920001        -1.56203240E-12
   1.86119998         2.29905470E-11
   1.87320006         5.02875762E-11
   1.88520002         7.81924941E-11
   1.89719999         1.04085393E-10
   1.90919995         1.25018829E-10
   1.92120004         1.37938300E-10
   1.93320000         1.39961806E-10
   1.94519997         1.28704228E-10
   1.95720005         1.02623243E-10
   1.96920002         6.13536444E-11
   1.98119998         5.98934010E-12
   1.99319994        -6.07324260E-11
   2.00519991        -1.34388237E-10
   2.01719999        -2.09002940E-10
   2.02920008        -2.77381451E-10
   2.04119992        -3.31637301E-10
   2.05320001        -3.63891250E-10
   2.06520009        -3.67088138E-10
   2.07719994        -3.35857980E-10
   2.08920002        -2.67331934E-10
   2.10120010        -1.61818767E-10
   2.11319995        -2.32526741E-11
   2.12520003         1.40659553E-10
   2.13720012         3.18639864E-10
   2.14919996         4.96405528E-10
   2.16120005         6.57585375E-10
   2.17319989         7.84938337E-10
   2.18519998         8.61798188E-10
   2.19720006         8.73646211E-10
   2.20919991         8.09692258E-10
   2.22119999         6.64336641E-10
   2.23320007         4.38374198E-10
   2.24519992         1.39807887E-10
   2.25720000        -2.15853849E-10
   2.26920009        -6.05914097E-10
   2.28119993        -1.00148279E-09
   2.29320002        -1.36916112E-09
   2.30520010        -1.67336267E-09
   2.31719995        -1.87914662E-09
   2.32920003        -1.95537053E-09
   2.34120011        -1.87790561E-09
   2.35319996        -1.63262215E-09
   2.36520004        -1.21783694E-09
   2.37719989        -6.45938247E-10
   2.38919997         5.60436003E-11
   2.40120006         8.47066139E-10
   2.41319990         1.67394953E-09
   2.42519999         2.47442777E-09
   2.43720007         3.18120241E-09
   2.44919991         3.72672782E-09
   2.46120000         4.04839806E-09
   2.47320008         4.09374934E-09
   2.48519993         3.82530541E-09
   2.49720001         3.22469007E-09
   2.50920010         2.29568298E-09
   2.52119994         1.06595988E-09
   2.53320003        -4.12668483E-10
   2.54520011        -2.06561612E-09
   2.55719995        -3.79847664E-09
   2.56920004        -5.50147572E-09
   2.58119988        -7.05522574E-09
   2.59319997        -8.33748981E-09
   2.60520005        -9.23061094E-09
   2.61719990        -9.62917124E-09
   2.62919998        -9.44746059E-09
   2.64120007        -8.62630678E-09
   2.65319991        -7.13883930E-09
   2.66520000        -4.99483299E-09
   2.67720008        -2.24332353E-09
   2.68919992         1.02674702E-09
   2.70120001         4.68802330E-09
   2.71320009         8.57848192E-09
   2.72519994         1.25074964E-08
   2.73720002         1.62642575E-08
   2.74920011         1.96285477E-08
   2.76119995         2.23838690E-08
   2.77320004         2.43328451E-08
   2.78520012         2.53148151E-08
   2.79719996         2.52254679E-08
   2.80920005         2.40382612E-08
   2.82119989         2.18272920E-08
   2.83319998         1.87911979E-08
   2.84520006         1.52775055E-08
   2.85719991         1.18067742E-08
   2.86919999         9.09576059E-09
   2.88120008         8.07874212E-09
   2.89319992         9.92606797E-09
   2.90520000         1.60589835E-08
   2.91720009         2.81597394E-08
   2.92919993         4.81760338E-08
   2.94120002         7.83188838E-08
   2.95320010         1.21053105E-07
   2.96519995         1.79079564E-07
   2.97720003         2.55308805E-07
   2.98920012         3.52825253E-07
   3.00119996         4.74841954E-07
   3.01320004         6.24645338E-07
   3.02519989         8.05530476E-07
   3.03719997         1.02072568E-06
   3.04920006         1.27330929E-06
   3.06119990         1.56611543E-06
   3.07319999         1.90163325E-06
   3.08520007         2.28190015E-06
   3.09719992         2.70838746E-06
   3.10920000         3.18188563E-06
   3.12120008         3.70238922E-06
   3.13319993         4.26898487E-06
   3.14520001         4.87974785E-06
   3.15720010         5.53165182E-06
   3.16919994         6.22049538E-06
   3.18120003         6.94085566E-06
   3.19320011         7.68606697E-06
   3.20519996         8.44823899E-06
   3.21720004         9.21830906E-06
   3.22919989         9.98614632E-06
   3.24119997         1.07406941E-05
   3.25320005         1.14701652E-05
   3.26519990         1.21622770E-05
   3.27719998         1.28045340E-05
   3.28920007         1.33845397E-05
   3.30119991         1.38903442E-05
   3.31320000         1.43108027E-05
   3.32520008         1.46359380E-05
   3.33719993         1.48572944E-05
   3.34920001         1.49682655E-05
   3.36120009         1.49643847E-05
   3.37319994         1.48435556E-05
   3.38520002         1.46062239E-05
   3.39720011         1.42554572E-05
   3.40919995         1.37969546E-05
   3.42120004         1.32389487E-05
   3.43319988         1.25920260E-05
   3.44519997         1.18688567E-05
   3.45720005         1.10838373E-05
   3.46919990         1.02526765E-05
   3.48119998         9.39191614E-06
   3.49320006         8.51842378E-06
   3.50519991         7.64886681E-06
   3.51719999         6.79919958E-06
   3.52920008         5.98417364E-06
   3.54119992         5.21690345E-06
   3.55320001         4.50849666E-06
   3.56520009         3.86777583E-06
   3.57719994         3.30108537E-06
   3.58920002         2.81221287E-06
   3.60120010         2.40240615E-06
   3.61319995         2.07049607E-06
   3.62520003         1.81310952E-06
   3.63720012         1.62496576E-06
   3.64919996         1.49923153E-06
   3.66120005         1.42792373E-06
   3.67319989         1.40233294E-06
   3.68519998         1.41344685E-06
   3.69720006         1.45235538E-06
   3.70919991         1.51061499E-06
   3.72119999         1.58055980E-06
   3.73320007         1.65554309E-06
   3.74519992         1.73010494E-06
   3.75720000         1.80005986E-06
   3.76920009         1.86250929E-06
   3.78119993         1.91577988E-06
   3.79320002         1.95930056E-06
   3.80520010         1.99343140E-06
   3.81719995         2.01925604E-06
   3.82920003         2.03835521E-06
   3.84120011         2.05257834E-06
   3.85319996         2.06382765E-06
   3.86520004         2.07386779E-06
   3.87719989         2.08417032E-06
   3.88919997         2.09580344E-06
   3.90120006         2.10936946E-06
   3.91319990         2.12498821E-06
   3.92519999         2.14232909E-06
   3.93720007         2.16067770E-06
   3.94919991         2.17903971E-06
   3.96120000         2.19625940E-06
   3.97320008         2.21115170E-06
   3.98519993         2.22263247E-06
   3.99720001         2.22983522E-06
   4.00920010         2.23220673E-06
   4.02120018         2.22957169E-06
   4.03319979         2.22216318E-06
   4.04519987         2.21061237E-06
   4.05719995         2.19590129E-06
   4.06920004         2.17927868E-06
   4.08120012         2.16214630E-06
   4.09320021         2.14592342E-06
   4.10519981         2.13190015E-06
   4.11719990         2.12108853E-06
   4.12919998         2.11408519E-06
   4.14120007         2.11095767E-06
   4.15320015         2.11116344E-06
   4.16520023         2.11351175E-06
   4.17719984         2.11617407E-06
   4.18919992         2.11674728E-06
   4.20120001         2.11237170E-06
   4.21320009         2.09989798E-06
   4.22520018         2.07610105E-06
   4.23719978         2.03792342E-06
   4.24919987         1.98274211E-06
   4.26119995         1.90863807E-06
   4.27320004         1.81465191E-06
   4.28520012         1.70100634E-06
   4.29720020         1.56927899E-06
   4.30919981         1.42250792E-06
   4.32119989         1.26521400E-06
   4.33319998         1.10333372E-06
   4.34520006         9.44056353E-07
   4.35720015         7.95565029E-07
   4.36920023         6.66691562E-07
   4.38119984         5.66493043E-07
   4.39319992         5.03774174E-07
   4.40520000         4.86575004E-07
   4.41720009         5.21654727E-07
   4.42920017         6.14001749E-07
   4.44119978         7.66400660E-07
   4.45319986         9.79088327E-07
   4.46519995         1.24952658E-06
   4.47720003         1.57231273E-06
   4.48920012         1.93924689E-06
   4.50120020         2.33955802E-06
   4.51319981         2.76028823E-06
   4.52519989         3.18682214E-06
   4.53719997         3.60353988E-06
   4.54920006         3.99455894E-06
   4.56120014         4.34453204E-06
   4.57320023         4.63945116E-06
   4.58519983         4.86741692E-06
   4.59719992         5.01932618E-06
   4.60920000         5.08943276E-06
   4.62120008         5.07574441E-06
   4.63320017         4.98023201E-06
   4.64519978         4.80881999E-06
   4.65719986         4.57116721E-06
   4.66919994         4.28022668E-06
   4.68120003         3.95161805E-06
   4.69320011         3.60283320E-06
   4.70520020         3.25232099E-06
   4.71719980         2.91849665E-06
   4.72919989         2.61873424E-06
   4.74119997         2.36839992E-06
   4.75320005         2.17997558E-06
   4.76520014         2.06233085E-06
   4.77720022         2.02018191E-06
   4.78919983         2.05377341E-06
   4.80119991         2.15880414E-06
   4.81320000         2.32660204E-06
   4.82520008         2.54454653E-06
   4.83720016         2.79671190E-06
   4.84919977         3.06470201E-06
   4.86119986         3.32863033E-06
   4.87319994         3.56819328E-06
   4.88520002         3.76377579E-06
   4.89720011         3.89753222E-06
   4.90920019         3.95437837E-06
   4.92119980         3.92284255E-06
   4.93319988         3.79573180E-06
   4.94519997         3.57057138E-06
   4.95720005         3.24979965E-06
   4.96920013         2.84070575E-06
   4.98120022         2.35511288E-06
   4.99319983         1.80882819E-06
   5.00519991         1.22088829E-06
   5.01719999         6.12639042E-07
   5.02920008         6.70057210E-09
   5.04120016        -5.74130809E-07
   5.05319977        -1.10798430E-06
   5.06519985        -1.57496549E-06
   5.07719994        -1.95810344E-06
   5.08920002        -2.24414362E-06
   5.10120010        -2.42415422E-06
   5.11320019        -2.49390791E-06
   5.12519979        -2.45403226E-06
   5.13719988        -2.30991736E-06
   5.14919996        -2.07139283E-06
   5.16120005        -1.75219520E-06
   5.17320013        -1.36925382E-06
   5.18520021        -9.41839403E-07
   5.19719982        -4.90619470E-07
   5.20919991        -3.66756829E-08
   5.22119999         3.99470707E-07
   5.23320007         7.98771168E-07
   5.24520016         1.14445777E-06
   5.25719976         1.42270346E-06
   5.26919985         1.62311164E-06
   5.28119993         1.73901128E-06
   5.29320002         1.76755157E-06
   5.30520010         1.70960107E-06
   5.31720018         1.56946419E-06
   5.32919979         1.35443895E-06
   5.34119987         1.07425092E-06
   5.35319996         7.40402413E-07
   5.36520004         3.65479991E-07
   5.37720013        -3.75461973E-08
   5.38920021        -4.55979432E-07
   5.40119982        -8.77979801E-07
   5.41319990        -1.29304362E-06
   5.42519999        -1.69236023E-06
   5.43720007        -2.06902973E-06
   5.44920015        -2.41814496E-06
   5.46120024        -2.73673754E-06
   5.47319984        -3.02360559E-06
   5.48519993        -3.27903990E-06
   5.49720001        -3.50447976E-06
   5.50920010        -3.70212047E-06
   5.52120018        -3.87450291E-06
   5.53319979        -4.02411479E-06
   5.54519987        -4.15303066E-06
   5.55719995        -4.26260294E-06
   5.56920004        -4.35323545E-06
   5.58120012        -4.42423880E-06
   5.59320021        -4.47378034E-06
   5.60519981        -4.49892650E-06
   5.61719990        -4.49577010E-06
   5.62919998        -4.45964224E-06
   5.64120007        -4.38538336E-06
   5.65320015        -4.26767201E-06
   5.66520023        -4.10138273E-06
   5.67719984        -3.88196440E-06
   5.68919992        -3.60580998E-06
   5.70120001        -3.27061343E-06
   5.71320009        -2.87568650E-06
   5.72520018        -2.42222313E-06
   5.73719978        -1.91350728E-06
   5.74919987        -1.35503149E-06
   5.76119995        -7.54530447E-07
   5.77320004        -1.21928565E-07
   5.78520012         5.30817488E-07
   5.79720020         1.18996854E-06
   5.80919981         1.84034275E-06
   5.82119989         2.46576133E-06
   5.83319998         3.04955006E-06
   5.84520006         3.57510157E-06
   5.85720015         4.02649266E-06
   5.86920023         4.38910411E-06
   5.88119984         4.65022322E-06
   5.89319992         4.79961500E-06
   5.90520000         4.83002214E-06
   5.91720009         4.73757336E-06
   5.92920017         4.52208542E-06
   5.94119978         4.18722993E-06
   5.95319986         3.74055617E-06
   5.96519995         3.19336414E-06
   5.97720003         2.56042063E-06
   5.98920012         1.85952069E-06
   6.00120020         1.11091651E-06
   6.01319981         3.36627636E-07
   6.02519989        -4.40341012E-07
   6.03719997        -1.19683057E-06
   6.04920006        -1.91038384E-06
   6.06120014        -2.56008275E-06
   6.07320023        -3.12732072E-06
   6.08519983        -3.59649152E-06
   6.09719992        -3.95555480E-06
   6.10920000        -4.19645676E-06
   6.12120008        -4.31539138E-06
   6.13320017        -4.31288845E-06
   6.14519978        -4.19373191E-06
   6.15719986        -3.96670657E-06
   6.16919994        -3.64419930E-06
   6.18120003        -3.24166081E-06
   6.19320011        -2.77696267E-06
   6.20520020        -2.26967927E-06
   6.21719980        -1.74032380E-06
   6.22919989        -1.20957316E-06
   6.24119997        -6.97514110E-07
   6.25320005        -2.22937445E-07
   6.26520014         1.97289282E-07
   6.27720022         5.48753917E-07
   6.28919983         8.19917773E-07
   6.30119991         1.00240243E-06
   6.31320000         1.09114421E-06
   6.32520008         1.08441031E-06
   6.33720016         9.83684345E-07
   6.34919977         7.93427830E-07
   6.36119986         5.20733920E-07
   6.37319994         1.74892307E-07
   6.38520002        -2.33117760E-07
   6.39720011        -6.91178627E-07
   6.40920019        -1.18660967E-06
   6.42119980        -1.70674286E-06
   6.43319988        -2.23947495E-06
   6.44519997        -2.77377490E-06
   6.45720005        -3.30012449E-06
   6.46920013        -3.81087511E-06
   6.48120022        -4.30050113E-06
   6.49319983        -4.76574178E-06
   6.50519991        -5.20561980E-06
   6.51719999        -5.62134483E-06
   6.52920008        -6.01609554E-06
   6.54120016        -6.39470227E-06
   6.55319977        -6.76324498E-06
   6.56519985        -7.12859219E-06
   6.57719994        -7.49789933E-06
   6.58920002        -7.87810950E-06
   6.60120010        -8.27546228E-06
   6.61320019        -8.69505584E-06
   6.62519979        -9.14047359E-06
   6.63719988        -9.61350088E-06
   6.64919996        -1.01139303E-05
   6.66120005        -1.06394928E-05
   6.67320013        -1.11858853E-05
   6.68520021        -1.17469090E-05
   6.69719982        -1.23147092E-05
   6.70919991        -1.28800875E-05
   6.72119999        -1.34328811E-05
   6.73320007        -1.39623844E-05
   6.74520016        -1.44577771E-05
   6.75719976        -1.49085608E-05
   6.76919985        -1.53049568E-05
   6.78119993        -1.56382685E-05
   6.79320002        -1.59011906E-05
   6.80520010        -1.60880445E-05
   6.81720018        -1.61949520E-05
   6.82919979        -1.62199340E-05
   6.84119987        -1.61629468E-05
   6.85319996        -1.60258533E-05
   6.86520004        -1.58123366E-05
   6.87720013        -1.55277758E-05
   6.88920021        -1.51790819E-05
   6.90119982        -1.47745059E-05
   6.91319990        -1.43234292E-05
   6.92519999        -1.38361347E-05
   6.93720007        -1.33235808E-05
   6.94920015        -1.27971580E-05
   6.96120024        -1.22684596E-05
   6.97319984        -1.17490417E-05
   6.98519993        -1.12501921E-05
   6.99720001        -1.07827027E-05
   7.00920010        -1.03566472E-05
   7.02120018        -9.98116957E-06
   7.03319979        -9.66427433E-06
   7.04519987        -9.41263352E-06
   7.05719995        -9.23140033E-06
   7.06920004        -9.12404539E-06
   7.08120012        -9.09220307E-06
   7.09320021        -9.13556050E-06
   7.10519981        -9.25176118E-06
   7.11719990        -9.43635496E-06
   7.12919998        -9.68279801E-06
   7.14120007        -9.98248743E-06
   7.15320015        -1.03248658E-05
   7.16520023        -1.06975713E-05
   7.17719984        -1.10866631E-05
   7.18919992        -1.14768982E-05
   7.20120001        -1.18520784E-05
   7.21320009        -1.21954608E-05
   7.22520018        -1.24902226E-05
   7.23719978        -1.27199828E-05
   7.24919987        -1.28693528E-05
   7.26119995        -1.29245173E-05
   7.27320004        -1.28738102E-05
   7.28520012        -1.27082567E-05
   7.29720020        -1.24220787E-05
   7.30919981        -1.20130981E-05
   7.32119989        -1.14830355E-05
   7.33319998        -1.08376771E-05
   7.34520006        -1.00868765E-05
   7.35720015        -9.24438064E-06
   7.36920023        -8.32747628E-06
   7.38119984        -7.35644971E-06
   7.39319992        -6.35387732E-06
   7.40520000        -5.34376522E-06
   7.41720009        -4.35056518E-06
   7.42920017        -3.39811641E-06
   7.44119978        -2.50855351E-06
   7.45319986        -1.70124144E-06
   7.46519995        -9.91788852E-07
   7.47720003        -3.91196465E-07
   7.48920012         9.48081578E-08
   7.50120020         4.66206671E-07
   7.51319981         7.28865189E-07
   7.52519989         8.94424772E-07
   7.53719997         9.79903120E-07
   7.54920006         1.00701197E-06
   7.56120014         1.00121292E-06
   7.57320023         9.90545800E-07
   7.58519983         1.00427962E-06
   7.59719992         1.07144331E-06
   7.60920000         1.21930520E-06
   7.62120008         1.47187438E-06
   7.63320017         1.84849500E-06
   7.64519978         2.36260666E-06
   7.65719986         3.02073636E-06
   7.66919994         3.82177541E-06
   7.68120003         4.75658499E-06
   7.69320011         5.80795950E-06
   7.70520020         6.95095696E-06
   7.71719980         8.15360090E-06
   7.72919989         9.37791629E-06
   7.74119997         1.05812851E-05
   7.75320005         1.17180398E-05
   7.76520014         1.27412595E-05
   7.77720022         1.36046610E-05
   7.78919983         1.42645295E-05
   7.80119991         1.46815810E-05
   7.81320000         1.48226763E-05
   7.82520008         1.46623133E-05
   7.83720016         1.41838264E-05
   7.84919977         1.33802114E-05
   7.86119986         1.22545844E-05
   7.87319994         1.08202121E-05
   7.88520002         9.10011840E-06
   7.89720011         7.12630526E-06
   7.90920019         4.93858852E-06
   7.92119980         2.58313344E-06
   7.93319988         1.10735563E-07
   7.94519997        -2.42506326E-06
   7.95720005        -4.96994153E-06
   7.96920013        -7.47074864E-06
   7.98120022        -9.87736166E-06
   7.99319983        -1.21443536E-05
   8.00520039        -1.42324079E-05
   8.01720047        -1.61094213E-05
   8.02919960        -1.77512647E-05
   8.04119968        -1.91421641E-05
   8.05319977        -2.02747342E-05
   8.06519985        -2.11496390E-05
   8.07719994        -2.17749730E-05
   8.08920002        -2.21653481E-05
   8.10120010        -2.23407878E-05
   8.11320019        -2.23254883E-05
   8.12520027        -2.21464834E-05
   8.13720036        -2.18323221E-05
   8.14920044        -2.14117972E-05
   8.16119957        -2.09127847E-05
   8.17319965        -2.03612581E-05
   8.18519974        -1.97804893E-05
   8.19719982        -1.91904710E-05
   8.20919991        -1.86075504E-05
   8.22119999        -1.80443094E-05
   8.23320007        -1.75095920E-05
   8.24520016        -1.70087314E-05
   8.25720024        -1.65438814E-05
   8.26920033        -1.61144508E-05
   8.28120041        -1.57175818E-05
   8.29319954        -1.53486690E-05
   8.30519962        -1.50018559E-05
   8.31719971        -1.46705270E-05
   8.32919979        -1.43477391E-05
   8.34119987        -1.40266202E-05
   8.35319996        -1.37006973E-05
   8.36520004        -1.33641843E-05
   8.37720013        -1.30122044E-05
   8.38920021        -1.26409641E-05
   8.40120029        -1.22478950E-05
   8.41320038        -1.18317612E-05
   8.42520046        -1.13927363E-05
   8.43719959        -1.09324665E-05
   8.44919968        -1.04541014E-05
   8.46119976        -9.96230210E-06
   8.47319984        -9.46320597E-06
   8.48519993        -8.96434722E-06
   8.49720001        -8.47450792E-06
   8.50920010        -8.00350335E-06
   8.52120018        -7.56187728E-06
   8.53320026        -7.16054728E-06
   8.54520035        -6.81035090E-06
   8.55720043        -6.52156905E-06
   8.56919956        -6.30340128E-06
   8.58119965        -6.16344914E-06
   8.59319973        -6.10721918E-06
   8.60519981        -6.13768498E-06
   8.61719990        -6.25493294E-06
   8.62919998        -6.45592399E-06
   8.64120007        -6.73438944E-06
   8.65320015        -7.08088919E-06
   8.66520023        -7.48302773E-06
   8.67720032        -7.92584615E-06
   8.68920040        -8.39237418E-06
   8.70119953        -8.86431462E-06
   8.71319962        -9.32285275E-06
   8.72519970        -9.74952036E-06
   8.73719978        -1.01271080E-05
   8.74919987        -1.04405353E-05
   8.76119995        -1.06776697E-05
   8.77320004        -1.08300101E-05
   8.78520012        -1.08932363E-05
   8.79720020        -1.08675513E-05
   8.80920029        -1.07578235E-05
   8.82120037        -1.05735007E-05
   8.83320045        -1.03282919E-05
   8.84519958        -1.00396346E-05
   8.85719967        -9.72794987E-06
   8.86919975        -9.41572671E-06
   8.88119984        -9.12646465E-06
   8.89319992        -8.88352406E-06
   8.90520000        -8.70893564E-06
   8.91720009        -8.62222169E-06
   8.92920017        -8.63928835E-06
   8.94120026        -8.77144612E-06
   8.95320034        -9.02460124E-06
   8.96520042        -9.39867186E-06
   8.97719955        -9.88724878E-06
   8.98919964        -1.04775499E-05
   9.00119972        -1.11506506E-05
   9.01319981        -1.18820108E-05
   9.02519989        -1.26422892E-05
   9.03719997        -1.33984004E-05
   9.04920006        -1.41147993E-05
   9.06120014        -1.47549235E-05
   9.07320023        -1.52827506E-05
   9.08520031        -1.56643946E-05