 -0.622799993         1.00000002E-24
 -0.610800028         1.00000002E-24
 -0.598800004         1.00000002E-24
 -0.586799979         4.23922308E-16
 -0.574800014         2.48289646E-15
 -0.562799990         7.82472689E-15
 -0.550800025         1.74503153E-14
 -0.538800001         3.09356287E-14
 -0.526799977         4.75365258E-14
 -0.514800012         6.99182669E-14
 -0.502799988         1.09013845E-13
 -0.490799993         1.86022828E-13
 -0.478799999         3.26695214E-13
 -0.466800004         5.45364752E-13
 -0.454800010         8.21709020E-13
 -0.442799985         1.07981842E-12
 -0.430799991         1.18320468E-12
 -0.418799996         9.57314631E-13
 -0.406800002         2.41606512E-13
 -0.394800007        -1.04148222E-12
 -0.382800013        -2.82751426E-12
 -0.370799989        -4.89436009E-12
 -0.358799994        -6.91687072E-12
 -0.346799999        -8.59905203E-12
 -0.334800005        -9.86316844E-12
 -0.322800010        -1.10499492E-11
 -0.310799986        -1.30720938E-11
 -0.298799992        -1.74719718E-11
 -0.286799997        -2.63628754E-11
 -0.274800003        -4.22722066E-11
 -0.262800008        -6.79410486E-11
 -0.250800014        -1.06151268E-10
 -0.238800004        -1.59642799E-10
 -0.226799995        -2.31151792E-10
 -0.214800000        -3.23553184E-10
 -0.202800006        -4.40053965E-10
 -0.190799996        -5.84359450E-10
 -0.178800002        -7.60743413E-10
 -0.166800007        -9.73980674E-10
 -0.154799998        -1.22913191E-09
 -0.142800003        -1.53120350E-09
 -0.130799994        -1.88470906E-09
 -0.118799999        -2.29314900E-09
 -0.106799997        -2.75840772E-09
  -9.48000029E-02    -3.28005711E-09
  -8.28000009E-02    -3.85458554E-09
  -7.07999989E-02    -4.47462023E-09
  -5.88000007E-02    -5.12826759E-09
  -4.67999987E-02    -5.79879345E-09
  -3.48000005E-02    -6.46484066E-09
  -2.28000004E-02    -7.10138126E-09
  -1.08000003E-02    -7.68148389E-09
   1.20000006E-03    -8.17882118E-09
   1.31999999E-02    -8.57074411E-09
   2.52000000E-02    -8.84158613E-09
   3.72000001E-02    -8.98588937E-09
   4.91999984E-02    -9.01121133E-09
   6.12000003E-02    -8.94029029E-09
   7.32000023E-02    -8.81235351E-09
   8.51999968E-02    -8.68339534E-09
   9.71999988E-02    -8.62515304E-09
  0.109200001        -8.72241213E-09
  0.121200003        -9.06817821E-09
  0.133200005        -9.75627845E-09
  0.145199999        -1.08711546E-08
  0.157199994        -1.24749810E-08
  0.169200003        -1.45929544E-08
  0.181199998        -1.71981576E-08
  0.193200007        -2.01981400E-08
  0.205200002        -2.34257183E-08
  0.217199996        -2.66365614E-08
  0.229200006        -2.95157729E-08
  0.241200000        -3.16949631E-08
  0.253199995        -3.27801217E-08
  0.265199989        -3.23894689E-08
  0.277200013        -3.01990184E-08
  0.289200008        -2.59926445E-08
  0.301200002        -1.97120968E-08
  0.313199997        -1.15021468E-08
  0.325199991        -1.74504999E-09
  0.337199986         8.92109853E-09
  0.349200010         1.96056966E-08
  0.361200005         2.91951192E-08
  0.373199999         3.64117021E-08
  0.385199994         3.99035009E-08
  0.397199988         3.83632752E-08
  0.409200013         3.06720196E-08
  0.421200007         1.60586335E-08
  0.433200002        -5.73617731E-09
  0.445199996        -3.43063640E-08
  0.457199991        -6.84548880E-08
  0.469199985        -1.06112374E-07
  0.481200010        -1.44316814E-07
  0.493200004        -1.79266692E-07
  0.505200028        -2.06454487E-07
  0.517199993        -2.20881361E-07
  0.529200017        -2.17344848E-07
  0.541199982        -1.90783226E-07
  0.553200006        -1.36652218E-07
  0.565199971        -5.13009191E-08
  0.577199996         6.76892853E-08
  0.589200020         2.21243937E-07
  0.601199985         4.08650834E-07
  0.613200009         6.27567147E-07
  0.625199974         8.74204318E-07
  0.637199998         1.14370471E-06
  0.649200022         1.43070838E-06
  0.661199987         1.73009255E-06
  0.673200011         2.03784430E-06
  0.685199976         2.35201423E-06
  0.697200000         2.67368250E-06
  0.709200025         3.00785359E-06
  0.721199989         3.36420067E-06
  0.733200014         3.75756963E-06
  0.745199978         4.20817605E-06
  0.757200003         4.74142826E-06
  0.769200027         5.38734503E-06
  0.781199992         6.17955584E-06
  0.793200016         7.15389842E-06
  0.805199981         8.34667298E-06
  0.817200005         9.79262404E-06
  0.829200029         1.15227622E-05
  0.841199994         1.35621549E-05
  0.853200018         1.59278097E-05
  0.865199983         1.86268135E-05
  0.877200007         2.16548469E-05
  0.889199972         2.49951972E-05
  0.901199996         2.86183749E-05
  0.913200021         3.24823632E-05
  0.925199986         3.65335654E-05
  0.937200010         4.07083862E-05
  0.949199975         4.49354411E-05
  0.961199999         4.91382161E-05
  0.973200023         5.32381891E-05
  0.985199988         5.71581004E-05
  0.997200012         6.08253285E-05
   1.00919998         6.41751612E-05
   1.02119994         6.71537855E-05
   1.03320003         6.97208961E-05
   1.04519999         7.18516894E-05
   1.05719995         7.35382855E-05
   1.06920004         7.47904269E-05
   1.08120000         7.56354275E-05
   1.09319997         7.61173724E-05
   1.10520005         7.62956406E-05
   1.11720002         7.62428317E-05
   1.12919998         7.60421026E-05
   1.14119995         7.57840899E-05
   1.15320003         7.55635410E-05
   1.16520000         7.54757566E-05
   1.17719996         7.56130030E-05
   1.18920004         7.60609255E-05
   1.20120001         7.68953396E-05
   1.21319997         7.81791459E-05
   1.22520006         7.99598347E-05
   1.23720002         8.22673901E-05
   1.24919999         8.51127261E-05
   1.26119995         8.84868496E-05
   1.27320004         9.23606131E-05
   1.28520000         9.66849984E-05
   1.29719996         1.01392179E-04
   1.30920005         1.06397107E-04
   1.32120001         1.11599613E-04
   1.33319998         1.16887059E-04
   1.34519994         1.22137426E-04
   1.35720003         1.27222651E-04
   1.36919999         1.32012225E-04
   1.38119996         1.36376926E-04
   1.39320004         1.40192511E-04
   1.40520000         1.43343263E-04
   1.41719997         1.45725397E-04
   1.42920005         1.47249972E-04
   1.44120002         1.47845494E-04
   1.45319998         1.47459854E-04
   1.46519995         1.46061866E-04
   1.47720003         1.43642013E-04
   1.48920000         1.40212593E-04
   1.50119996         1.35807262E-04
   1.51320004         1.30479981E-04
   1.52520001         1.24303231E-04
   1.53719997         1.17365889E-04
   1.54920006         1.09770583E-04
   1.56120002         1.01630649E-04
   1.57319999         9.30670431E-05
   1.58519995         8.42048757E-05
   1.59720004         7.51702537E-05
   1.60920000         6.60869773E-05
   1.62119997         5.70736520E-05
   1.63320005         4.82410469E-05
   1.64520001         3.96898467E-05
   1.65719998         3.15089201E-05
   1.66919994         2.37740387E-05
   1.68120003         1.65471356E-05
   1.69319999         9.87610292E-06
   1.70519996         3.79509584E-06
   1.71720004        -1.67470137E-06
   1.72920001        -6.52389099E-06
   1.74119997        -1.07533851E-05
   1.75320005        -1.43726866E-05
   1.76520002        -1.73980479E-05
   1.77719998        -1.98506277E-05
   1.78919995        -2.17547222E-05
   1.80120003        -2.31361955E-05
   1.81320000        -2.40211521E-05
   1.82519996        -2.44349540E-05
   1.83720005        -2.44015973E-05
   1.84920001        -2.39434648E-05
   1.86119998        -2.30814749E-05
   1.87320006        -2.18355508E-05
   1.88520002        -2.02253814E-05
   1.89719999        -1.82713848E-05
   1.90919995        -1.59957854E-05
   1.92120004        -1.34236789E-05
   1.93320000        -1.05839963E-05
   1.94519997        -7.51025118E-06
   1.95720005        -4.24100563E-06
   1.96920002        -8.19990476E-07
   1.98119998         2.70418013E-06
   1.99319994         6.27866439E-06
   2.00519991         9.84743474E-06
   2.01719999         1.33526510E-05
   2.02920008         1.67362887E-05
   2.04119992         1.99419519E-05
   2.05320001         2.29167326E-05
   2.06520009         2.56130770E-05
   2.07719994         2.79904762E-05
   2.08920002         3.00169304E-05
   2.10120010         3.16700862E-05
   2.11319995         3.29379727E-05
   2.12520003         3.38193531E-05
   2.13720012         3.43236024E-05
   2.14919996         3.44702166E-05
   2.16120005         3.42879357E-05
   2.17319989         3.38135469E-05
   2.18519998         3.30904586E-05
   2.19720006         3.21670886E-05
   2.20919991         3.10951546E-05
   2.22119999         2.99279527E-05
   2.23320007         2.87186140E-05
   2.24519992         2.75185303E-05
   2.25720000         2.63758811E-05
   2.26920009         2.53343205E-05
   2.28119993         2.44318908E-05
   2.29320002         2.37001204E-05
   2.30520010         2.31633567E-05
   2.31719995         2.28382560E-05
   2.32920003         2.27335204E-05
   2.34120011         2.28497775E-05
   2.35319996         2.31796967E-05
   2.36520004         2.37082440E-05
   2.37719989         2.44132152E-05
   2.38919997         2.52658920E-05
   2.40120006         2.62319627E-05
   2.41319990         2.72725938E-05
   2.42519999         2.83456884E-05
   2.43720007         2.94072997E-05
   2.44919991         3.04131554E-05
   2.46120000         3.13202509E-05
   2.47320008         3.20884610E-05
   2.48519993         3.26821610E-05
   2.49720001         3.30717448E-05
   2.50920010         3.32349955E-05
   2.52119994         3.31582596E-05
   2.53320003         3.28373462E-05
   2.54520011         3.22780324E-05
   2.55719995         3.14962526E-05
   2.56920004         3.05177782E-05
   2.58119988         2.93775156E-05
   2.59319997         2.81183366E-05
   2.60520005         2.67895466E-05
   2.61719990         2.54449969E-05
   2.62919998         2.41409489E-05
   2.64120007         2.29337620E-05
   2.65319991         2.18775094E-05
   2.66520000         2.10216258E-05
   2.67720008         2.04086991E-05
   2.68919992         2.00725190E-05
   2.70120001         2.00364757E-05
   2.71320009         2.03124218E-05
   2.72519994         2.09000809E-05
   2.73720002         2.17870038E-05
   2.74920011         2.29491070E-05
   2.76119995         2.43518189E-05
   2.77320004         2.59516764E-05
   2.78520012         2.76983519E-05
   2.79719996         2.95369628E-05
   2.80920005         3.14105419E-05
   2.82119989         3.32625532E-05
   2.83319998         3.50392729E-05
   2.84520006         3.66919703E-05
   2.85719991         3.81787468E-05
   2.86919999         3.94659546E-05
   2.88120008         4.05291103E-05
   2.89319992         4.13532907E-05
   2.90520000         4.19329881E-05
   2.91720009         4.22714693E-05
   2.92919993         4.23797173E-05
   2.94120002         4.22749799E-05
   2.95320010         4.19791686E-05
   2.96519995         4.15171016E-05
   2.97720003         4.09147870E-05
   2.98920012         4.01978687E-05
   3.00119996         3.93902592E-05
   3.01320004         3.85130879E-05
   3.02519989         3.75839772E-05
   3.03719997         3.66166823E-05
   3.04920006         3.56210076E-05
   3.06119990         3.46031084E-05
   3.07319999         3.35660116E-05
   3.08520007         3.25103501E-05
   3.09719992         3.14352583E-05
   3.10920000         3.03393208E-05
   3.12120008         2.92215245E-05
   3.13319993         2.80821405E-05
   3.14520001         2.69234697E-05
   3.15720010         2.57504234E-05
   3.16919994         2.45709307E-05
   3.18120003         2.33961036E-05
   3.19320011         2.22402614E-05
   3.20519996         2.11207480E-05
   3.21720004         2.00576069E-05
   3.22919989         1.90731025E-05
   3.24119997         1.81911291E-05
   3.25320005         1.74365396E-05
   3.26519990         1.68343304E-05
   3.27719998         1.64087924E-05
   3.28920007         1.61825774E-05
   3.30119991         1.61757598E-05
   3.31320000         1.64048724E-05
   3.32520008         1.68819879E-05
   3.33719993         1.76138801E-05
   3.34920001         1.86012348E-05
   3.36120009         1.98380585E-05
   3.37319994         2.13112326E-05
   3.38520002         2.30002352E-05
   3.39720011         2.48771576E-05
   3.40919995         2.69069351E-05
   3.42120004         2.90478965E-05
   3.43319988         3.12525772E-05
   3.44519997         3.34688630E-05
   3.45720005         3.56413839E-05
   3.46919990         3.77131255E-05
   3.48119998         3.96272626E-05
   3.49320006         4.13290436E-05
   3.50519991         4.27677478E-05
   3.51719999         4.38985226E-05
   3.52920008         4.46841514E-05
   3.54119992         4.50965090E-05
   3.55320001         4.51178166E-05
   3.56520009         4.47414568E-05
   3.57719994         4.39725191E-05
   3.58920002         4.28278145E-05
   3.60120010         4.13355701E-05
   3.61319995         3.95347051E-05
   3.62520003         3.74737065E-05
   3.63720012         3.52092102E-05
   3.64919996         3.28042697E-05
   3.66120005         3.03264278E-05
   3.67319989         2.78456446E-05
   3.68519998         2.54321021E-05
   3.69720006         2.31540234E-05
   3.70919991         2.10755607E-05
   3.72119999         1.92547959E-05
   3.73320007         1.77419297E-05
   3.74519992         1.65777583E-05
   3.75720000         1.57924114E-05
   3.76920009         1.54044774E-05
   3.78119993         1.54204463E-05
   3.79320002         1.58345483E-05
   3.80520010         1.66289847E-05
   3.81719995         1.77744932E-05
   3.82920003         1.92312691E-05
   3.84120011         2.09502341E-05
   3.85319996         2.28745739E-05
   3.86520004         2.49415189E-05
   3.87719989         2.70843884E-05
   3.88919997         2.92347286E-05
   3.90120006         3.13245619E-05
   3.91319990         3.32886630E-05
   3.92519999         3.50667397E-05
   3.93720007         3.66054628E-05
   3.94919991         3.78603145E-05
   3.96120000         3.87970795E-05
   3.97320008         3.93930277E-05
   3.98519993         3.96376854E-05
   3.99720001         3.95331408E-05
   4.00920010         3.90939422E-05
   4.02120018         3.83464794E-05
   4.03319979         3.73279363E-05
   4.04519987         3.60848026E-05
   4.05719995         3.46709821E-05
   4.06920004         3.31455922E-05
   4.08120012         3.15705074E-05
   4.09320021         3.00077863E-05
   4.10519981         2.85170408E-05
   4.11719990         2.71529516E-05
   4.12919998         2.59629815E-05
   4.14120007         2.49854529E-05
   4.15320015         2.42480510E-05
   4.16520023         2.37668519E-05
   4.17719984         2.35459393E-05
   4.18919992         2.35775769E-05
   4.20120001         2.38430330E-05
   4.21320009         2.43138948E-05
   4.22520018         2.49539171E-05
   4.23719978         2.57212669E-05
   4.24919987         2.65710260E-05
   4.26119995         2.74578688E-05
   4.27320004         2.83387053E-05
   4.28520012         2.91751567E-05
   4.29720020         2.99357398E-05
   4.30919981         3.05975773E-05
   4.32119989         3.11475742E-05
   4.33319998         3.15829420E-05
   4.34520006         3.19111168E-05
   4.35720015         3.21489752E-05
   4.36920023         3.23214990E-05
   4.38119984         3.24599132E-05
   4.39319992         3.25993933E-05
   4.40520000         3.27766138E-05
   4.41720009         3.30270959E-05
   4.42920017         3.33827156E-05
   4.44119978         3.38693935E-05
   4.45319986         3.45051740E-05
   4.46519995         3.52988027E-05
   4.47720003         3.62488936E-05
   4.48920012         3.73437069E-05
   4.50120020         3.85615785E-05
   4.51319981         3.98719349E-05
   4.52519989         4.12368427E-05
   4.53719997         4.26129918E-05
   4.54920006         4.39539799E-05
   4.56120014         4.52127533E-05
   4.57320023         4.63440811E-05
   4.58519983         4.73069122E-05
   4.59719992         4.80664821E-05
   4.60920000         4.85960409E-05
   4.62120008         4.88781443E-05
   4.63320017         4.89054655E-05
   4.64519978         4.86810241E-05
   4.65719986         4.82179094E-05
   4.66919994         4.75385677E-05
   4.68120003         4.66736055E-05
   4.69320011         4.56603411E-05
   4.70520020         4.45410769E-05
   4.71719980         4.33612950E-05
   4.72919989         4.21677832E-05
   4.74119997         4.10068569E-05
   4.75320005         3.99227029E-05
   4.76520014         3.89559318E-05
   4.77720022         3.81423270E-05
   4.78919983         3.75119234E-05
   4.80119991         3.70882735E-05
   4.81320000         3.68880428E-05
   4.82520008         3.69207992E-05
   4.83720016         3.71890237E-05
   4.84919977         3.76883072E-05
   4.86119986         3.84077066E-05
   4.87319994         3.93301707E-05
   4.88520002         4.04331440E-05
   4.89720011         4.16891598E-05
   4.90920019         4.30666187E-05
   4.92119980         4.45305559E-05
   4.93319988         4.60435258E-05
   4.94519997         4.75665074E-05
   4.95720005         4.90599232E-05
   4.96920013         5.04846503E-05
   4.98120022         5.18030683E-05
   4.99319983         5.29800891E-05
   5.00519991         5.39841640E-05
   5.01719999         5.47882773E-05
   5.02920008         5.53707723E-05
   5.04120016         5.57161075E-05
   5.05319977         5.58154534E-05
   5.06519985         5.56670529E-05
   5.07719994         5.52763995E-05
   5.08920002         5.46561896E-05
   5.10120010         5.38259810E-05
   5.11320019         5.28116689E-05
   5.12519979         5.16447326E-05
   5.13719988         5.03612646E-05
   5.14919996         4.90009443E-05
   5.16120005         4.76057758E-05
   5.17320013         4.62188837E-05
   5.18520021         4.48831815E-05
   5.19719982         4.36401315E-05
   5.20919991         4.25284816E-05
   5.22119999         4.15831164E-05
   5.23320007         4.08340347E-05
   5.24520016         4.03054109E-05
   5.25719976         4.00148856E-05
   5.26919985         3.99729906E-05
   5.28119993         4.01827492E-05
   5.29320002         4.06395411E-05
   5.30520010         4.13310845E-05
   5.31720018         4.22376725E-05
   5.32919979         4.33325768E-05
   5.34119987         4.45826736E-05
   5.35319996         4.59492621E-05
   5.36520004         4.73890832E-05
   5.37720013         4.88555015E-05
   5.38920021         5.02998482E-05
   5.40119982         5.16728542E-05
   5.41319990         5.29261852E-05
   5.42519999         5.40139081E-05
   5.43720007         5.48939606E-05
   5.44920015         5.55294282E-05
   5.46120024         5.58897700E-05
   5.47319984         5.59517721E-05
   5.48519993         5.57002932E-05
   5.49720001         5.51287776E-05
   5.50920010         5.42395246E-05
   5.52120018         5.30436409E-05
   5.53319979         5.15607317E-05
   5.54519987         4.98183254E-05
   5.55719995         4.78510447E-05
   5.56920004         4.56995258E-05
   5.58120012         4.34091926E-05
   5.59320021         4.10288849E-05
   5.60519981         3.86094325E-05
   5.61719990         3.62022147E-05
   5.62919998         3.38577811E-05
   5.64120007         3.16245423E-05
   5.65320015         2.95475675E-05
   5.66520023         2.76675473E-05
   5.67719984         2.60198776E-05
   5.68919992         2.46339387E-05
   5.70120001         2.35325224E-05
   5.71320009         2.27314795E-05
   5.72520018         2.22395447E-05
   5.73719978         2.20583261E-05
   5.74919987         2.21825248E-05
   5.76119995         2.26002830E-05
   5.77320004         2.32936782E-05
   5.78520012         2.42393689E-05
   5.79720020         2.54093011E-05
   5.80919981         2.67715441E-05
   5.82119989         2.82911551E-05
   5.83319998         2.99310923E-05
   5.84520006         3.16531659E-05
   5.85720015         3.34189717E-05
   5.86920023         3.51907947E-05
   5.88119984         3.69324734E-05
   5.89319992         3.86101419E-05
   5.90520000         4.01929246E-05
   5.91720009         4.16534458E-05
   5.92920017         4.29682623E-05
   5.94119978         4.41180928E-05
   5.95319986         4.50879525E-05
   5.96519995         4.58670729E-05
   5.97720003         4.64487130E-05
   5.98920012         4.68298203E-05
   6.00120020         4.70105188E-05
   6.01319981         4.69935731E-05
   6.02519989         4.67837381E-05
   6.03719997         4.63871329E-05
   6.04920006         4.58106151E-05
   6.06120014         4.50612897E-05
   6.07320023         4.41460834E-05
   6.08519983         4.30715118E-05
   6.09719992         4.18435884E-05
   6.10920000         4.04678940E-05
   6.12120008         3.89497873E-05
   6.13320017         3.72947507E-05
   6.14519978         3.55088196E-05
   6.15719986         3.35990844E-05
   6.16919994         3.15742254E-05
   6.18120003         2.94450001E-05
   6.19320011         2.72247016E-05
   6.20520020         2.49294517E-05
   6.21719980         2.25783624E-05
   6.22919989         2.01935018E-05
   6.24119997         1.77996626E-05
   6.25320005         1.54239169E-05
   6.26520014         1.30950448E-05
   6.27720022         1.08428148E-05
   6.28919983         8.69722771E-06
   6.30119991         6.68774010E-06
   6.31320000         4.84253496E-06
   6.32520008         3.18786442E-06
   6.33720016         1.74751563E-06
   6.34919977         5.42404734E-07
   6.36119986        -4.09713493E-07
   6.37319994        -1.09439918E-06
   6.38520002        -1.50055325E-06
   6.39720011        -1.62035667E-06
   6.40920019        -1.44913270E-06
   6.42119980        -9.85191264E-07
   6.43319988        -2.29658681E-07
   6.44519997         8.13614975E-07
   6.45720005         2.13808016E-06
   6.46920013         3.73439093E-06
   6.48120022         5.59023147E-06
   6.49319983         7.69003327E-06
   6.50519991         1.00146817E-05
   6.51719999         1.25412380E-05
   6.52920008         1.52427328E-05
   6.54120016         1.80881307E-05
   6.55319977         2.10424314E-05
   6.56519985         2.40670342E-05
   6.57719994         2.71202953E-05
   6.58920002         3.01583677E-05
   6.60120010         3.31362025E-05
   6.61320019         3.60087615E-05
   6.62519979         3.87323635E-05
   6.63719988         4.12660702E-05
   6.64919996         4.35731126E-05
   6.66120005         4.56221205E-05
   6.67320013         4.73882719E-05
   6.68520021         4.88540536E-05
   6.69719982         5.00097594E-05
   6.70919991         5.08535413E-05
   6.72119999         5.13910563E-05
   6.73320007         5.16347900E-05
   6.74520016         5.16029431E-05
   6.75719976         5.13181512E-05
   6.76919985         5.08059820E-05
   6.78119993         5.00934220E-05
   6.79320002         4.92073996E-05
   6.80520010         4.81734241E-05
   6.81720018         4.70145169E-05
   6.82919979         4.57504430E-05
   6.84119987         4.43972385E-05
   6.85319996         4.29672473E-05
   6.86520004         4.14694478E-05
   6.87720013         3.99101518E-05
   6.88920021         3.82939579E-05
   6.90119982         3.66249624E-05
   6.91319990         3.49079819E-05
   6.92519999         3.31497868E-05
   6.93720007         3.13601886E-05
   6.94920015         2.95529171E-05
   6.96120024         2.77461495E-05
   6.97319984         2.59627122E-05
   6.98519993         2.42298811E-05
   6.99720001         2.25788190E-05
   7.00920010         2.10436629E-05
   7.02120018         1.96603287E-05
   7.03319979         1.84650980E-05
   7.04519987         1.74930883E-05
   7.05719995         1.67766666E-05
   7.06920004         1.63439654E-05
   7.08120012         1.62174856E-05
   7.09320021         1.64129542E-05
   7.10519981         1.69384257E-05
   7.11719990         1.77936781E-05
   7.12919998         1.89699622E-05
   7.14120007         2.04500302E-05
   7.15320015         2.22085000E-05
   7.16520023         2.42124606E-05
   7.17719984         2.64223490E-05
   7.18919992         2.87929997E-05
   7.20120001         3.12748598E-05
   7.21320009         3.38152677E-05
   7.22520018         3.63598556E-05
   7.23719978         3.88538974E-05
   7.24919987         4.12436821E-05
   7.26119995         4.34778376E-05
   7.27320004         4.55085828E-05
   7.28520012         4.72929241E-05
   7.29720020         4.87937214E-05
   7.30919981         4.99806702E-05
   7.32119989         5.08311605E-05
   7.33319998         5.13309460E-05
   7.34520006         5.14746462E-05
   7.35720015         5.12660590E-05
   7.36920023         5.07182012E-05
   7.38119984         4.98530972E-05
   7.39319992         4.87013167E-05
   7.40520000         4.73012260E-05
   7.41720009         4.56980197E-05
   7.42920017         4.39425166E-05
   7.44119978         4.20897304E-05
   7.45319986         4.01973266E-05
   7.46519995         3.83239130E-05
   7.47720003         3.65273190E-05
   7.48920012         3.48628128E-05
   7.50120020         3.33814096E-05
   7.51319981         3.21283005E-05
   7.52519989         3.11414406E-05
   7.53719997         3.04504047E-05
   7.54920006         3.00755182E-05
   7.56120014         3.00273241E-05
   7.57320023         3.03063844E-05
   7.58519983         3.09034149E-05
   7.59719992         3.17997255E-05
   7.60920000         3.29679824E-05
   7.62120008         3.43731845E-05
   7.63320017         3.59738842E-05
   7.64519978         3.77235156E-05
   7.65719986         3.95718926E-05
   7.66919994         4.14667265E-05
   7.68120003         4.33552013E-05
   7.69320011         4.51854758E-05
   7.70520020         4.69081133E-05
   7.71719980         4.84774355E-05
   7.72919989         4.98526279E-05
   7.74119997         5.09987403E-05
   7.75320005         5.18874331E-05
   7.76520014         5.24975076E-05
   7.77720022         5.28152414E-05
   7.78919983         5.28344826E-05
   7.80119991         5.25565702E-05
   7.81320000         5.19900423E-05
   7.82520008         5.11501967E-05
   7.83720016         5.00584647E-05
   7.84919977         4.87416401E-05
   7.86119986         4.72310130E-05
   7.87319994         4.55613626E-05
   7.88520002         4.37699528E-05
   7.89720011         4.18954587E-05
   7.90920019         3.99769560E-05
   7.92119980         3.80529636E-05
   7.93319988         3.61606217E-05
   7.94519997         3.43349820E-05
   7.95720005         3.26084046E-05
   7.96920013         3.10101350E-05
   7.98120022         2.95659684E-05
   7.99319983         2.82980018E-05
   8.00520039         2.72245161E-05
   8.01720047         2.63598904E-05
   8.02919960         2.57146003E-05
   8.04119968         2.52952505E-05
   8.05319977         2.51046786E-05
   8.06519985         2.51420352E-05
   8.07719994         2.54029310E-05
   8.08920002         2.58795480E-05
   8.10120010         2.65607541E-05
   8.11320019         2.74322083E-05
   8.12520027         2.84764847E-05
   8.13720036         2.96732014E-05
   8.14920044         3.09992138E-05
   8.16119957         3.24289213E-05
   8.17319965         3.39346589E-05
   8.18519974         3.54872245E-05
   8.19719982         3.70565576E-05
   8.20919991         3.86124921E-05
   8.22119999         4.01256184E-05
   8.23320007         4.15681461E-05
   8.24520016         4.29147985E-05
   8.25720024         4.41436132E-05
   8.26920033         4.52366403E-05
   8.28120041         4.61805030E-05
   8.29319954         4.69667757E-05
   8.30519962         4.75921588E-05
   8.31719971         4.80583731E-05
   8.32919979         4.83718686E-05
   8.34119987         4.85432502E-05
   8.35319996         4.85865057E-05
   8.36520004         4.85180717E-05
   8.37720013         4.83557451E-05
   8.38920021         4.81176321E-05
   8.40120029         4.78210459E-05
   8.41320038         4.74815788E-05
   8.42520046         4.71123494E-05
   8.43719959         4.67234240E-05
   8.44919968         4.63215401E-05
   8.46119976         4.59100338E-05
   8.47319984         4.54890505E-05
   8.48519993         4.50560074E-05
   8.49720001         4.46062222E-05
   8.50920010         4.41337215E-05
   8.52120018         4.36321861E-05
   8.53320026         4.30959190E-05
   8.54520035         4.25207872E-05
   8.55720043         4.19051066E-05
   8.56919956         4.12503068E-05
   8.58119965         4.05613864E-05
   8.59319973         3.98471420E-05
   8.60519981         3.91200228E-05
   8.61719990         3.83957777E-05
   8.62919998         3.76927965E-05
   8.64120007         3.70312555E-05
   8.65320015         3.64320840E-05
   8.66520023         3.59158439E-05
   8.67720032         3.55015327E-05
   8.68920040         3.52054267E-05
   8.70119953         3.50399787E-05
   8.71319962         3.50128466E-05
   8.72519970         3.51261042E-05
   8.73719978         3.53756877E-05
   8.74919987         3.57511271E-05
   8.76119995         3.62356077E-05
   8.77320004         3.68063374E-05
   8.78520012         3.74352712E-05
   8.79720020         3.80901110E-05
   8.80920029         3.87355976E-05
   8.82120037         3.93349692E-05
   8.83320045         3.98515767E-05
   8.84519958         4.02505211E-05
   8.85719967         4.05003411E-05
   8.86919975         4.05744868E-05
   8.88119984         4.04527673E-05
   8.89319992         4.01224679E-05
   8.90520000         3.95792158E-05
   8.91720009         3.88274930E-05
   8.92920017         3.78807927E-05
   8.94120026         3.67613466E-05
   8.95320034         3.54994881E-05
   8.96520042         3.41325904E-05
   8.97719955         3.27036978E-05
   8.98919964         3.12598604E-05
   9.00119972         2.98502764E-05
   9.01319981         2.85243132E-05
   9.02519989         2.73295191E-05
   9.03719997         2.63097354E-05
   9.04920006         2.55033247E-05
   9.06120014         2.49417080E-05
   9.07320023         2.46481577E-05
   9.08520031         2.46369691E-05