 -0.622799993         1.00000002E-24
 -0.610800028         1.00000002E-24
 -0.598800004         1.00000002E-24
 -0.586799979         1.00000002E-24
 -0.574800014         1.00000002E-24
 -0.562799990         1.00000012E-24
 -0.550800025         1.00000022E-24
 -0.538800001         1.00000022E-24
 -0.526799977         1.00000022E-24
 -0.514800012         1.00000012E-24
 -0.502799988         9.99999724E-25
 -0.490799993         9.99996470E-25
 -0.478799999         9.99980988E-25
 -0.466800004         9.99929811E-25
 -0.454800010         9.99812764E-25
 -0.442799985         9.99668599E-25
 -0.430799991         9.99825583E-25
 -0.418799996         1.00124464E-24
 -0.406800002         1.00556977E-24
 -0.394800007         1.01376180E-24
 -0.382800013         1.02174714E-24
 -0.370799989         1.01292482E-24
 -0.358799994         9.52733841E-25
 -0.346799999         8.00090735E-25
 -0.334800005         5.58630371E-25
 -0.322800010         3.82202196E-25
 -0.310799986         7.03050342E-25
 -0.298799992         2.25793823E-24
 -0.286799997         5.77996571E-24
 -0.274800003         1.11058678E-23
 -0.262800008         1.56858017E-23
 -0.250800014         1.31120492E-23
 -0.238800004        -6.77075450E-24
 -0.226799995        -5.38479483E-23
 -0.214800000        -1.27893677E-22
 -0.202800006        -2.03740002E-22
 -0.190799996        -2.17875102E-22
 -0.178800002        -6.99083549E-23
 -0.166800007         3.43454286E-22
 -0.154799998         1.04958466E-21
 -0.142800003         1.88506061E-21
 -0.130799994         2.39115822E-21
 -0.118799999         1.80888507E-21
 -0.106799997        -7.15704091E-22
  -9.48000029E-02    -5.64125101E-21
  -8.28000009E-02    -1.23047906E-20
  -7.07999989E-02    -1.82157466E-20
  -5.88000007E-02    -1.88543962E-20
  -4.67999987E-02    -8.57489997E-21
  -3.48000005E-02     1.69539762E-20
  -2.28000004E-02     5.69189313E-20
  -1.08000003E-02     1.01265932E-19
   1.20000006E-03     1.28548236E-19
   1.31999999E-02     1.08567417E-19
   2.52000000E-02     1.21286981E-20
   3.72000001E-02    -1.72023117E-19
   4.91999984E-02    -4.16979291E-19
   6.12000003E-02    -6.42706101E-19
   7.32000023E-02    -7.18188710E-19
   8.51999968E-02    -4.91731267E-19
   9.71999988E-02     1.46693722E-19
  0.109200001         1.18106326E-18
  0.121200003         2.39066653E-18
  0.133200005         3.31995143E-18
  0.145199999         3.34254504E-18
  0.157199994         1.84743676E-18
  0.169200003        -1.46643499E-18
  0.181199998        -6.26038039E-18
  0.193200007        -1.13228453E-17
  0.205200002        -1.45950096E-17
  0.217199996        -1.35891754E-17
  0.229200006        -6.23046086E-18
  0.241200000         8.01920585E-18
  0.253199995         2.70929361E-17
  0.265199989         4.57931852E-17
  0.277200013         5.63068063E-17
  0.289200008         5.00638890E-17
  0.301200002         2.08285567E-17
  0.313199997        -3.16507658E-17
  0.325199991        -9.86421549E-17
  0.337199986        -1.61577305E-16
  0.349200010        -1.94647933E-16
  0.361200005        -1.71362203E-16
  0.373199999        -7.42479435E-17
  0.385199994         9.46599486E-17
  0.397199988         3.06173850E-16
  0.409200013         5.03156205E-16
  0.421200007         6.09598442E-16
  0.433200002         5.50130588E-16
  0.445199996         2.76924902E-16
  0.457199991        -2.02829927E-16
  0.469199985        -8.08373517E-16
  0.481200010        -1.38544753E-15
  0.493200004        -1.73156309E-15
  0.505200028        -1.64655402E-15
  0.517199993        -9.99876760E-16
  0.529200017         2.02348746E-16
  0.541199982         1.77293409E-15
  0.553200006         3.34372249E-15
  0.565199971         4.42414329E-15
  0.577199996         4.51728896E-15
  0.589200020         3.27369277E-15
  0.601199985         6.45121680E-16
  0.613200009        -3.01004741E-15
  0.625199974        -6.91654197E-15
  0.637199998        -9.99669724E-15
  0.649200022        -1.11086270E-14
  0.661199987        -9.36848001E-15
  0.673200011        -4.48116767E-15
  0.685199976         3.01781153E-15
  0.697200000         1.17041090E-14
  0.709200025         1.94523640E-14
  0.721199989         2.38738862E-14
  0.733200014         2.29343623E-14
  0.745199978         1.56124503E-14
  0.757200003         2.41672434E-15
  0.769200027        -1.44197822E-14
  0.781199992        -3.11924321E-14
  0.793200016        -4.34454447E-14
  0.805199981        -4.70478352E-14
  0.817200005        -3.93869948E-14
  0.829200029        -2.03617166E-14
  0.841199994         7.14477543E-15
  0.853200018         3.75385758E-14
  0.865199983         6.35852590E-14
  0.877200007         7.81029158E-14
  0.889199972         7.58946806E-14
  0.901199996         5.54059192E-14
  0.913200021         1.95934882E-14
  0.925199986        -2.43497984E-14
  0.937200010        -6.64845037E-14
  0.949199975        -9.65449441E-14
  0.961199999        -1.06691877E-13
  0.973200023        -9.38220584E-14
  0.985199988        -6.06991535E-14
  0.997200012        -1.54461066E-14
   1.00919998         3.06035714E-14
   1.02119994         6.61789417E-14
   1.03320003         8.35319837E-14
   1.04519999         8.09768173E-14
   1.05719995         6.35696668E-14
   1.06920004         4.14966354E-14
   1.08120000         2.64555494E-14
   1.09319997         2.70431972E-14
   1.10520005         4.46478791E-14
   1.11720002         7.13996462E-14
   1.12919998         9.12651370E-14
   1.14119995         8.44691884E-14
   1.15320003         3.43195727E-14
   1.16520000        -6.54587129E-14
   1.17719996        -2.05262145E-13
   1.18920004        -3.58186354E-13
   1.20120001        -4.83854764E-13
   1.21319997        -5.37234699E-13
   1.22520006        -4.80586328E-13
   1.23720002        -2.95480545E-13
   1.24919999         8.57906563E-15
   1.26119995         3.91774964E-13
   1.27320004         7.89138665E-13
   1.28520000         1.12250129E-12
   1.29719996         1.31650528E-12
   1.30920005         1.31469596E-12
   1.32120001         1.09161042E-12
   1.33319998         6.57925483E-13
   1.34519994         5.77846690E-14
   1.35720003        -6.40233580E-13
   1.36919999        -1.35522344E-12
   1.38119996        -2.00518682E-12
   1.39320004        -2.51423296E-12
   1.40520000        -2.81460445E-12
   1.41719997        -2.84495799E-12
   1.42920005        -2.54851066E-12
   1.44120002        -1.87550561E-12
   1.45319998        -7.93465933E-13
   1.46519995         6.94079505E-13
   1.47720003         2.52356708E-12
   1.48920000         4.54893328E-12
   1.50119996         6.52980925E-12
   1.51320004         8.13917163E-12
   1.52520001         8.99601834E-12
   1.53719997         8.72305960E-12
   1.54920006         7.02261903E-12
   1.56120002         3.75783996E-12
   1.57319999        -9.77502801E-13
   1.58519995        -6.81751921E-12
   1.59720004        -1.31242890E-11
   1.60920000        -1.90359638E-11
   1.62119997        -2.35607801E-11
   1.63320005        -2.57065723E-11
   1.64520001        -2.46290956E-11
   1.65719998        -1.97792008E-11
   1.66919994        -1.10290362E-11
   1.68120003         1.23964099E-12
   1.69319999         1.60977134E-11
   1.70519996         3.20893451E-11
   1.71720004         4.73149644E-11
   1.72920001         5.95770169E-11
   1.74119997         6.65858757E-11
   1.75320005         6.62189539E-11
   1.76520002         5.68199064E-11
   1.77719998         3.75159938E-11
   1.78919995         8.52099641E-12
   1.80120003        -2.86196847E-11
   1.81320000        -7.08931108E-11
   1.82519996        -1.13845086E-10
   1.83720005        -1.51813964E-10
   1.84920001        -1.78398754E-10
   1.86119998        -1.87158178E-10
   1.87320006        -1.72499431E-10
   1.88520002        -1.30673722E-10
   1.89719999        -6.07563375E-11
   1.90919995         3.45376783E-11
   1.92120004         1.48362586E-10
   1.93320000         2.69723133E-10
   1.94519997         3.84037913E-10
   1.95720005         4.74334627E-10
   1.96920002         5.23048105E-10
   1.98119998         5.14305043E-10
   1.99319994         4.36493258E-10
   2.00519991         2.84842844E-10
   2.01719999         6.36982272E-11
   2.02920008        -2.11852896E-10
   2.04119992        -5.15303911E-10
   2.05320001        -8.09256995E-10
   2.06520009        -1.04730735E-09
   2.07719994        -1.17731414E-09
   2.08920002        -1.14595022E-09
   2.10120010        -9.04274045E-10
   2.11319995        -4.13929446E-10
   2.12520003         3.46542767E-10
   2.13720012         1.37588951E-09
   2.14919996         2.64548139E-09
   2.16120005         4.09644585E-09
   2.17319989         5.63917801E-09
   2.18519998         7.15565651E-09
   2.19720006         8.50478621E-09
   2.20919991         9.53068113E-09
   2.22119999         1.00734798E-08
   2.23320007         9.98187222E-09
   2.24519992         9.12613718E-09
   2.25720000         7.41013473E-09
   2.26920009         4.78036322E-09
   2.28119993         1.23000576E-09
   2.29320002        -3.20423199E-09
   2.30520010        -8.45457393E-09
   2.31719995        -1.44458809E-08
   2.32920003        -2.11321804E-08
   2.34120011        -2.85471575E-08
   2.35319996        -3.68691850E-08
   2.36520004        -4.65007410E-08
   2.37719989        -5.81614081E-08
   2.38919997        -7.29928473E-08
   2.40120006        -9.26734032E-08
   2.41319990        -1.19538925E-07
   2.42519999        -1.56705966E-07
   2.43720007        -2.08192148E-07
   2.44919991        -2.79027887E-07
   2.46120000        -3.75353068E-07
   2.47320008        -5.04491197E-07
   2.48519993        -6.74993203E-07
   2.49720001        -8.96642689E-07
   2.50920010        -1.18041419E-06
   2.52119994        -1.53837721E-06
   2.53320003        -1.98353791E-06
   2.54520011        -2.52961536E-06
   2.55719995        -3.19074456E-06
   2.56920004        -3.98110978E-06
   2.58119988        -4.91450783E-06
   2.59319997        -6.00384601E-06
   2.60520005        -7.26058897E-06
   2.61719990        -8.69416181E-06
   2.62919998        -1.03113334E-05
   2.64120007        -1.21156017E-05
   2.65319991        -1.41066039E-05
   2.66520000        -1.62795786E-05
   2.67720008        -1.86249217E-05
   2.68919992        -2.11278475E-05
   2.70120001        -2.37682052E-05
   2.71320009        -2.65204526E-05
   2.72519994        -2.93538324E-05
   2.73720002        -3.22327396E-05
   2.74920011        -3.51173039E-05
   2.76119995        -3.79641715E-05
   2.77320004        -4.07274965E-05
   2.78520012        -4.33600653E-05
   2.79719996        -4.58145696E-05
   2.80920005        -4.80449598E-05
   2.82119989        -5.00078386E-05
   2.83319998        -5.16638429E-05
   2.84520006        -5.29789213E-05
   2.85719991        -5.39255088E-05
   2.86919999        -5.44834948E-05
   2.88120008        -5.46409865E-05
   2.89319992        -5.43947499E-05
   2.90520000        -5.37504056E-05
   2.91720009        -5.27222801E-05
   2.92919993        -5.13329760E-05
   2.94120002        -4.96126413E-05
   2.95320010        -4.75979650E-05
   2.96519995        -4.53309694E-05
   2.97720003        -4.28576459E-05
   2.98920012        -4.02264341E-05
   3.00119996        -3.74867341E-05
   3.01320004        -3.46873603E-05
   3.02519989        -3.18751554E-05
   3.03719997        -2.90936860E-05
   3.04920006        -2.63821585E-05
   3.06119990        -2.37745771E-05
   3.07319999        -2.12991199E-05
   3.08520007        -1.89778093E-05
   3.09719992        -1.68264323E-05
   3.10920000        -1.48547124E-05
   3.12120008        -1.30666995E-05
   3.13319993        -1.14613513E-05
   3.14520001        -1.00332400E-05
   3.15720010        -8.77336697E-06
   3.16919994        -7.67000802E-06
   3.18120003        -6.70956979E-06
   3.19320011        -5.87738305E-06
   3.20519996        -5.15842657E-06
   3.21720004        -4.53792927E-06
   3.22919989        -4.00184535E-06
   3.24119997        -3.53718815E-06
   3.25320005        -3.13222722E-06
   3.26519990        -2.77655340E-06
   3.27719998        -2.46103650E-06
   3.28920007        -2.17769707E-06
   3.30119991        -1.91951926E-06
   3.31320000        -1.68023666E-06
   3.32520008        -1.45411877E-06
   3.33719993        -1.23578309E-06
   3.34920001        -1.02005879E-06
   3.36120009        -8.01914211E-07
   3.37319994        -5.76451896E-07
   3.38520002        -3.38977799E-07
   3.39720011        -8.51347934E-08
   3.40919995         1.88914328E-07
   3.42120004         4.86269926E-07
   3.43319988         8.09071821E-07
   3.44519997         1.15829107E-06
   3.45720005         1.53356325E-06
   3.46919990         1.93308529E-06
   3.48119998         2.35359585E-06
   3.49320006         2.79044980E-06
   3.50519991         3.23780023E-06
   3.51719999         3.68887572E-06
   3.52920008         4.13635189E-06
   3.54119992         4.57279566E-06
   3.55320001         4.99116049E-06
   3.56520009         5.38530048E-06
   3.57719994         5.75046943E-06
   3.58920002         6.08377422E-06
   3.60120010         6.38454185E-06
   3.61319995         6.65457401E-06
   3.62520003         6.89825629E-06
   3.63720012         7.12250767E-06
   3.64919996         7.33655725E-06
   3.66120005         7.55154588E-06
   3.67319989         7.77996593E-06
   3.68519998         8.03496368E-06
   3.69720006         8.32951810E-06
   3.70919991         8.67557628E-06
   3.72119999         9.08314723E-06
   3.73320007         9.55944415E-06
   3.74519992         1.01081168E-05
   3.75720000         1.07286232E-05
   3.76920009         1.14157947E-05
   3.78119993         1.21596340E-05
   3.79320002         1.29453765E-05
   3.80520010         1.37538227E-05
   3.81719995         1.45619497E-05
   3.82920003         1.53437868E-05
   3.84120011         1.60715172E-05
   3.85319996         1.67167782E-05
   3.86520004         1.72520722E-05
   3.87719989         1.76522626E-05
   3.88919997         1.78960272E-05
   3.90120006         1.79672406E-05
   3.91319990         1.78561713E-05
   3.92519999         1.75604364E-05
   3.93720007         1.70856729E-05
   3.94919991         1.64458270E-05
   3.96120000         1.56630740E-05
   3.97320008         1.47673691E-05
   3.98519993         1.37955722E-05
   3.99720001         1.27902586E-05
   4.00920010         1.17982072E-05
   4.02120018         1.08686509E-05
   4.03319979         1.00513626E-05
   4.04519987         9.39465008E-06
   4.05719995         8.94336154E-06
   4.06920004         8.73697263E-06
   4.08120012         8.80785228E-06
   4.09320021         9.17976377E-06
   4.10519981         9.86668510E-06
   4.11719990         1.08719933E-05
   4.12919998         1.21880366E-05
   4.14120007         1.37961333E-05
   4.15320015         1.56669958E-05
   4.16520023         1.77615530E-05
   4.17719984         2.00321665E-05
   4.18919992         2.24241703E-05
   4.20120001         2.48777142E-05
   4.21320009         2.73297937E-05
   4.22520018         2.97164715E-05
   4.23719978         3.19751380E-05
   4.24919987         3.40467814E-05
   4.26119995         3.58781726E-05
   4.27320004         3.74238844E-05
   4.28520012         3.86480860E-05
   4.29720020         3.95260358E-05
   4.30919981         4.00452009E-05
   4.32119989         4.02059813E-05
   4.33319998         4.00219869E-05
   4.34520006         3.95198258E-05
   4.35720015         3.87384061E-05
   4.36920023         3.77277829E-05
   4.38119984         3.65475244E-05
   4.39319992         3.52646930E-05
   4.40520000         3.39514481E-05
   4.41720009         3.26824193E-05
   4.42920017         3.15318102E-05
   4.44119978         3.05704853E-05
   4.45319986         2.98630475E-05
   4.46519995         2.94649963E-05
   4.47720003         2.94201836E-05
   4.48920012         2.97585411E-05
   4.50120020         3.04942641E-05
   4.51319981         3.16244659E-05
   4.52519989         3.31284209E-05
   4.53719997         3.49673828E-05
   4.54920006         3.70850321E-05
   4.56120014         3.94085437E-05
   4.57320023         4.18502241E-05
   4.58519983         4.43097051E-05
   4.59719992         4.66765923E-05
   4.60920000         4.88335245E-05
   4.62120008         5.06594879E-05
   4.63320017         5.20333342E-05
   4.64519978         5.28373384E-05
   4.65719986         5.29607350E-05
   4.66919994         5.23030503E-05
   4.68120003         5.07771874E-05
   4.69320011         4.83121694E-05
   4.70520020         4.48553837E-05
   4.71719980         4.03743579E-05
   4.72919989         3.48579779E-05
   4.74119997         2.83171157E-05
   4.75320005         2.07846479E-05
   4.76520014         1.23149421E-05
   4.77720022         2.98275222E-06
   4.78919983        -7.11838948E-06
   4.80119991        -1.78782193E-05
   4.81320000        -2.91721881E-05
   4.82520008        -4.08642081E-05
   4.83720016        -5.28096571E-05
   4.84919977        -6.48584901E-05
   4.86119986        -7.68584650E-05
   4.87319994        -8.86583584E-05
   4.88520002        -1.00111021E-04
   4.89720011        -1.11076362E-04
   4.90920019        -1.21424098E-04
   4.92119980        -1.31036169E-04
   4.93319988        -1.39808879E-04
   4.94519997        -1.47654762E-04
   4.95720005        -1.54503854E-04
   4.96920013        -1.60304815E-04
   4.98120022        -1.65025398E-04
   4.99319983        -1.68652798E-04
   5.00519991        -1.71193242E-04
   5.01719999        -1.72671542E-04
   5.02920008        -1.73129956E-04
   5.04120016        -1.72626955E-04
   5.05319977        -1.71235442E-04
   5.06519985        -1.69040854E-04
   5.07719994        -1.66138852E-04
   5.08920002        -1.62632932E-04
   5.10120010        -1.58631738E-04
   5.11320019        -1.54246358E-04
   5.12519979        -1.49587577E-04
   5.13719988        -1.44763078E-04
   5.14919996        -1.39874755E-04
   5.16120005        -1.35016322E-04
   5.17320013        -1.30271001E-04
   5.18520021        -1.25709630E-04
   5.19719982        -1.21389123E-04
   5.20919991        -1.17351512E-04
   5.22119999        -1.13623246E-04
   5.23320007        -1.10215246E-04
   5.24520016        -1.07123422E-04
   5.25719976        -1.04329680E-04
   5.26919985        -1.01803511E-04
   5.28119993        -9.95040173E-05
   5.29320002        -9.73822753E-05
   5.30520010        -9.53841009E-05
   5.31720018        -9.34528580E-05
   5.32919979        -9.15324053E-05
   5.34119987        -8.95700214E-05
   5.35319996        -8.75190381E-05
   5.36520004        -8.53412275E-05
   5.37720013        -8.30087447E-05
   5.38920021        -8.05055679E-05
   5.40119982        -7.78283502E-05
   5.41319990        -7.49866667E-05
   5.42519999        -7.20026437E-05
   5.43720007        -6.89099470E-05
   5.44920015        -6.57522687E-05
   5.46120024        -6.25812318E-05
   5.47319984        -5.94539815E-05
   5.48519993        -5.64304610E-05
   5.49720001        -5.35705440E-05
   5.50920010        -5.09310958E-05
   5.52120018        -4.85631790E-05
   5.53319979        -4.65094854E-05
   5.54519987        -4.48021310E-05
   5.55719995        -4.34608482E-05
   5.56920004        -4.24917635E-05
   5.58120012        -4.18867385E-05
   5.59320021        -4.16232979E-05
   5.60519981        -4.16651928E-05
   5.61719990        -4.19635289E-05
   5.62919998        -4.24584687E-05
   5.64120007        -4.30813452E-05
   5.65320015        -4.37571798E-05
   5.66520023        -4.44074940E-05
   5.67719984        -4.49532308E-05
   5.68919992        -4.53177418E-05
   5.70120001        -4.54297078E-05
   5.71320009        -4.52258682E-05
   5.72520018        -4.46534286E-05
   5.73719978        -4.36721530E-05
   5.74919987        -4.22559569E-05
   5.76119995        -4.03940394E-05
   5.77320004        -3.80914425E-05
   5.78520012        -3.53690812E-05
   5.79720020        -3.22632368E-05
   5.80919981        -2.88245028E-05
   5.82119989        -2.51162637E-05
   5.83319998        -2.12127543E-05
   5.84520006        -1.71967204E-05
   5.85720015        -1.31568277E-05
   5.86920023        -9.18484056E-06
   5.88119984        -5.37269079E-06
   5.89319992        -1.80951588E-06
   5.90520000         1.42123429E-06
   5.91720009         4.24454583E-06
   5.92920017         6.59633952E-06
   5.94119978         8.42565896E-06
   5.95319986         9.69646226E-06
   5.96519995         1.03889579E-05
   5.97720003         1.05004438E-05
   5.98920012         1.00455973E-05
   6.00120020         9.05621619E-06
   6.01319981         7.58039232E-06
   6.02519989         5.68115138E-06
   6.03719997         3.43458737E-06
   6.04920006         9.27541521E-07
   6.06120014        -1.74508375E-06
   6.07320023        -4.48330047E-06
   6.08519983        -7.18519959E-06
   6.09719992        -9.75018247E-06
   6.10920000        -1.20821642E-05
   6.12120008        -1.40926113E-05
   6.13320017        -1.57033228E-05
   6.14519978        -1.68488423E-05
   6.15719986        -1.74784363E-05
   6.16919994        -1.75575351E-05
   6.18120003        -1.70686399E-05
   6.19320011        -1.60116324E-05
   6.20520020        -1.44035193E-05
   6.21719980        -1.22776128E-05
   6.22919989        -9.68221775E-06
   6.24119997        -6.67886070E-06
   6.25320005        -3.34015908E-06
   6.26520014         2.52596124E-07
   6.27720022         4.01205079E-06
   6.28919983         7.84750137E-06
   6.30119991         1.16676183E-05
   6.31320000         1.53831097E-05
   6.32520008         1.89092389E-05
   6.33720016         2.21681203E-05
   6.34919977         2.50907797E-05
   6.36119986         2.76188803E-05
   6.37319994         2.97061288E-05
   6.38520002         3.13193159E-05
   6.39720011         3.24389839E-05
   6.40920019         3.30597250E-05
   6.42119980         3.31900810E-05
   6.43319988         3.28521128E-05
   6.44519997         3.20805957E-05
   6.45720005         3.09218703E-05
   6.46920013         2.94323909E-05
   6.48120022         2.76770152E-05
   6.49319983         2.57270076E-05
   6.50519991         2.36578780E-05
   6.51719999         2.15470482E-05
   6.52920008         1.94714612E-05
   6.54120016         1.75051518E-05
   6.55319977         1.57169106E-05
   6.56519985         1.41680694E-05
   6.57719994         1.29105192E-05
   6.58920002         1.19850538E-05
   6.60120010         1.14200675E-05
   6.61320019         1.12306952E-05
   6.62519979         1.14184395E-05
   6.63719988         1.19712840E-05
   6.64919996         1.28643078E-05
   6.66120005         1.40607826E-05
   6.67320013         1.55136804E-05
   6.68520021         1.71675601E-05
   6.69719982         1.89606981E-05
   6.70919991         2.08274269E-05
   6.72119999         2.27005312E-05
   6.73320007         2.45136125E-05
   6.74520016         2.62033245E-05
   6.75719976         2.77113959E-05
   6.76919985         2.89863619E-05
   6.78119993         2.99849398E-05
   6.79320002         3.06730253E-05
   6.80520010         3.10262949E-05
   6.81720018         3.10304276E-05
   6.82919979         3.06809634E-05
   6.84119987         2.99828534E-05
   6.85319996         2.89497384E-05
   6.86520004         2.76030642E-05
   6.87720013         2.59710341E-05
   6.88920021         2.40875215E-05
   6.90119982         2.19909543E-05
   6.91319990         1.97232093E-05
   6.92519999         1.73285825E-05
   6.93720007         1.48528152E-05
   6.94920015         1.23421669E-05
   6.96120024         9.84258259E-06
   6.97319984         7.39889219E-06
   6.98519993         5.05405569E-06
   6.99720001         2.84843077E-06
   7.00920010         8.19068646E-07
   7.02120018        -1.00097748E-06
   7.03319979        -2.58331897E-06
   7.04519987        -3.90486230E-06
   7.05719995        -4.94838559E-06
   7.06920004        -5.70303200E-06
   7.08120012        -6.16469788E-06
   7.09320021        -6.33627042E-06
   7.10519981        -6.22769676E-06
   7.11719990        -5.85584758E-06
   7.12919998        -5.24415782E-06
   7.14120007        -4.42203418E-06
   7.15320015        -3.42402973E-06
   7.16520023        -2.28879981E-06
   7.17719984        -1.05787615E-06
   7.18919992         2.25706103E-07
   7.20120001         1.51886741E-06
   7.21320009         2.77997037E-06
   7.22520018         3.97026497E-06
   7.23719978         5.05522439E-06
   7.24919987         6.00571047E-06
   7.26119995         6.79890991E-06
   7.27320004         7.41899612E-06
   7.28520012         7.85748671E-06
   7.29720020         8.11327754E-06
   7.30919981         8.19235629E-06
   7.32119989         8.10720940E-06
   7.33319998         7.87596127E-06
   7.34520006         7.52128926E-06
   7.35720015         7.06917581E-06
   7.36920023         6.54756059E-06
   7.38119984         5.98496536E-06
   7.39319992         5.40916153E-06
   7.40520000         4.84594329E-06
   7.41720009         4.31805802E-06
   7.42920017         3.84434497E-06
   7.44119978         3.43910983E-06
   7.45319986         3.11174654E-06
   7.46519995         2.86661748E-06
   7.47720003         2.70316923E-06
   7.48920012         2.61626633E-06
   7.50120020         2.59670742E-06
   7.51319981         2.63188349E-06
   7.52519989         2.70652936E-06
   7.53719997         2.80353129E-06
   7.54920006         2.90474122E-06
   7.56120014         2.99176804E-06
   7.57320023         3.04671676E-06
   7.58519983         3.05285539E-06
   7.59719992         2.99520025E-06
   7.60920000         2.86101567E-06
   7.62120008         2.64023060E-06
   7.63320017         2.32577190E-06
   7.64519978         1.91382628E-06
   7.65719986         1.40402824E-06
   7.66919994         7.99574195E-07
   7.68120003         1.07260604E-07
   7.69320011        -6.62560410E-07
   7.70520020        -1.49611708E-06
   7.71719980        -2.37646077E-06
   7.72919989        -3.28381680E-06
   7.74119997        -4.19606204E-06
   7.75320005        -5.08932089E-06
   7.76520014        -5.93868435E-06
   7.77720022        -6.71903490E-06
   7.78919983        -7.40595442E-06
   7.80119991        -7.97668963E-06
   7.81320000        -8.41112251E-06
   7.82520008        -8.69271389E-06
   7.83720016        -8.80935659E-06
   7.84919977        -8.75409023E-06
   7.86119986        -8.52563335E-06
   7.87319994        -8.12868984E-06
   7.88520002        -7.57400358E-06
   7.89720011        -6.87814236E-06
   7.90920019        -6.06302228E-06
   7.92119980        -5.15518195E-06
   7.93319988        -4.18483751E-06
   7.94519997        -3.18477214E-06
   7.95720005        -2.18910759E-06
   7.96920013        -1.23202267E-06
   7.98120022        -3.46483574E-07
   7.99319983         4.36956299E-07
   8.00520039         1.09122402E-06
   8.01720047         1.59362219E-06
   8.02919960         1.92651009E-06
   8.04119968         2.07775452E-06
   8.05319977         2.04093885E-06
   8.06519985         1.81534426E-06
   8.07719994         1.40571342E-06
   8.08920002         8.21834647E-07
   8.10120010         7.79777878E-08
   8.11320019        -8.07774086E-07
   8.12520027        -1.81425503E-06
   8.13720036        -2.91797096E-06
   8.14920044        -4.09383938E-06
   8.16119957        -5.31588694E-06
   8.17319965        -6.55788290E-06
   8.18519974        -7.79389848E-06
   8.19719982        -8.99878341E-06
   8.20919991        -1.01485739E-05
   8.22119999        -1.12208290E-05
   8.23320007        -1.21949261E-05
   8.24520016        -1.30523113E-05
   8.25720024        -1.37767429E-05
   8.26920033        -1.43545176E-05
   8.28120041        -1.47747051E-05
   8.29319954        -1.50293799E-05
   8.30519962        -1.51138483E-05
   8.31719971        -1.50268688E-05
   8.32919979        -1.47708370E-05
   8.34119987        -1.43519283E-05
   8.35319996        -1.37801717E-05
   8.36520004        -1.30694398E-05
   8.37720013        -1.22373203E-05
   8.38920021        -1.13048791E-05
   8.40120029        -1.02962758E-05
   8.41320038        -9.23825064E-06
   8.42520046        -8.15946805E-06
   8.43719959        -7.08974585E-06
   8.44919968        -6.05917512E-06
   8.46119976        -5.09717438E-06
   8.47319984        -4.23150550E-06
   8.48519993        -3.48729259E-06
   8.49720001        -2.88609431E-06
   8.50920010        -2.44505532E-06
   8.52120018        -2.17619322E-06
   8.53320026        -2.08584447E-06
   8.54520035        -2.17430670E-06
   8.55720043        -2.43569139E-06
   8.56919956        -2.85801002E-06
   8.58119965        -3.42349108E-06
   8.59319973        -4.10913117E-06
   8.60519981        -4.88746309E-06
   8.61719990        -5.72751878E-06
   8.62919998        -6.59595889E-06
   8.64120007        -7.45832267E-06
   8.65320015        -8.28035991E-06
   8.66520023        -9.02938518E-06
   8.67720032        -9.67560754E-06
   8.68920040        -1.01933783E-05
   8.70119953        -1.05622903E-05
   8.71319962        -1.07681062E-05
   8.72519970        -1.08034383E-05
   8.73719978        -1.06681691E-05
   8.74919987        -1.03695720E-05
   8.76119995        -9.92211153E-06
   8.77320004        -9.34694253E-06
   8.78520012        -8.67110066E-06
   8.79720020        -7.92642641E-06
   8.80920029        -7.14826820E-06
   8.82120037        -6.37401627E-06
   8.83320045        -5.64154152E-06
   8.84519958        -4.98761710E-06
   8.85719967        -4.44639272E-06
   8.86919975        -4.04800221E-06
   8.88119984        -3.81736209E-06
   8.89319992        -3.77322431E-06
   8.90520000        -3.92751554E-06
   8.91720009        -4.28499197E-06
   8.92920017        -4.84321117E-06
   8.94120026        -5.59280988E-06
   8.95320034        -6.51807204E-06
   8.96520042        -7.59772820E-06
   8.97719955        -8.80594962E-06
   8.98919964        -1.01134692E-05
   9.00119972        -1.14887625E-05
   9.01319981        -1.28992324E-05
   9.02519989        -1.43123334E-05
   9.03719997        -1.56965834E-05
   9.04920006        -1.70224412E-05
   9.06120014        -1.82629974E-05
   9.07320023        -1.93944979E-05
   9.08520031        -2.03966993E-05