 -0.622799993         1.00000002E-24
 -0.610800028         1.00000002E-24
 -0.598800004         1.00000002E-24
 -0.586799979         1.00000002E-24
 -0.574800014         1.00000002E-24
 -0.562799990         1.00000002E-24
 -0.550800025         1.00000002E-24
 -0.538800001         1.00000002E-24
 -0.526799977         1.00000002E-24
 -0.514800012         1.00000012E-24
 -0.502799988         1.00000022E-24
 -0.490799993         1.00000032E-24
 -0.478799999         1.00000041E-24
 -0.466800004         1.00000041E-24
 -0.454800010         1.00000041E-24
 -0.442799985         1.00000041E-24
 -0.430799991         1.00000041E-24
 -0.418799996         1.00000032E-24
 -0.406800002         1.00000022E-24
 -0.394800007         9.99999921E-25
 -0.382800013         9.99999231E-25
 -0.370799989         9.99997850E-25
 -0.358799994         9.99995582E-25
 -0.346799999         9.99992032E-25
 -0.334800005         9.99987201E-25
 -0.322800010         9.99979411E-25
 -0.310799986         9.99960083E-25
 -0.298799992         9.99903384E-25
 -0.286799997         9.99756064E-25
 -0.274800003         9.99441309E-25
 -0.262800008         9.98914153E-25
 -0.250800014         9.98321324E-25
 -0.238800004         9.98307025E-25
 -0.226799995         1.00042492E-24
 -0.214800000         1.00742803E-24
 -0.202800006         1.02291574E-24
 -0.190799996         1.04952914E-24
 -0.178800002         1.08488993E-24
 -0.166800007         1.11517115E-24
 -0.154799998         1.10799301E-24
 -0.142800003         1.00929813E-24
 -0.130799994         7.52169505E-25
 -0.118799999         2.87187795E-25
 -0.106799997        -3.59392604E-25
  -9.48000029E-02    -1.00506707E-24
  -8.28000009E-02    -1.23515078E-24
  -7.07999989E-02    -3.86572264E-25
  -5.88000007E-02     2.33046709E-24
  -4.67999987E-02     7.49649864E-24
  -3.48000005E-02     1.49063314E-23
  -2.28000004E-02     2.28423984E-23
  -1.08000003E-02     2.74650539E-23
   1.20000006E-03     2.27786505E-23
   1.31999999E-02     1.74416042E-24
   2.52000000E-02    -4.09913552E-23
   3.72000001E-02    -1.04719228E-22
   4.91999984E-02    -1.77453731E-22
   6.12000003E-02    -2.31801741E-22
   7.32000023E-02    -2.24902023E-22
   8.51999968E-02    -1.05841203E-22
   9.71999988E-02     1.66961111E-22
  0.109200001         5.98718265E-22
  0.121200003         1.12669027E-21
  0.133200005         1.59505827E-21
  0.145199999         1.75241101E-21
  0.157199994         1.28947582E-21
  0.169200003        -7.06081376E-23
  0.181199998        -2.43151579E-21
  0.193200007        -5.55753008E-21
  0.205200002        -8.73437538E-21
  0.217199996        -1.07324964E-20
  0.229200006        -9.95425676E-21
  0.241200000        -4.82299450E-21
  0.253199995         5.58945690E-21
  0.265199989         2.07966632E-20
  0.277200013         3.82062220E-20
  0.289200008         5.28117372E-20
  0.301200002         5.76063119E-20
  0.313199997         4.49727113E-20
  0.325199991         9.08036063E-21
  0.337199986        -5.10360324E-20
  0.349200010        -1.28462325E-19
  0.361200005        -2.06563775E-19
  0.373199999        -2.59567725E-19
  0.385199994        -2.56584162E-19
  0.397199988        -1.69367182E-19
  0.409200013         1.70295970E-20
  0.421200007         2.92936062E-19
  0.433200002         6.15553949E-19
  0.445199996         9.07310736E-19
  0.457199991         1.06461609E-18
  0.469199985         9.78631075E-19
  0.481200010         5.66429088E-19
  0.493200004        -1.93051108E-19
  0.505200028        -1.22753768E-18
  0.517199993        -2.35578722E-18
  0.529200017        -3.29833575E-18
  0.541199982        -3.72084203E-18
  0.553200006        -3.30849725E-18
  0.565199971        -1.86026571E-18
  0.577199996         6.17573097E-19
  0.589200020         3.84500018E-18
  0.601199985         7.25513829E-18
  0.613200009         1.00527913E-17
  0.625199974         1.13480735E-17
  0.637199998         1.03493472E-17
  0.649200022         6.58087152E-18
  0.661199987         7.75145718E-20
  0.673200011        -8.49384456E-18
  0.685199976        -1.78271070E-17
  0.697200000        -2.61044470E-17
  0.709200025        -3.12526901E-17
  0.721199989        -3.12971296E-17
  0.733200014        -2.47626806E-17
  0.745199978        -1.10644514E-17
  0.757200003         9.16882146E-18
  0.769200027         3.38884250E-17
  0.781199992         5.95821967E-17
  0.793200016         8.14413907E-17
  0.805199981         9.37912369E-17
  0.817200005         9.08371368E-17
  0.829200029         6.77534839E-17
  0.841199994         2.20739450E-17
  0.853200018        -4.47741252E-17
  0.865199983        -1.26102679E-16
  0.877200007        -2.09224298E-16
  0.889199972        -2.75885222E-16
  0.901199996        -3.04354052E-16
  0.913200021        -2.73391186E-16
  0.925199986        -1.67854732E-16
  0.937200010         1.49199907E-17
  0.949199975         2.59456541E-16
  0.961199999         5.29102095E-16
  0.973200023         7.67537370E-16
  0.985199988         9.06156482E-16
  0.997200012         8.77425072E-16
   1.00919998         6.32629479E-16
   1.02119994         1.60623361E-16
   1.03320003        -4.97233751E-16
   1.04519999        -1.24121000E-15
   1.05719995        -1.92075097E-15
   1.06920004        -2.35735368E-15
   1.08120000        -2.38100877E-15
   1.09319997        -1.87428655E-15
   1.10520005        -8.14537216E-16
   1.11720002         6.97185143E-16
   1.12919998         2.43105825E-15
   1.14119995         4.05397804E-15
   1.15320003         5.18572501E-15
   1.16520000         5.47797468E-15
   1.17719996         4.70083465E-15
   1.18920004         2.81678498E-15
   1.20120001         2.15619053E-17
   1.21319997        -3.26344663E-15
   1.22520006        -6.45276984E-15
   1.23720002        -8.90490396E-15
   1.24919999        -1.00564580E-14
   1.26119995        -9.55266817E-15
   1.27320004        -7.34191387E-15
   1.28520000        -3.70739714E-15
   1.29719996         7.77317795E-16
   1.30920005         5.36368240E-15
   1.32120001         9.28997361E-15
   1.33319998         1.19504829E-14
   1.34519994         1.30277318E-14
   1.35720003         1.25498866E-14
   1.36919999         1.08534245E-14
   1.38119996         8.45650674E-15
   1.39320004         5.87511412E-15
   1.40520000         3.43415808E-15
   1.41719997         1.13312722E-15
   1.42920005        -1.38341931E-15
   1.44120002        -4.72523936E-15
   1.45319998        -9.53595282E-15
   1.46519995        -1.62002691E-14
   1.47720003        -2.45549600E-14
   1.48920000        -3.36906474E-14
   1.50119996        -4.19199079E-14
   1.51320004        -4.69540144E-14
   1.52520001        -4.62824969E-14
   1.53719997        -3.76984380E-14
   1.54920006        -1.98704917E-14
   1.56120002         7.15809248E-15
   1.57319999         4.16569380E-14
   1.58519995         8.01638825E-14
   1.59720004         1.17738948E-13
   1.60920000         1.48491977E-13
   1.62119997         1.66310975E-13
   1.63320005         1.65690446E-13
   1.64520001         1.42552962E-13
   1.65719998         9.49734811E-14
   1.66919994         2.37407157E-14
   1.68120003        -6.72861086E-14
   1.69319999        -1.71055959E-13
   1.70519996        -2.77476555E-13
   1.71720004        -3.73889179E-13
   1.72920001        -4.45933004E-13
   1.74119997        -4.78855670E-13
   1.75320005        -4.59278991E-13
   1.76520002        -3.77337457E-13
   1.77719998        -2.28981710E-13
   1.78919995        -1.81033048E-14
   1.80120003         2.41965302E-13
   1.81320000         5.28051127E-13
   1.82519996         8.08238296E-13
   1.83720005         1.04466067E-12
   1.84920001         1.19788923E-12
   1.86119998         1.23246411E-12
   1.87320006         1.12279977E-12
   1.88520002         8.58477243E-13
   1.89719999         4.47903975E-13
   1.90919995        -8.04971866E-14
   1.92120004        -6.80027757E-13
   1.93320000        -1.29031649E-12
   1.94519997        -1.84417303E-12
   1.95720005        -2.27562500E-12
   1.96920002        -2.52782192E-12
   1.98119998        -2.55953353E-12
   1.99319994        -2.34927702E-12
   2.00519991        -1.89666230E-12
   2.01719999        -1.22115913E-12
   2.02920008        -3.59067783E-13
   2.04119992         6.40209186E-13
   2.05320001         1.71746460E-12
   2.06520009         2.80577189E-12
   2.07719994         3.83117713E-12
   2.08920002         4.71253548E-12
   2.10120010         5.36166207E-12
   2.11319995         5.68530422E-12
   2.12520003         5.59034156E-12
   2.13720012         4.99303637E-12
   2.14919996         3.83219628E-12
   2.16120005         2.08492208E-12
   2.17319989        -2.17466832E-13
   2.18519998        -2.97649275E-12
   2.19720006        -6.01987947E-12
   2.20919991        -9.10399620E-12
   2.22119999        -1.19269880E-11
   2.23320007        -1.41525498E-11
   2.24519992        -1.54425327E-11
   2.25720000        -1.54949647E-11
   2.26920009        -1.40830264E-11
   2.28119993        -1.10901141E-11
   2.29320002        -6.53659852E-12
   2.30520010        -5.94907749E-13
   2.31719995         6.40893675E-12
   2.32920003         1.40076631E-11
   2.34120011         2.16179036E-11
   2.35319996         2.85761623E-11
   2.36520004         3.41831112E-11
   2.37719989         3.77536613E-11
   2.38919997         3.86704280E-11
   2.40120006         3.64383003E-11
   2.41319990         3.07378463E-11
   2.42519999         2.14748167E-11
   2.43720007         8.82237252E-12
   2.44919991        -6.74809210E-12
   2.46120000        -2.44522146E-11
   2.47320008        -4.31989340E-11
   2.48519993        -6.16219714E-11
   2.49720001        -7.81395573E-11
   2.50920010        -9.10431244E-11
   2.52119994        -9.86132703E-11
   2.53320003        -9.92583377E-11
   2.54520011        -9.16682008E-11
   2.55719995        -7.49734719E-11
   2.56920004        -4.88985206E-11
   2.58119988        -1.38952964E-11
   2.59319997         2.87557235E-11
   2.60520005         7.68914585E-11
   2.61719990         1.27472574E-10
   2.62919998         1.76662865E-10
   2.64120007         2.19991456E-10
   2.65319991         2.52604521E-10
   2.66520000         2.69606060E-10
   2.67720008         2.66479588E-10
   2.68919992         2.39571696E-10
   2.70120001         1.86606411E-10
   2.71320009         1.07186787E-10
   2.72519994         3.23009436E-12
   2.73720002        -1.20724805E-10
   2.74920011        -2.57399352E-10
   2.76119995        -3.96902039E-10
   2.77320004        -5.27140553E-10
   2.78520012        -6.34536534E-10
   2.79719996        -7.05030367E-10
   2.80920005        -7.25329297E-10
   2.82119989        -6.84317436E-10
   2.83319998        -5.74513992E-10
   2.84520006        -3.93443444E-10
   2.85719991        -1.44766213E-10
   2.86919999         1.60979508E-10
   2.88120008         5.06160447E-10
   2.89319992         8.66460292E-10
   2.90520000         1.21198263E-09
   2.91720009         1.50905177E-09
   2.92919993         1.72265679E-09
   2.94120002         1.81941706E-09
   2.95320010         1.77088555E-09
   2.96519995         1.55694557E-09
   2.97720003         1.16901322E-09
   2.98920012         6.12728757E-10
   3.00119996        -9.01883915E-11
   3.01320004        -9.01219377E-10
   3.02519989        -1.76571069E-09
   3.03719997        -2.61508881E-09
   3.04920006        -3.37067396E-09
   3.06119990        -3.94900690E-09
   3.07319999        -4.26844249E-09
   3.08520007        -4.25661728E-09
   3.09719992        -3.85824039E-09
   3.10920000        -3.04255998E-09
   3.12120008        -1.80977211E-09
   3.13319993        -1.95650912E-10
   3.14520001         1.72627612E-09
   3.15720010         3.84553767E-09
   3.16919994         6.01884720E-09
   3.18120003         8.07762479E-09
   3.19320011         9.83869608E-09
   3.20519996         1.11176472E-08
   3.21720004         1.17440226E-08
   3.22919989         1.15773240E-08
   3.24119997         1.05225899E-08
   3.25320005         8.54423199E-09
   3.26519990         5.67689407E-09
   3.27719998         2.03215378E-09
   3.28920007        -2.19979657E-09
   3.30119991        -6.75407819E-09
   3.31320000        -1.13008181E-08
   3.32520008        -1.54603619E-08
   3.33719993        -1.88233233E-08
   3.34920001        -2.09744027E-08
   3.36120009        -2.15186393E-08
   3.37319994        -2.01085122E-08
   3.38520002        -1.64703859E-08
   3.39720011        -1.04287015E-08
   3.40919995        -1.92674232E-09
   3.42120004         8.95697028E-09
   3.43319988         2.19970921E-08
   3.44519997         3.68146580E-08
   3.45720005         5.28745367E-08
   3.46919990         6.94862337E-08
   3.48119998         8.58068177E-08
   3.49320006         1.00844531E-07
   3.50519991         1.13461802E-07
   3.51719999         1.22376477E-07
   3.52920008         1.26160444E-07
   3.54119992         1.23235552E-07
   3.55320001         1.11867180E-07
   3.56520009         9.01564832E-08
   3.57719994         5.60329809E-08
   3.58920002         7.24990779E-09
   3.60120010        -5.86152495E-08
   3.61319995        -1.44152253E-07
   3.62520003        -2.52098914E-07
   3.63720012        -3.85308994E-07
   3.64919996        -5.46705735E-07
   3.66120005        -7.39220184E-07
   3.67319989        -9.65714435E-07
   3.68519998        -1.22889196E-06
   3.69720006        -1.53119606E-06
   3.70919991        -1.87470221E-06
   3.72119999        -2.26100860E-06
   3.73320007        -2.69112957E-06
   3.74519992        -3.16539786E-06
   3.75720000        -3.68338419E-06
   3.76920009        -4.24383552E-06
   3.78119993        -4.84463953E-06
   3.79320002        -5.48282105E-06
   3.80520010        -6.15456702E-06
   3.81719995        -6.85528630E-06
   3.82920003        -7.57970065E-06
   3.84120011        -8.32196474E-06
   3.85319996        -9.07580852E-06
   3.86520004        -9.83469818E-06
   3.87719989        -1.05920135E-05
   3.88919997        -1.13412234E-05
   3.90120006        -1.20760551E-05
   3.91319990        -1.27906651E-05
   3.92519999        -1.34797765E-05
   3.93720007        -1.41388064E-05
   3.94919991        -1.47639521E-05
   3.96120000        -1.53522651E-05
   3.97320008        -1.59016654E-05
   3.98519993        -1.64109697E-05
   3.99720001        -1.68798342E-05
   4.00920010        -1.73087228E-05
   4.02120018        -1.76988251E-05
   4.03319979        -1.80519601E-05
   4.04519987        -1.83704851E-05
   4.05719995        -1.86571669E-05
   4.06920004        -1.89150869E-05
   4.08120012        -1.91475192E-05
   4.09320021        -1.93578217E-05
   4.10519981        -1.95493412E-05
   4.11719990        -1.97253266E-05
   4.12919998        -1.98888447E-05
   4.14120007        -2.00427166E-05
   4.15320015        -2.01894691E-05
   4.16520023        -2.03312939E-05
   4.17719984        -2.04700209E-05
   4.18919992        -2.06071127E-05
   4.20120001        -2.07436588E-05
   4.21320009        -2.08804031E-05
   4.22520018        -2.10177604E-05
   4.23719978        -2.11558672E-05
   4.24919987        -2.12946252E-05
   4.26119995        -2.14337579E-05
   4.27320004        -2.15728833E-05
   4.28520012        -2.17115758E-05
   4.29720020        -2.18494315E-05
   4.30919981        -2.19861322E-05
   4.32119989        -2.21214996E-05
   4.33319998        -2.22555300E-05
   4.34520006        -2.23884254E-05
   4.35720015        -2.25205968E-05
   4.36920023        -2.26526481E-05
   4.38119984        -2.27853470E-05
   4.39319992        -2.29195739E-05
   4.40520000        -2.30562382E-05
   4.41720009        -2.31962167E-05
   4.42920017        -2.33402498E-05
   4.44119978        -2.34888648E-05
   4.45319986        -2.36422929E-05
   4.46519995        -2.38003995E-05
   4.47720003        -2.39626406E-05
   4.48920012        -2.41280559E-05
   4.50120020        -2.42952647E-05
   4.51319981        -2.44625371E-05
   4.52519989        -2.46278523E-05
   4.53719997        -2.47890221E-05
   4.54920006        -2.49438235E-05
   4.56120014        -2.50901503E-05
   4.57320023        -2.52261743E-05
   4.58519983        -2.53504913E-05
   4.59719992        -2.54622737E-05
   4.60920000        -2.55613704E-05
   4.62120008        -2.56484018E-05
   4.63320017        -2.57247848E-05
   4.64519978        -2.57927240E-05
   4.65719986        -2.58551700E-05
   4.66919994        -2.59157005E-05
   4.68120003        -2.59783919E-05
   4.69320011        -2.60476390E-05
   4.70520020        -2.61279820E-05
   4.71719980        -2.62238991E-05
   4.72919989        -2.63396123E-05
   4.74119997        -2.64789323E-05
   4.75320005        -2.66451061E-05
   4.76520014        -2.68407111E-05
   4.77720022        -2.70675991E-05
   4.78919983        -2.73268706E-05
   4.80119991        -2.76189094E-05
   4.81320000        -2.79434371E-05
   4.82520008        -2.82996079E-05
   4.83720016        -2.86861214E-05
   4.84919977        -2.91013494E-05
   4.86119986        -2.95434493E-05
   4.87319994        -3.00104875E-05
   4.88520002        -3.05005287E-05
   4.89720011        -3.10116993E-05
   4.90920019        -3.15422440E-05
   4.92119980        -3.20905237E-05
   4.93319988        -3.26550253E-05
   4.94519997        -3.32343225E-05
   4.95720005        -3.38270111E-05
   4.96920013        -3.44316941E-05
   4.98120022        -3.50469018E-05
   4.99319983        -3.56710661E-05
   5.00519991        -3.63024919E-05
   5.01719999        -3.69393456E-05
   5.02920008        -3.75796917E-05
   5.04120016        -3.82214894E-05
   5.05319977        -3.88626795E-05
   5.06519985        -3.95012285E-05
   5.07719994        -4.01352045E-05
   5.08920002        -4.07628577E-05
   5.10120010        -4.13826638E-05
   5.11320019        -4.19933895E-05
   5.12519979        -4.25941034E-05
   5.13719988        -4.31842054E-05
   5.14919996        -4.37633898E-05
   5.16120005        -4.43316057E-05
   5.17320013        -4.48890096E-05
   5.18520021        -4.54358815E-05
   5.19719982        -4.59725488E-05
   5.20919991        -4.64993172E-05
   5.22119999        -4.70164050E-05
   5.23320007        -4.75238994E-05
   5.24520016        -4.80217350E-05
   5.25719976        -4.85097116E-05
   5.26919985        -4.89875383E-05
   5.28119993        -4.94549058E-05
   5.29320002        -4.99115740E-05
   5.30520010        -5.03574956E-05
   5.31720018        -5.07929290E-05
   5.32919979        -5.12185652E-05
   5.34119987        -5.16356049E-05
   5.35319996        -5.20458489E-05
   5.36520004        -5.24517236E-05
   5.37720013        -5.28562450E-05
   5.38920021        -5.32629674E-05
   5.40119982        -5.36758307E-05
   5.41319990        -5.40989968E-05
   5.42519999        -5.45366092E-05
   5.43720007        -5.49925317E-05
   5.44920015        -5.54700382E-05
   5.46120024        -5.59715372E-05
   5.47319984        -5.64982729E-05
   5.48519993        -5.70500524E-05
   5.49720001        -5.76250604E-05
   5.50920010        -5.82196844E-05
   5.52120018        -5.88284602E-05
   5.53319979        -5.94440789E-05
   5.54519987        -6.00574931E-05
   5.55719995        -6.06581161E-05
   5.56920004        -6.12341464E-05
   5.58120012        -6.17729092E-05
   5.59320021        -6.22613079E-05
   5.60519981        -6.26863330E-05
   5.61719990        -6.30356299E-05
   5.62919998        -6.32980446E-05
   5.64120007        -6.34641838E-05
   5.65320015        -6.35269389E-05
   5.66520023        -6.34820026E-05
   5.67719984        -6.33282834E-05
   5.68919992        -6.30682043E-05
   5.70120001        -6.27079862E-05
   5.71320009        -6.22577427E-05
   5.72520018        -6.17314945E-05
   5.73719978        -6.11470387E-05
   5.74919987        -6.05256791E-05
   5.76119995        -5.98918778E-05
   5.77320004        -5.92727192E-05
   5.78520012        -5.86973511E-05
   5.79720020        -5.81962413E-05
   5.80919981        -5.78004110E-05
   5.82119989        -5.75406011E-05
   5.83319998        -5.74463702E-05
   5.84520006        -5.75452032E-05
   5.85720015        -5.78615982E-05
   5.86920023        -5.84162044E-05
   5.88119984        -5.92249780E-05
   5.89319992        -6.02984292E-05
   5.90520000        -6.16409816E-05
   5.91720009        -6.32503943E-05
   5.92920017        -6.51173250E-05
   5.94119978        -6.72250681E-05
   5.95319986        -6.95493800E-05
   5.96519995        -7.20585231E-05
   5.97720003        -7.47133890E-05
   5.98920012        -7.74678119E-05
   6.00120020        -8.02689974E-05
   6.01319981        -8.30580902E-05
   6.02519989        -8.57707928E-05
   6.03719997        -8.83381581E-05
   6.04920006        -9.06873902E-05
   6.06120014        -9.27426663E-05
   6.07320023        -9.44260319E-05
   6.08519983        -9.56582880E-05
   6.09719992        -9.63598723E-05
   6.10920000        -9.64517167E-05
   6.12120008        -9.58560850E-05
   6.13320017        -9.44973654E-05
   6.14519978        -9.23029074E-05
   6.15719986        -8.92037569E-05
   6.16919994        -8.51354343E-05
   6.18120003        -8.00387061E-05
   6.19320011        -7.38603412E-05
   6.20520020        -6.65539483E-05
   6.21719980        -5.80807573E-05
   6.22919989        -4.84105149E-05
   6.24119997        -3.75223281E-05
   6.25320005        -2.54055813E-05
   6.26520014        -1.20608356E-05
   6.27720022         2.49930326E-06
   6.28919983         1.82493422E-05
   6.30119991         3.51501330E-05
   6.31320000         5.31482219E-05
   6.32520008         7.21753313E-05
   6.33720016         9.21480023E-05
   6.34919977         1.12967486E-04
   6.36119986         1.34519840E-04
   6.37319994         1.56676280E-04
   6.38520002         1.79293856E-04
   6.39720011         2.02216339E-04
   6.40920019         2.25275478E-04
   6.42119980         2.48292519E-04
   6.43319988         2.71079945E-04
   6.44519997         2.93443532E-04
   6.45720005         3.15184618E-04
   6.46920013         3.36102443E-04
   6.48120022         3.55996832E-04
   6.49319983         3.74670635E-04
   6.50519991         3.91932728E-04
   6.51719999         4.07600310E-04
   6.52920008         4.21501813E-04
   6.54120016         4.33479319E-04
   6.55319977         4.43390774E-04
   6.56519985         4.51112253E-04
   6.57719994         4.56539856E-04
   6.58920002         4.59591363E-04
   6.60120010         4.60207608E-04
   6.61320019         4.58353403E-04
   6.62519979         4.54018533E-04
   6.63719988         4.47217957E-04
   6.64919996         4.37992043E-04
   6.66120005         4.26406361E-04
   6.67320013         4.12550929E-04
   6.68520021         3.96539806E-04
   6.69719982         3.78509547E-04
   6.70919991         3.58618097E-04
   6.72119999         3.37042962E-04
   6.73320007         3.13979341E-04
   6.74520016         2.89637916E-04
   6.75719976         2.64242524E-04
   6.76919985         2.38027511E-04
   6.78119993         2.11234947E-04
   6.79320002         1.84111705E-04
   6.80520010         1.56906433E-04
   6.81720018         1.29866312E-04
   6.82919979         1.03233848E-04
   6.84119987         7.72437197E-05
   6.85319996         5.21195325E-05
   6.86520004         2.80707791E-05
   6.87720013         5.28994315E-06
   6.88920021        -1.60501531E-05
   6.90119982        -3.57987337E-05
   6.91319990        -5.38290187E-05
   6.92519999        -7.00398305E-05
   6.93720007        -8.43567177E-05
   6.94920015        -9.67325323E-05
   6.96120024        -1.07147556E-04
   6.97319984        -1.15608971E-04
   6.98519993        -1.22149984E-04
   6.99720001        -1.26828221E-04
   7.00920010        -1.29723892E-04
   7.02120018        -1.30937304E-04
   7.03319979        -1.30586239E-04
   7.04519987        -1.28802960E-04
   7.05719995        -1.25731109E-04
   7.06920004        -1.21522455E-04
   7.08120012        -1.16333773E-04
   7.09320021        -1.10323708E-04
   7.10519981        -1.03649916E-04
   7.11719990        -9.64664214E-05
   7.12919998        -8.89212824E-05
   7.14120007        -8.11545833E-05
   7.15320015        -7.32968911E-05
   7.16520023        -6.54679243E-05
   7.17719984        -5.77757528E-05
   7.18919992        -5.03162810E-05
   7.20120001        -4.31730223E-05
   7.21320009        -3.64171829E-05
   7.22520018        -3.01079381E-05
   7.23719978        -2.42929182E-05
   7.24919987        -1.90087776E-05
   7.26119995        -1.42818835E-05
   7.27320004        -1.01290261E-05
   7.28520012        -6.55815666E-06
   7.29720020        -3.56912165E-06
   7.30919981        -1.15436660E-06
   7.32119989         7.00364581E-07
   7.33319998         2.01538023E-06
   7.34520006         2.81639586E-06
   7.35720015         3.13390842E-06
   7.36920023         3.00258125E-06
   7.38119984         2.46061518E-06
   7.39319992         1.54911709E-06
   7.40520000         3.11434491E-07
   7.41720009        -1.20752395E-06
   7.42920017        -2.96199232E-06
   7.44119978        -4.90607181E-06
   7.45319986        -6.99445536E-06
   7.46519995        -9.18314436E-06
   7.47720003        -1.14301411E-05
   7.48920012        -1.36960844E-05
   7.50120020        -1.59448282E-05
   7.51319981        -1.81439227E-05
   7.52519989        -2.02649899E-05
   7.53719997        -2.22839753E-05
   7.54920006        -2.41812522E-05
   7.56120014        -2.59415901E-05
   7.57320023        -2.75539496E-05
   7.58519983        -2.90111439E-05
   7.59719992        -3.03093548E-05
   7.60920000        -3.14475110E-05
   7.62120008        -3.24265820E-05
   7.63320017        -3.32487834E-05
   7.64519978        -3.39167855E-05
   7.65719986        -3.44328837E-05
   7.66919994        -3.47982568E-05
   7.68120003        -3.50122973E-05
   7.69320011        -3.50721020E-05
   7.70520020        -3.49720976E-05
   7.71719980        -3.47038949E-05
   7.72919989        -3.42563217E-05
   7.74119997        -3.36157027E-05
   7.75320005        -3.27663511E-05
   7.76520014        -3.16912156E-05
   7.77720022        -3.03727829E-05
   7.78919983        -2.87940329E-05
   7.80119991        -2.69395223E-05
   7.81320000        -2.47965036E-05
   7.82520008        -2.23560164E-05
   7.83720016        -1.96139154E-05
   7.84919977        -1.65717847E-05
   7.86119986        -1.32376754E-05
   7.87319994        -9.62664762E-06
   7.88520002        -5.76107277E-06
   7.89720011        -1.67069516E-06
   7.90920019         2.60756701E-06
   7.92119980         7.03007527E-06
   7.93319988         1.15471585E-05
   7.94519997         1.61040170E-05
   7.95720005         2.06418135E-05
   7.96920013         2.50989033E-05
   7.98120022         2.94121674E-05
   7.99319983         3.35184159E-05
   8.00520039         3.73558178E-05
   8.01720047         4.08652813E-05
   8.02919960         4.39918076E-05
   8.04119968         4.66857346E-05
   8.05319977         4.89038248E-05
   8.06519985         5.06102806E-05
   8.07719994         5.17774788E-05
   8.08920002         5.23866329E-05
   8.10120010         5.24281568E-05
   8.11320019         5.19018904E-05
   8.12520027         5.08171288E-05
   8.13720036         4.91924147E-05
   8.14920044         4.70552004E-05
   8.16119957         4.44413054E-05
   8.17319965         4.13942544E-05
   8.18519974         3.79644334E-05
   8.19719982         3.42081621E-05
   8.20919991         3.01866712E-05
   8.22119999         2.59649751E-05
   8.23320007         2.16107255E-05
   8.24520016         1.71930078E-05
   8.25720024         1.27811472E-05
   8.26920033         8.44353326E-06
   8.28120041         4.24645987E-06
   8.29319954         2.53039445E-07
   8.30519962        -3.47782452E-06
   8.31719971        -6.89237186E-06
   8.32919979        -9.94282345E-06
   8.34119987        -1.25881070E-05
   8.35319996        -1.47944647E-05
   8.36520004        -1.65359088E-05
   8.37720013        -1.77945640E-05
   8.38920021        -1.85608369E-05
   8.40120029        -1.88334598E-05
   8.41320038        -1.86193793E-05
   8.42520046        -1.79334966E-05
   8.43719959        -1.67982944E-05
   8.44919968        -1.52433176E-05
   8.46119976        -1.33045596E-05
   8.47319984        -1.10237424E-05
   8.48519993        -8.44751594E-06
   8.49720001        -5.62659670E-06
   8.50920010        -2.61485661E-06
   8.52120018         5.31617616E-07
   8.53320026         3.75546892E-06
   8.54520035         6.99900011E-06
   8.55720043         1.02050844E-05
   8.56919956         1.33180374E-05
   8.58119965         1.62844135E-05
   8.59319973         1.90537776E-05
   8.60519981         2.15793898E-05
   8.61719990         2.38188477E-05
   8.62919998         2.57346583E-05
   8.64120007         2.72947509E-05
   8.65320015         2.84729667E-05
   8.66520023         2.92494369E-05
   8.67720032         2.96109702E-05
   8.68920040         2.95513455E-05
   8.70119953         2.90715489E-05
   8.71319962         2.81799403E-05
   8.72519970         2.68923395E-05
   8.73719978         2.52320169E-05
   8.74919987         2.32295606E-05
   8.76119995         2.09226291E-05
   8.77320004         1.83555603E-05
   8.78520012         1.55788093E-05
   8.79720020         1.26482382E-05
   8.80920029         9.62422837E-06
   8.82120037         6.57063811E-06
   8.83320045         3.55359953E-06
   8.84519958         6.40199403E-07
   8.85719967        -2.10294729E-06
   8.86919975        -4.61118452E-06
   8.88119984        -6.82332484E-06
   8.89319992        -8.68314692E-06
   8.90520000        -1.01408232E-05
   8.91720009        -1.11542431E-05
   8.92920017        -1.16901947E-05
   8.94120026        -1.17253558E-05
   8.95320034        -1.12470652E-05
   8.96520042        -1.02538615E-05
   8.97719955        -8.75575279E-06
   8.98919964        -6.77420257E-06
   9.00119972        -4.34185358E-06
   9.01319981        -1.50196377E-06
   9.02519989         1.69242082E-06
   9.03719997         5.17954368E-06
   9.04920006         8.89024159E-06
   9.06120014         1.27494468E-05
   9.07320023         1.66778591E-05
   9.08520031         2.05937376E-05