 -0.622799993         1.00000002E-24
 -0.610800028         1.00000002E-24
 -0.598800004         1.00000002E-24
 -0.586799979         1.00000002E-24
 -0.574800014         1.00000002E-24
 -0.562799990         1.00000002E-24
 -0.550800025         1.00000012E-24
 -0.538800001         1.00000022E-24
 -0.526799977         1.00000032E-24
 -0.514800012         1.00000022E-24
 -0.502799988         9.99999921E-25
 -0.490799993         9.99996864E-25
 -0.478799999         9.99982369E-25
 -0.466800004         9.99932473E-25
 -0.454800010         9.99816412E-25
 -0.442799985         9.99682602E-25
 -0.430799991         9.99927740E-25
 -0.418799996         1.00176303E-24
 -0.406800002         1.00743779E-24
 -0.394800007         1.01883220E-24
 -0.382800013         1.03214285E-24
 -0.370799989         1.02734253E-24
 -0.358799994         9.56796080E-25
 -0.346799999         7.49326352E-25
 -0.334800005         3.59331048E-25
 -0.322800010        -1.11055345E-25
 -0.310799986        -2.31410720E-25
 -0.298799992         8.78432117E-25
 -0.286799997         4.35307765E-24
 -0.274800003         1.07372726E-23
 -0.262800008         1.83379269E-23
 -0.250800014         2.12346588E-23
 -0.238800004         8.46198471E-24
 -0.226799995        -3.30855332E-23
 -0.214800000        -1.09464068E-22
 -0.202800006        -2.03995555E-22
 -0.190799996        -2.60393392E-22
 -0.178800002        -1.77675558E-22
 -0.166800007         1.64342521E-22
 -0.154799998         8.33083716E-22
 -0.142800003         1.72764729E-21
 -0.130799994         2.45923543E-21
 -0.118799999         2.31224567E-21
 -0.106799997         3.99049340E-22
  -9.48000029E-02    -3.90360991E-21
  -8.28000009E-02    -1.02595672E-20
  -7.07999989E-02    -1.66406541E-20
  -5.88000007E-02    -1.90063955E-20
  -4.67999987E-02    -1.19792668E-20
  -3.48000005E-02     9.02994058E-21
  -2.28000004E-02     4.43165503E-20
  -1.08000003E-02     8.59751883E-20
   1.20000006E-03     1.15605095E-19
   1.31999999E-02     1.06270982E-19
   2.52000000E-02     3.09119754E-20
   3.72000001E-02    -1.22666271E-19
   4.91999984E-02    -3.33702469E-19
   6.12000003E-02    -5.35006410E-19
   7.32000023E-02    -6.14692544E-19
   8.51999968E-02    -4.42768585E-19
   9.71999988E-02     7.45232023E-20
  0.109200001         9.22355393E-19
  0.121200003         1.91224760E-18
  0.133200005         2.66171977E-18
  0.145199999         2.65658442E-18
  0.157199994         1.41555625E-18
  0.169200003        -1.26167274E-18
  0.181199998        -5.03291261E-18
  0.193200007        -8.85428521E-18
  0.205200002        -1.10545385E-17
  0.217199996        -9.73587528E-18
  0.229200006        -3.49305593E-18
  0.241200000         7.70643562E-18
  0.253199995         2.17898382E-17
  0.265199989         3.43892895E-17
  0.277200013         3.95416486E-17
  0.289200008         3.14018870E-17
  0.301200002         6.71555845E-18
  0.313199997        -3.26410565E-17
  0.325199991        -7.80767641E-17
  0.337199986        -1.14722367E-16
  0.349200010        -1.24568808E-16
  0.361200005        -9.21641065E-17
  0.373199999        -1.16383386E-17
  0.385199994         1.07182729E-16
  0.397199988         2.36305834E-16
  0.409200013         3.33053911E-16
  0.421200007         3.50346088E-16
  0.433200002         2.52300066E-16
  0.445199996         3.11574816E-17
  0.457199991        -2.80292652E-16
  0.469199985        -6.06809851E-16
  0.481200010        -8.43325643E-16
  0.493200004        -8.81992168E-16
  0.505200028        -6.48276031E-16
  0.517199993        -1.35934799E-16
  0.529200017         5.71673442E-16
  0.541199982         1.30497115E-15
  0.553200006         1.84138229E-15
  0.565199971         1.96438672E-15
  0.577199996         1.53450342E-15
  0.589200020         5.51064812E-16
  0.601199985        -8.17748530E-16
  0.613200009        -2.25298757E-15
  0.625199974        -3.35441522E-15
  0.637199998        -3.74800136E-15
  0.649200022        -3.20298669E-15
  0.661199987        -1.72224149E-15
  0.673200011         4.26992750E-16
  0.685199976         2.75969772E-15
  0.697200000         4.69131612E-15
  0.709200025         5.69737188E-15
  0.721199989         5.46703397E-15
  0.733200014         4.00057769E-15
  0.745199978         1.61535515E-15
  0.757200003        -1.14640774E-15
  0.769200027        -3.68062709E-15
  0.781199992        -5.50072683E-15
  0.793200016        -6.36932862E-15
  0.805199981        -6.33213922E-15
  0.817200005        -5.63872586E-15
  0.829200029        -4.57940909E-15
  0.841199994        -3.30592237E-15
  0.853200018        -1.71919652E-15
  0.865199983         5.08850702E-16
  0.877200007         3.75979248E-15
  0.889199972         8.18398829E-15
  0.901199996         1.34099215E-14
  0.913200021         1.83795206E-14
  0.925199986         2.14235232E-14
  0.937200010         2.06244611E-14
  0.949199975         1.44154725E-14
  0.961199999         2.26208873E-15
  0.973200023        -1.47925681E-14
  0.985199988        -3.39409185E-14
  0.997200012        -5.09302886E-14
   1.00919998        -6.08997309E-14
   1.02119994        -5.95820593E-14
   1.03320003        -4.45795812E-14
   1.04519999        -1.63545037E-14
   1.05719995         2.13898825E-14
   1.06920004         6.21231853E-14
   1.08120000         9.76753875E-14
   1.09319997         1.19955912E-13
   1.10520005         1.22795071E-13
   1.11720002         1.03440612E-13
   1.12919998         6.33130362E-14
   1.14119995         7.81351556E-15
   1.15320003        -5.47684185E-14
   1.16520000        -1.14952942E-13
   1.17719996        -1.63914428E-13
   1.18920004        -1.94980899E-13
   1.20120001        -2.04411222E-13
   1.21319997        -1.91304790E-13
   1.22520006        -1.56780093E-13
   1.23720002        -1.02808854E-13
   1.24919999        -3.12284547E-14
   1.26119995         5.65694681E-14
   1.27320004         1.58975873E-13
   1.28520000         2.72557340E-13
   1.29719996         3.89916994E-13
   1.30920005         4.97761392E-13
   1.32120001         5.76076730E-13
   1.33319998         5.99245642E-13
   1.34519994         5.39594140E-13
   1.35720003         3.73287095E-13
   1.36919999         8.77918411E-14
   1.38119996        -3.10539951E-13
   1.39320004        -7.90669559E-13
   1.40520000        -1.29482091E-12
   1.41719997        -1.74173946E-12
   1.42920005        -2.03592850E-12
   1.44120002        -2.08229267E-12
   1.45319998        -1.80427277E-12
   1.46519995        -1.16241890E-12
   1.47720003        -1.69743966E-13
   1.48920000         1.09968415E-12
   1.50119996         2.51151552E-12
   1.51320004         3.88227861E-12
   1.52520001         5.00002817E-12
   1.53719997         5.65176551E-12
   1.54920006         5.65363381E-12
   1.56120002         4.87944450E-12
   1.57319999         3.28356483E-12
   1.58519995         9.15404688E-13
   1.59720004        -2.07569270E-12
   1.60920000        -5.44492142E-12
   1.62119997        -8.86471105E-12
   1.63320005        -1.19443917E-11
   1.64520001        -1.42560694E-11
   1.65719998        -1.53667860E-11
   1.66919994        -1.48775540E-11
   1.68120003        -1.24696937E-11
   1.69319999        -7.95742812E-12
   1.70519996        -1.34339122E-12
   1.71720004         7.12943983E-12
   1.72920001         1.69387369E-11
   1.74119997         2.72677800E-11
   1.75320005         3.70252128E-11
   1.76520002         4.49077303E-11
   1.77719998         4.95084945E-11
   1.78919995         4.94672289E-11
   1.80120003         4.36498754E-11
   1.81320000         3.13387163E-11
   1.82519996         1.24085785E-11
   1.83720005        -1.25372299E-11
   1.84920001        -4.20957089E-11
   1.86119998        -7.40766545E-11
   1.87320006        -1.05608772E-10
   1.88520002        -1.33338479E-10
   1.89719999        -1.53709087E-10
   1.90919995        -1.63298125E-10
   1.92120004        -1.59183153E-10
   1.93320000        -1.39304263E-10
   1.94519997        -1.02792982E-10
   1.95720005        -5.02443677E-11
   1.96920002         1.60803749E-11
   1.98119998         9.21226637E-11
   1.99319994         1.71958642E-10
   2.00519991         2.47781823E-10
   2.01719999         3.09926640E-10
   2.02920008         3.46934981E-10
   2.04119992         3.45688617E-10
   2.05320001         2.91657587E-10
   2.06520009         1.69342290E-10
   2.07719994        -3.69890993E-11
   2.08920002        -3.42158385E-10
   2.10120010        -7.58429652E-10
   2.11319995        -1.29329469E-09
   2.12520003        -1.94669592E-09
   2.13720012        -2.70778600E-09
   2.14919996        -3.55143248E-09
   2.16120005        -4.43480452E-09
   2.17319989        -5.29448219E-09
   2.18519998        -6.04460126E-09
   2.19720006        -6.57657662E-09
   2.20919991        -6.76085987E-09
   2.22119999        -6.45102460E-09
   2.23320007        -5.49014123E-09
   2.24519992        -3.71900488E-09
   2.25720000        -9.85142079E-10
   2.26920009         2.84912849E-09
   2.28119993         7.90211274E-09
   2.29320002         1.42749643E-08
   2.30520010         2.20648229E-08
   2.31719995         3.13936539E-08
   2.32920003         4.24579838E-08
   2.34120011         5.56048825E-08
   2.35319996         7.14391604E-08
   2.36520004         9.09662674E-08
   2.37719989         1.15773496E-07
   2.38919997         1.48250606E-07
   2.40120006         1.91848486E-07
   2.41319990         2.51370693E-07
   2.42519999         3.33290245E-07
   2.43720007         4.46079554E-07
   2.44919991         6.00537533E-07
   2.46120000         8.10095059E-07
   2.47320008         1.09107623E-06
   2.48519993         1.46289051E-06
   2.49720001         1.94813106E-06
   2.50920010         2.57255238E-06
   2.52119994         3.36490598E-06
   2.53320003         4.35660968E-06
   2.54520011         5.58124202E-06
   2.55719995         7.07384834E-06
   2.56920004         8.87006172E-06
   2.58119988         1.10050469E-05
   2.59319997         1.35122909E-05
   2.60520005         1.64222638E-05
   2.61719990         1.97609970E-05
   2.62919998         2.35486332E-05
   2.64120007         2.77979725E-05
   2.65319991         3.25131368E-05
   2.66520000         3.76883581E-05
   2.67720008         4.33069872E-05
   2.68919992         4.93407606E-05
   2.70120001         5.57494459E-05
   2.71320009         6.24808017E-05
   2.72519994         6.94710034E-05
   2.73720002         7.66454177E-05
   2.74920011         8.39199056E-05
   2.76119995         9.12024479E-05
   2.77320004         9.83951904E-05
   2.78520012         1.05396772E-04
   2.79719996         1.12104972E-04
   2.80920005         1.18419404E-04
   2.82119989         1.24244427E-04
   2.83319998         1.29491877E-04
   2.84520006         1.34083792E-04
   2.85719991         1.37954776E-04
   2.86919999         1.41054144E-04
   2.88120008         1.43347541E-04
   2.89319992         1.44818070E-04
   2.90520000         1.45466940E-04
   2.91720009         1.45313534E-04
   2.92919993         1.44394755E-04
   2.94120002         1.42763907E-04
   2.95320010         1.40489065E-04
   2.96519995         1.37650801E-04
   2.97720003         1.34339731E-04
   2.98920012         1.30653541E-04
   3.00119996         1.26694053E-04
   3.01320004         1.22563913E-04
   3.02519989         1.18363700E-04
   3.03719997         1.14188821E-04
   3.04920006         1.10126952E-04
   3.06119990         1.06255698E-04
   3.07319999         1.02640770E-04
   3.08520007         9.93346694E-05
   3.09719992         9.63758939E-05
   3.10920000         9.37887307E-05
   3.12120008         9.15835990E-05
   3.13319993         8.97579375E-05
   3.14520001         8.82975364E-05
   3.15720010         8.71782540E-05
   3.16919994         8.63680834E-05
   3.18120003         8.58293206E-05
   3.19320011         8.55209437E-05
   3.20519996         8.54008904E-05
   3.21720004         8.54282043E-05
   3.22919989         8.55650142E-05
   3.24119997         8.57781197E-05
   3.25320005         8.60402652E-05
   3.26519990         8.63309979E-05
   3.27719998         8.66369810E-05
   3.28920007         8.69520154E-05
   3.30119991         8.72764649E-05
   3.31320000         8.76164631E-05
   3.32520008         8.79827494E-05
   3.33719993         8.83891989E-05
   3.34920001         8.88513896E-05
   3.36120009         8.93849719E-05
   3.37319994         9.00041487E-05
   3.38520002         9.07203066E-05
   3.39720011         9.15408746E-05
   3.40919995         9.24684136E-05
   3.42120004         9.35001153E-05
   3.43319988         9.46275686E-05
   3.44519997         9.58369419E-05
   3.45720005         9.71094996E-05
   3.46919990         9.84224025E-05
   3.48119998         9.97497700E-05
   3.49320006         1.01063953E-04
   3.50519991         1.02336904E-04
   3.51719999         1.03541563E-04
   3.52920008         1.04653300E-04
   3.54119992         1.05651154E-04
   3.55320001         1.06518979E-04
   3.56520009         1.07246342E-04
   3.57719994         1.07829175E-04
   3.58920002         1.08270164E-04
   3.60120010         1.08578832E-04
   3.61319995         1.08771390E-04
   3.62520003         1.08870263E-04
   3.63720012         1.08903419E-04
   3.64919996         1.08903463E-04
   3.66120005         1.08906657E-04
   3.67319989         1.08951688E-04
   3.68519998         1.09078523E-04
   3.69720006         1.09327149E-04
   3.70919991         1.09736342E-04
   3.72119999         1.10342553E-04
   3.73320007         1.11178844E-04
   3.74519992         1.12274000E-04
   3.75720000         1.13651760E-04
   3.76920009         1.15330229E-04
   3.78119993         1.17321440E-04
   3.79320002         1.19631128E-04
   3.80520010         1.22258658E-04
   3.81719995         1.25197126E-04
   3.82920003         1.28433545E-04
   3.84120011         1.31949244E-04
   3.85319996         1.35720300E-04
   3.86520004         1.39718075E-04
   3.87719989         1.43909827E-04
   3.88919997         1.48259336E-04
   3.90120006         1.52727574E-04
   3.91319990         1.57273331E-04
   3.92519999         1.61853983E-04
   3.93720007         1.66425991E-04
   3.94919991         1.70945641E-04
   3.96120000         1.75369656E-04
   3.97320008         1.79655763E-04
   3.98519993         1.83763215E-04
   3.99720001         1.87653466E-04
   4.00920010         1.91290586E-04
   4.02120018         1.94641791E-04
   4.03319979         1.97677960E-04
   4.04519987         2.00374037E-04
   4.05719995         2.02709431E-04
   4.06920004         2.04668395E-04
   4.08120012         2.06240264E-04
   4.09320021         2.07419667E-04
   4.10519981         2.08206635E-04
   4.11719990         2.08606652E-04
   4.12919998         2.08630488E-04
   4.14120007         2.08294048E-04
   4.15320015         2.07618068E-04
   4.16520023         2.06627665E-04
   4.17719984         2.05351826E-04
   4.18919992         2.03822783E-04
   4.20120001         2.02075418E-04
   4.21320009         2.00146504E-04
   4.22520018         1.98073933E-04
   4.23719978         1.95896035E-04
   4.24919987         1.93650805E-04
   4.26119995         1.91375322E-04
   4.27320004         1.89104976E-04
   4.28520012         1.86873120E-04
   4.29720020         1.84710458E-04
   4.30919981         1.82644857E-04
   4.32119989         1.80701056E-04
   4.33319998         1.78900547E-04
   4.34520006         1.77261609E-04
   4.35720015         1.75799287E-04
   4.36920023         1.74525703E-04
   4.38119984         1.73450055E-04
   4.39319992         1.72579021E-04
   4.40520000         1.71916807E-04
   4.41720009         1.71465406E-04
   4.42920017         1.71224747E-04
   4.44119978         1.71192733E-04
   4.45319986         1.71365245E-04
   4.46519995         1.71736014E-04
   4.47720003         1.72296437E-04
   4.48920012         1.73035398E-04
   4.50120020         1.73938955E-04
   4.51319981         1.74990069E-04
   4.52519989         1.76168382E-04
   4.53719997         1.77449983E-04
   4.54920006         1.78807459E-04
   4.56120014         1.80209827E-04
   4.57320023         1.81622876E-04
   4.58519983         1.83009543E-04
   4.59719992         1.84330464E-04
   4.60920000         1.85544646E-04
   4.62120008         1.86610385E-04
   4.63320017         1.87486032E-04
   4.64519978         1.88130987E-04
   4.65719986         1.88506485E-04
   4.66919994         1.88576378E-04
   4.68120003         1.88307720E-04
   4.69320011         1.87671161E-04
   4.70520020         1.86641118E-04
   4.71719980         1.85195764E-04
   4.72919989         1.83316733E-04
   4.74119997         1.80988791E-04
   4.75320005         1.78199334E-04
   4.76520014         1.74937784E-04
   4.77720022         1.71195308E-04
   4.78919983         1.66964368E-04
   4.80119991         1.62238764E-04
   4.81320000         1.57013856E-04
   4.82520008         1.51287197E-04
   4.83720016         1.45059414E-04
   4.84919977         1.38335556E-04
   4.86119986         1.31126610E-04
   4.87319994         1.23451216E-04
   4.88520002         1.15337425E-04
   4.89720011         1.06824416E-04
   4.90920019         9.79638135E-05
   4.92119980         8.88207287E-05
   4.93319988         7.94741281E-05
   4.94519997         7.00165838E-05
   4.95720005         6.05531859E-05
   4.96920013         5.11997132E-05
   4.98120022         4.20799952E-05
   4.99319983         3.33225653E-05
   5.00519991         2.50567155E-05
   5.01719999         1.74081815E-05
   5.02920008         1.04946121E-05
   5.04120016         4.42108058E-06
   5.05319977        -7.24113477E-07
   5.06519985        -4.87312718E-06
   5.07719994        -7.98152087E-06
   5.08920002        -1.00303114E-05
   5.10120010        -1.10269893E-05
   5.11320019        -1.10054589E-05
   5.12519979        -1.00248926E-05
   5.13719988        -8.16756710E-06
   5.14919996        -5.53579321E-06
   5.16120005        -2.24813198E-06
   5.17320013         1.56493070E-06
   5.18520021         5.76562206E-06
   5.19719982         1.02135846E-05
   5.20919991         1.47704532E-05
   5.22119999         1.93040905E-05
   5.23320007         2.36923479E-05
   5.24520016         2.78261887E-05
   5.25719976         3.16121404E-05
   5.26919985         3.49740003E-05
   5.28119993         3.78538280E-05
   5.29320002         4.02122241E-05
   5.30520010         4.20279976E-05
   5.31720018         4.32972702E-05
   5.32919979         4.40320910E-05
   5.34119987         4.42587407E-05
   5.35319996         4.40156618E-05
   5.36520004         4.33512760E-05
   5.37720013         4.23215934E-05
   5.38920021         4.09878339E-05
   5.40119982         3.94139715E-05
   5.41319990         3.76644020E-05
   5.42519999         3.58016950E-05
   5.43720007         3.38844984E-05
   5.44920015         3.19656974E-05
   5.46120024         3.00908141E-05
   5.47319984         2.82967812E-05
   5.48519993         2.66110710E-05
   5.49720001         2.50512494E-05
   5.50920010         2.36249834E-05
   5.52120018         2.23305051E-05
   5.53319979         2.11575207E-05
   5.54519987         2.00885443E-05
   5.55719995         1.91005656E-05
   5.56920004         1.81670111E-05
   5.58120012         1.72598702E-05
   5.59320021         1.63518744E-05
   5.60519981         1.54186127E-05
   5.61719990         1.44404576E-05
   5.62919998         1.34041811E-05
   5.64120007         1.23041618E-05
   5.65320015         1.11431082E-05
   5.66520023         9.93223784E-06
   5.67719984         8.69091309E-06
   5.68919992         7.44573299E-06
   5.70120001         6.22915104E-06
   5.71320009         5.07768800E-06
   5.72520018         4.02985143E-06
   5.73719978         3.12389102E-06
   5.74919987         2.39552332E-06
   5.76119995         1.87576836E-06
   5.77320004         1.58902787E-06
   5.78520012         1.55151508E-06
   5.79720020         1.77013635E-06
   5.80919981         2.24187602E-06
   5.82119989         2.95372138E-06
   5.83319998         3.88311810E-06
   5.84520006         4.99891848E-06
   5.85720015         6.26275232E-06
   5.86920023         7.63073513E-06
   5.88119984         9.05539491E-06
   5.89319992         1.04877090E-05
   5.90520000         1.18791386E-05
   5.91720009         1.31835341E-05
   5.92920017         1.43588441E-05
   5.94119978         1.53685360E-05
   5.95319986         1.61826920E-05
   5.96519995         1.67787493E-05
   5.97720003         1.71419106E-05
   5.98920012         1.72652108E-05
   6.00120020         1.71493302E-05
   6.01319981         1.68021779E-05
   6.02519989         1.62382858E-05
   6.03719997         1.54781355E-05
   6.04920006         1.45473950E-05
   6.06120014         1.34761531E-05
   6.07320023         1.22981473E-05
   6.08519983         1.10500287E-05
   6.09719992         9.77062336E-06
   6.10920000         8.50021843E-06
   6.12120008         7.27982570E-06
   6.13320017         6.15042518E-06
   6.14519978         5.15215470E-06
   6.15719986         4.32345360E-06
   6.16919994         3.70015073E-06
   6.18120003         3.31451020E-06
   6.19320011         3.19426249E-06
   6.20520020         3.36165681E-06
   6.21719980         3.83256929E-06
   6.22919989         4.61572427E-06
   6.24119997         5.71206692E-06
   6.25320005         7.11433404E-06
   6.26520014         8.80686002E-06
   6.27720022         1.07656451E-05
   6.28919983         1.29586906E-05
   6.30119991         1.53466208E-05
   6.31320000         1.78835580E-05
   6.32520008         2.05182569E-05
   6.33720016         2.31954291E-05
   6.34919977         2.58572545E-05
   6.36119986         2.84450143E-05
   6.37319994         3.09007846E-05
   6.38520002         3.31691626E-05
   6.39720011         3.51989402E-05
   6.40920019         3.69447407E-05
   6.42119980         3.83684528E-05
   6.43319988         3.94405361E-05
   6.44519997         4.01410653E-05
   6.45720005         4.04605307E-05
   6.46920013         4.04003258E-05
   6.48120022         3.99729033E-05
   6.49319983         3.92015718E-05
   6.50519991         3.81199570E-05
   6.51719999         3.67710745E-05
   6.52920008         3.52060852E-05
   6.54120016         3.34827382E-05
   6.55319977         3.16635742E-05
   6.56519985         2.98139039E-05
   6.57719994         2.79996966E-05
   6.58920002         2.62854246E-05
   6.60120010         2.47319622E-05
   6.61320019         2.33946048E-05
   6.62519979         2.23213210E-05
   6.63719988         2.15512828E-05
   6.64919996         2.11137303E-05
   6.66120005         2.10272210E-05
   6.67320013         2.12992654E-05
   6.68520021         2.19263839E-05
   6.69719982         2.28945210E-05
   6.70919991         2.41798243E-05
   6.72119999         2.57497250E-05
   6.73320007         2.75642578E-05
   6.74520016         2.95775681E-05
   6.75719976         3.17395497E-05
   6.76919985         3.39975159E-05
   6.78119993         3.62978790E-05
   6.79320002         3.85877938E-05
   6.80520010         4.08166707E-05
   6.81720018         4.29375759E-05
   6.82919979         4.49084509E-05
   6.84119987         4.66931670E-05
   6.85319996         4.82623363E-05
   6.86520004         4.95939348E-05
   6.87720013         5.06736942E-05
   6.88920021         5.14952480E-05
   6.90119982         5.20600515E-05
   6.91319990         5.23771014E-05
   6.92519999         5.24624047E-05
   6.93720007         5.23382732E-05
   6.94920015         5.20324284E-05
   6.96120024         5.15769534E-05
   6.97319984         5.10071404E-05
   6.98519993         5.03602714E-05
   6.99720001         4.96743487E-05
   7.00920010         4.89868435E-05
   7.02120018         4.83335316E-05
   7.03319979         4.77474168E-05
   7.04519987         4.72578031E-05
   7.05719995         4.68895450E-05
   7.06920004         4.66624842E-05
   7.08120012         4.65910889E-05
   7.09320021         4.66842830E-05
   7.10519981         4.69454899E-05
   7.11719990         4.73727741E-05
   7.12919998         4.79591945E-05
   7.14120007         4.86932295E-05
   7.15320015         4.95592467E-05
   7.16520023         5.05381067E-05
   7.17719984         5.16076907E-05
   7.18919992         5.27435295E-05
   7.20120001         5.39193716E-05
   7.21320009         5.51077537E-05
   7.22520018         5.62806053E-05
   7.23719978         5.74098085E-05
   7.24919987         5.84677800E-05
   7.26119995         5.94280973E-05
   7.27320004         6.02661166E-05
   7.28520012         6.09596318E-05
   7.29720020         6.14895253E-05
   7.30919981         6.18404447E-05
   7.32119989         6.20014471E-05
   7.33319998         6.19665516E-05
   7.34520006         6.17352925E-05
   7.35720015         6.13130469E-05
   7.36920023         6.07113034E-05
   7.38119984         5.99477025E-05
   7.39319992         5.90458621E-05
   7.40520000         5.80350024E-05
   7.41720009         5.69493168E-05
   7.42920017         5.58271095E-05
   7.44119978         5.47097407E-05
   7.45319986         5.36403350E-05
   7.46519995         5.26623808E-05
   7.47720003         5.18181987E-05
   7.48920012         5.11473372E-05
   7.50120020         5.06850483E-05
   7.51319981         5.04607488E-05
   7.52519989         5.04966883E-05
   7.53719997         5.08067969E-05
   7.54920006         5.13957893E-05
   7.56120014         5.22585724E-05
   7.57320023         5.33800448E-05
   7.58519983         5.47352101E-05
   7.59719992         5.62897330E-05
   7.60920000         5.80008600E-05
   7.62120008         5.98187144E-05
   7.63320017         6.16879115E-05
   7.64519978         6.35494580E-05
   7.65719986         6.53428506E-05
   7.66919994         6.70082809E-05
   7.68120003         6.84888582E-05
   7.69320011         6.97328069E-05
   7.70520020         7.06954233E-05
   7.71719980         7.13408372E-05
   7.72919989         7.16433860E-05
   7.74119997         7.15886563E-05
   7.75320005         7.11740431E-05
   7.76520014         7.04088889E-05
   7.77720022         6.93140828E-05
   7.78919983         6.79214063E-05
   7.80119991         6.62722596E-05
   7.81320000         6.44162646E-05
   7.82520008         6.24094682E-05
   7.83720016         6.03124354E-05
   7.84919977         5.81882414E-05
   7.86119986         5.61003908E-05
   7.87319994         5.41108566E-05
   7.88520002         5.22781629E-05
   7.89720011         5.06556862E-05
   7.90920019         4.92901308E-05
   7.92119980         4.82202340E-05
   7.93319988         4.74757508E-05
   7.94519997         4.70766536E-05
   7.95720005         4.70326668E-05
   7.96920013         4.73429936E-05
   7.98120022         4.79964147E-05
   7.99319983         4.89715385E-05
   8.00520039         5.02374278E-05
   8.01720047         5.17543849E-05
   8.02919960         5.34750834E-05
   8.04119968         5.53458631E-05
   8.05319977         5.73082943E-05
   8.06519985         5.93009099E-05
   8.07719994         6.12611257E-05
   8.08920002         6.31272706E-05
   8.10120010         6.48406349E-05
   8.11320019         6.63475948E-05
   8.12520027         6.76015188E-05
   8.13720036         6.85646010E-05
   8.14920044         6.92093745E-05
   8.16119957         6.95198178E-05
   8.17319965         6.94921473E-05
   8.18519974         6.91350288E-05
   8.19719982         6.84692786E-05
   8.20919991         6.75270639E-05
   8.22119999         6.63505489E-05
   8.23320007         6.49901194E-05
   8.24520016         6.35022152E-05
   8.25720024         6.19468192E-05
   8.26920033         6.03849257E-05
   8.28120041         5.88758267E-05
   8.29319954         5.74746446E-05
   8.30519962         5.62300374E-05
   8.31719971         5.51823177E-05
   8.32919979         5.43620154E-05
   8.34119987         5.37889537E-05
   8.35319996         5.34719074E-05
   8.36520004         5.34088103E-05
   8.37720013         5.35874315E-05
   8.38920021         5.39865432E-05
   8.40120029         5.45774128E-05
   8.41320038         5.53255340E-05
   8.42520046         5.61924862E-05
   8.43719959         5.71377896E-05
   8.44919968         5.81207132E-05
   8.46119976         5.91018652E-05
   8.47319984         6.00445892E-05
   8.48519993         6.09160597E-05
   8.49720001         6.16881152E-05
   8.50920010         6.23378437E-05
   8.52120018         6.28478447E-05
   8.53320026         6.32063820E-05
   8.54520035         6.34073294E-05
   8.55720043         6.34499374E-05
   8.56919956         6.33385789E-05
   8.58119965         6.30824215E-05
   8.59319973         6.26949695E-05
   8.60519981         6.21935906E-05
   8.61719990         6.15989848E-05
   8.62919998         6.09345225E-05
   8.64120007         6.02255095E-05
   8.65320015         5.94983721E-05
   8.66520023         5.87797222E-05
   8.67720032         5.80953820E-05
   8.68920040         5.74693549E-05
   8.70119953         5.69228505E-05
   8.71319962         5.64733600E-05
   8.72519970         5.61338566E-05
   8.73719978         5.59122418E-05
   8.74919987         5.58109714E-05
   8.76119995         5.58270513E-05
   8.77320004         5.59522414E-05
   8.78520012         5.61736597E-05
   8.79720020         5.64745897E-05
   8.80920029         5.68355354E-05
   8.82120037         5.72354329E-05
   8.83320045         5.76529128E-05
   8.84519958         5.80675733E-05
   8.85719967         5.84610862E-05
   8.86919975         5.88181501E-05
   8.88119984         5.91271419E-05
   8.89319992         5.93805125E-05
   8.90520000         5.95748315E-05
   8.91720009         5.97105281E-05
   8.92920017         5.97913859E-05
   8.94120026         5.98238075E-05
   8.95320034         5.98159568E-05
   8.96520042         5.97768376E-05
   8.97719955         5.97154030E-05
   8.98919964         5.96397585E-05
   9.00119972         5.95564925E-05
   9.01319981         5.94702724E-05
   9.02519989         5.93835612E-05
   9.03719997         5.92966207E-05
   9.04920006         5.92076503E-05
   9.06120014         5.91130884E-05
   9.07320023         5.90080126E-05
   9.08520031         5.88865732E-05