 -0.622799993       0.00000000    
 -0.610800028       0.00000000    
 -0.598800004       0.00000000    
 -0.586799979       0.00000000    
 -0.574800014       0.00000000    
 -0.562799990       0.00000000    
 -0.550800025       0.00000000    
 -0.538800001       0.00000000    
 -0.526799977       0.00000000    
 -0.514800012       0.00000000    
 -0.502799988      -0.00000000    
 -0.490799993       9.08751247E-37
 -0.478799999       1.44410198E-35
 -0.466800004       1.12367675E-34
 -0.454800010       5.48023915E-34
 -0.442799985       1.73786462E-33
 -0.430799991       2.80738761E-33
 -0.418799996      -5.18022838E-33
 -0.406800002      -5.84061942E-32
 -0.394800007      -2.57542513E-31
 -0.382800013      -8.12384428E-31
 -0.370799989      -2.04733256E-30
 -0.358799994      -4.29714693E-30
 -0.346799999      -7.71794382E-30
 -0.334800005      -1.24331123E-29
 -0.322800010      -2.02210652E-29
 -0.310799986      -3.97273908E-29
 -0.298799992      -9.64611642E-29
 -0.286799997      -2.43782214E-28
 -0.274800003      -5.58606303E-28
 -0.262800008      -1.08587830E-27
 -0.250800014      -1.67882158E-27
 -0.238800004      -1.69330804E-27
 -0.226799995       4.24415497E-28
 -0.214800000       7.42781953E-27
 -0.202800006       2.29161674E-26
 -0.190799996       4.95306842E-26
 -0.178800002       8.48926932E-26
 -0.166800007       1.15173655E-25
 -0.154799998       1.07991471E-25
 -0.142800003       9.28521333E-27
 -0.130799994      -2.47864090E-25
 -0.118799999      -7.12873780E-25
 -0.106799997      -1.35947772E-24
  -9.48000029E-02  -2.00514578E-24
  -8.28000009E-02  -2.23515494E-24
  -7.07999989E-02  -1.38639356E-24
  -5.88000007E-02   1.33095281E-24
  -4.67999987E-02   6.49736607E-24
  -3.48000005E-02   1.39074963E-23
  -2.28000004E-02   2.18434875E-23
  -1.08000003E-02   2.64653052E-23
   1.20000006E-03   2.17769628E-23
   1.31999999E-02   7.39364666E-25
   2.52000000E-02  -4.19998854E-23
   3.72000001E-02  -1.05730667E-22
   4.91999984E-02  -1.78464848E-22
   6.12000003E-02  -2.32806333E-22
   7.32000023E-02  -2.25891469E-22
   8.51999968E-02  -1.06806630E-22
   9.71999988E-02   1.66024550E-22
  0.109200001       5.97805610E-22
  0.121200003       1.12578100E-21
  0.133200005       1.59411315E-21
  0.145199999       1.75137602E-21
  0.157199994       1.28829422E-21
  0.169200003      -7.19723936E-23
  0.181199998      -2.43304656E-21
  0.193200007      -5.55912910E-21
  0.205200002      -8.73584637E-21
  0.217199996      -1.07335554E-20
  0.229200006      -9.95459361E-21
  0.241200000      -4.82237613E-21
  0.253199995       5.59104785E-21
  0.265199989       2.07988846E-20
  0.277200013       3.82082835E-20
  0.289200008       5.28124157E-20
  0.301200002       5.76041728E-20
  0.313199997       4.49664687E-20
  0.325199991       9.06942715E-21
  0.337199986      -5.10509540E-20
  0.349200010      -1.28478804E-19
  0.361200005      -2.06577579E-19
  0.373199999      -2.59573283E-19
  0.385199994      -2.56575710E-19
  0.397199988      -1.69340583E-19
  0.409200013       1.70748884E-20
  0.421200007       2.92995231E-19
  0.433200002       6.15615781E-19
  0.445199996       9.07358402E-19
  0.457199991       1.06462932E-18
  0.469199985       9.78590854E-19
  0.481200010       5.66323468E-19
  0.493200004      -1.93221843E-19
  0.505200028      -1.22775647E-18
  0.517199993      -2.35601883E-18
  0.529200017      -3.29852952E-18
  0.541199982      -3.72093716E-18
  0.553200006      -3.30843438E-18
  0.565199971      -1.85999729E-18
  0.577199996       6.18068630E-19
  0.589200020       3.84570867E-18
  0.601199985       7.25599690E-18
  0.613200009       1.00536839E-17
  0.625199974       1.13488221E-17
  0.637199998       1.03497161E-17
  0.649200022       6.58057746E-18
  0.661199987       7.62705697E-20
  0.673200011      -8.49625745E-18
  0.685199976      -1.78307268E-17
  0.697200000      -2.61089882E-17
  0.709200025      -3.12574183E-17
  0.721199989      -3.13007824E-17
  0.733200014      -2.47635558E-17
  0.745199978      -1.10606853E-17
  0.757200003       9.17870875E-18
  0.769200027       3.39047966E-17
  0.781199992       5.96035181E-17
  0.793200016       8.14636981E-17
  0.805199981       9.38080850E-17
  0.817200005       9.08405315E-17
  0.829200029       6.77356962E-17
  0.841199994       2.20302847E-17
  0.853200018      -4.48423180E-17
  0.865199983      -1.26185635E-16
  0.877200007      -2.09303152E-16
  0.889199972      -2.75934191E-16
  0.901199996      -3.04345688E-16
  0.913200021      -2.73304657E-16
  0.925199986      -1.67684969E-16
  0.937200010       1.51546056E-17
  0.949199975       2.59711128E-16
  0.961199999       5.29309830E-16
  0.973200023       7.67622126E-16
  0.985199988       9.06053250E-16
  0.997200012       8.77102882E-16
   1.00919998       6.32110989E-16
   1.02119994       1.59993406E-16
   1.03320003      -4.97835833E-16
   1.04519999      -1.24161710E-15
   1.05719995      -1.92080920E-15
   1.06920004      -2.35696891E-15
   1.08120000      -2.38018524E-15
   1.09319997      -1.87314137E-15
   1.10520005      -8.13286837E-16
   1.11720002       6.98272256E-16
   1.12919998       2.43172847E-15
   1.14119995       4.05405935E-15
   1.15320003       5.18517317E-15
   1.16520000       5.47687692E-15
   1.17719996       4.69936928E-15
   1.18920004       2.81514979E-15
   1.20120001       1.98985939E-17
   1.21319997      -3.26509072E-15
   1.22520006      -6.45441223E-15
   1.23720002      -8.90652349E-15
   1.24919999      -1.00578488E-14
   1.26119995      -9.55331615E-15
   1.27320004      -7.34097451E-15
   1.28520000      -3.70385993E-15
   1.29719996       7.84270665E-16
   1.30920005       5.37416613E-15
   1.32120001       9.30289256E-15
   1.33319998       1.19632384E-14
   1.34519994       1.30363648E-14
   1.35720003       1.25498045E-14
   1.36919999       1.08406775E-14
   1.38119996       8.42940084E-15
   1.39320004       5.83569194E-15
   1.40520000       3.38900741E-15
   1.41719997       1.09297892E-15
   1.42920005      -1.40558183E-15
   1.44120002      -4.71741998E-15
   1.45319998      -9.49111259E-15
   1.46519995      -1.61199450E-14
   1.47720003      -2.44512882E-14
   1.48920000      -3.35856831E-14
   1.50119996      -4.18417200E-14
   1.51320004      -4.69299180E-14
   1.52520001      -4.63308930E-14
   1.53719997      -3.78213492E-14
   1.54920006      -2.00493834E-14
   1.56120002       6.96120856E-15
   1.57319999       4.14922952E-14
   1.58519995       8.00815577E-14
   1.59720004       1.17774063E-13
   1.60920000       1.48651518E-13
   1.62119997       1.66566915E-13
   1.63320005       1.65982096E-13
   1.64520001       1.42800106E-13
   1.65719998       9.50976358E-14
   1.66919994       2.36897074E-14
   1.68120003      -6.75176603E-14
   1.69319999      -1.71417391E-13
   1.70519996      -2.77868061E-13
   1.71720004      -3.74185600E-13
   1.72920001      -4.46019957E-13
   1.74119997      -4.78668429E-13
   1.75320005      -4.58832083E-13
   1.76520002      -3.76734261E-13
   1.77719998      -2.28397000E-13
   1.78919995      -1.77395042E-14
   1.80120003       2.41938468E-13
   1.81320000       5.27557436E-13
   1.82519996       8.07336782E-13
   1.83720005       1.04355240E-12
   1.84920001       1.19687973E-12
   1.86119998       1.23188677E-12
   1.87320006       1.12291719E-12
   1.88520002       8.59387052E-13
   1.89719999       4.49480486E-13
   1.90919995      -7.86031261E-14
   1.92120004      -6.78319868E-13
   1.93320000      -1.28932585E-12
   1.94519997      -1.84430314E-12
   1.95720005      -2.27700953E-12
   1.96920002      -2.53024468E-12
   1.98119998      -2.56243854E-12
   1.99319994      -2.35188475E-12
   2.00519991      -1.89816674E-12
   2.01719999      -1.22096474E-12
   2.02920008      -3.56994003E-13
   2.04119992       6.43815025E-13
   2.05320001       1.72175685E-12
   2.06520009       2.80958633E-12
   2.07719994       3.83332862E-12
   2.08920002       4.71216078E-12
   2.10120010       5.35851398E-12
   2.11319995       5.67990576E-12
   2.12520003       5.58393175E-12
   2.13720012       4.98730657E-12
   2.14919996       3.82885824E-12
   2.16120005       2.08522002E-12
   2.17319989      -2.13166914E-13
   2.18519998      -2.96891071E-12
   2.19720006      -6.01073922E-12
   2.20919991      -9.09564611E-12
   2.22119999      -1.19217969E-11
   2.23320007      -1.41522349E-11
   2.24519992      -1.54475981E-11
   2.25720000      -1.55044363E-11
   2.26920009      -1.40945779E-11
   2.28119993      -1.11006117E-11
   2.29320002      -6.54294197E-12
   2.30520010      -5.94956267E-13
   2.31719995       6.41561587E-12
   2.32920003       1.40194687E-11
   2.34120011       2.16314484E-11
   2.35319996       2.85870980E-11
   2.36520004       3.41873613E-11
   2.37719989       3.77487416E-11
   2.38919997       3.86564877E-11
   2.40120006       3.64185175E-11
   2.41319990       3.07179698E-11
   2.42519999       2.14618340E-11
   2.43720007       8.82256941E-12
   2.44919991      -6.73119199E-12
   2.46120000      -2.44194873E-11
   2.47320008      -4.31562737E-11
   2.48519993      -6.15796025E-11
   2.49720001      -7.81099560E-11
   2.50920010      -9.10379133E-11
   2.52119994      -9.86398532E-11
   2.53320003      -9.93170685E-11
   2.54520011      -9.17509957E-11
   2.55719995      -7.50644685E-11
   2.56920004      -4.89768920E-11
   2.58119988      -1.39398102E-11
   2.59319997       2.87613943E-11
   2.60520005       7.69539571E-11
   2.61719990       1.27585942E-10
   2.62919998       1.76808401E-10
   2.64120007       2.20140919E-10
   2.65319991       2.52725840E-10
   2.66520000       2.69670841E-10
   2.67720008       2.66470179E-10
   2.68919992       2.39486236E-10
   2.70120001       1.86460264E-10
   2.71320009       1.07009818E-10
   2.72519994       3.05984339E-12
   2.73720002      -1.20852162E-10
   2.74920011      -2.57458221E-10
   2.76119995      -3.96884359E-10
   2.77320004      -5.27058397E-10
   2.78520012      -6.34419128E-10
   2.79719996      -7.04916570E-10
   2.80920005      -7.25256410E-10
   2.82119989      -6.84309831E-10
   2.83319998      -5.74574499E-10
   2.84520006      -3.93550220E-10
   2.85719991      -1.44876625E-10
   2.86919999       1.60918390E-10
   2.88120008       5.06197084E-10
   2.89319992       8.66623051E-10
   2.90520000       1.21226795E-09
   2.91720009       1.50941937E-09
   2.92919993       1.72303405E-09
   2.94120002       1.81971360E-09
   2.95320010       1.77101256E-09
   2.96519995       1.55683921E-09
   2.97720003       1.16865306E-09
   2.98920012       6.12147721E-10
   3.00119996      -9.09058870E-11
   3.01320004      -9.01951902E-10
   3.02519989      -1.76632431E-09
   3.03719997      -2.61546584E-09
   3.04920006      -3.37074035E-09
   3.06119990      -3.94874888E-09
   3.07319999      -4.26791225E-09
   3.08520007      -4.25591962E-09
   3.09719992      -3.85750853E-09
   3.10920000      -3.04192205E-09
   3.12120008      -1.80932125E-09
   3.13319993      -1.95421679E-10
   3.14520001       1.72631509E-09
   3.15720010       3.84547327E-09
   3.16919994       6.01879524E-09
   3.18120003       8.07769140E-09
   3.19320011       9.83894566E-09
   3.20519996       1.11180674E-08
   3.21720004       1.17445227E-08
   3.22919989       1.15777441E-08
   3.24119997       1.05227311E-08
   3.25320005       8.54391136E-09
   3.26519990       5.67598768E-09
   3.27719998       2.03063943E-09
   3.28920007      -2.20182006E-09
   3.30119991      -6.75639500E-09
   3.31320000      -1.13031300E-08
   3.32520008      -1.54623425E-08
   3.33719993      -1.88246752E-08
   3.34920001      -2.09749089E-08
   3.36120009      -2.15182094E-08
   3.37319994      -2.01072048E-08
   3.38520002      -1.64683858E-08
   3.39720011      -1.04263025E-08
   3.40919995      -1.92430005E-09
   3.42120004       8.95908592E-09
   3.43319988       2.19985221E-08
   3.44519997       3.68150594E-08
   3.45720005       5.28735882E-08
   3.46919990       6.94836402E-08
   3.48119998       8.58022702E-08
   3.49320006       1.00837710E-07
   3.50519991       1.13452380E-07
   3.51719999       1.22364085E-07
   3.52920008       1.26144727E-07
   3.54119992       1.23216282E-07
   3.55320001       1.11844187E-07
   3.56520009       9.01296815E-08
   3.57719994       5.60024489E-08
   3.58920002       7.21577820E-09
   3.60120010      -5.86528834E-08
   3.61319995      -1.44193336E-07
   3.62520003      -2.52143508E-07
   3.63720012      -3.85357424E-07
   3.64919996      -5.46758713E-07
   3.66120005      -7.39278732E-07
   3.67319989      -9.65779918E-07
   3.68519998      -1.22896517E-06
   3.69720006      -1.53127758E-06
   3.70919991      -1.87479259E-06
   3.72119999      -2.26110797E-06
   3.73320007      -2.69123757E-06
   3.74519992      -3.16551382E-06
   3.75720000      -3.68350697E-06
   3.76920009      -4.24396330E-06
   3.78119993      -4.84477187E-06
   3.79320002      -5.48295611E-06
   3.80520010      -6.15470435E-06
   3.81719995      -6.85542500E-06
   3.82920003      -7.57984117E-06
   3.84120011      -8.32210571E-06
   3.85319996      -9.07594858E-06
   3.86520004      -9.83483733E-06
   3.87719989      -1.05921508E-05
   3.88919997      -1.13413544E-05
   3.90120006      -1.20761806E-05
   3.91319990      -1.27907833E-05
   3.92519999      -1.34798893E-05
   3.93720007      -1.41389119E-05
   3.94919991      -1.47640549E-05
   3.96120000      -1.53523615E-05
   3.97320008      -1.59017636E-05
   3.98519993      -1.64110661E-05
   3.99720001      -1.68799324E-05
   4.00920010      -1.73088210E-05
   4.02120018      -1.76989233E-05
   4.03319979      -1.80520601E-05
   4.04519987      -1.83705797E-05
   4.05719995      -1.86572615E-05
   4.06920004      -1.89151779E-05
   4.08120012      -1.91476029E-05
   4.09320021      -1.93578999E-05
   4.10519981      -1.95494122E-05
   4.11719990      -1.97253903E-05
   4.12919998      -1.98889011E-05
   4.14120007      -2.00427676E-05
   4.15320015      -2.01895145E-05
   4.16520023      -2.03313375E-05
   4.17719984      -2.04700682E-05
   4.18919992      -2.06071618E-05
   4.20120001      -2.07437151E-05
   4.21320009      -2.08804668E-05
   4.22520018      -2.10178296E-05
   4.23719978      -2.11559418E-05
   4.24919987      -2.12947034E-05
   4.26119995      -2.14338415E-05
   4.27320004      -2.15729688E-05
   4.28520012      -2.17116631E-05
   4.29720020      -2.18495170E-05
   4.30919981      -2.19862213E-05
   4.32119989      -2.21215869E-05
   4.33319998      -2.22556155E-05
   4.34520006      -2.23885072E-05
   4.35720015      -2.25206750E-05
   4.36920023      -2.26527191E-05
   4.38119984      -2.27854143E-05
   4.39319992      -2.29196303E-05
   4.40520000      -2.30562873E-05
   4.41720009      -2.31962586E-05
   4.42920017      -2.33402861E-05
   4.44119978      -2.34888994E-05
   4.45319986      -2.36423239E-05
   4.46519995      -2.38004268E-05
   4.47720003      -2.39626679E-05
   4.48920012      -2.41280832E-05
   4.50120020      -2.42952938E-05
   4.51319981      -2.44625644E-05
   4.52519989      -2.46278760E-05
   4.53719997      -2.47890439E-05
   4.54920006      -2.49438381E-05
   4.56120014      -2.50901558E-05
   4.57320023      -2.52261634E-05
   4.58519983      -2.53504604E-05
   4.59719992      -2.54622209E-05
   4.60920000      -2.55612977E-05
   4.62120008      -2.56483072E-05
   4.63320017      -2.57246738E-05
   4.64519978      -2.57926058E-05
   4.65719986      -2.58550481E-05
   4.66919994      -2.59155822E-05
   4.68120003      -2.59782828E-05
   4.69320011      -2.60475481E-05
   4.70520020      -2.61279110E-05
   4.71719980      -2.62238500E-05
   4.72919989      -2.63395887E-05
   4.74119997      -2.64789378E-05
   4.75320005      -2.66451370E-05
   4.76520014      -2.68407712E-05
   4.77720022      -2.70676865E-05
   4.78919983      -2.73269870E-05
   4.80119991      -2.76190531E-05
   4.81320000      -2.79436117E-05
   4.82520008      -2.82998135E-05
   4.83720016      -2.86863633E-05
   4.84919977      -2.91016277E-05
   4.86119986      -2.95437640E-05
   4.87319994      -3.00108350E-05
   4.88520002      -3.05009071E-05
   4.89720011      -3.10121068E-05
   4.90920019      -3.15426769E-05
   4.92119980      -3.20909858E-05
   4.93319988      -3.26555091E-05
   4.94519997      -3.32348136E-05
   4.95720005      -3.38275095E-05
   4.96920013      -3.44321852E-05
   4.98120022      -3.50473820E-05
   4.99319983      -3.56715318E-05
   5.00519991      -3.63029394E-05
   5.01719999      -3.69397785E-05
   5.02920008      -3.75801028E-05
   5.04120016      -3.82218786E-05
   5.05319977      -3.88630397E-05
   5.06519985      -3.95015632E-05
   5.07719994      -4.01355101E-05
   5.08920002      -4.07631305E-05
   5.10120010      -4.13829075E-05
   5.11320019      -4.19935968E-05
   5.12519979      -4.25942926E-05
   5.13719988      -4.31843800E-05
   5.14919996      -4.37635535E-05
   5.16120005      -4.43317658E-05
   5.17320013      -4.48891697E-05
   5.18520021      -4.54360488E-05
   5.19719982      -4.59727235E-05
   5.20919991      -4.64995028E-05
   5.22119999      -4.70165978E-05
   5.23320007      -4.75240995E-05
   5.24520016      -4.80219423E-05
   5.25719976      -4.85099226E-05
   5.26919985      -4.89877457E-05
   5.28119993      -4.94551095E-05
   5.29320002      -4.99117705E-05
   5.30520010      -5.03576812E-05
   5.31720018      -5.07931036E-05
   5.32919979      -5.12187253E-05
   5.34119987      -5.16357504E-05
   5.35319996      -5.20459871E-05
   5.36520004      -5.24518546E-05
   5.37720013      -5.28563723E-05
   5.38920021      -5.32630984E-05
   5.40119982      -5.36759726E-05
   5.41319990      -5.40991605E-05
   5.42519999      -5.45368021E-05
   5.43720007      -5.49927499E-05
   5.44920015      -5.54702929E-05
   5.46120024      -5.59718246E-05
   5.47319984      -5.64985894E-05
   5.48519993      -5.70504017E-05
   5.49720001      -5.76254351E-05
   5.50920010      -5.82200810E-05
   5.52120018      -5.88288713E-05
   5.53319979      -5.94444973E-05
   5.54519987      -6.00579187E-05
   5.55719995      -6.06585490E-05
   5.56920004      -6.12345684E-05
   5.58120012      -6.17733094E-05
   5.59320021      -6.22616790E-05
   5.60519981      -6.26866749E-05
   5.61719990      -6.30359427E-05
   5.62919998      -6.32983138E-05
   5.64120007      -6.34644020E-05
   5.65320015      -6.35271135E-05
   5.66520023      -6.34821408E-05
   5.67719984      -6.33283780E-05
   5.68919992      -6.30682698E-05
   5.70120001      -6.27080226E-05
   5.71320009      -6.22577718E-05
   5.72520018      -6.17315163E-05
   5.73719978      -6.11470605E-05
   5.74919987      -6.05257119E-05
   5.76119995      -5.98919250E-05
   5.77320004      -5.92727920E-05
   5.78520012      -5.86974493E-05
   5.79720020      -5.81963795E-05
   5.80919981      -5.78005966E-05
   5.82119989      -5.75408449E-05
   5.83319998      -5.74466831E-05
   5.84520006      -5.75455924E-05
   5.85720015      -5.78620675E-05
   5.86920023      -5.84167610E-05
   5.88119984      -5.92256038E-05
   5.89319992      -6.02991349E-05
   5.90520000      -6.16417528E-05
   5.91720009      -6.32512092E-05
   5.92920017      -6.51181763E-05
   5.94119978      -6.72259412E-05
   5.95319986      -6.95502822E-05
   5.96519995      -7.20594398E-05
   5.97720003      -7.47142985E-05
   5.98920012      -7.74686923E-05
   6.00120020      -8.02698269E-05
   6.01319981      -8.30588397E-05
   6.02519989      -8.57714622E-05
   6.03719997      -8.83387256E-05
   6.04920006      -9.06878340E-05
   6.06120014      -9.27429646E-05
   6.07320023      -9.44261919E-05
   6.08519983      -9.56582880E-05
   6.09719992      -9.63597195E-05
   6.10920000      -9.64514111E-05
   6.12120008      -9.58556193E-05
   6.13320017      -9.44967687E-05
   6.14519978      -9.23021871E-05
   6.15719986      -8.92029348E-05
   6.16919994      -8.51345249E-05
   6.18120003      -8.00377238E-05
   6.19320011      -7.38593008E-05
   6.20520020      -6.65528569E-05
   6.21719980      -5.80796368E-05
   6.22919989      -4.84093689E-05
   6.24119997      -3.75211603E-05
   6.25320005      -2.54044080E-05
   6.26520014      -1.20596560E-05
   6.27720022       2.50047924E-06
   6.28919983       1.82505100E-05
   6.30119991       3.51512899E-05
   6.31320000       5.31493642E-05
   6.32520008       7.21764591E-05
   6.33720016       9.21491082E-05
   6.34919977       1.12968584E-04
   6.36119986       1.34520931E-04
   6.37319994       1.56677386E-04
   6.38520002       1.79294948E-04
   6.39720011       2.02217416E-04
   6.40920019       2.25276570E-04
   6.42119980       2.48293596E-04
   6.43319988       2.71080993E-04
   6.44519997       2.93444522E-04
   6.45720005       3.15185549E-04
   6.46920013       3.36103316E-04
   6.48120022       3.55997588E-04
   6.49319983       3.74671363E-04
   6.50519991       3.91933369E-04
   6.51719999       4.07600892E-04
   6.52920008       4.21502336E-04
   6.54120016       4.33479785E-04
   6.55319977       4.43391153E-04
   6.56519985       4.51112544E-04
   6.57719994       4.56540089E-04
   6.58920002       4.59591509E-04
   6.60120010       4.60207666E-04
   6.61320019       4.58353403E-04
   6.62519979       4.54018475E-04
   6.63719988       4.47217841E-04
   6.64919996       4.37991868E-04
   6.66120005       4.26406012E-04
   6.67320013       4.12550493E-04
   6.68520021       3.96539224E-04
   6.69719982       3.78508819E-04
   6.70919991       3.58617224E-04
   6.72119999       3.37041885E-04
   6.73320007       3.13978060E-04
   6.74520016       2.89636431E-04
   6.75719976       2.64240807E-04
   6.76919985       2.38025590E-04
   6.78119993       2.11232866E-04
   6.79320002       1.84109478E-04
   6.80520010       1.56904076E-04
   6.81720018       1.29863853E-04
   6.82919979       1.03231308E-04
   6.84119987       7.72411149E-05
   6.85319996       5.21168877E-05
   6.86520004       2.80681052E-05
   6.87720013       5.28725877E-06
   6.88920021      -1.60528289E-05
   6.90119982      -3.58013640E-05
   6.91319990      -5.38315799E-05
   6.92519999      -7.00423043E-05
   6.93720007      -8.43590897E-05
   6.94920015      -9.67348024E-05
   6.96120024      -1.07149703E-04
   6.97319984      -1.15611023E-04
   6.98519993      -1.22151934E-04
   6.99720001      -1.26830113E-04
   7.00920010      -1.29725711E-04
   7.02120018      -1.30939065E-04
   7.03319979      -1.30587927E-04
   7.04519987      -1.28804575E-04
   7.05719995      -1.25732651E-04
   7.06920004      -1.21523954E-04
   7.08120012      -1.16335214E-04
   7.09320021      -1.10325120E-04
   7.10519981      -1.03651320E-04
   7.11719990      -9.64678329E-05
   7.12919998      -8.89227013E-05
   7.14120007      -8.11560167E-05
   7.15320015      -7.32983171E-05
   7.16520023      -6.54693358E-05
   7.17719984      -5.77771498E-05
   7.18919992      -5.03176598E-05
   7.20120001      -4.31743938E-05
   7.21320009      -3.64185507E-05
   7.22520018      -3.01093169E-05
   7.23719978      -2.42943133E-05
   7.24919987      -1.90101946E-05
   7.26119995      -1.42833169E-05
   7.27320004      -1.01304677E-05
   7.28520012      -6.55959548E-06
   7.29720020      -3.57054523E-06
   7.30919981      -1.15576699E-06
   7.32119989       6.98995336E-07
   7.33319998       2.01404487E-06
   7.34520006       2.81509642E-06
   7.35720015       3.13264718E-06
   7.36920023       3.00136253E-06
   7.38119984       2.45944602E-06
   7.39319992       1.54800080E-06
   7.40520000       3.10372883E-07
   7.41720009      -1.20853497E-06
   7.42920017      -2.96296434E-06
   7.44119978      -4.90701996E-06
   7.45319986      -6.99539760E-06
   7.46519995      -9.18409660E-06
   7.47720003      -1.14311115E-05
   7.48920012      -1.36970748E-05
   7.50120020      -1.59458323E-05
   7.51319981      -1.81449286E-05
   7.52519989      -2.02659812E-05
   7.53719997      -2.22849394E-05
   7.54920006      -2.41821836E-05
   7.56120014      -2.59424869E-05
   7.57320023      -2.75548173E-05
   7.58519983      -2.90119970E-05
   7.59719992      -3.03102097E-05
   7.60920000      -3.14483841E-05
   7.62120008      -3.24274843E-05
   7.63320017      -3.32497293E-05
   7.64519978      -3.39177714E-05
   7.65719986      -3.44338987E-05
   7.66919994      -3.47992900E-05
   7.68120003      -3.50133305E-05
   7.69320011      -3.50731170E-05
   7.70520020      -3.49730690E-05
   7.71719980      -3.47047971E-05
   7.72919989      -3.42571329E-05
   7.74119997      -3.36163939E-05
   7.75320005      -3.27668895E-05
   7.76520014      -3.16915866E-05
   7.77720022      -3.03729630E-05
   7.78919983      -2.87940002E-05
   7.80119991      -2.69392604E-05
   7.81320000      -2.47959961E-05
   7.82520008      -2.23552506E-05
   7.83720016      -1.96128840E-05
   7.84919977      -1.65704878E-05
   7.86119986      -1.32361183E-05
   7.87319994      -9.62483682E-06
   7.88520002      -5.75902004E-06
   7.89720011      -1.66841232E-06
   7.90920019       2.61006835E-06
   7.92119980       7.03278511E-06
   7.93319988       1.15500625E-05
   7.94519997       1.61070984E-05
   7.95720005       2.06450459E-05
   7.96920013       2.51022484E-05
   7.98120022       2.94155743E-05
   7.99319983       3.35218283E-05
   8.00520039       3.73591720E-05
   8.01720047       4.08685191E-05
   8.02919960       4.39948708E-05
   8.04119968       4.66885722E-05
   8.05319977       4.89064114E-05
   8.06519985       5.06125798E-05
   8.07719994       5.17794942E-05
   8.08920002       5.23883464E-05
   8.10120010       5.24295574E-05
   8.11320019       5.19029745E-05
   8.12520027       5.08178782E-05
   8.13720036       4.91928186E-05
   8.14920044       4.70552586E-05
   8.16119957       4.44410289E-05
   8.17319965       4.13936468E-05
   8.18519974       3.79635167E-05
   8.19719982       3.42069652E-05
   8.20919991       3.01852197E-05
   8.22119999       2.59632998E-05
   8.23320007       2.16088501E-05
   8.24520016       1.71909578E-05
   8.25720024       1.27789554E-05
   8.26920033       8.44123042E-06
   8.28120041       4.24408563E-06
   8.29319954       2.50637186E-07
   8.30519962      -3.48020922E-06
   8.31719971      -6.89469607E-06
   8.32919979      -9.94505172E-06
   8.34119987      -1.25902152E-05
   8.35319996      -1.47964356E-05
   8.36520004      -1.65377351E-05
   8.37720013      -1.77962374E-05
   8.38920021      -1.85623539E-05
   8.40120029      -1.88348113E-05
   8.41320038      -1.86205525E-05
   8.42520046      -1.79344788E-05
   8.43719959      -1.67990729E-05
   8.44919968      -1.52438879E-05
   8.46119976      -1.33049225E-05
   8.47319984      -1.10239071E-05
   8.48519993      -8.44749775E-06
   8.49720001      -5.62641389E-06
   8.50920010      -2.61451964E-06
   8.52120018       5.32104650E-07
   8.53320026       3.75610966E-06
   8.54520035       6.99980774E-06
   8.55720043       1.02060803E-05
   8.56919956       1.33192352E-05
   8.58119965       1.62858232E-05
   8.59319973       1.90553947E-05
   8.60519981       2.15812051E-05
   8.61719990       2.38208413E-05
   8.62919998       2.57368010E-05
   8.64120007       2.72970174E-05
   8.65320015       2.84753241E-05
   8.66520023       2.92518635E-05
   8.67720032       2.96134440E-05
   8.68920040       2.95538430E-05
   8.70119953       2.90740354E-05
   8.71319962       2.81823741E-05
   8.72519970       2.68946769E-05
   8.73719978       2.52342015E-05
   8.74919987       2.32315360E-05
   8.76119995       2.09243444E-05
   8.77320004       1.83569719E-05
   8.78520012       1.55798825E-05
   8.79720020       1.26489513E-05
   8.80920029       9.62456943E-06
   8.82120037       6.57060446E-06
   8.83320045       3.55319389E-06
   8.84519958       6.39427242E-07
   8.85719967      -2.10407757E-06
   8.86919975      -4.61266063E-06
   8.88119984      -6.82513064E-06
   8.89319992      -8.68525876E-06
   8.90520000      -1.01432061E-05
   8.91720009      -1.11568525E-05
   8.92920017      -1.16929759E-05
   8.94120026      -1.17282425E-05
   8.95320034      -1.12499902E-05
   8.96520042      -1.02567528E-05
   8.97719955      -8.75853766E-06
   8.98919964      -6.77681510E-06
   9.00119972      -4.34423555E-06
   9.01319981      -1.50406561E-06
   9.02519989       1.69063628E-06
   9.03719997       5.17809895E-06
   9.04920006       8.88914383E-06
   9.06120014       1.27486883E-05
   9.07320023       1.66774171E-05
   9.08520031       2.05935885E-05
   9.09720039       2.44149105E-05
   9.10919952       2.80604909E-05
   9.12119961       3.14527315E-05
   9.13319969       3.45192275E-05
   9.14519978       3.71944952E-05
   9.15719986       3.94215713E-05
   9.16919994       4.11534311E-05
   9.18120003       4.23541060E-05
   9.19320011       4.29995634E-05
   9.20520020       4.30782638E-05
   9.21720028       4.25913749E-05
   9.22920036       4.15526738E-05
   9.24120045       3.99881210E-05
   9.25319958       3.79350713E-05
   9.26519966       3.54412587E-05
   9.27719975       3.25634646E-05
   9.28919983       2.93660341E-05
   9.30119991       2.59191820E-05
   9.31320000       2.22972212E-05
   9.32520008       1.85767385E-05
   9.33720016       1.48347599E-05
   9.34920025       1.11469863E-05
   9.36120033       7.58611441E-06
   9.37320042       4.22029416E-06
   9.38519955       1.11174938E-06
   9.39719963      -1.68441511E-06
   9.40919971      -4.12120153E-06
   9.42119980      -6.16049874E-06
   9.43319988      -7.77364767E-06
   9.44519997      -8.94178811E-06
