 -0.622799993         1.00000002E-24
 -0.610800028         1.00000002E-24
 -0.598800004         1.00000002E-24
 -0.586799979        -1.81454532E-15
 -0.574800014        -1.11830236E-14
 -0.562799990        -3.73088130E-14
 -0.550800025        -8.76094986E-14
 -0.538800001        -1.58163833E-13
 -0.526799977        -2.23846088E-13
 -0.514800012        -2.34426411E-13
 -0.502799988        -1.22221284E-13
 -0.490799993         1.77303362E-13
 -0.478799999         6.97007610E-13
 -0.466800004         1.41272313E-12
 -0.454800010         2.23487678E-12
 -0.442799985         3.02829094E-12
 -0.430799991         3.66347447E-12
 -0.418799996         4.09178550E-12
 -0.406800002         4.42669252E-12
 -0.394800007         5.00791682E-12
 -0.382800013         6.42706548E-12
 -0.370799989         9.50279005E-12
 -0.358799994         1.52080640E-11
 -0.346799999         2.45678547E-11
 -0.334800005         3.85573587E-11
 -0.322800010         5.80355521E-11
 -0.310799986         8.37439701E-11
 -0.298799992         1.16387282E-10
 -0.286799997         1.56793092E-10
 -0.274800003         2.06128142E-10
 -0.262800008         2.66131756E-10
 -0.250800014         3.39319267E-10
 -0.238800004         4.29111524E-10
 -0.226799995         5.39862266E-10
 -0.214800000         6.76777856E-10
 -0.202800006         8.45753578E-10
 -0.190799996         1.05317444E-09
 -0.178800002         1.30573941E-09
 -0.166800007         1.61036584E-09
 -0.154799998         1.97420813E-09
 -0.142800003         2.40478615E-09
 -0.130799994         2.91018321E-09
 -0.118799999         3.49923113E-09
 -0.106799997         4.18159773E-09
  -9.48000029E-02     4.96768315E-09
  -8.28000009E-02     5.86828053E-09
  -7.07999989E-02     6.89397117E-09
  -5.88000007E-02     8.05429501E-09
  -4.67999987E-02     9.35671896E-09
  -3.48000005E-02     1.08054641E-08
  -2.28000004E-02     1.24001733E-08
  -1.08000003E-02     1.41344199E-08
   1.20000006E-03     1.59939670E-08
   1.31999999E-02     1.79547257E-08
   2.52000000E-02     1.99803996E-08
   3.72000001E-02     2.20198988E-08
   4.91999984E-02     2.40047697E-08
   6.12000003E-02     2.58471022E-08
   7.32000023E-02     2.74385208E-08
   8.51999968E-02     2.86510620E-08
   9.71999988E-02     2.93407911E-08
  0.109200001         2.93549718E-08
  0.121200003         2.85433721E-08
  0.133200005         2.67739093E-08
  0.145199999         2.39523406E-08
  0.157199994         2.00449399E-08
  0.169200003         1.51024278E-08
  0.181199998         9.28271326E-09
  0.193200007         2.86946800E-09
  0.205200002        -3.71677444E-09
  0.217199996        -9.91816229E-09
  0.229200006        -1.50524979E-08
  0.241200000        -1.83415612E-08
  0.253199995        -1.89556228E-08
  0.265199989        -1.60736242E-08
  0.277200013        -8.95713104E-09
  0.289200008         2.96541613E-09
  0.301200002         2.00089545E-08
  0.313199997         4.21428616E-08
  0.325199991         6.89103743E-08
  0.337199986         9.93650957E-08
  0.349200010         1.32033932E-07
  0.361200005         1.64916216E-07
  0.373199999         1.95527676E-07
  0.385199994         2.20996085E-07
  0.397199988         2.38211996E-07
  0.409200013         2.44033629E-07
  0.421200007         2.35538508E-07
  0.433200002         2.10308883E-07
  0.445199996         1.66731354E-07
  0.457199991         1.04286173E-07
  0.469199985         2.37980746E-08
  0.481200010        -7.23807929E-08
  0.493200004        -1.80283308E-07
  0.505200028        -2.94358642E-07
  0.517199993        -4.07639220E-07
  0.529200017        -5.12049439E-07
  0.541199982        -5.98853205E-07
  0.553200006        -6.59223758E-07
  0.565199971        -6.84907548E-07
  0.577199996        -6.68941880E-07
  0.589200020        -6.06376432E-07
  0.601199985        -4.94942014E-07
  0.613200009        -3.35605534E-07
  0.625199974        -1.32952110E-07
  0.637199998         1.04657317E-07
  0.649200022         3.65194353E-07
  0.661199987         6.33360401E-07
  0.673200011         8.91277523E-07
  0.685199976         1.11945337E-06
  0.697200000         1.29797900E-06
  0.709200025         1.40789621E-06
  0.721199989         1.43265459E-06
  0.733200014         1.35956316E-06
  0.745199978         1.18113689E-06
  0.757200003         8.96236429E-07
  0.769200027         5.10907000E-07
  0.781199992         3.88370296E-08
  0.793200016        -4.98625070E-07
  0.805199981        -1.07292658E-06
  0.817200005        -1.64924631E-06
  0.829200029        -2.18788159E-06
  0.841199994        -2.64602591E-06
  0.853200018        -2.97985753E-06
  0.865199983        -3.14681984E-06
  0.877200007        -3.10797395E-06
  0.889199972        -2.83028589E-06
  0.901199996        -2.28871136E-06
  0.913200021        -1.46795469E-06
  0.925199986        -3.63780458E-07
  0.937200010         1.01620265E-06
  0.949199975         2.65236258E-06
  0.961199999         4.51349069E-06
  0.973200023         6.55787107E-06
  0.985199988         8.73495810E-06
  0.997200012         1.09875646E-05
   1.00919998         1.32544856E-05
   1.02119994         1.54734153E-05
   1.03320003         1.75840287E-05
   1.04519999         1.95310458E-05
   1.05719995         2.12671584E-05
   1.06920004         2.27556320E-05
   1.08120000         2.39724486E-05
   1.09319997         2.49079039E-05
   1.10520005         2.55675095E-05
   1.11720002         2.59722055E-05
   1.12919998         2.61577952E-05
   1.14119995         2.61736532E-05
   1.15320003         2.60807083E-05
   1.16520000         2.59488224E-05
   1.17719996         2.58536129E-05
   1.18920004         2.58729106E-05
   1.20120001         2.60829565E-05
   1.21319997         2.65545477E-05
   1.22520006         2.73492551E-05
   1.23720002         2.85159367E-05
   1.24919999         3.00876527E-05
   1.26119995         3.20791551E-05
   1.27320004         3.44850596E-05
   1.28520000         3.72787545E-05
   1.29719996         4.04121565E-05
   1.30920005         4.38162751E-05
   1.32120001         4.74026165E-05
   1.33319998         5.10653736E-05
   1.34519994         5.46843003E-05
   1.35720003         5.81282220E-05
   1.36919999         6.12589865E-05
   1.38119996         6.39357750E-05
   1.39320004         6.60195001E-05
   1.40520000         6.73773320E-05
   1.41719997         6.78868964E-05
   1.42920005         6.74402254E-05
   1.44120002         6.59472789E-05
   1.45319998         6.33388117E-05
   1.46519995         5.95686142E-05
   1.47720003         5.46150368E-05
   1.48920000         4.84817319E-05
   1.50119996         4.11977089E-05
   1.51320004         3.28166134E-05
   1.52520001         2.34153795E-05
   1.53719997         1.30923027E-05
   1.54920006         1.96459041E-06
   1.56120002        -9.83443533E-06
   1.57319999        -2.21584596E-05
   1.58519995        -3.48514513E-05
   1.59720004        -4.77510293E-05
   1.60920000        -6.06918147E-05
   1.62119997        -7.35087306E-05
   1.63320005        -8.60400978E-05
   1.64520001        -9.81305857E-05
   1.65719998        -1.09633882E-04
   1.66919994        -1.20415105E-04
   1.68120003        -1.30352884E-04
   1.69319999        -1.39341137E-04
   1.70519996        -1.47290470E-04
   1.71720004        -1.54129157E-04
   1.72920001        -1.59803880E-04
   1.74119997        -1.64279816E-04
   1.75320005        -1.67540653E-04
   1.76520002        -1.69587918E-04
   1.77719998        -1.70440078E-04
   1.78919995        -1.70131272E-04
   1.80120003        -1.68709725E-04
   1.81320000        -1.66235914E-04
   1.82519996        -1.62780503E-04
   1.83720005        -1.58422365E-04
   1.84920001        -1.53246350E-04
   1.86119998        -1.47341343E-04
   1.87320006        -1.40798351E-04
   1.88520002        -1.33708891E-04
   1.89719999        -1.26163621E-04
   1.90919995        -1.18251330E-04
   1.92120004        -1.10058179E-04
   1.93320000        -1.01667283E-04
   1.94519997        -9.31586110E-05
   1.95720005        -8.46089897E-05
   1.96920002        -7.60923940E-05
   1.98119998        -6.76802447E-05
   1.99319994        -5.94417361E-05
   2.00519991        -5.14441344E-05
   2.01719999        -4.37528506E-05
   2.02920008        -3.64314365E-05
   2.04119992        -2.95412465E-05
   2.05320001        -2.31408903E-05
   2.06520009        -1.72854325E-05
   2.07719994        -1.20253353E-05
   2.08920002        -7.40523365E-06
   2.10120010        -3.46256456E-06
   2.11319995        -2.26153944E-07
   2.12520003         2.28517615E-06
   2.13720012         4.06389154E-06
   2.14919996         5.11485268E-06
   2.16120005         5.45614921E-06
   2.17319989         5.11961434E-06
   2.18519998         4.15095019E-06
   2.19720006         2.60941329E-06
   2.20919991         5.67046811E-07
   2.22119999        -1.89257116E-06
   2.23320007        -4.67604104E-06
   2.24519992        -7.68229438E-06
   2.25720000        -1.08051290E-05
   2.26920009        -1.39360491E-05
   2.28119993        -1.69673203E-05
   2.29320002        -1.97951304E-05
   2.30520010        -2.23227507E-05
   2.31719995        -2.44635794E-05
   2.32920003        -2.61439400E-05
   2.34120011        -2.73055466E-05
   2.35319996        -2.79075466E-05
   2.36520004        -2.79280302E-05
   2.37719989        -2.73649621E-05
   2.38919997        -2.62364829E-05
   2.40120006        -2.45805586E-05
   2.41319990        -2.24539617E-05
   2.42519999        -1.99306214E-05
   2.43720007        -1.70993717E-05
   2.44919991        -1.40611501E-05
   2.46120000        -1.09257671E-05
   2.47320008        -7.80829123E-06
   2.48519993        -4.82519272E-06
   2.49720001        -2.09035670E-06
   2.50920010         2.88927140E-07
   2.52119994         2.21583991E-06
   2.53320003         3.60767262E-06
   2.54520011         4.39908081E-06
   2.55719995         4.54483461E-06
   2.56920004         4.02194473E-06
   2.58119988         2.83107170E-06
   2.59319997         9.97123152E-07
   2.60520005        -1.43101056E-06
   2.61719990        -4.38160941E-06
   2.62919998        -7.76216621E-06
   2.64120007        -1.14622808E-05
   2.65319991        -1.53573219E-05
   2.66520000        -1.93127507E-05
   2.67720008        -2.31889717E-05
   2.68919992        -2.68465155E-05
   2.70120001        -3.01513810E-05
   2.71320009        -3.29802897E-05
   2.72519994        -3.52256648E-05
   2.73720002        -3.68001165E-05
   2.74920011        -3.76402022E-05
   2.76119995        -3.77092983E-05
   2.77320004        -3.69994887E-05
   2.78520012        -3.55322882E-05
   2.79719996        -3.33582466E-05
   2.80920005        -3.05553476E-05
   2.82119989        -2.72262841E-05
   2.83319998        -2.34947584E-05
   2.84520006        -1.95008488E-05
   2.85719991        -1.53956789E-05
   2.86919999        -1.13355964E-05
   2.88120008        -7.47607282E-06
   2.89319992        -3.96558971E-06
   2.90520000        -9.39746656E-07
   2.91720009         1.48414824E-06
   2.92919993         3.21178754E-06
   2.94120002         4.17568253E-06
   2.95320010         4.33792093E-06
   2.96519995         3.69176428E-06
   2.97720003         2.26201678E-06
   2.98920012         1.04157728E-07
   3.00119996        -2.69772590E-06
   3.01320004        -6.03412309E-06
   3.02519989        -9.77426953E-06
   3.03719997        -1.37711313E-05
   3.04920006        -1.78670234E-05
   3.06119990        -2.18996411E-05
   3.07319999        -2.57082283E-05
   3.08520007        -2.91397264E-05
   3.09719992        -3.20545441E-05
   3.10920000        -3.43318388E-05
   3.12120008        -3.58740326E-05
   3.13319993        -3.66104323E-05
   3.14520001        -3.64997904E-05
   3.15720010        -3.55317788E-05
   3.16919994        -3.37272468E-05
   3.18120003        -3.11373769E-05
   3.19320011        -2.78416665E-05
   3.20519996        -2.39449528E-05
   3.21720004        -1.95734810E-05
   3.22919989        -1.48702547E-05
   3.24119997        -9.98980158E-06
   3.25320005        -5.09259507E-06
   3.26519990        -3.39301522E-07
   3.27719998         4.11489236E-06
   3.28920007         8.12568214E-06
   3.30119991         1.15645535E-05
   3.31320000         1.43230345E-05
   3.32520008         1.63161330E-05
   3.33719993         1.74848465E-05
   3.34920001         1.77976726E-05
   3.36120009         1.72510809E-05
   3.37319994         1.58689490E-05
   3.38520002         1.37010393E-05
   3.39720011         1.08205495E-05
   3.40919995         7.32089984E-06
   3.42120004         3.31187562E-06
   3.43319988        -1.08470078E-06
   3.44519997        -5.73957959E-06
   3.45720005        -1.05208010E-05
   3.46919990        -1.52982921E-05
   3.48119998        -1.99482220E-05
   3.49320006        -2.43568684E-05
   3.50519991        -2.84239140E-05
   3.51719999        -3.20650361E-05
   3.52920008        -3.52137286E-05
   3.54119992        -3.78223049E-05
   3.55320001        -3.98621014E-05
   3.56520009        -4.13229245E-05
   3.57719994        -4.22117810E-05
   3.58920002        -4.25511062E-05
   3.60120010        -4.23764905E-05
   3.61319995        -4.17341544E-05
   3.62520003        -4.06782783E-05
   3.63720012        -3.92683032E-05
   3.64919996        -3.75664495E-05
   3.66120005        -3.56354358E-05
   3.67319989        -3.35365876E-05
   3.68519998        -3.13283454E-05
   3.69720006        -2.90652042E-05
   3.70919991        -2.67971063E-05
   3.72119999        -2.45691990E-05
   3.73320007        -2.24219530E-05
   3.74519992        -2.03915042E-05
   3.75720000        -1.85101362E-05
   3.76920009        -1.68068218E-05
   3.78119993        -1.53076799E-05
   3.79320002        -1.40362999E-05
   3.80520010        -1.30138505E-05
   3.81719995        -1.22589336E-05
   3.82920003        -1.17871668E-05
   3.84120011        -1.16105484E-05
   3.85319996        -1.17365971E-05
   3.86520004        -1.21673693E-05
   3.87719989        -1.28984539E-05
   3.88919997        -1.39179847E-05
   3.90120006        -1.52058101E-05
   3.91319990        -1.67328999E-05
   3.92519999        -1.84610599E-05
   3.93720007        -2.03430191E-05
   3.94919991        -2.23229763E-05
   3.96120000        -2.43375907E-05
   3.97320008        -2.63174370E-05
   3.98519993        -2.81889261E-05
   3.99720001        -2.98766081E-05
   4.00920010        -3.13058117E-05
   4.02120018        -3.24055072E-05
   4.03319979        -3.31112969E-05
   4.04519987        -3.33683456E-05
   4.05719995        -3.31341980E-05
   4.06920004        -3.23812492E-05
   4.08120012        -3.10988289E-05
   4.09320021        -2.92947116E-05
   4.10519981        -2.69959819E-05
   4.11719990        -2.42492060E-05
   4.12919998        -2.11198094E-05
   4.14120007        -1.76906906E-05
   4.15320015        -1.40600496E-05
   4.16520023        -1.03385164E-05
   4.17719984        -6.64562776E-06
   4.18919992        -3.10580822E-06
   4.20120001         1.56028435E-07
   4.21320009         3.01904652E-06
   4.22520018         5.37104597E-06
   4.23719978         7.11281473E-06
   4.24919987         8.16206739E-06
   4.26119995         8.45680370E-06
   4.27320004         7.95793221E-06
   4.28520012         6.65104608E-06
   4.29720020         4.54728115E-06
   4.30919981         1.68322526E-06
   4.32119989        -1.88012223E-06
   4.33319998        -6.05926971E-06
   4.34520006        -1.07509586E-05
   4.35720015        -1.58355688E-05
   4.36920023        -2.11810784E-05
   4.38119984        -2.66473671E-05
   4.39319992        -3.20907675E-05
   4.40520000        -3.73685943E-05
   4.41720009        -4.23435777E-05
   4.42920017        -4.68879407E-05
   4.44119978        -5.08870944E-05
   4.45319986        -5.42427806E-05
   4.46519995        -5.68755786E-05
   4.47720003        -5.87268150E-05
   4.48920012        -5.97597827E-05
   4.50120020        -5.99603336E-05
   4.51319981        -5.93368422E-05
   4.52519989        -5.79196021E-05
   4.53719997        -5.57597305E-05
   4.54920006        -5.29275349E-05
   4.56120014        -4.95105014E-05
   4.57320023        -4.56108828E-05
   4.58519983        -4.13429625E-05
   4.59719992        -3.68300462E-05
   4.60920000        -3.22011911E-05
   4.62120008        -2.75878065E-05
   4.63320017        -2.31201448E-05
   4.64519978        -1.89237580E-05
   4.65719986        -1.51160275E-05
   4.66919994        -1.18028329E-05
   4.68120003        -9.07548383E-06
   4.69320011        -7.00799910E-06
   4.70520020        -5.65484834E-06
   4.71719980        -5.04925447E-06
   4.72919989        -5.20214417E-06
   4.74119997        -6.10181451E-06
   4.75320005        -7.71435953E-06
   4.76520014        -9.98486667E-06
   4.77720022        -1.28393485E-05
   4.78919983        -1.61873450E-05
   4.80119991        -1.99250935E-05
   4.81320000        -2.39391193E-05
   4.82520008        -2.81101075E-05
   4.83720016        -3.23168570E-05
   4.84919977        -3.64401749E-05
   4.86119986        -4.03665181E-05
   4.87319994        -4.39912765E-05
   4.88520002        -4.72215288E-05
   4.89720011        -4.99782473E-05
   4.90920019        -5.21979237E-05
   4.92119980        -5.38334971E-05
   4.93319988        -5.48547832E-05
   4.94519997        -5.52483507E-05
   4.95720005        -5.50169789E-05
   4.96920013        -5.41787522E-05
   4.98120022        -5.27659249E-05
   4.99319983        -5.08236262E-05
   5.00519991        -4.84084521E-05
   5.01719999        -4.55869995E-05
   5.02920008        -4.24343816E-05
   5.04120016        -3.90327223E-05
   5.05319977        -3.54695840E-05
   5.06519985        -3.18363382E-05
   5.07719994        -2.82264409E-05
   5.08920002        -2.47335556E-05
   5.10120010        -2.14495522E-05
   5.11320019        -1.84623659E-05
   5.12519979        -1.58537350E-05
   5.13719988        -1.36968611E-05
   5.14919996        -1.20541017E-05
   5.16120005        -1.09747343E-05
   5.17320013        -1.04929741E-05
   5.18520021        -1.06263069E-05
   5.19719982        -1.13742899E-05
   5.20919991        -1.27179183E-05
   5.22119999        -1.46196398E-05
   5.23320007        -1.70240546E-05
   5.24520016        -1.98593207E-05
   5.25719976        -2.30392270E-05
   5.26919985        -2.64658775E-05
   5.28119993        -3.00328284E-05
   5.29320002        -3.36286212E-05
   5.30520010        -3.71404676E-05
   5.31720018        -4.04580169E-05
   5.32919979        -4.34769463E-05
   5.34119987        -4.61022719E-05
   5.35319996        -4.82512150E-05
   5.36520004        -4.98555128E-05
   5.37720013        -5.08630947E-05
   5.38920021        -5.12390070E-05
   5.40119982        -5.09657330E-05
   5.41319990        -5.00427413E-05
   5.42519999        -4.84855336E-05
   5.43720007        -4.63241631E-05
   5.44920015        -4.36014052E-05
   5.46120024        -4.03707018E-05
   5.47319984        -3.66940149E-05
   5.48519993        -3.26396839E-05
   5.49720001        -2.82804285E-05
   5.50920010        -2.36915166E-05
   5.52120018        -1.89491730E-05
   5.53319979        -1.41292649E-05
   5.54519987        -9.30623810E-06
   5.55719995        -4.55231111E-06
   5.56920004         6.31268122E-08
   5.58120012         4.47394905E-06
   5.59320021         8.61762692E-06
   5.60519981         1.24355211E-05
   5.61719990         1.58731873E-05
   5.62919998         1.88807517E-05
   5.64120007         2.14133743E-05
   5.65320015         2.34318086E-05
   5.66520023         2.49030563E-05
   5.67719984         2.58010768E-05
   5.68919992         2.61075056E-05
   5.70120001         2.58123491E-05
   5.71320009         2.49145833E-05
   5.72520018         2.34226300E-05
   5.73719978         2.13546482E-05
   5.74919987         1.87386322E-05
   5.76119995         1.56122569E-05
   5.77320004         1.20224986E-05
   5.78520012         8.02496925E-06
   5.79720020         3.68300402E-06
   5.80919981        -9.33510307E-07
   5.82119989        -5.74953447E-06
   5.83319998        -1.06864600E-05
   5.84520006        -1.56638398E-05
   5.85720015        -2.06012046E-05
   5.86920023        -2.54199131E-05
   5.88119984        -3.00449647E-05
   5.89319992        -3.44067412E-05
   5.90520000        -3.84426166E-05
   5.91720009        -4.20983597E-05
   5.92920017        -4.53293760E-05
   5.94119978        -4.81016359E-05
   5.95319986        -5.03923220E-05
   5.96519995        -5.21901347E-05
   5.97720003        -5.34953033E-05
   5.98920012        -5.43191418E-05
   6.00120020        -5.46833435E-05
   6.01319981        -5.46188821E-05
   6.02519989        -5.41646477E-05
   6.03719997        -5.33658385E-05
   6.04920006        -5.22722003E-05
   6.06120014        -5.09361416E-05
   6.07320023        -4.94108353E-05
   6.08519983        -4.77483773E-05
   6.09719992        -4.59980656E-05
   6.10920000        -4.42048658E-05
   6.12120008        -4.24081336E-05
   6.13320017        -4.06406398E-05
   6.14519978        -3.89279558E-05
   6.15719986        -3.72881914E-05
   6.16919994        -3.57321187E-05
   6.18120003        -3.42636486E-05
   6.19320011        -3.28806127E-05
   6.20520020        -3.15758298E-05
   6.21719980        -3.03383767E-05
   6.22919989        -2.91549932E-05
   6.24119997        -2.80115437E-05
   6.25320005        -2.68944987E-05
   6.26520014        -2.57923220E-05
   6.27720022        -2.46967375E-05
   6.28919983        -2.36037868E-05
   6.30119991        -2.25146559E-05
   6.31320000        -2.14362026E-05
   6.32520008        -2.03811524E-05
   6.33720016        -1.93679898E-05
   6.34919977        -1.84205055E-05
   6.36119986        -1.75670630E-05
   6.37319994        -1.68395836E-05
   6.38520002        -1.62723300E-05
   6.39720011        -1.59005394E-05
   6.40920019        -1.57589366E-05
   6.42119980        -1.58802341E-05
   6.43319988        -1.62936303E-05
   6.44519997        -1.70233980E-05
   6.45720005        -1.80876013E-05
   6.46920013        -1.94970053E-05
   6.48120022        -2.12542091E-05
   6.49319983        -2.33530700E-05
   6.50519991        -2.57784104E-05
   6.51719999        -2.85060014E-05
   6.52920008        -3.15028774E-05
   6.54120016        -3.47278619E-05
   6.55319977        -3.81323371E-05
   6.56519985        -4.16611874E-05
   6.57719994        -4.52538661E-05
   6.58920002        -4.88456099E-05
   6.60120010        -5.23686867E-05
   6.61320019        -5.57537569E-05
   6.62519979        -5.89312403E-05
   6.63719988        -6.18327831E-05
   6.64919996        -6.43927051E-05
   6.66120005        -6.65494590E-05
   6.67320013        -6.82471218E-05
   6.68520021        -6.94367627E-05
   6.69719982        -7.00778328E-05
   6.70919991        -7.01393874E-05
   6.72119999        -6.96011921E-05
   6.73320007        -6.84546758E-05
   6.74520016        -6.67036147E-05
   6.75719976        -6.43646126E-05
   6.76919985        -6.14672826E-05
   6.78119993        -5.80540182E-05
   6.79320002        -5.41795125E-05
   6.80520010        -4.99097841E-05
   6.81720018        -4.53208850E-05
   6.82919979        -4.04971979E-05
   6.84119987        -3.55294324E-05
   6.85319996        -3.05123413E-05
   6.86520004        -2.55422437E-05
   6.87720013        -2.07144694E-05
   6.88920021        -1.61208100E-05
   6.90119982        -1.18470889E-05
   6.91319990        -7.97095981E-06
   6.92519999        -4.56001362E-06
   6.93720007        -1.67029020E-06
   6.94920015         6.54779569E-07
   6.96120024         2.38495227E-06
   6.97319984         3.50329219E-06
   6.98519993         4.00586578E-06
   6.99720001         3.90105606E-06
   7.00920010         3.20858362E-06
   7.02120018         1.95831740E-06
   7.03319979         1.88952200E-07
   7.04519987        -2.05334959E-06
   7.05719995        -4.71629573E-06
   7.06920004        -7.74270393E-06
   7.08120012        -1.10716310E-05
   7.09320021        -1.46393486E-05
   7.10519981        -1.83801822E-05
   7.11719990        -2.22272465E-05
   7.12919998        -2.61130754E-05
   7.14120007        -2.99702660E-05
   7.15320015        -3.37321471E-05
   7.16520023        -3.73335388E-05
   7.17719984        -4.07116859E-05
   7.18919992        -4.38073221E-05
   7.20120001        -4.65659250E-05
   7.21320009        -4.89391095E-05
   7.22520018        -5.08860539E-05
   7.23719978        -5.23749623E-05
   7.24919987        -5.33843413E-05
   7.26119995        -5.39040848E-05
   7.27320004        -5.39361972E-05
   7.28520012        -5.34950850E-05
   7.29720020        -5.26073709E-05
   7.30919981        -5.13111918E-05
   7.32119989        -4.96549874E-05
   7.33319998        -4.76958157E-05
   7.34520006        -4.54972796E-05
   7.35720015        -4.31271765E-05
   7.36920023        -4.06549589E-05
   7.38119984        -3.81491809E-05
   7.39319992        -3.56750679E-05
   7.40520000        -3.32923046E-05
   7.41720009        -3.10532123E-05
   7.42920017        -2.90013541E-05
   7.44119978        -2.71706722E-05
   7.45319986        -2.55851610E-05
   7.46519995        -2.42590595E-05
   7.47720003        -2.31975100E-05
   7.48920012        -2.23976076E-05
   7.50120020        -2.18497134E-05
   7.51319981        -2.15389209E-05
   7.52519989        -2.14465363E-05
   7.53719997        -2.15514665E-05
   7.54920006        -2.18313871E-05
   7.56120014        -2.22636463E-05
   7.57320023        -2.28258523E-05
   7.58519983        -2.34961608E-05
   7.59719992        -2.42532678E-05
   7.60920000        -2.50762205E-05
   7.62120008        -2.59441149E-05
   7.63320017        -2.68357544E-05
   7.64519978        -2.77294075E-05
   7.65719986        -2.86027516E-05
   7.66919994        -2.94330057E-05
   7.68120003        -3.01973341E-05
   7.69320011        -3.08735107E-05
   7.70520020        -3.14408098E-05
   7.71719980        -3.18810089E-05
   7.72919989        -3.21794905E-05
   7.74119997        -3.23262720E-05
   7.75320005        -3.23168933E-05
   7.76520014        -3.21530533E-05
   7.77720022        -3.18428683E-05
   7.78919983        -3.14007630E-05
   7.80119991        -3.08468989E-05
   7.81320000        -3.02061853E-05
   7.82520008        -2.95069422E-05
   7.83720016        -2.87792682E-05
   7.84919977        -2.80532950E-05
   7.86119986        -2.73574060E-05
   7.87319994        -2.67166270E-05
   7.88520002        -2.61513142E-05
   7.89720011        -2.56762178E-05
   7.90920019        -2.53000781E-05
   7.92119980        -2.50256926E-05
   7.93319988        -2.48505057E-05
   7.94519997        -2.47676271E-05
   7.95720005        -2.47671651E-05
   7.96920013        -2.48377619E-05
   7.98120022        -2.49681543E-05
   7.99319983        -2.51486163E-05
   8.00520039        -2.53721628E-05
   8.01720047        -2.56353851E-05
   8.02919960        -2.59388489E-05
   8.04119968        -2.62870144E-05
   8.05319977        -2.66877141E-05
   8.06519985        -2.71511872E-05
   8.07719994        -2.76888459E-05
   8.08920002        -2.83117843E-05
   8.10120010        -2.90292483E-05
   8.11320019        -2.98471750E-05
   8.12520027        -3.07669325E-05
   8.13720036        -3.17843842E-05
   8.14920044        -3.28893548E-05
   8.16119957        -3.40655897E-05
   8.17319965        -3.52911484E-05
   8.18519974        -3.65392516E-05
   8.19719982        -3.77795222E-05
   8.20919991        -3.89794805E-05
   8.22119999        -4.01062061E-05
   8.23320007        -4.11280525E-05
   8.24520016        -4.20162432E-05
   8.25720024        -4.27463165E-05
   8.26920033        -4.32992783E-05
   8.28120041        -4.36623741E-05
   8.29319954        -4.38295356E-05
   8.30519962        -4.38013922E-05
   8.31719971        -4.35849470E-05
   8.32919979        -4.31929184E-05
   8.34119987        -4.26428051E-05
   8.35319996        -4.19557582E-05
   8.36520004        -4.11553810E-05
   8.37720013        -4.02664155E-05
   8.38920021        -3.93135706E-05
   8.40120029        -3.83203733E-05
   8.41320038        -3.73082403E-05
   8.42520046        -3.62957289E-05
   8.43719959        -3.52979732E-05
   8.44919968        -3.43264219E-05
   8.46119976        -3.33887147E-05
   8.47319984        -3.24888024E-05
   8.48519993        -3.16271908E-05
   8.49720001        -3.08013368E-05
   8.50920010        -3.00061256E-05
   8.52120018        -2.92343975E-05
   8.53320026        -2.84774997E-05
   8.54520035        -2.77258350E-05
   8.55720043        -2.69694119E-05
   8.56919956        -2.61983532E-05
   8.58119965        -2.54033712E-05
   8.59319973        -2.45762476E-05
   8.60519981        -2.37102504E-05
   8.61719990        -2.28005447E-05
   8.62919998        -2.18445639E-05
   8.64120007        -2.08423244E-05
   8.65320015        -1.97967074E-05
   8.66520023        -1.87136357E-05
   8.67720032        -1.76021949E-05
   8.68920040        -1.64746380E-05
   8.70119953        -1.53462897E-05
   8.71319962        -1.42353210E-05
   8.72519970        -1.31624229E-05
   8.73719978        -1.21503363E-05
   8.74919987        -1.12232747E-05
   8.76119995        -1.04062428E-05
   8.77320004        -9.72425551E-06
   8.78520012        -9.20150796E-06
   8.79720020        -8.86051112E-06
   8.80920029        -8.72125474E-06
   8.82120037        -8.80042899E-06
   8.83320045        -9.11076404E-06
   8.84519958        -9.66051357E-06
   8.85719967        -1.04531091E-05
   8.86919975        -1.14870027E-05
   8.88119984        -1.27556877E-05
   8.89319992        -1.42478902E-05
   8.90520000        -1.59478877E-05
   8.91720009        -1.78359387E-05
   8.92920017        -1.98887883E-05
   8.94120026        -2.20802140E-05
   8.95320034        -2.43815739E-05
   8.96520042        -2.67623491E-05
   8.97719955        -2.91906799E-05
   8.98919964        -3.16338155E-05
   9.00119972        -3.40585648E-05
   9.01319981        -3.64316729E-05
   9.02519989        -3.87201981E-05
   9.03719997        -4.08918531E-05
   9.04920006        -4.29153770E-05
   9.06120014        -4.47609782E-05
   9.07320023        -4.64008081E-05
   9.08520031        -4.78095608E-05