 -0.622799993         1.00000002E-24
 -0.610800028         1.00000002E-24
 -0.598800004         1.00000002E-24
 -0.586799979        -1.52195261E-15
 -0.574800014        -9.40352092E-15
 -0.562799990        -3.14710890E-14
 -0.550800025        -7.41717072E-14
 -0.538800001        -1.34399707E-13
 -0.526799977        -1.90614506E-13
 -0.514800012        -1.98313344E-13
 -0.502799988        -9.45763853E-14
 -0.490799993         1.86706350E-13
 -0.478799999         6.92301956E-13
 -0.466800004         1.42806990E-12
 -0.454800010         2.34920590E-12
 -0.442799985         3.37182517E-12
 -0.430799991         4.41013111E-12
 -0.418799996         5.43562157E-12
 -0.406800002         6.54705977E-12
 -0.394800007         8.03497026E-12
 -0.382800013         1.04241043E-11
 -0.370799989         1.44821238E-11
 -0.358799994         2.11914635E-11
 -0.346799999         3.16919095E-11
 -0.334800005         4.72108845E-11
 -0.322800010         6.90046492E-11
 -0.310799986         9.83344517E-11
 -0.298799992         1.36496661E-10
 -0.286799997         1.84915222E-10
 -0.274800003         2.45289955E-10
 -0.262800008         3.19778787E-10
 -0.250800014         4.11178563E-10
 -0.238800004         5.23062926E-10
 -0.226799995         6.59840627E-10
 -0.214800000         8.26710977E-10
 -0.202800006         1.02951891E-09
 -0.190799996         1.27453847E-09
 -0.178800002         1.56823243E-09
 -0.166800007         1.91704830E-09
 -0.154799998         2.32729636E-09
 -0.142800003         2.80512991E-09
 -0.130799994         3.35661121E-09
 -0.118799999         3.98780786E-09
 -0.106799997         4.70484673E-09
  -9.48000029E-02     5.51384716E-09
  -8.28000009E-02     6.42068931E-09
  -7.07999989E-02     7.43060147E-09
  -5.88000007E-02     8.54760263E-09
  -4.67999987E-02     9.77385373E-09
  -3.48000005E-02     1.11089777E-08
  -2.28000004E-02     1.25493660E-08
  -1.08000003E-02     1.40874468E-08
   1.20000006E-03     1.57108264E-08
   1.31999999E-02     1.74011738E-08
   2.52000000E-02     1.91327274E-08
   3.72000001E-02     2.08703934E-08
   4.91999984E-02     2.25674643E-08
   6.12000003E-02     2.41632296E-08
   7.32000023E-02     2.55809134E-08
   8.51999968E-02     2.67266298E-08
   9.71999988E-02     2.74900938E-08
  0.109200001         2.77480776E-08
  0.121200003         2.73713194E-08
  0.133200005         2.62355808E-08
  0.145199999         2.42369360E-08
  0.157199994         2.13109423E-08
  0.169200003         1.74545018E-08
  0.181199998         1.27485666E-08
  0.193200007         7.37914130E-09
  0.205200002         1.65356084E-09
  0.217199996        -3.99113498E-09
  0.229200006        -8.99070507E-09
  0.241200000        -1.26695312E-08
  0.253199995        -1.42713672E-08
  0.265199989        -1.30055300E-08
  0.277200013        -8.10790812E-09
  0.289200008         1.08516351E-09
  0.301200002         1.50533950E-08
  0.313199997         3.40040422E-08
  0.325199991         5.77845221E-08
  0.337199986         8.58037765E-08
  0.349200010         1.16971350E-07
  0.361200005         1.49664231E-07
  0.373199999         1.81731636E-07
  0.385199994         2.10547142E-07
  0.397199988         2.33115045E-07
  0.409200013         2.46234634E-07
  0.421200007         2.46719594E-07
  0.433200002         2.31665254E-07
  0.445199996         1.98747628E-07
  0.457199991         1.46534433E-07
  0.469199985         7.47808713E-08
  0.481200010        -1.53185553E-08
  0.493200004        -1.20952507E-07
  0.505200028        -2.37617797E-07
  0.517199993        -3.59170997E-07
  0.529200017        -4.78022571E-07
  0.541199982        -5.85481814E-07
  0.553200006        -6.72247154E-07
  0.565199971        -7.29025942E-07
  0.577199996        -7.47253125E-07
  0.589200020        -7.19865511E-07
  0.601199985        -6.42078703E-07
  0.613200009        -5.12103725E-07
  0.625199974        -3.31738420E-07
  0.637199998        -1.06768674E-07
  0.649200022         1.52876922E-07
  0.661199987         4.33262670E-07
  0.673200011         7.16898455E-07
  0.685199976         9.83512336E-07
  0.697200000         1.21112316E-06
  0.709200025         1.37736822E-06
  0.721199989         1.46101684E-06
  0.733200014         1.44358432E-06
  0.745199978         1.31094077E-06
  0.757200003         1.05480626E-06
  0.769200027         6.74019191E-07
  0.781199992         1.75472934E-07
  0.793200016        -4.25370274E-07
  0.805199981        -1.10445501E-06
  0.817200005        -1.82963959E-06
  0.829200029        -2.56173803E-06
  0.841199994        -3.25606948E-06
  0.853200018        -3.86445254E-06
  0.865199983        -4.33754349E-06
  0.877200007        -4.62740127E-06
  0.889199972        -4.69013457E-06
  0.901199996        -4.48847914E-06
  0.913200021        -3.99415285E-06
  0.925199986        -3.18983916E-06
  0.937200010        -2.07067569E-06
  0.949199975        -6.45130626E-07
  0.961199999         1.06479558E-06
  0.973200023         3.02407739E-06
  0.985199988         5.18590286E-06
  0.997200012         7.49356923E-06
   1.00919998         9.88298052E-06
   1.02119994         1.22856172E-05
   1.03320003         1.46318289E-05
   1.04519999         1.68542920E-05
   1.05719995         1.88914528E-05
   1.06920004         2.06907589E-05
   1.08120000         2.22115377E-05
   1.09319997         2.34273375E-05
   1.10520005         2.43276227E-05
   1.11720002         2.49187069E-05
   1.12919998         2.52238897E-05
   1.14119995         2.52827431E-05
   1.15320003         2.51495730E-05
   1.16520000         2.48911347E-05
   1.17719996         2.45836472E-05
   1.18920004         2.43092982E-05
   1.20120001         2.41523267E-05
   1.21319997         2.41949183E-05
   1.22520006         2.45130541E-05
   1.23720002         2.51725014E-05
   1.24919999         2.62251615E-05
   1.26119995         2.77058698E-05
   1.27320004         2.96298422E-05
   1.28520000         3.19908468E-05
   1.29719996         3.47601781E-05
   1.30920005         3.78865188E-05
   1.32120001         4.12966438E-05
   1.33319998         4.48969950E-05
   1.34519994         4.85760720E-05
   1.35720003         5.22075388E-05
   1.36919999         5.56538980E-05
   1.38119996         5.87706963E-05
   1.39320004         6.14109958E-05
   1.40520000         6.34300159E-05
   1.41719997         6.46897170E-05
   1.42920005         6.50632282E-05
   1.44120002         6.44389002E-05
   1.45319998         6.27238987E-05
   1.46519995         5.98471815E-05
   1.47720003         5.57617823E-05
   1.48920000         5.04463424E-05
   1.50119996         4.39059113E-05
   1.51320004         3.61719030E-05
   1.52520001         2.73013866E-05
   1.53719997         1.73756325E-05
   1.54920006         6.49810318E-06
   1.56120002        -5.20807134E-06
   1.57319999        -1.76030098E-05
   1.58519995        -3.05332760E-05
   1.59720004        -4.38352399E-05
   1.60920000        -5.73385223E-05
   1.62119997        -7.08694060E-05
   1.63320005        -8.42541849E-05
   1.64520001        -9.73223141E-05
   1.65719998        -1.09909415E-04
   1.66919994        -1.21860001E-04
   1.68120003        -1.33029986E-04
   1.69319999        -1.43288882E-04
   1.70519996        -1.52521650E-04
   1.71720004        -1.60630385E-04
   1.72920001        -1.67535458E-04
   1.74119997        -1.73176479E-04
   1.75320005        -1.77512877E-04
   1.76520002        -1.80523974E-04
   1.77719998        -1.82208823E-04
   1.78919995        -1.82585529E-04
   1.80120003        -1.81690295E-04
   1.81320000        -1.79575974E-04
   1.82519996        -1.76310466E-04
   1.83720005        -1.71974680E-04
   1.84920001        -1.66660378E-04
   1.86119998        -1.60467956E-04
   1.87320006        -1.53504021E-04
   1.88520002        -1.45879210E-04
   1.89719999        -1.37705967E-04
   1.90919995        -1.29096632E-04
   1.92120004        -1.20161669E-04
   1.93320000        -1.11008259E-04
   1.94519997        -1.01739170E-04
   1.95720005        -9.24518754E-05
   1.96920002        -8.32380538E-05
   1.98119998        -7.41832846E-05
   1.99319994        -6.53669704E-05
   2.00519991        -5.68623946E-05
   2.01719999        -4.87368816E-05
   2.02920008        -4.10519788E-05
   2.04119992        -3.38635546E-05
   2.05320001        -2.72218294E-05
   2.06520009        -2.11713013E-05
   2.07719994        -1.57504637E-05
   2.08920002        -1.09914281E-05
   2.10120010        -6.91936611E-06
   2.11319995        -3.55187444E-06
   2.12520003        -8.98254200E-07
   2.13720012         1.04121966E-06
   2.14919996         2.27600799E-06
   2.16120005         2.82591054E-06
   2.17319989         2.72152715E-06
   2.18519998         2.00449676E-06
   2.19720006         7.27463089E-07
   2.20919991        -1.04627418E-06
   2.22119999        -3.24347639E-06
   2.23320007        -5.78205299E-06
   2.24519992        -8.57253872E-06
   2.25720000        -1.15199327E-05
   2.26920009        -1.45258564E-05
   2.28119993        -1.74909837E-05
   2.29320002        -2.03176587E-05
   2.30520010        -2.29126090E-05
   2.31719995        -2.51896963E-05
   2.32920003        -2.70725486E-05
   2.34120011        -2.84970210E-05
   2.35319996        -2.94133933E-05
   2.36520004        -2.97881725E-05
   2.37719989        -2.96054786E-05
   2.38919997        -2.88678893E-05
   2.40120006        -2.75967741E-05
   2.41319990        -2.58319760E-05
   2.42519999        -2.36309588E-05
   2.43720007        -2.10673024E-05
   2.44919991        -1.82286458E-05
   2.46120000        -1.52141392E-05
   2.47320008        -1.21313760E-05
   2.48519993        -9.09298888E-06
   2.49720001        -6.21292929E-06
   2.50920010        -3.60256786E-06
   2.52119994        -1.36673430E-06
   2.53320003         4.00195319E-07
   2.54520011         1.61800313E-06
   2.55719995         2.22400286E-06
   2.56920004         2.17592788E-06
   2.58119988         1.45421018E-06
   2.59319997         6.35200337E-08
   2.60520005        -1.96653878E-06
   2.61719990        -4.58164914E-06
   2.62919998        -7.70396946E-06
   2.64120007        -1.12342977E-05
   2.65319991        -1.50551823E-05
   2.66520000        -1.90348892E-05
   2.67720008        -2.30321184E-05
   2.68919992        -2.69013053E-05
   2.70120001        -3.04982896E-05
   2.71320009        -3.36861340E-05
   2.72519994        -3.63408253E-05
   2.73720002        -3.83566512E-05
   2.74920011        -3.96509204E-05
   2.76119995        -4.01678590E-05
   2.77320004        -3.98814445E-05
   2.78520012        -3.87970831E-05
   2.79719996        -3.69519257E-05
   2.80920005        -3.44138934E-05
   2.82119989        -3.12793272E-05
   2.83319998        -2.76694209E-05
   2.84520006        -2.37255408E-05
   2.85719991        -1.96035708E-05
   2.86919999        -1.54676236E-05
   2.88120008        -1.14832819E-05
   2.89319992        -7.81073231E-06
   2.90520000        -4.59805688E-06
   2.91720009        -1.97499662E-06
   2.92919993        -4.74669655E-08
   2.94120002         1.10694998E-06
   2.95320010         1.44231456E-06
   2.96519995         9.46316277E-07
   2.97720003        -3.59150079E-07
   2.98920012        -2.41883799E-06
   3.00119996        -5.14637986E-06
   3.01320004        -8.42780355E-06
   3.02519989        -1.21261710E-05
   3.03719997        -1.60871350E-05
   3.04920006        -2.01451821E-05
   3.06119990        -2.41303223E-05
   3.07319999        -2.78748757E-05
   3.08520007        -3.12201846E-05
   3.09719992        -3.40228544E-05
   3.10920000        -3.61603816E-05
   3.12120008        -3.75358650E-05
   3.13319993        -3.80816819E-05
   3.14520001        -3.77619581E-05
   3.15720010        -3.65737869E-05
   3.16919994        -3.45471417E-05
   3.18120003        -3.17435406E-05
   3.19320011        -2.82535075E-05
   3.20519996        -2.41930029E-05
   3.21720004        -1.96988985E-05
   3.22919989        -1.49237485E-05
   3.24119997        -1.00300322E-05
   3.25320005        -5.18411753E-06
   3.26519990        -5.50146467E-07
   3.27719998         3.71588180E-06
   3.28920007         7.47164540E-06
   3.30119991         1.05934132E-05
   3.31320000         1.29801756E-05
   3.32520008         1.45568438E-05
   3.33719993         1.52764242E-05
   3.34920001         1.51210979E-05
   3.36120009         1.41021837E-05
   3.37319994         1.22590363E-05
   3.38520002         9.65692925E-06
   3.39720011         6.38402071E-06
   3.40919995         2.54756196E-06
   3.42120004        -1.73050364E-06
   3.43319988        -6.31836110E-06
   3.44519997        -1.10793444E-05
   3.45720005        -1.58769835E-05
   3.46919990        -2.05798151E-05
   3.48119998        -2.50658304E-05
   3.49320006        -2.92263321E-05
   3.50519991        -3.29690629E-05
   3.51719999        -3.62205428E-05
   3.52920008        -3.89275046E-05
   3.54119992        -4.10574285E-05
   3.55320001        -4.25982034E-05
   3.56520009        -4.35569491E-05
   3.57719994        -4.39581418E-05
   3.58920002        -4.38411480E-05
   3.60120010        -4.32573361E-05
   3.61319995        -4.22669473E-05
   3.62520003        -4.09358690E-05
   3.63720012        -3.93324917E-05
   3.64919996        -3.75248492E-05
   3.66120005        -3.55781121E-05
   3.67319989        -3.35525838E-05
   3.68519998        -3.15022407E-05
   3.69720006        -2.94738475E-05
   3.70919991        -2.75066413E-05
   3.72119999        -2.56325384E-05
   3.73320007        -2.38767843E-05
   3.74519992        -2.22589242E-05
   3.75720000        -2.07939938E-05
   3.76920009        -1.94937857E-05
   3.78119993        -1.83680495E-05
   3.79320002        -1.74255238E-05
   3.80520010        -1.66746904E-05
   3.81719995        -1.61241787E-05
   3.82920003        -1.57827744E-05
   3.84120011        -1.56590686E-05
   3.85319996        -1.57607028E-05
   3.86520004        -1.60933341E-05
   3.87719989        -1.66593982E-05
   3.88919997        -1.74567394E-05
   3.90120006        -1.84772452E-05
   3.91319990        -1.97056088E-05
   3.92519999        -2.11183178E-05
   3.93720007        -2.26829889E-05
   3.94919991        -2.43581308E-05
   3.96120000        -2.60934394E-05
   3.97320008        -2.78306052E-05
   3.98519993        -2.95047321E-05
   3.99720001        -3.10462710E-05
   4.00920010        -3.23834684E-05
   4.02120018        -3.34451979E-05
   4.03319979        -3.41640916E-05
   4.04519987        -3.44797845E-05
   4.05719995        -3.43421489E-05
   4.06920004        -3.37143283E-05
   4.08120012        -3.25754118E-05
   4.09320021        -3.09226125E-05
   4.10519981        -2.87727780E-05
   4.11719990        -2.61631467E-05
   4.12919998        -2.31512931E-05
   4.14120007        -1.98141352E-05
   4.15320015        -1.62460838E-05
   4.16520023        -1.25563183E-05
   4.17719984        -8.86528142E-06
   4.18919992        -5.30052830E-06
   4.20120001        -1.99207420E-06
   4.21320009         9.32542832E-07
   4.22520018         3.35326786E-06
   4.23719978         5.16238651E-06
   4.24919987         6.26899373E-06
   4.26119995         6.60287878E-06
   4.27320004         6.11764654E-06
   4.28520012         4.79293340E-06
   4.29720020         2.63562902E-06
   4.30919981        -3.19943524E-07
   4.32119989        -4.01290117E-06
   4.33319998        -8.35766059E-06
   4.34520006        -1.32467130E-05
   4.35720015        -1.85541849E-05
   4.36920023        -2.41400394E-05
   4.38119984        -2.98547075E-05
   4.39319992        -3.55440170E-05
   4.40520000        -4.10541761E-05
   4.41720009        -4.62366406E-05
   4.42920017        -5.09526872E-05
   4.44119978        -5.50775840E-05
   4.45319986        -5.85041707E-05
   4.46519995        -6.11457872E-05
   4.47720003        -6.29385613E-05
   4.48920012        -6.38429265E-05
   4.50120020        -6.38444544E-05
   4.51319981        -6.29539572E-05
   4.52519989        -6.12069125E-05
   4.53719997        -5.86623537E-05
   4.54920006        -5.54010257E-05
   4.56120014        -5.15231368E-05
   4.57320023        -4.71455387E-05
   4.58519983        -4.23985257E-05
   4.59719992        -3.74222254E-05
   4.60920000        -3.23627028E-05
   4.62120008        -2.73678488E-05
   4.63320017        -2.25831627E-05
   4.64519978        -1.81475098E-05
   4.65719986        -1.41890050E-05
   4.66919994        -1.08211361E-05
   4.68120003        -8.13926090E-06
   4.69320011        -6.21761956E-06
   4.70520020        -5.10698146E-06
   4.71719980        -4.83302892E-06
   4.72919989        -5.39557686E-06
   4.74119997        -6.76868240E-06
   4.75320005        -8.90166393E-06
   4.76520014        -1.17210084E-05
   4.77720022        -1.51331096E-05
   4.78919983        -1.90277133E-05
   4.80119991        -2.32819366E-05
   4.81320000        -2.77646614E-05
   4.82520008        -3.23411405E-05
   4.83720016        -3.68775472E-05
   4.84919977        -4.12453519E-05
   4.86119986        -4.53252360E-05
   4.87319994        -4.90105340E-05
   4.88520002        -5.22099181E-05
   4.89720011        -5.48494208E-05
   4.90920019        -5.68736796E-05
   4.92119980        -5.82464127E-05
   4.93319988        -5.89502451E-05
   4.94519997        -5.89859737E-05
   4.95720005        -5.83713481E-05
   4.96920013        -5.71394739E-05
   4.98120022        -5.53370737E-05
   4.99319983        -5.30226171E-05
   5.00519991        -5.02643925E-05
   5.01719999        -4.71387066E-05
   5.02920008        -4.37280942E-05
   5.04120016        -4.01196994E-05
   5.05319977        -3.64036532E-05
   5.06519985        -3.26715526E-05
   5.07719994        -2.90149037E-05
   5.08920002        -2.55235373E-05
   5.10120010        -2.22839462E-05
   5.11320019        -1.93775268E-05
   5.12519979        -1.68787410E-05
   5.13719988        -1.48532035E-05
   5.14919996        -1.33557760E-05
   5.16120005        -1.24287062E-05
   5.17320013        -1.20999539E-05
   5.18520021        -1.23817745E-05
   5.19719982        -1.32696823E-05
   5.20919991        -1.47419078E-05
   5.22119999        -1.67594026E-05
   5.23320007        -1.92664847E-05
   5.24520016        -2.21920836E-05
   5.25719976        -2.54516435E-05
   5.26919985        -2.89495620E-05
   5.28119993        -3.25820802E-05
   5.29320002        -3.62405444E-05
   5.30520010        -3.98148331E-05
   5.31720018        -4.31968838E-05
   5.32919979        -4.62840799E-05
   5.34119987        -4.89823833E-05
   5.35319996        -5.12091137E-05
   5.36520004        -5.28951859E-05
   5.37720013        -5.39868088E-05
   5.38920021        -5.44464747E-05
   5.40119982        -5.42533890E-05
   5.41319990        -5.34031969E-05
   5.42519999        -5.19072055E-05
   5.43720007        -4.97911460E-05
   5.44920015        -4.70935302E-05
   5.46120024        -4.38638563E-05
   5.47319984        -4.01606449E-05
   5.48519993        -3.60494923E-05
   5.49720001        -3.16012265E-05
   5.50920010        -2.68901986E-05
   5.52120018        -2.19927661E-05
   5.53319979        -1.69860159E-05
   5.54519987        -1.19467086E-05
   5.55719995        -6.95042991E-06
   5.56920004        -2.07092194E-06
   5.58120012         2.62044182E-06
   5.59320021         7.05510502E-06
   5.60519981         1.11677491E-05
   5.61719990         1.48967465E-05
   5.62919998         1.81846881E-05
   5.64120007         2.09790142E-05
   5.65320015         2.32327566E-05
   5.66520023         2.49053810E-05
   5.67719984         2.59636963E-05
   5.68919992         2.63827806E-05
   5.70120001         2.61468922E-05
   5.71320009         2.52502778E-05
   5.72520018         2.36978667E-05
   5.73719978         2.15057607E-05
   5.74919987         1.87015194E-05
   5.76119995         1.53241599E-05
   5.77320004         1.14239001E-05
   5.78520012         7.06155424E-06
   5.79720020         2.30761998E-06
   5.80919981        -2.75896332E-06
   5.82119989        -8.05237596E-06
   5.83319998        -1.34817419E-05
   5.84520006        -1.89531929E-05
   5.85720015        -2.43720788E-05
   5.86920023        -2.96453036E-05
   5.88119984        -3.46836387E-05
   5.89319992        -3.94040144E-05
   5.90520000        -4.37316703E-05
   5.91720009        -4.76020941E-05
   5.92920017        -5.09627353E-05
   5.94119978        -5.37743326E-05
   5.95319986        -5.60118788E-05
   5.96519995        -5.76651219E-05
   5.97720003        -5.87386094E-05
   5.98920012        -5.92511969E-05
   6.00120020        -5.92350698E-05
   6.01319981        -5.87343093E-05
   6.02519989        -5.78030340E-05
   6.03719997        -5.65031878E-05
   6.04920006        -5.49021497E-05
   6.06120014        -5.30701254E-05
   6.07320023        -5.10775717E-05
   6.08519983        -4.89926679E-05
   6.09719992        -4.68789440E-05
   6.10920000        -4.47932107E-05
   6.12120008        -4.27838168E-05
   6.13320017        -4.08893429E-05
   6.14519978        -3.91377616E-05
   6.15719986        -3.75461022E-05
   6.16919994        -3.61206585E-05
   6.18120003        -3.48576432E-05
   6.19320011        -3.37443344E-05
   6.20520020        -3.27605594E-05
   6.21719980        -3.18805323E-05
   6.22919989        -3.10748474E-05
   6.24119997        -3.03126308E-05
   6.25320005        -2.95636819E-05
   6.26520014        -2.88005576E-05
   6.27720022        -2.80005042E-05
   6.28919983        -2.71471017E-05
   6.30119991        -2.62316426E-05
   6.31320000        -2.52540685E-05
   6.32520008        -2.42234873E-05
   6.33720016        -2.31582271E-05
   6.34919977        -2.20854090E-05
   6.36119986        -2.10400667E-05
   6.37319994        -2.00638424E-05
   6.38520002        -1.92033385E-05
   6.39720011        -1.85081808E-05
   6.40920019        -1.80288625E-05
   6.42119980        -1.78144910E-05
   6.43319988        -1.79105209E-05
   6.44519997        -1.83565353E-05
   6.45720005        -1.91842264E-05
   6.46920013        -2.04156331E-05
   6.48120022        -2.20617312E-05
   6.49319983        -2.41214511E-05
   6.50519991        -2.65811614E-05
   6.51719999        -2.94146284E-05
   6.52920008        -3.25834735E-05
   6.54120016        -3.60380691E-05
   6.55319977        -3.97187760E-05
   6.56519985        -4.35575384E-05
   6.57719994        -4.74796652E-05
   6.58920002        -5.14058083E-05
   6.60120010        -5.52539459E-05
   6.61320019        -5.89414813E-05
   6.62519979        -6.23872256E-05
   6.63719988        -6.55133263E-05
   6.64919996        -6.82471218E-05
   6.66120005        -7.05227721E-05
   6.67320013        -7.22827317E-05
   6.68520021        -7.34790883E-05
   6.69719982        -7.40745672E-05
   6.70919991        -7.40434843E-05
   6.72119999        -7.33723646E-05
   6.73320007        -7.20604148E-05
   6.74520016        -7.01197278E-05
   6.75719976        -6.75753327E-05
   6.76919985        -6.44649699E-05
   6.78119993        -6.08385999E-05
   6.79320002        -5.67576426E-05
   6.80520010        -5.22939335E-05
   6.81720018        -4.75283377E-05
   6.82919979        -4.25491089E-05
   6.84119987        -3.74499068E-05
   6.85319996        -3.23276436E-05
   6.86520004        -2.72800989E-05
   6.87720013        -2.24034466E-05
   6.88920021        -1.77897837E-05
   6.90119982        -1.35247246E-05
   6.91319990        -9.68518816E-06
   6.92519999        -6.33746959E-06
   6.93720007        -3.53568862E-06
   6.94920015        -1.32066930E-06
   6.96120024         2.80691069E-07
   6.97319984         1.25556028E-06
   6.98519993         1.60483580E-06
   6.99720001         1.34237155E-06
   7.00920010         4.93847381E-07
   7.02120018        -9.04634760E-07
   7.03319979        -2.80813651E-06
   7.04519987        -5.16454429E-06
   7.05719995        -7.91622824E-06
   7.06920004        -1.10015935E-05
   7.08120012        -1.43564985E-05
   7.09320021        -1.79154522E-05
   7.10519981        -2.16126118E-05
   7.11719990        -2.53825729E-05
   7.12919998        -2.91609667E-05
   7.14120007        -3.28849492E-05
   7.15320015        -3.64936459E-05
   7.16520023        -3.99285891E-05
   7.17719984        -4.31342742E-05
   7.18919992        -4.60588453E-05
   7.20120001        -4.86549470E-05
   7.21320009        -5.08807570E-05
   7.22520018        -5.27011143E-05
   7.23719978        -5.40887413E-05
   7.24919987        -5.50253753E-05
   7.26119995        -5.55028237E-05
   7.27320004        -5.55236875E-05
   7.28520012        -5.51017765E-05
   7.29720020        -5.42620837E-05
   7.30919981        -5.30402940E-05
   7.32119989        -5.14817766E-05
   7.33319998        -4.96401371E-05
   7.34520006        -4.75753295E-05
   7.35720015        -4.53514549E-05
   7.36920023        -4.30343498E-05
   7.38119984        -4.06890940E-05
   7.39319992        -3.83776169E-05
   7.40520000        -3.61564744E-05
   7.41720009        -3.40749903E-05
   7.42920017        -3.21738225E-05
   7.44119978        -3.04840814E-05
   7.45319986        -2.90269527E-05
   7.46519995        -2.78139050E-05
   7.47720003        -2.68473741E-05
   7.48920012        -2.61218738E-05
   7.50120020        -2.56254025E-05
   7.51319981        -2.53410035E-05
   7.52519989        -2.52483933E-05
   7.53719997        -2.53254675E-05
   7.54920006        -2.55495870E-05
   7.56120014        -2.58985692E-05
   7.57320023        -2.63513502E-05
   7.58519983        -2.68882868E-05
   7.59719992        -2.74911254E-05
   7.60920000        -2.81427438E-05
   7.62120008        -2.88267329E-05
   7.63320017        -2.95269092E-05
   7.64519978        -3.02268891E-05
   7.65719986        -3.09098323E-05
   7.66919994        -3.15583529E-05
   7.68120003        -3.21547232E-05
   7.69320011        -3.26813242E-05
   7.70520020        -3.31213523E-05
   7.71719980        -3.34596625E-05
   7.72919989        -3.36837620E-05
   7.74119997        -3.37847632E-05
   7.75320005        -3.37582242E-05
   7.76520014        -3.36048215E-05
   7.77720022        -3.33306816E-05
   7.78919983        -3.29473551E-05
   7.80119991        -3.24714274E-05
   7.81320000        -3.19236860E-05
   7.82520008        -3.13279888E-05
   7.83720016        -3.07098671E-05
   7.84919977        -3.00949596E-05
   7.86119986        -2.95074733E-05
   7.87319994        -2.89687268E-05
   7.88520002        -2.84959988E-05
   7.89720011        -2.81016983E-05
   7.90920019        -2.77930085E-05
   7.92119980        -2.75719758E-05
   7.93319988        -2.74360573E-05
   7.94519997        -2.73790520E-05
   7.95720005        -2.73923306E-05
   7.96920013        -2.74662307E-05
   7.98120022        -2.75914572E-05
   7.99319983        -2.77603740E-05
   8.00520039        -2.79680644E-05
   8.01720047        -2.82130222E-05
   8.02919960        -2.84974540E-05
   8.04119968        -2.88271131E-05
   8.05319977        -2.92107397E-05
   8.06519985        -2.96590915E-05
   8.07719994        -3.01837244E-05
   8.08920002        -3.07955634E-05
   8.10120010        -3.15034449E-05
   8.11320019        -3.23127351E-05
   8.12520027        -3.32241616E-05
   8.13720036        -3.42329549E-05
   8.14920044        -3.53283976E-05
   8.16119957        -3.64938387E-05
   8.17319965        -3.77071265E-05
   8.18519974        -3.89414890E-05
   8.19719982        -4.01667858E-05
   8.20919991        -4.13509915E-05
   8.22119999        -4.24618556E-05
   8.23320007        -4.34685753E-05
   8.24520016        -4.43433601E-05
   8.25720024        -4.50628140E-05
   8.26920033        -4.56090456E-05
   8.28120041        -4.59703951E-05
   8.29319954        -4.61417912E-05
   8.30519962        -4.61247546E-05
   8.31719971        -4.59269795E-05
   8.32919979        -4.55616500E-05
   8.34119987        -4.50464395E-05
   8.35319996        -4.44023535E-05
   8.36520004        -4.36524606E-05
   8.37720013        -4.28205749E-05
   8.38920021        -4.19300450E-05
   8.40120029        -4.10026150E-05
   8.41320038        -4.00575227E-05
   8.42520046        -3.91108078E-05
   8.43719959        -3.81748396E-05
   8.44919968        -3.72581599E-05
   8.46119976        -3.63655017E-05
   8.47319984        -3.54980475E-05
   8.48519993        -3.46538181E-05
   8.49720001        -3.38282443E-05
   8.50920010        -3.30147413E-05
   8.52120018        -3.22053857E-05
   8.53320026        -3.13915261E-05
   8.54520035        -3.05644098E-05
   8.55720043        -2.97157239E-05
   8.56919956        -2.88380761E-05
   8.58119965        -2.79253836E-05
   8.59319973        -2.69732318E-05
   8.60519981        -2.59791159E-05
   8.61719990        -2.49426685E-05
   8.62919998        -2.38658176E-05
   8.64120007        -2.27529035E-05
   8.65320015        -2.16107583E-05
   8.66520023        -2.04487187E-05
   8.67720032        -1.92786119E-05
   8.68920040        -1.81146497E-05
   8.70119953        -1.69732793E-05
   8.71319962        -1.58729326E-05
   8.72519970        -1.48337067E-05
   8.73719978        -1.38769492E-05
   8.74919987        -1.30247554E-05
   8.76119995        -1.22993888E-05
   8.77320004        -1.17226327E-05
   8.78520012        -1.13150936E-05
   8.79720020        -1.10954834E-05
   8.80920029        -1.10799292E-05
   8.82120037        -1.12813304E-05
   8.83320045        -1.17088239E-05
   8.84519958        -1.23673735E-05
   8.85719967        -1.32575224E-05
   8.86919975        -1.43753041E-05
   8.88119984        -1.57123213E-05
   8.89319992        -1.72559685E-05
   8.90520000        -1.89897783E-05
   8.91720009        -2.08938309E-05
   8.92920017        -2.29452471E-05
   8.94120026        -2.51186812E-05
   8.95320034        -2.73867936E-05
   8.96520042        -2.97207316E-05
   8.97719955        -3.20905383E-05
   8.98919964        -3.44655309E-05
   9.00119972        -3.68146211E-05
   9.01319981        -3.91066314E-05
   9.02519989        -4.13105590E-05
   9.03719997        -4.33958776E-05
   9.04920006        -4.53328794E-05
   9.06120014        -4.70930754E-05
   9.07320023        -4.86497011E-05
   9.08520031        -4.99783382E-05