 -0.622799993         1.00000002E-24
 -0.610800028         1.00000002E-24
 -0.598800004         1.00000002E-24
 -0.586799979         2.00584218E-16
 -0.574800014         7.79811142E-16
 -0.562799990         5.64513843E-16
 -0.550800025        -5.09018097E-15
 -0.538800001        -2.53875680E-14
 -0.526799977        -7.15900389E-14
 -0.514800012        -1.49652507E-13
 -0.502799988        -2.50093810E-13
 -0.490799993        -3.41211353E-13
 -0.478799999        -3.73730045E-13
 -0.466800004        -3.02538756E-13
 -0.454800010        -1.23811822E-13
 -0.442799985         8.41243443E-14
 -0.430799991         1.35609351E-13
 -0.418799996        -2.51954029E-13
 -0.406800002        -1.40195743E-12
 -0.394800007        -3.58494246E-12
 -0.382800013        -6.91642880E-12
 -0.370799989        -1.12891805E-11
 -0.358799994        -1.63821595E-11
 -0.346799999        -2.17697214E-11
 -0.334800005        -2.71224224E-11
 -0.322800010        -3.24559268E-11
 -0.310799986        -3.83604641E-11
 -0.298799992        -4.61411812E-11
 -0.286799997        -5.78225454E-11
 -0.274800003        -7.60109059E-11
 -0.262800008        -1.03654627E-10
 -0.250800014        -1.43772882E-10
 -0.238800004        -1.99231381E-10
 -0.226799995        -2.72623674E-10
 -0.214800000        -3.66275676E-10
 -0.202800006        -4.82349494E-10
 -0.190799996        -6.22990548E-10
 -0.178800002        -7.90453647E-10
 -0.166800007        -9.87157023E-10
 -0.154799998        -1.21563182E-09
 -0.142800003        -1.47835677E-09
 -0.130799994        -1.77747461E-09
 -0.118799999        -2.11437357E-09
 -0.106799997        -2.48911181E-09
  -9.48000029E-02    -2.89966406E-09
  -8.28000009E-02    -3.34101169E-09
  -7.07999989E-02    -3.80416054E-09
  -5.88000007E-02    -4.27525348E-09
  -4.67999987E-02    -4.73503592E-09
  -3.48000005E-02    -5.15893284E-09
  -2.28000004E-02    -5.51798029E-09
  -1.08000003E-02    -5.78072346E-09
   1.20000006E-03    -5.91603255E-09
   1.31999999E-02    -5.89664273E-09
   2.52000000E-02    -5.70307179E-09
   3.72000001E-02    -5.32756772E-09
   4.91999984E-02    -4.77772932E-09
   6.12000003E-02    -4.07958067E-09
   7.32000023E-02    -3.27988681E-09
   8.51999968E-02    -2.44756881E-09
   9.71999988E-02    -1.67390890E-09
  0.109200001        -1.07110720E-09
  0.121200003        -7.68516861E-10
  0.133200005        -9.05818032E-10
  0.145199999        -1.62247837E-09
  0.157199994        -3.04319969E-09
  0.169200003        -5.25977484E-09
  0.181199998        -8.31056113E-09
  0.193200007        -1.21597088E-08
  0.205200002        -1.66790279E-08
  0.217199996        -2.16357314E-08
  0.229200006        -2.66892979E-08
  0.241200000        -3.14000985E-08
  0.253199995        -3.52513716E-08
  0.265199989        -3.76849414E-08
  0.277200013        -3.81493628E-08
  0.289200008        -3.61580241E-08
  0.301200002        -3.13529718E-08
  0.313199997        -2.35696085E-08
  0.325199991        -1.28959279E-08
  0.337199986         2.80118817E-10
  0.349200010         1.52422235E-08
  0.361200005         3.09429105E-08
  0.373199999         4.60323406E-08
  0.385199994         5.89232556E-08
  0.397199988         6.78939855E-08
  0.409200013         7.12285271E-08
  0.421200007         6.73882212E-08
  0.433200002         5.52056321E-08
  0.445199996         3.40865789E-08
  0.457199991         4.20230029E-09
  0.469199985        -3.33477921E-08
  0.481200010        -7.64240369E-08
  0.493200004        -1.21804064E-07
  0.505200028        -1.65224876E-07
  0.517199993        -2.01518361E-07
  0.529200017        -2.24840903E-07
  0.541199982        -2.28988242E-07
  0.553200006        -2.07777148E-07
  0.565199971        -1.55465187E-07
  0.577199996        -6.71734384E-08
  0.589200020         6.07311748E-08
  0.601199985         2.30336369E-07
  0.613200009         4.42012777E-07
  0.625199974         6.94406765E-07
  0.637199998         9.84626354E-07
  0.649200022         1.30863293E-06
  0.661199987         1.66183850E-06
  0.673200011         2.03988338E-06
  0.685199976         2.43955355E-06
  0.697200000         2.85978103E-06
  0.709200025         3.30264334E-06
  0.721199989         3.77428591E-06
  0.733200014         4.28566864E-06
  0.745199978         4.85305372E-06
  0.757200003         5.49815877E-06
  0.769200027         6.24791301E-06
  0.781199992         7.13378404E-06
  0.793200016         8.19067100E-06
  0.805199981         9.45538613E-06
  0.817200005         1.09647972E-05
  0.829200029         1.27536969E-05
  0.841199994         1.48525451E-05
  0.853200018         1.72851942E-05
  0.865199983         2.00667419E-05
  0.877200007         2.32016882E-05
  0.889199972         2.66824827E-05
  0.901199996         3.04886235E-05
  0.913200021         3.45863555E-05
  0.925199986         3.89290617E-05
  0.937200010         4.34583162E-05
  0.949199975         4.81056122E-05
  0.961199999         5.27946613E-05
  0.973200023         5.74442347E-05
  0.985199988         6.19712955E-05
  0.997200012         6.62944076E-05
   1.00919998         7.03371916E-05
   1.02119994         7.40316245E-05
   1.03320003         7.73211432E-05
   1.04519999         8.01632486E-05
   1.05719995         8.25316602E-05
   1.06920004         8.44177775E-05
   1.08120000         8.58315034E-05
   1.09319997         8.68012648E-05
   1.10520005         8.73733734E-05
   1.11720002         8.76106642E-05
   1.12919998         8.75904807E-05
   1.14119995         8.74020188E-05
   1.15320003         8.71433076E-05
   1.16520000         8.69176874E-05
   1.17719996         8.68300995E-05
   1.18920004         8.69831420E-05
   1.20120001         8.74732359E-05
   1.21319997         8.83868051E-05
   1.22520006         8.97967766E-05
   1.23720002         9.17594371E-05
   1.24919999         9.43117266E-05
   1.26119995         9.74691720E-05
   1.27320004         1.01224534E-04
   1.28520000         1.05547049E-04
   1.29719996         1.10382571E-04
   1.30920005         1.15654446E-04
   1.32120001         1.21265170E-04
   1.33319998         1.27098800E-04
   1.34519994         1.33024107E-04
   1.35720003         1.38898235E-04
   1.36919999         1.44570891E-04
   1.38119996         1.49888874E-04
   1.39320004         1.54700771E-04
   1.40520000         1.58861571E-04
   1.41719997         1.62237251E-04
   1.42920005         1.64708952E-04
   1.44120002         1.66176687E-04
   1.45319998         1.66562328E-04
   1.46519995         1.65812002E-04
   1.47720003         1.63897595E-04
   1.48920000         1.60817333E-04
   1.50119996         1.56595706E-04
   1.51320004         1.51282307E-04
   1.52520001         1.44950027E-04
   1.53719997         1.37692477E-04
   1.54920006         1.29620938E-04
   1.56120002         1.20860692E-04
   1.57319999         1.11547175E-04
   1.58519995         1.01821890E-04
   1.59720004         9.18284786E-05
   1.60920000         8.17087857E-05
   1.62119997         7.15993301E-05
   1.63320005         6.16281686E-05
   1.64520001         5.19122186E-05
   1.65719998         4.25552025E-05
   1.66919994         3.36462035E-05
   1.68120003         2.52588197E-05
   1.69319999         1.74509532E-05
   1.70519996         1.02652275E-05
   1.71720004         3.72989007E-06
   1.72920001        -2.13980411E-06
   1.74119997        -7.33989236E-06
   1.75320005        -1.18757589E-05
   1.76520002        -1.57600862E-05
   1.77719998        -1.90108167E-05
   1.78919995        -2.16492390E-05
   1.80120003        -2.36983087E-05
   1.81320000        -2.51812726E-05
   1.82519996        -2.61206660E-05
   1.83720005        -2.65377603E-05
   1.84920001        -2.64523933E-05
   1.86119998        -2.58832733E-05
   1.87320006        -2.48486103E-05
   1.88520002        -2.33670671E-05
   1.89719999        -2.14589218E-05
   1.90919995        -1.91473300E-05
   1.92120004        -1.64595531E-05
   1.93320000        -1.34280335E-05
   1.94519997        -1.00912212E-05
   1.95720005        -6.49404456E-06
   1.96920002        -2.68796907E-06
   1.98119998         1.26941416E-06
   1.99319994         5.31524529E-06
   2.00519991         9.38269204E-06
   2.01719999         1.34026359E-05
   2.02920008         1.73056378E-05
   2.04119992         2.10241087E-05
   2.05320001         2.44945368E-05
   2.06520009         2.76596747E-05
   2.07719994         3.04705318E-05
   2.08920002         3.28880815E-05
   2.10120010         3.48845824E-05
   2.11319995         3.64444240E-05
   2.12520003         3.75645141E-05
   2.13720012         3.82541475E-05
   2.14919996         3.85344210E-05
   2.16120005         3.84372070E-05
   2.17319989         3.80037854E-05
   2.18519998         3.72831855E-05
   2.19720006         3.63302934E-05
   2.20919991         3.52039278E-05
   2.22119999         3.39647850E-05
   2.23320007         3.26734735E-05
   2.24519992         3.13886776E-05
   2.25720000         3.01654745E-05
   2.26920009         2.90538082E-05
   2.28119993         2.80972581E-05
   2.29320002         2.73320020E-05
   2.30520010         2.67860105E-05
   2.31719995         2.64784685E-05
   2.32920003         2.64194059E-05
   2.34120011         2.66095376E-05
   2.35319996         2.70403398E-05
   2.36520004         2.76943119E-05
   2.37719989         2.85455426E-05
   2.38919997         2.95604714E-05
   2.40120006         3.06989423E-05
   2.41319990         3.19154715E-05
   2.42519999         3.31607371E-05
   2.43720007         3.43832871E-05
   2.44919991         3.55313641E-05
   2.46120000         3.65548112E-05
   2.47320008         3.74070514E-05
   2.48519993         3.80469937E-05
   2.49720001         3.84409068E-05
   2.50920010         3.85640305E-05
   2.52119994         3.84019877E-05
   2.53320003         3.79518096E-05
   2.54520011         3.72225404E-05
   2.55719995         3.62353494E-05
   2.56920004         3.50230912E-05
   2.58119988         3.36293415E-05
   2.59319997         3.21069056E-05
   2.60520005         3.05158446E-05
   2.61719990         2.89210948E-05
   2.62919998         2.73898422E-05
   2.64120007         2.59886492E-05
   2.65319991         2.47805874E-05
   2.66520000         2.38224002E-05
   2.67720008         2.31619233E-05
   2.68919992         2.28358258E-05
   2.70120001         2.28678309E-05
   2.71320009         2.32675284E-05
   2.72519994         2.40298541E-05
   2.73720002         2.51352540E-05
   2.74920011         2.65505532E-05
   2.76119995         2.82305300E-05
   2.77320004         3.01200271E-05
   2.78520012         3.21565312E-05
   2.79719996         3.42730782E-05
   2.80920005         3.64012667E-05
   2.82119989         3.84743253E-05
   2.83319998         4.04299317E-05
   2.84520006         4.22127632E-05
   2.85719991         4.37765884E-05
   2.86919999         4.50858242E-05
   2.88120008         4.61164345E-05
   2.89319992         4.68562102E-05
   2.90520000         4.73044056E-05
   2.91720009         4.74707485E-05
   2.92919993         4.73739929E-05
   2.94120002         4.70400337E-05
   2.95320010         4.64998666E-05
   2.96519995         4.57873866E-05
   2.97720003         4.49373329E-05
   2.98920012         4.39833784E-05
   3.00119996         4.29565480E-05
   3.01320004         4.18840064E-05
   3.02519989         4.07882217E-05
   3.03719997         3.96865980E-05
   3.04920006         3.85914173E-05
   3.06119990         3.75102027E-05
   3.07319999         3.64463485E-05
   3.08520007         3.53999421E-05
   3.09719992         3.43687971E-05
   3.10920000         3.33494718E-05
   3.12120008         3.23383319E-05
   3.13319993         3.13324708E-05
   3.14520001         3.03305169E-05
   3.15720010         2.93332214E-05
   3.16919994         2.83438876E-05
   3.18120003         2.73685764E-05
   3.19320011         2.64161627E-05
   3.20519996         2.54982315E-05
   3.21720004         2.46288764E-05
   3.22919989         2.38243665E-05
   3.24119997         2.31027716E-05
   3.25320005         2.24834948E-05
   3.26519990         2.19867215E-05
   3.27719998         2.16328081E-05
   3.28920007         2.14415795E-05
   3.30119991         2.14315860E-05
   3.31320000         2.16192748E-05
   3.32520008         2.20181482E-05
   3.33719993         2.26379343E-05
   3.34920001         2.34837134E-05
   3.36120009         2.45551710E-05
   3.37319994         2.58459168E-05
   3.38520002         2.73429214E-05
   3.39720011         2.90261778E-05
   3.40919995         3.08685667E-05
   3.42120004         3.28359929E-05
   3.43319988         3.48878493E-05
   3.44519997         3.69778027E-05
   3.45720005         3.90548885E-05
   3.46919990         4.10649154E-05
   3.48119998         4.29521569E-05
   3.49320006         4.46611957E-05
   3.50519991         4.61389245E-05
   3.51719999         4.73365326E-05
   3.52920008         4.82114956E-05
   3.54119992         4.87293473E-05
   3.55320001         4.88652258E-05
   3.56520009         4.86051467E-05
   3.57719994         4.79468763E-05
   3.58920002         4.69003717E-05
   3.60120010         4.54878391E-05
   3.61319995         4.37432936E-05
   3.62520003         4.17117335E-05
   3.63720012         3.94478593E-05
   3.64919996         3.70144699E-05
   3.66120005         3.44805376E-05
   3.67319989         3.19190367E-05
   3.68519998         2.94046240E-05
   3.69720006         2.70111777E-05
   3.70919991         2.48094020E-05
   3.72119999         2.28644567E-05
   3.73320007         2.12337654E-05
   3.74519992         1.99650840E-05
   3.75720000         1.90948613E-05
   3.76920009         1.86470061E-05
   3.78119993         1.86320267E-05
   3.79320002         1.90466526E-05
   3.80520010         1.98739108E-05
   3.81719995         2.10836370E-05
   3.82920003         2.26334359E-05
   3.84120011         2.44700732E-05
   3.85319996         2.65312083E-05
   3.86520004         2.87474704E-05
   3.87719989         3.10448013E-05
   3.88919997         3.33469834E-05
   3.90120006         3.55782540E-05
   3.91319990         3.76659882E-05
   3.92519999         3.95432216E-05
   3.93720007         4.11510446E-05
   3.94919991         4.24407117E-05
   3.96120000         4.33753448E-05
   3.97320008         4.39312789E-05
   3.98519993         4.40988661E-05
   3.99720001         4.38827810E-05
   4.00920010         4.33017958E-05
   4.02120018         4.23880083E-05
   4.03319979         4.11855544E-05
   4.04519987         3.97488184E-05
   4.05719995         3.81402533E-05
   4.06920004         3.64278167E-05
   4.08120012         3.46821871E-05
   4.09320021         3.29737995E-05
   4.10519981         3.13699056E-05
   4.11719990         2.99317417E-05
   4.12919998         2.87119674E-05
   4.14120007         2.77524741E-05
   4.15320015         2.70826895E-05
   4.16520023         2.67184823E-05
   4.17719984         2.66616898E-05
   4.18919992         2.69003249E-05
   4.20120001         2.74094800E-05
   4.21320009         2.81528355E-05
   4.22520018         2.90847620E-05
   4.23719978         3.01529017E-05
   4.24919987         3.13010751E-05
   4.26119995         3.24724097E-05
   4.27320004         3.36124394E-05
   4.28520012         3.46721063E-05
   4.29720020         3.56103919E-05
   4.30919981         3.63964864E-05
   4.32119989         3.70113521E-05
   4.33319998         3.74485753E-05
   4.34520006         3.77144679E-05
   4.35720015         3.78274199E-05
   4.36920023         3.78165169E-05
   4.38119984         3.77195465E-05
   4.39319992         3.75804448E-05
   4.40520000         3.74464362E-05
   4.41720009         3.73649527E-05
   4.42920017         3.73805669E-05
   4.44119978         3.75321251E-05
   4.45319986         3.78502446E-05
   4.46519995         3.83553379E-05
   4.47720003         3.90562818E-05
   4.48920012         3.99497949E-05
   4.50120020         4.10205394E-05
   4.51319981         4.22419580E-05
   4.52519989         4.35777438E-05
   4.53719997         4.49838662E-05
   4.54920006         4.64109835E-05
   4.56120014         4.78071597E-05
   4.57320023         4.91206156E-05
   4.58519983         5.03024676E-05
   4.59719992         5.13092455E-05
   4.60920000         5.21049878E-05
   4.62120008         5.26629665E-05
   4.63320017         5.29668287E-05
   4.64519978         5.30111611E-05
   4.65719986         5.28014716E-05
   4.66919994         5.23536619E-05
   4.68120003         5.16929831E-05
   4.69320011         5.08526318E-05
   4.70520020         4.98720729E-05
   4.71719980         4.87951875E-05
   4.72919989         4.76683272E-05
   4.74119997         4.65384692E-05
   4.75320005         4.54514156E-05
   4.76520014         4.44502439E-05
   4.77720022         4.35738875E-05
   4.78919983         4.28560961E-05
   4.80119991         4.23245110E-05
   4.81320000         4.20001234E-05
   4.82520008         4.18968848E-05
   4.83720016         4.20215547E-05
   4.84919977         4.23737729E-05
   4.86119986         4.29462452E-05
   4.87319994         4.37250928E-05
   4.88520002         4.46903505E-05
   4.89720011         4.58165268E-05
   4.90920019         4.70733576E-05
   4.92119980         4.84266238E-05
   4.93319988         4.98390691E-05
   4.94519997         5.12714214E-05
   4.95720005         5.26835247E-05
   4.96920013         5.40354595E-05
   4.98120022         5.52887686E-05
   4.99319983         5.64076072E-05
   5.00519991         5.73598663E-05
   5.01719999         5.81182831E-05
   5.02920008         5.86613023E-05
   5.04120016         5.89738920E-05
   5.05319977         5.90480922E-05
   5.06519985         5.88833282E-05
   5.07719994         5.84865193E-05
   5.08920002         5.78718609E-05
   5.10120010         5.70604061E-05
   5.11320019         5.60793596E-05
   5.12519979         5.49612341E-05
   5.13719988         5.37427695E-05
   5.14919996         5.24637762E-05
   5.16120005         5.11658945E-05
   5.17320013         4.98913178E-05
   5.18520021         4.86814934E-05
   5.19719982         4.75759334E-05
   5.20919991         4.66110178E-05
   5.22119999         4.58189279E-05
   5.23320007         4.52267341E-05
   5.24520016         4.48555547E-05
   5.25719976         4.47199454E-05
   5.26919985         4.48274259E-05
   5.28119993         4.51781343E-05
   5.29320002         4.57647511E-05
   5.30520010         4.65725352E-05
   5.31720018         4.75795678E-05
   5.32919979         4.87571742E-05
   5.34119987         5.00705646E-05
   5.35319996         5.14796629E-05
   5.36520004         5.29401295E-05
   5.37720013         5.44045470E-05
   5.38920021         5.58237771E-05
   5.40119982         5.71484161E-05
   5.41319990         5.83303299E-05
   5.42519999         5.93241384E-05
   5.43720007         6.00886960E-05
   5.44920015         6.05884052E-05
   5.46120024         6.07944421E-05
   5.47319984         6.06857539E-05
   5.48519993         6.02498367E-05
   5.49720001         5.94832527E-05
   5.50920010         5.83918954E-05
   5.52120018         5.69909498E-05
   5.53319979         5.53045102E-05
   5.54519987         5.33649254E-05
   5.55719995         5.12118895E-05
   5.56920004         4.88911755E-05
   5.58120012         4.64532641E-05
   5.59320021         4.39517935E-05
   5.60519981         4.14419301E-05
   5.61719990         3.89787274E-05
   5.62919998         3.66155546E-05
   5.64120007         3.44026157E-05
   5.65320015         3.23855893E-05
   5.66520023         3.06044894E-05
   5.67719984         2.90926946E-05
   5.68919992         2.78762109E-05
   5.70120001         2.69731918E-05
   5.71320009         2.63937145E-05
   5.72520018         2.61398054E-05
   5.73719978         2.62056983E-05
   5.74919987         2.65783456E-05
   5.76119995         2.72380839E-05
   5.77320004         2.81594585E-05
   5.78520012         2.93121575E-05
   5.79720020         3.06619950E-05
   5.80919981         3.21719708E-05
   5.82119989         3.38032769E-05
   5.83319998         3.55163356E-05
   5.84520006         3.72717404E-05
   5.85720015         3.90311761E-05
   5.86920023         4.07581938E-05
   5.88119984         4.24189311E-05
   5.89319992         4.39826617E-05
   5.90520000         4.54222718E-05
   5.91720009         4.67145619E-05
   5.92920017         4.78404545E-05
   5.94119978         4.87850848E-05
   5.95319986         4.95377571E-05
   5.96519995         5.00918031E-05
   5.97720003         5.04443378E-05
   5.98920012         5.05958742E-05
   6.00120020         5.05498610E-05
   6.01319981         5.03121591E-05
   6.02519989         4.98904446E-05
   6.03719997         4.92936088E-05
   6.04920006         4.85311975E-05
   6.06120014         4.76129062E-05
   6.07320023         4.65481971E-05
   6.08519983         4.53460016E-05
   6.09719992         4.40146141E-05
   6.10920000         4.25616854E-05
   6.12120008         4.09943495E-05
   6.13320017         3.93194969E-05
   6.14519978         3.75440977E-05
   6.15719986         3.56756573E-05
   6.16919994         3.37226593E-05
   6.18120003         3.16950609E-05
   6.19320011         2.96047256E-05
   6.20520020         2.74657268E-05
   6.21719980         2.52945792E-05
   6.22919989         2.31102385E-05
   6.24119997         2.09339541E-05
   6.25320005         1.87889073E-05
   6.26520014         1.66997106E-05
   6.27720022         1.46917801E-05
   6.28919983         1.27906578E-05
   6.30119991         1.10213077E-05
   6.31320000         9.40747032E-06
   6.32520008         7.97106986E-06
   6.33720016         6.73175691E-06
   6.34919977         5.70657403E-06
   6.36119986         4.90974526E-06
   6.37319994         4.35261109E-06
   6.38520002         4.04369712E-06
   6.39720011         3.98887960E-06
   6.40920019         4.19162961E-06
   6.42119980         4.65327867E-06
   6.43319988         5.37328378E-06
   6.44519997         6.34939261E-06
   6.45720005         7.57771159E-06
   6.46920013         9.05260458E-06
   6.48120022         1.07664655E-05
   6.49319983         1.27093217E-05
   6.50519991         1.48683675E-05
   6.51719999         1.72274686E-05
   6.52920008         1.97666632E-05
   6.54120016         2.24618234E-05
   6.55319977         2.52844184E-05
   6.56519985         2.82015317E-05
   6.57719994         3.11761032E-05
   6.58920002         3.41674859E-05
   6.60120010         3.71322276E-05
   6.61320019         4.00251338E-05
   6.62519979         4.28005806E-05
   6.63719988         4.54139590E-05
   6.64919996         4.78232505E-05
   6.66120005         4.99905618E-05
   6.67320013         5.18835659E-05
   6.68520021         5.34767423E-05
   6.69719982         5.47523086E-05
   6.70919991         5.57007515E-05
   6.72119999         5.63209287E-05
   6.73320007         5.66197959E-05
   6.74520016         5.66116105E-05
   6.75719976         5.63168796E-05
   6.76919985         5.57609601E-05
   6.78119993         5.49725337E-05
   6.79320002         5.39819885E-05
   6.80520010         5.28198325E-05
   6.81720018         5.15153042E-05
   6.82919979         5.00951974E-05
   6.84119987         4.85830060E-05
   6.85319996         4.69985025E-05
   6.86520004         4.53576686E-05
   6.87720013         4.36730479E-05
   6.88920021         4.19543940E-05
   6.90119982         4.02096593E-05
   6.91319990         3.84460945E-05
   6.92519999         3.66714412E-05
   6.93720007         3.48950671E-05
   6.94920015         3.31289630E-05
   6.96120024         3.13884630E-05
   6.97319984         2.96926628E-05
   6.98519993         2.80644781E-05
   6.99720001         2.65303061E-05
   7.00920010         2.51193705E-05
   7.02120018         2.38626944E-05
   7.03319979         2.27918881E-05
   7.04519987         2.19377180E-05
   7.05719995         2.13286348E-05
   7.06920004         2.09893515E-05
   7.08120012         2.09395039E-05
   7.09320021         2.11925326E-05
   7.10519981         2.17548240E-05
   7.11719990         2.26251323E-05
   7.12919998         2.37943495E-05
   7.14120007         2.52455538E-05
   7.15320015         2.69543816E-05
   7.16520023         2.88896463E-05
   7.17719984         3.10142022E-05
   7.18919992         3.32859454E-05
   7.20120001         3.56589808E-05
   7.21320009         3.80848069E-05
   7.22520018         4.05135725E-05
   7.23719978         4.28952953E-05
   7.24919987         4.51810047E-05
   7.26119995         4.73238506E-05
   7.27320004         4.92801519E-05
   7.28520012         5.10103418E-05
   7.29720020         5.24798270E-05
   7.30919981         5.36598054E-05
   7.32119989         5.45280127E-05
   7.33319998         5.50693330E-05
   7.34520006         5.52763122E-05
   7.35720015         5.51495941E-05
   7.36920023         5.46980955E-05
   7.38119984         5.39390458E-05
   7.39319992         5.28977762E-05
   7.40520000         5.16073014E-05
   7.41720009         5.01076393E-05
   7.42920017         4.84449010E-05
   7.44119978         4.66701567E-05
   7.45319986         4.48380670E-05
   7.46519995         4.30053406E-05
   7.47720003         4.12290647E-05
   7.48920012         3.95649367E-05
   7.50120020         3.80654747E-05
   7.51319981         3.67783068E-05
   7.52519989         3.57445497E-05
   7.53719997         3.49974471E-05
   7.54920006         3.45612352E-05
   7.56120014         3.44503642E-05
   7.57320023         3.46690649E-05
   7.58519983         3.52112947E-05
   7.59719992         3.60610102E-05
   7.60920000         3.71928363E-05
   7.62120008         3.85730018E-05
   7.63320017         4.01605503E-05
   7.64519978         4.19087191E-05
   7.65719986         4.37665331E-05
   7.66919994         4.56804155E-05
   7.68120003         4.75958841E-05
   7.69320011         4.94591841E-05
   7.70520020         5.12188199E-05
   7.71719980         5.28270102E-05
   7.72919989         5.42408743E-05
   7.74119997         5.54235121E-05
   7.75320005         5.63447793E-05
   7.76520014         5.69818694E-05
   7.77720022         5.73196885E-05
   7.78919983         5.73509496E-05
   7.80119991         5.70761549E-05
   7.81320000         5.65033079E-05
   7.82520008         5.56475243E-05
   7.83720016         5.45304065E-05
   7.84919977         5.31793194E-05
   7.86119986         5.16265209E-05
   7.87319994         4.99081434E-05
   7.88520002         4.80631643E-05
   7.89720011         4.61322779E-05
   7.90920019         4.41567936E-05
   7.92119980         4.21775731E-05
   7.93319988         4.02340993E-05
   7.94519997         3.83635925E-05
   7.95720005         3.66003005E-05
   7.96920013         3.49749025E-05
   7.98120022         3.35140830E-05
   7.99319983         3.22401720E-05
   8.00520039         3.11709737E-05
   8.01720047         3.03196794E-05
   8.02919960         2.96949038E-05
   8.04119968         2.93008288E-05
   8.05319977         2.91374417E-05
   8.06519985         2.92008226E-05
   8.07719994         2.94835081E-05
   8.08920002         2.99748426E-05
   8.10120010         3.06613110E-05
   8.11320019         3.15268589E-05
   8.12520027         3.25531691E-05
   8.13720036         3.37199053E-05
   8.14920044         3.50049195E-05
   8.16119957         3.63845538E-05
   8.17319965         3.78338955E-05
   8.18519974         3.93271766E-05
   8.19719982         4.08381857E-05
   8.20919991         4.23407837E-05
   8.22119999         4.38094939E-05
   8.23320007         4.52200584E-05
   8.24520016         4.65500780E-05
   8.25720024         4.77796057E-05
   8.26920033         4.88916667E-05
   8.28120041         4.98727532E-05
   8.29319954         5.07131772E-05
   8.30519962         5.14073399E-05
   8.31719971         5.19537425E-05
   8.32919979         5.23549279E-05
   8.34119987         5.26171425E-05
   8.35319996         5.27498196E-05
   8.36520004         5.27649245E-05
   8.37720013         5.26761360E-05
   8.38920021         5.24980351E-05
   8.40120029         5.22451810E-05
   8.41320038         5.19313580E-05
   8.42520046         5.15689026E-05
   8.43719959         5.11681465E-05
   8.44919968         5.07370896E-05
   8.46119976         5.02812727E-05
   8.47319984         4.98037698E-05
   8.48519993         4.93054940E-05
   8.49720001         4.87855687E-05
   8.50920010         4.82419346E-05
   8.52120018         4.76720488E-05
   8.53320026         4.70736704E-05
   8.54520035         4.64456571E-05
   8.55720043         4.57887145E-05
   8.56919956         4.51059968E-05
   8.58119965         4.44035504E-05
   8.59319973         4.36905138E-05
   8.60519981         4.29790489E-05
   8.61719990         4.22840203E-05
   8.62919998         4.16224393E-05
   8.64120007         4.10127395E-05
   8.65320015         4.04738312E-05
   8.66520023         4.00241152E-05
   8.67720032         3.96804244E-05
   8.68920040         3.94569506E-05
   8.70119953         3.93642222E-05
   8.71319962         3.94082090E-05
   8.72519970         3.95895295E-05
   8.73719978         3.99029341E-05
   8.74919987         4.03369995E-05
   8.76119995         4.08741580E-05
   8.77320004         4.14910355E-05
   8.78520012         4.21591612E-05
   8.79720020         4.28459207E-05
   8.80920029         4.35158327E-05
   8.82120037         4.41320008E-05
   8.83320045         4.46577433E-05
   8.84519958         4.50582193E-05
   8.85719967         4.53021566E-05
   8.86919975         4.53633402E-05
   8.88119984         4.52220957E-05
   8.89319992         4.48664250E-05
   8.90520000         4.42928904E-05
   8.91720009         4.35071306E-05
   8.92920017         4.25239850E-05
   8.94120026         4.13671660E-05
   8.95320034         4.00685458E-05
   8.96520042         3.86669890E-05
   8.97719955         3.72068607E-05
   8.98919964         3.57362442E-05
   9.00119972         3.43049505E-05
   9.01319981         3.29624709E-05
   9.02519989         3.17559097E-05
   9.03719997         3.07280752E-05
   9.04920006         2.99157455E-05
   9.06120014         2.93482881E-05
   9.07320023         2.90465741E-05
   9.08520031         2.90223270E-05