 -0.622799993         1.00000002E-24
 -0.610800028         1.00000002E-24
 -0.598800004         1.00000002E-24
 -0.586799979         1.00000002E-24
 -0.574800014         1.00000012E-24
 -0.562799990         1.00000012E-24
 -0.550800025         1.00000022E-24
 -0.538800001         1.00000022E-24
 -0.526799977         1.00000032E-24
 -0.514800012         1.00000032E-24
 -0.502799988         1.00000061E-24
 -0.490799993         1.00000061E-24
 -0.478799999         9.99987102E-25
 -0.466800004         9.99891058E-25
 -0.454800010         9.99493374E-25
 -0.442799985         9.98360865E-25
 -0.430799991         9.96158760E-25
 -0.418799996         9.93994421E-25
 -0.406800002         9.97164656E-25
 -0.394800007         1.01765838E-24
 -0.382800013         1.07040211E-24
 -0.370799989         1.15292859E-24
 -0.358799994         1.20176944E-24
 -0.346799999         1.04226709E-24
 -0.334800005         3.96859405E-25
 -0.322800010        -9.31496620E-25
 -0.310799986        -2.59590537E-24
 -0.298799992        -3.03244877E-24
 -0.286799997         9.52748829E-25
 -0.274800003         1.33563444E-23
 -0.262800008         3.57288104E-23
 -0.250800014         6.11279165E-23
 -0.238800004         6.73304836E-23
 -0.226799995         1.52023263E-23
 -0.214800000        -1.38528986E-22
 -0.202800006        -4.05898824E-22
 -0.190799996        -7.11588130E-22
 -0.178800002        -8.39020695E-22
 -0.166800007        -4.28413672E-22
 -0.154799998         9.07272032E-22
 -0.142800003         3.30222718E-21
 -0.130799994         6.22610325E-21
 -0.118799999         8.11180161E-21
 -0.106799997         6.34705216E-21
  -9.48000029E-02    -1.97800513E-21
  -8.28000009E-02    -1.83254158E-20
  -7.07999989E-02    -4.01921276E-20
  -5.88000007E-02    -5.87976782E-20
  -4.67999987E-02    -5.87263984E-20
  -3.48000005E-02    -2.15681399E-20
  -2.28000004E-02     6.51870086E-20
  -1.08000003E-02     1.95011203E-19
   1.20000006E-03     3.29479531E-19
   1.31999999E-02     3.93763020E-19
   2.52000000E-02     2.89995331E-19
   3.72000001E-02    -6.51013179E-20
   4.91999984E-02    -6.81213892E-19
   6.12000003E-02    -1.43139004E-18
   7.32000023E-02    -2.01727348E-18
   8.51999968E-02    -2.00237886E-18
   9.71999988E-02    -9.43709475E-19
  0.109200001         1.38037616E-18
  0.121200003         4.70084509E-18
  0.133200005         8.05981793E-18
  0.145199999         9.83163053E-18
  0.157199994         8.09224093E-18
  0.169200003         1.36971618E-18
  0.181199998        -1.03616862E-17
  0.193200007        -2.47824800E-17
  0.205200002        -3.69121738E-17
  0.217199996        -3.98612183E-17
  0.229200006        -2.68969671E-17
  0.241200000         5.41300706E-18
  0.253199995         5.38423805E-17
  0.265199989         1.06342406E-16
  0.277200013         1.42660015E-16
  0.289200008         1.38869252E-16
  0.301200002         7.57632127E-17
  0.313199997        -5.06669566E-17
  0.325199991        -2.20179055E-16
  0.337199986        -3.85163563E-16
  0.349200010        -4.77472684E-16
  0.361200005        -4.26769027E-16
  0.373199999        -1.87834082E-16
  0.385199994         2.30509905E-16
  0.397199988         7.45896578E-16
  0.409200013         1.20398015E-15
  0.421200007         1.40882797E-15
  0.433200002         1.18139126E-15
  0.445199996         4.33922088E-16
  0.457199991        -7.62502183E-16
  0.469199985        -2.14570407E-15
  0.481200010        -3.29010424E-15
  0.493200004        -3.70466377E-15
  0.505200028        -2.98815076E-15
  0.517199993        -1.00307304E-15
  0.529200017         1.98961475E-15
  0.541199982         5.29628272E-15
  0.553200006         7.89969608E-15
  0.565199971         8.71450535E-15
  0.577199996         6.94023264E-15
  0.589200020         2.41426159E-15
  0.601199985        -4.15882081E-15
  0.613200009        -1.12136769E-14
  0.625199974        -1.66239872E-14
  0.637199998        -1.82646866E-14
  0.649200022        -1.47073803E-14
  0.661199987        -5.84414998E-15
  0.673200011         6.78574188E-15
  0.685199976         2.01384455E-14
  0.697200000         3.03257548E-14
  0.709200025         3.36763190E-14
  0.721199989         2.79245045E-14
  0.733200014         1.31616274E-14
  0.745199978        -7.80005536E-15
  0.757200003        -2.98631562E-14
  0.769200027        -4.68630160E-14
  0.781199992        -5.32899733E-14
  0.793200016        -4.60340553E-14
  0.805199981        -2.55989704E-14
  0.817200005         3.66319896E-15
  0.829200029         3.44781271E-14
  0.841199994         5.85589655E-14
  0.853200018         6.89842267E-14
  0.865199983         6.23283909E-14
  0.877200007         3.98500440E-14
  0.889199972         7.29814938E-15
  0.901199996        -2.66788544E-14
  0.913200021        -5.30761788E-14
  0.925199986        -6.52419945E-14
  0.937200010        -6.08736829E-14
  0.949199975        -4.26251611E-14
  0.961199999        -1.70977886E-14
  0.973200023         7.46377989E-15
  0.985199988         2.39899551E-14
  0.997200012         2.89378507E-14
   1.00919998         2.33406400E-14
   1.02119994         1.21739073E-14
   1.03320003         2.26863862E-15
   1.04519999        -4.53678152E-16
   1.05719995         6.62326317E-15
   1.06920004         2.17116906E-14
   1.08120000         3.92618474E-14
   1.09319997         5.21119369E-14
   1.10520005         5.42986879E-14
   1.11720002         4.33818359E-14
   1.12919998         2.12917012E-14
   1.14119995        -6.70801983E-15
   1.15320003        -3.45492576E-14
   1.16520000        -5.82812471E-14
   1.17719996        -7.79859508E-14
   1.18920004        -9.75679769E-14
   1.20120001        -1.22115629E-13
   1.21319997        -1.53613491E-13
   1.22520006        -1.86724713E-13
   1.23720002        -2.06740725E-13
   1.24919999        -1.91371577E-13
   1.26119995        -1.16858237E-13
   1.27320004         3.27379352E-14
   1.28520000         2.55718298E-13
   1.29719996         5.25863370E-13
   1.30920005         7.91658839E-13
   1.32120001         9.83372455E-13
   1.33319998         1.02748192E-12
   1.34519994         8.65563426E-13
   1.35720003         4.72974307E-13
   1.36919999        -1.27866955E-13
   1.38119996        -8.63838189E-13
   1.39320004        -1.61907271E-12
   1.40520000        -2.25355910E-12
   1.41719997        -2.62865771E-12
   1.42920005        -2.63403166E-12
   1.44120002        -2.21018581E-12
   1.45319998        -1.36199602E-12
   1.46519995        -1.60915294E-13
   1.47720003         1.26380623E-12
   1.48920000         2.74228361E-12
   1.50119996         4.08565239E-12
   1.51320004         5.10824152E-12
   1.52520001         5.64719538E-12
   1.53719997         5.57794609E-12
   1.54920006         4.82536146E-12
   1.56120002         3.37138368E-12
   1.57319999         1.26024343E-12
   1.58519995        -1.39799489E-12
   1.59720004        -4.42555714E-12
   1.60920000        -7.57760608E-12
   1.62119997        -1.05469912E-11
   1.63320005        -1.29751652E-11
   1.64520001        -1.44714761E-11
   1.65719998        -1.46428061E-11
   1.66919994        -1.31346965E-11
   1.68120003        -9.68356471E-12
   1.69319999        -4.17712913E-12
   1.70519996         3.28312074E-12
   1.71720004         1.23271879E-11
   1.72920001         2.22823184E-11
   1.74119997         3.21731461E-11
   1.75320005         4.07683054E-11
   1.76520002         4.66801077E-11
   1.77719998         4.85150531E-11
   1.78919995         4.50621103E-11
   1.80120003         3.54952769E-11
   1.81320000         1.95595241E-11
   1.82519996        -2.29269099E-12
   1.83720005        -2.88424059E-11
   1.84920001        -5.81393822E-11
   1.86119998        -8.76332409E-11
   1.87320006        -1.14385786E-10
   1.88520002        -1.35336936E-10
   1.89719999        -1.47589704E-10
   1.90919995        -1.48681234E-10
   1.92120004        -1.36815129E-10
   1.93320000        -1.11045013E-10
   1.94519997        -7.14144299E-11
   1.95720005        -1.90710468E-11
   1.96920002         4.36194171E-11
   1.98119998         1.12935952E-10
   1.99319994         1.83628002E-10
   2.00519991         2.48707804E-10
   2.01719999         2.99236413E-10
   2.02920008         3.24156063E-10
   2.04119992         3.10246717E-10
   2.05320001         2.42306286E-10
   2.06520009         1.03668109E-10
   2.07719994        -1.22827845E-10
   2.08920002        -4.53308557E-10
   2.10120010        -9.00718888E-10
   2.11319995        -1.47204304E-09
   2.12520003        -2.16497509E-09
   2.13720012        -2.96422420E-09
   2.14919996        -3.83776078E-09
   2.16120005        -4.73342920E-09
   2.17319989        -5.57644730E-09
   2.18519998        -6.26835517E-09
   2.19720006        -6.68795019E-09
   2.20919991        -6.69459288E-09
   2.22119999        -6.13403861E-09
   2.23320007        -4.84649298E-09
   2.24519992        -2.67612288E-09
   2.25720000         5.19474075E-10
   2.26920009         4.86207252E-09
   2.28119993         1.04509841E-08
   2.29320002         1.73703842E-08
   2.30520010         2.57104293E-08
   2.31719995         3.56073144E-08
   2.32920003         4.73075872E-08
   2.34120011         6.12620994E-08
   2.35319996         7.82541250E-08
   2.36520004         9.95655469E-08
   2.37719989         1.27182687E-07
   2.38919997         1.64041396E-07
   2.40120006         2.14308685E-07
   2.41319990         2.83693538E-07
   2.42519999         3.79777617E-07
   2.43720007         5.12351278E-07
   2.44919991         6.93737718E-07
   2.46120000         9.39083975E-07
   2.47320008         1.26659540E-06
   2.48519993         1.69768816E-06
   2.49720001         2.25703388E-06
   2.50920010         2.97247243E-06
   2.52119994         3.87476712E-06
   2.53320003         4.99719044E-06
   2.54520011         6.37491848E-06
   2.55719995         8.04424144E-06
   2.56920004         1.00415828E-05
   2.58119988         1.24023500E-05
   2.59319997         1.51596369E-05
   2.60520005         1.83428092E-05
   2.61719990         2.19760332E-05
   2.62919998         2.60767720E-05
   2.64120007         3.06543516E-05
   2.65319991         3.57086283E-05
   2.66520000         4.12288173E-05
   2.67720008         4.71926105E-05
   2.68919992         5.35655345E-05
   2.70120001         6.03007429E-05
   2.71320009         6.73391478E-05
   2.72519994         7.46100341E-05
   2.73720002         8.20320492E-05
   2.74920011         8.95147386E-05
   2.76119995         9.69603498E-05
   2.77320004         1.04266139E-04
   2.78520012         1.11326874E-04
   2.79719996         1.18037671E-04
   2.80920005         1.24296828E-04
   2.82119989         1.30008848E-04
   2.83319998         1.35087190E-04
   2.84520006         1.39457057E-04
   2.85719991         1.43057667E-04
   2.86919999         1.45844271E-04
   2.88120008         1.47789644E-04
   2.89319992         1.48884996E-04
   2.90520000         1.49140425E-04
   2.91720009         1.48584542E-04
   2.92919993         1.47263636E-04
   2.94120002         1.45240236E-04
   2.95320010         1.42591103E-04
   2.96519995         1.39404743E-04
   2.97720003         1.35778610E-04
   2.98920012         1.31815963E-04
   3.00119996         1.27622727E-04
   3.01320004         1.23304140E-04
   3.02519989         1.18961740E-04
   3.03719997         1.14690345E-04
   3.04920006         1.10575565E-04
   3.06119990         1.06691623E-04
   3.07319999         1.03099723E-04
   3.08520007         9.98469841E-05
   3.09719992         9.69659377E-05
   3.10920000         9.44746062E-05
   3.12120008         9.23771076E-05
   3.13319993         9.06648493E-05
   3.14520001         8.93181059E-05
   3.15720010         8.83079701E-05
   3.16919994         8.75985424E-05
   3.18120003         8.71492739E-05
   3.19320011         8.69173600E-05
   3.20519996         8.68600109E-05
   3.21720004         8.69366049E-05
   3.22919989         8.71104712E-05
   3.24119997         8.73504468E-05
   3.25320005         8.76318736E-05
   3.26519990         8.79373038E-05
   3.27719998         8.82566455E-05
   3.28920007         8.85869085E-05
   3.30119991         8.89314979E-05
   3.31320000         8.92992175E-05
   3.32520008         8.97029531E-05
   3.33719993         9.01581516E-05
   3.34920001         9.06812347E-05
   3.36120009         9.12879623E-05
   3.37319994         9.19919548E-05
   3.38520002         9.28032823E-05
   3.39720011         9.37274162E-05
   3.40919995         9.47644367E-05
   3.42120004         9.59085664E-05
   3.43319988         9.71481422E-05
   3.44519997         9.84658691E-05
   3.45720005         9.98395117E-05
   3.46919990         1.01242826E-04
   3.48119998         1.02646751E-04
   3.49320006         1.04020866E-04
   3.50519991         1.05334824E-04
   3.51719999         1.06559914E-04
   3.52920008         1.07670581E-04
   3.54119992         1.08645771E-04
   3.55320001         1.09470107E-04
   3.56520009         1.10134861E-04
   3.57719994         1.10638590E-04
   3.58920002         1.10987501E-04
   3.60120010         1.11195463E-04
   3.61319995         1.11283742E-04
   3.62520003         1.11280380E-04
   3.63720012         1.11219357E-04
   3.64919996         1.11139481E-04
   3.66120005         1.11083114E-04
   3.67319989         1.11094763E-04
   3.68519998         1.11219626E-04
   3.69720006         1.11502086E-04
   3.70919991         1.11984307E-04
   3.72119999         1.12704874E-04
   3.73320007         1.13697599E-04
   3.74519992         1.14990573E-04
   3.75720000         1.16605333E-04
   3.76920009         1.18556360E-04
   3.78119993         1.20850709E-04
   3.79320002         1.23487989E-04
   3.80520010         1.26460494E-04
   3.81719995         1.29753549E-04
   3.82920003         1.33346039E-04
   3.84120011         1.37211115E-04
   3.85319996         1.41316879E-04
   3.86520004         1.45627317E-04
   3.87719989         1.50103049E-04
   3.88919997         1.54702284E-04
   3.90120006         1.59381598E-04
   3.91319990         1.64096695E-04
   3.92519999         1.68803163E-04
   3.93720007         1.73457098E-04
   3.94919991         1.78015660E-04
   3.96120000         1.82437579E-04
   3.97320008         1.86683625E-04
   3.98519993         1.90716950E-04
   3.99720001         1.94503460E-04
   4.00920010         1.98012145E-04
   4.02120018         2.01215356E-04
   4.03319979         2.04089112E-04
   4.04519987         2.06613346E-04
   4.05719995         2.08772180E-04
   4.06920004         2.10554092E-04
   4.08120012         2.11952196E-04
   4.09320021         2.12964253E-04
   4.10519981         2.13592910E-04
   4.11719990         2.13845633E-04
   4.12919998         2.13734587E-04
   4.14120007         2.13276609E-04
   4.15320015         2.12492931E-04
   4.16520023         2.11408740E-04
   4.17719984         2.10052836E-04
   4.18919992         2.08457044E-04
   4.20120001         2.06655677E-04
   4.21320009         2.04684766E-04
   4.22520018         2.02581447E-04
   4.23719978         2.00383220E-04
   4.24919987         1.98127105E-04
   4.26119995         1.95849105E-04
   4.27320004         1.93583444E-04
   4.28520012         1.91362007E-04
   4.29720020         1.89213839E-04
   4.30919981         1.87164827E-04
   4.32119989         1.85237397E-04
   4.33319998         1.83450407E-04
   4.34520006         1.81819240E-04
   4.35720015         1.80355899E-04
   4.36920023         1.79069350E-04
   4.38119984         1.77965849E-04
   4.39319992         1.77049398E-04
   4.40520000         1.76322181E-04
   4.41720009         1.75784953E-04
   4.42920017         1.75437497E-04
   4.44119978         1.75278750E-04
   4.45319986         1.75307025E-04
   4.46519995         1.75519875E-04
   4.47720003         1.75913941E-04
   4.48920012         1.76484478E-04
   4.50120020         1.77224880E-04
   4.51319981         1.78125978E-04
   4.52519989         1.79175360E-04
   4.53719997         1.80356568E-04
   4.54920006         1.81648516E-04
   4.56120014         1.83024895E-04
   4.57320023         1.84453907E-04
   4.58519983         1.85898112E-04
   4.59719992         1.87314654E-04
   4.60920000         1.88655744E-04
   4.62120008         1.89869417E-04
   4.63320017         1.90900639E-04
   4.64519978         1.91692438E-04
   4.65719986         1.92187465E-04
   4.66919994         1.92329346E-04
   4.68120003         1.92064224E-04
   4.69320011         1.91342115E-04
   4.70520020         1.90118197E-04
   4.71719980         1.88353821E-04
   4.72919989         1.86017292E-04
   4.74119997         1.83084470E-04
   4.75320005         1.79538954E-04
   4.76520014         1.75372290E-04
   4.77720022         1.70583808E-04
   4.78919983         1.65180507E-04
   4.80119991         1.59176765E-04
   4.81320000         1.52594337E-04
   4.82520008         1.45462036E-04
   4.83720016         1.37815965E-04
   4.84919977         1.29699489E-04
   4.86119986         1.21163466E-04
   4.87319994         1.12266571E-04
   4.88520002         1.03075385E-04
   4.89720011         9.36645738E-05
   4.90920019         8.41167493E-05
   4.92119980         7.45220605E-05
   4.93319988         6.49774447E-05
   4.94519997         5.55854022E-05
   4.95720005         4.64523546E-05
   4.96920013         3.76865610E-05
   4.98120022         2.93956055E-05
   4.99319983         2.16835979E-05
   5.00519991         1.46481325E-05
   5.01719999         8.37719290E-06
   5.02920008         2.94615529E-06
   5.04120016        -1.58497767E-06
   5.05319977        -5.17392482E-06
   5.06519985        -7.79793481E-06
   5.07719994        -9.45492411E-06
   5.08920002        -1.01638880E-05
   5.10120010        -9.96452854E-06
   5.11320019        -8.91612126E-06
   5.12519979        -7.09565484E-06
   5.13719988        -4.59534567E-06
   5.14919996        -1.51963366E-06
   5.16120005         2.01818420E-06
   5.17320013         5.89954425E-06
   5.18520021         1.00042571E-05
   5.19719982         1.42140379E-05
   5.20919991         1.84158162E-05
   5.22119999         2.25046624E-05
   5.23320007         2.63862876E-05
   5.24520016         2.99790208E-05
   5.25719976         3.32152304E-05
   5.26919985         3.60422164E-05
   5.28119993         3.84225386E-05
   5.29320002         4.03338527E-05
   5.30520010         4.17682932E-05
   5.31720018         4.27314772E-05
   5.32919979         4.32411653E-05
   5.34119987         4.33256901E-05
   5.35319996         4.30221662E-05
   5.36520004         4.23746133E-05
   5.37720013         4.14319511E-05
   5.38920021         4.02460282E-05
   5.40119982         3.88696499E-05
   5.41319990         3.73547155E-05
   5.42519999         3.57504505E-05
   5.43720007         3.41018676E-05
   5.44920015         3.24484281E-05
   5.46120024         3.08229937E-05
   5.47319984         2.92510849E-05
   5.48519993         2.77505042E-05
   5.49720001         2.63312959E-05
   5.50920010         2.49960794E-05
   5.52120018         2.37407294E-05
   5.53319979         2.25553831E-05
   5.54519987         2.14257016E-05
   5.55719995         2.03343643E-05
   5.56920004         1.92626703E-05
   5.58120012         1.81922187E-05
   5.59320021         1.71065094E-05
   5.60519981         1.59924384E-05
   5.61719990         1.48415411E-05
   5.62919998         1.36509552E-05
   5.64120007         1.24240169E-05
   5.65320015         1.11704703E-05
   5.66520023         9.90627268E-06
   5.67719984         8.65300717E-06
   5.68919992         7.43694363E-06
   5.70120001         6.28779662E-06
   5.71320009         5.23725339E-06
   5.72520018         4.31734634E-06
   5.73719978         3.55876932E-06
   5.74919987         2.98922282E-06
   5.76119995         2.63187030E-06
   5.77320004         2.50399989E-06
   5.78520012         2.61594391E-06
   5.79720020         2.97031784E-06
   5.80919981         3.56160876E-06
   5.82119989         4.37612471E-06
   5.83319998         5.39230314E-06
   5.84520006         6.58135605E-06
   5.85720015         7.90820286E-06
   5.86920023         9.33266620E-06
   5.88119984         1.08108461E-05
   5.89319992         1.22966394E-05
   5.90520000         1.37433244E-05
   5.91720009         1.51051554E-05
   5.92920017         1.63389177E-05
   5.94119978         1.74053730E-05
   5.95319986         1.82705717E-05
   5.96519995         1.89069542E-05
   5.97720003         1.92942734E-05
   5.98920012         1.94202439E-05
   6.00120020         1.92809748E-05
   6.01319981         1.88811337E-05
   6.02519989         1.82338626E-05
   6.03719997         1.73604494E-05
   6.04920006         1.62897759E-05
   6.06120014         1.50575361E-05
   6.07320023         1.37052584E-05
   6.08519983         1.22791425E-05
   6.09719992         1.08287522E-05
   6.10920000         9.40558584E-06
   6.12120008         8.06155640E-06
   6.13320017         6.84744145E-06
   6.14519978         5.81132144E-06
   6.15719986         4.99708494E-06
   6.16919994         4.44302714E-06
   6.18120003         4.18060290E-06
   6.19320011         4.23337769E-06
   6.20520020         4.61622085E-06
   6.21719980         5.33477805E-06
   6.22919989         6.38524307E-06
   6.24119997         7.75444551E-06
   6.25320005         9.42025144E-06
   6.26520014         1.13522619E-05
   6.27720022         1.35127784E-05
   6.28919983         1.58579878E-05
   6.30119991         1.83393222E-05
   6.31320000         2.09049431E-05
   6.32520008         2.35012612E-05
   6.33720016         2.60744910E-05
   6.34919977         2.85720980E-05
   6.36119986         3.09442148E-05
   6.37319994         3.31448464E-05
   6.38520002         3.51329581E-05
   6.39720011         3.68733672E-05
   6.40920019         3.83374281E-05
   6.42119980         3.95035458E-05
   6.43319988         4.03574995E-05
   6.44519997         4.08926207E-05
   6.45720005         4.11097681E-05
   6.46920013         4.10172397E-05
   6.48120022         4.06305007E-05
   6.49319983         3.99718010E-05
   6.50519991         3.90696987E-05
   6.51719999         3.79584199E-05
   6.52920008         3.66771346E-05
   6.54120016         3.52690804E-05
   6.55319977         3.37805977E-05
   6.56519985         3.22600499E-05
   6.57719994         3.07566443E-05
   6.58920002         2.93192188E-05
   6.60120010         2.79949691E-05
   6.61320019         2.68281747E-05
   6.62519979         2.58589735E-05
   6.63719988         2.51222009E-05
   6.64919996         2.46463605E-05
   6.66120005         2.44527255E-05
   6.67320013         2.45546853E-05
   6.68520021         2.49572840E-05
   6.69719982         2.56570383E-05
   6.70919991         2.66420247E-05
   6.72119999         2.78922344E-05
   6.73320007         2.93802204E-05
   6.74520016         3.10719479E-05
   6.75719976         3.29279283E-05
   6.76919985         3.49044712E-05
   6.78119993         3.69551162E-05
   6.79320002         3.90321547E-05
   6.80520010         4.10881694E-05
   6.81720018         4.30775945E-05
   6.82919979         4.49581712E-05
   6.84119987         4.66923229E-05
   6.85319996         4.82483192E-05
   6.86520004         4.96012508E-05
   6.87720013         5.07337390E-05
   6.88920021         5.16363507E-05
   6.90119982         5.23077360E-05
   6.91319990         5.27544507E-05
   6.92519999         5.29904610E-05
   6.93720007         5.30364014E-05
   6.94920015         5.29185672E-05
   6.96120024         5.26677068E-05
   6.97319984         5.23176677E-05
   6.98519993         5.19039713E-05
   6.99720001         5.14623280E-05
   7.00920010         5.10272257E-05
   7.02120018         5.06306242E-05
   7.03319979         5.03008123E-05
   7.04519987         5.00614551E-05
   7.05719995         4.99309353E-05
   7.06920004         4.99219204E-05
   7.08120012         5.00412170E-05
   7.09320021         5.02898765E-05
   7.10519981         5.06635552E-05
   7.11719990         5.11530707E-05
   7.12919998         5.17450899E-05
   7.14120007         5.24229545E-05
   7.15320015         5.31675214E-05
   7.16520023         5.39580251E-05
   7.17719984         5.47728814E-05
   7.18919992         5.55904298E-05
   7.20120001         5.63895373E-05
   7.21320009         5.71501441E-05
   7.22520018         5.78536601E-05
   7.23719978         5.84833069E-05
   7.24919987         5.90243217E-05
   7.26119995         5.94641933E-05
   7.27320004         5.97928374E-05
   7.28520012         6.00027597E-05
   7.29720020         6.00892636E-05
   7.30919981         6.00506537E-05
   7.32119989         5.98884835E-05
   7.33319998         5.96077771E-05
   7.34520006         5.92172510E-05
   7.35720015         5.87294671E-05
   7.36920023         5.81608983E-05
   7.38119984         5.75318591E-05
   7.39319992         5.68662581E-05
   7.40520000         5.61911147E-05
   7.41720009         5.55358893E-05
   7.42920017         5.49315773E-05
   7.44119978         5.44095565E-05
   7.45319986         5.40003130E-05
   7.46519995         5.37320448E-05
   7.47720003         5.36292100E-05
   7.48920012         5.37111555E-05
   7.50120020         5.39908506E-05
   7.51319981         5.44738868E-05
   7.52519989         5.51577505E-05
   7.53719997         5.60314656E-05
   7.54920006         5.70756929E-05
   7.56120014         5.82632201E-05
   7.57320023         5.95598831E-05
   7.58519983         6.09259259E-05
   7.59719992         6.23176311E-05
   7.60920000         6.36892510E-05
   7.62120008         6.49950016E-05
   7.63320017         6.61911909E-05
   7.64519978         6.72380993E-05
   7.65719986         6.81017700E-05
   7.66919994         6.87554129E-05
   7.68120003         6.91804162E-05
   7.69320011         6.93669353E-05
   7.70520020         6.93140028E-05
   7.71719980         6.90291417E-05
   7.72919989         6.85276245E-05
   7.74119997         6.78313663E-05
   7.75320005         6.69675355E-05
   7.76520014         6.59670768E-05
   7.77720022         6.48630739E-05
   7.78919983         6.36893456E-05
   7.80119991         6.24789973E-05
   7.81320000         6.12633521E-05
   7.82520008         6.00710264E-05
   7.83720016         5.89273805E-05
   7.84919977         5.78541803E-05
   7.86119986         5.68695687E-05
   7.87319994         5.59881846E-05
   7.88520002         5.52214660E-05
   7.89720011         5.45780094E-05
   7.90920019         5.40639630E-05
   7.92119980         5.36833322E-05
   7.93319988         5.34382561E-05
   7.94519997         5.33291313E-05
   7.95720005         5.33546372E-05
   7.96920013         5.35116451E-05
   7.98120022         5.37950946E-05
   7.99319983         5.41977570E-05
   8.00520039         5.47100899E-05
   8.01720047         5.53201207E-05
   8.02919960         5.60134285E-05
   8.04119968         5.67732641E-05
   8.05319977         5.75808408E-05
   8.06519985         5.84157860E-05
   8.07719994         5.92567230E-05
   8.08920002         6.00820240E-05
   8.10120010         6.08706032E-05
   8.11320019         6.16027683E-05
   8.12520027         6.22610678E-05
   8.13720036         6.28310227E-05
   8.14920044         6.33017771E-05
   8.16119957         6.36665063E-05
   8.17319965         6.39226491E-05
   8.18519974         6.40718863E-05
   8.19719982         6.41198858E-05
   8.20919991         6.40758517E-05
   8.22119999         6.39518476E-05
   8.23320007         6.37620033E-05
   8.24520016         6.35216784E-05
   8.25720024         6.32465380E-05
   8.26920033         6.29517453E-05
   8.28120041         6.26511392E-05
   8.29319954         6.23566593E-05
   8.30519962         6.20778810E-05
   8.31719971         6.18217528E-05
   8.32919979         6.15925310E-05
   8.34119987         6.13918746E-05
   8.35319996         6.12191943E-05
   8.36520004         6.10720090E-05
   8.37720013         6.09465023E-05
   8.38920021         6.08380506E-05
   8.40120029         6.07417751E-05
   8.41320038         6.06530557E-05
   8.42520046         6.05679197E-05
   8.43719959         6.04833513E-05
   8.44919968         6.03975022E-05
   8.46119976         6.03097214E-05
   8.47319984         6.02205073E-05
   8.48519993         6.01313659E-05
   8.49720001         6.00445965E-05
   8.50920010         5.99630439E-05
   8.52120018         5.98898223E-05
   8.53320026         5.98280858E-05
   8.54520035         5.97808321E-05
   8.55720043         5.97507351E-05
   8.56919956         5.97400795E-05
   8.58119965         5.97507096E-05
   8.59319973         5.97840408E-05
   8.60519981         5.98410625E-05
   8.61719990         5.99223786E-05
   8.62919998         6.00281855E-05
   8.64120007         6.01582287E-05
   8.65320015         6.03117151E-05
   8.66520023         6.04871748E-05
   8.67720032         6.06822978E-05
   8.68920040         6.08937953E-05
   8.70119953         6.11172582E-05
   8.71319962         6.13470620E-05
   8.72519970         6.15763565E-05
   8.73719978         6.17971746E-05
   8.74919987         6.20005594E-05
   8.76119995         6.21769505E-05
   8.77320004         6.23165033E-05
   8.78520012         6.24096647E-05
   8.79720020         6.24476452E-05
   8.80920029         6.24230743E-05
   8.82120037         6.23305023E-05
   8.83320045         6.21669678E-05
   8.84519958         6.19323764E-05
   8.85719967         6.16297402E-05
   8.86919975         6.12652730E-05
   8.88119984         6.08482878E-05
   8.89319992         6.03908557E-05
   8.90520000         5.99073610E-05
   8.91720009         5.94138291E-05
   8.92920017         5.89272204E-05
   8.94120026         5.84646114E-05
   8.95320034         5.80424057E-05
   8.96520042         5.76755447E-05
   8.97719955         5.73768630E-05
   8.98919964         5.71564960E-05
   9.00119972         5.70214543E-05
   9.01319981         5.69753429E-05
   9.02519989         5.70182310E-05
   9.03719997         5.71466626E-05
   9.04920006         5.73537800E-05
   9.06120014         5.76295497E-05
   9.07320023         5.79610823E-05
   9.08520031         5.83330257E-05