 -0.622799993       0.00000000    
 -0.610800028       0.00000000    
 -0.598800004       0.00000000    
 -0.586799979       0.00000000    
 -0.574800014       0.00000000    
 -0.562799990       0.00000000    
 -0.550800025       0.00000000    
 -0.538800001       0.00000000    
 -0.526799977       1.46972990E-36
 -0.514800012      -2.34249002E-32
 -0.502799988      -5.18172768E-31
 -0.490799993      -5.12103719E-30
 -0.478799999      -3.11527294E-29
 -0.466800004      -1.30876545E-28
 -0.454800010      -3.90691741E-28
 -0.442799985      -7.65097048E-28
 -0.430799991      -4.43056043E-28
 -0.418799996       3.49695144E-27
 -0.406800002       1.74793889E-26
 -0.394800007       4.98005702E-26
 -0.382800013       9.96118947E-26
 -0.370799989       1.29871206E-25
 -0.358799994       2.83055742E-26
 -0.346799999      -4.10024877E-25
 -0.334800005      -1.40102180E-24
 -0.322800010      -2.88893051E-24
 -0.310799986      -4.02776838E-24
 -0.298799992      -2.62955108E-24
 -0.286799997       4.80488157E-24
 -0.274800003       2.14651198E-23
 -0.262800008       4.61212987E-23
 -0.250800014       6.68801324E-23
 -0.238800004       5.59310838E-23
 -0.226799995      -2.79657880E-23
 -0.214800000      -2.20384917E-22
 -0.202800006      -5.10054136E-22
 -0.190799996      -7.82884495E-22
 -0.178800002      -7.80881672E-22
 -0.166800007      -1.29721852E-22
 -0.154799998       1.50357999E-21
 -0.142800003       4.09497216E-21
 -0.130799994       6.85445476E-21
 -0.118799999       7.93146816E-21
 -0.106799997       4.57808320E-21
  -9.48000029E-02  -5.86456756E-21
  -8.28000009E-02  -2.40102033E-20
  -7.07999989E-02  -4.58887977E-20
  -5.88000007E-02  -6.09821458E-20
  -4.67999987E-02  -5.26856374E-20
  -3.48000005E-02  -3.14139589E-21
  -2.28000004E-02   9.66993394E-20
  -1.08000003E-02   2.33487832E-19
   1.20000006E-03   3.59696155E-19
   1.31999999E-02   3.92281100E-19
   2.52000000E-02   2.31151150E-19
   3.72000001E-02  -1.97486269E-19
   4.91999984E-02  -8.78319089E-19
   6.12000003E-02  -1.64527320E-18
   7.32000023E-02  -2.15616331E-18
   8.51999968E-02  -1.94410626E-18
   9.71999988E-02  -5.72898985E-19
  0.109200001       2.11345991E-18
  0.121200003       5.71338778E-18
  0.133200005       9.08716881E-18
  0.145199999       1.04288756E-17
  0.157199994       7.71688457E-18
  0.169200003      -4.42391133E-19
  0.181199998      -1.37486633E-17
  0.193200007      -2.93015332E-17
  0.205200002      -4.13813182E-17
  0.217199996      -4.24181858E-17
  0.229200006      -2.53715799E-17
  0.241200000       1.27935352E-17
  0.253199995       6.75206027E-17
  0.265199989       1.24522406E-16
  0.277200013       1.60797294E-16
  0.289200008       1.49966522E-16
  0.301200002       7.17717023E-17
  0.313199997      -7.63204545E-17
  0.325199991      -2.69342792E-16
  0.337199986      -4.51867566E-16
  0.349200010      -5.46236036E-16
  0.361200005      -4.73621278E-16
  0.373199999      -1.84966571E-16
  0.385199994       3.06471290E-16
  0.397199988       9.03353015E-16
  0.409200013       1.42636537E-15
  0.421200007       1.64903148E-15
  0.433200002       1.36457802E-15
  0.445199996       4.71424128E-16
  0.457199991      -9.48385945E-16
  0.469199985      -2.59014459E-15
  0.481200010      -3.95569426E-15
  0.493200004      -4.46400509E-15
  0.505200028      -3.63022524E-15
  0.517199993      -1.27059802E-15
  0.529200017       2.33262963E-15
  0.541199982       6.37833258E-15
  0.553200006       9.65915800E-15
  0.565199971       1.08497077E-14
  0.577199996       8.92054697E-15
  0.589200020       3.56978859E-15
  0.601199985      -4.47180795E-15
  0.613200009      -1.34005830E-14
  0.625199974      -2.06469499E-14
  0.637199998      -2.35133500E-14
  0.649200022      -2.00101048E-14
  0.661199987      -9.65794251E-15
  0.673200011       6.01494528E-15
  0.685199976       2.35106632E-14
  0.697200000       3.80338664E-14
  0.709200025       4.47087876E-14
  0.721199989       4.00553241E-14
  0.733200014       2.33009548E-14
  0.745199978      -2.91610934E-15
  0.757200003      -3.27755198E-14
  0.769200027      -5.85102238E-14
  0.781199992      -7.24131516E-14
  0.793200016      -6.90998230E-14
  0.805199981      -4.73608647E-14
  0.817200005      -1.09838328E-14
  0.829200029       3.18238071E-14
  0.841199994       7.03781380E-14
  0.853200018       9.43626213E-14
  0.865199983       9.67794706E-14
  0.877200007       7.61147195E-14
  0.889199972       3.70022887E-14
  0.901199996      -1.09023644E-14
  0.913200021      -5.55791815E-14
  0.925199986      -8.60698502E-14
  0.937200010      -9.56308397E-14
  0.949199975      -8.36156434E-14
  0.961199999      -5.54654216E-14
  0.973200023      -2.07855600E-14
  0.985199988       9.88546996E-15
  0.997200012       2.85624050E-14
   1.00919998       3.23969706E-14
   1.02119994       2.44853017E-14
   1.03320003       1.26118623E-14
   1.04519999       6.33709817E-15
   1.05719995       1.33993912E-14
   1.06920004       3.66371497E-14
   1.08120000       7.24602805E-14
   1.09319997       1.11374072E-13
   1.10520005       1.40372916E-13
   1.11720002       1.46423292E-13
   1.12919998       1.19957646E-13
   1.14119995       5.73991335E-14
   1.15320003      -3.78264314E-14
   1.16520000      -1.55754356E-13
   1.17719996      -2.81305849E-13
   1.18920004      -3.95989258E-13
   1.20120001      -4.79396308E-13
   1.21319997      -5.10486239E-13
   1.22520006      -4.69150868E-13
   1.23720002      -3.38795452E-13
   1.24919999      -1.10452588E-13
   1.26119995       2.11747463E-13
   1.27320004       6.04892113E-13
   1.28520000       1.02338830E-12
   1.29719996       1.39919196E-12
   1.30920005       1.64803587E-12
   1.32120001       1.68221535E-12
   1.33319998       1.42862469E-12
   1.34519994       8.48833265E-13
   1.35720003      -4.33199246E-14
   1.36919999      -1.17136162E-12
   1.38119996      -2.39675510E-12
   1.39320004      -3.53198113E-12
   1.40520000      -4.36504565E-12
   1.41719997      -4.69182722E-12
   1.42920005      -4.35102475E-12
   1.44120002      -3.25597752E-12
   1.45319998      -1.41838060E-12
   1.46519995       1.03955418E-12
   1.47720003       3.88610281E-12
   1.48920000       6.79428432E-12
   1.50119996       9.36845566E-12
   1.51320004       1.11818705E-11
   1.52520001       1.18234953E-11
   1.53719997       1.09518141E-11
   1.54920006       8.35207858E-12
   1.56120002       3.99163601E-12
   1.57319999      -1.93408766E-12
   1.58519995      -8.97399082E-12
   1.59720004      -1.64213278E-11
   1.60920000      -2.33490519E-11
   1.62119997      -2.86844680E-11
   1.63320005      -3.13219589E-11
   1.64520001      -3.02664248E-11
   1.65719998      -2.47942535E-11
   1.66919994      -1.46137564E-11
   1.68120003      -4.07483453E-15
   1.69319999       1.80896409E-11
   1.70519996       3.80260823E-11
   1.71720004       5.75210539E-11
   1.72920001       7.37975583E-11
   1.74119997       8.38380684E-11
   1.75320005       8.47335396E-11
   1.76520002       7.41088371E-11
   1.77719998       5.05874127E-11
   1.78919995       1.42399608E-11
   1.80120003      -3.30532372E-11
   1.81320000      -8.74047848E-11
   1.82519996      -1.42962919E-10
   1.83720005      -1.92252630E-10
   1.84920001      -2.26841018E-10
   1.86119998      -2.38307207E-10
   1.87320006      -2.19444463E-10
   1.88520002      -1.65569697E-10
   1.89719999      -7.57721663E-11
   1.90919995       4.60922620E-11
   1.92120004       1.90856067E-10
   1.93320000       3.44113044E-10
   1.94519997       4.87024754E-10
   1.95720005       5.97900673E-10
   1.96920002       6.54501231E-10
   1.98119998       6.36915354E-10
   1.99319994       5.30770261E-10
   2.00519991       3.30452610E-10
   2.01719999       4.19608619E-11
   2.02920008      -3.15013710E-10
   2.04119992      -7.06169678E-10
   2.05320001      -1.08317377E-09
   2.06520009      -1.38596912E-09
   2.07719994      -1.54690061E-09
   2.08920002      -1.49656576E-09
   2.10120010      -1.17109455E-09
   2.11319995      -5.20352261E-10
   2.12520003       4.83631912E-10
   2.13720012       1.83886140E-09
   2.14919996       3.50712637E-09
   2.16120005       5.41024958E-09
   2.17319989       7.42964357E-09
   2.18519998       9.40979294E-09
   2.19720006       1.11659251E-08
   2.20919991       1.24957218E-08
   2.22119999       1.31944402E-08
   2.23320007       1.30722473E-08
   2.24519992       1.19720811E-08
   2.25720000       9.78588588E-09
   2.26920009       6.46665255E-09
   2.28119993       2.03353845E-09
   2.29320002      -3.43275564E-09
   2.30520010      -9.80697479E-09
   2.31719995      -1.69509686E-08
   2.32920003      -2.47617873E-08
   2.34120011      -3.32370682E-08
   2.35319996      -4.25580033E-08
   2.36520004      -5.31888809E-08
   2.37719989      -6.59913795E-08
   2.38919997      -8.23506596E-08
   2.40120006      -1.04309272E-07
   2.41319990      -1.34703768E-07
   2.42519999      -1.77298418E-07
   2.43720007      -2.36909500E-07
   2.44919991      -3.19512566E-07
   2.46120000      -4.32325550E-07
   2.47320008      -5.83859105E-07
   2.48519993      -7.83926566E-07
   2.49720001      -1.04360606E-06
   2.50920010      -1.37514701E-06
   2.52119994      -1.79181484E-06
   2.53320003      -2.30767000E-06
   2.54520011      -2.93727680E-06
   2.55719995      -3.69534177E-06
   2.56920004      -4.59628518E-06
   2.58119988      -5.65374694E-06
   2.59319997      -6.88004184E-06
   2.60520005      -8.28557040E-06
   2.61719990      -9.87820385E-06
   2.62919998      -1.16626734E-05
   2.64120007      -1.36399631E-05
   2.65319991      -1.58067669E-05
   2.66520000      -1.81550076E-05
   2.67720008      -2.06714740E-05
   2.68919992      -2.33375740E-05
   2.70120001      -2.61292589E-05
   2.71320009      -2.90171301E-05
   2.72519994      -3.19667415E-05
   2.73720002      -3.49390975E-05
   2.74920011      -3.78913792E-05
   2.76119995      -4.07778571E-05
   2.77320004      -4.35509755E-05
   2.78520012      -4.61625787E-05
   2.79719996      -4.85652708E-05
   2.80920005      -5.07137884E-05
   2.82119989      -5.25664327E-05
   2.83319998      -5.40863693E-05
   2.84520006      -5.52429046E-05
   2.85719991      -5.60125009E-05
   2.86919999      -5.63796493E-05
   2.88120008      -5.63374160E-05
   2.89319992      -5.58877364E-05
   2.90520000      -5.50413788E-05
   2.91720009      -5.38176027E-05
   2.92919993      -5.22435112E-05
   2.94120002      -5.03531228E-05
   2.95320010      -4.81862153E-05
   2.96519995      -4.57869719E-05
   2.97720003      -4.32025518E-05
   2.98920012      -4.04815146E-05
   3.00119996      -3.76723910E-05
   3.01320004      -3.48221984E-05
   3.02519989      -3.19751816E-05
   3.03719997      -2.91717279E-05
   3.04920006      -2.64474693E-05
   3.06119990      -2.38326866E-05
   3.07319999      -2.13519488E-05
   3.08520007      -1.90240080E-05
   3.09719992      -1.68619554E-05
   3.10920000      -1.48735708E-05
   3.12120008      -1.30618482E-05
   3.13319993      -1.14256454E-05
   3.14520001      -9.96040581E-06
   3.15720010      -8.65890706E-06
   3.16919994      -7.51199332E-06
   3.18120003      -6.50923175E-06
   3.19320011      -5.63948652E-06
   3.20519996      -4.89137619E-06
   3.21720004      -4.25360349E-06
   3.22919989      -3.71515966E-06
   3.24119997      -3.26541635E-06
   3.25320005      -2.89411855E-06
   3.26519990      -2.59130866E-06
   3.27719998      -2.34720528E-06
   3.28920007      -2.15207410E-06
   3.30119991      -1.99610849E-06
   3.31320000      -1.86935699E-06
   3.32520008      -1.76170875E-06
   3.33719993      -1.66295331E-06
   3.34920001      -1.56291696E-06
   3.36120009      -1.45167814E-06
   3.37319994      -1.31984382E-06
   3.38520002      -1.15887508E-06
   3.39720011      -9.61434921E-07
   3.40919995      -7.21734523E-07
   3.42120004      -4.35846800E-07
   3.43319988      -1.01959870E-07
   3.44519997       2.79457225E-07
   3.45720005       7.05595255E-07
   3.46919990       1.17136710E-06
   3.48119998       1.66959933E-06
   3.49320006       2.19134836E-06
   3.50519991       2.72633474E-06
   3.51719999       3.26347731E-06
   3.52920008       3.79149287E-06
   3.54119992       4.29954662E-06
   3.55320001       4.77790400E-06
   3.56520009       5.21855463E-06
   3.57719994       5.61577372E-06
   3.58920002       5.96656810E-06
   3.60120010       6.27099871E-06
   3.61319995       6.53233201E-06
   3.62520003       6.75701631E-06
   3.63720012       6.95446261E-06
   3.64919996       7.13663621E-06
   3.66120005       7.31746059E-06
   3.67319989       7.51206380E-06
   3.68519998       7.73590000E-06
   3.69720006       8.00378803E-06
   3.70919991       8.32891237E-06
   3.72119999       8.72184955E-06
   3.73320007       9.18967362E-06
   3.74519992       9.73519582E-06
   3.75720000       1.03563998E-05
   3.76920009       1.10461124E-05
   3.78119993       1.17919317E-05
   3.79320002       1.25764700E-05
   3.80520010       1.33778785E-05
   3.81719995       1.41706696E-05
   3.82920003       1.49267998E-05
   3.84120011       1.56169717E-05
   3.85319996       1.62120868E-05
   3.86520004       1.66847858E-05
   3.87719989       1.70110088E-05
   3.88919997       1.71714619E-05
   3.90120006       1.71529282E-05
   3.91319990       1.69493578E-05
   3.92519999       1.65626443E-05
   3.93720007       1.60030559E-05
   3.94919991       1.52892735E-05
   3.96120000       1.44480446E-05
   3.97320008       1.35134451E-05
   3.98519993       1.25257639E-05
   3.99720001       1.15300900E-05
   4.00920010       1.05746321E-05
   4.02120018       9.70886686E-06
   4.03319979       8.98157850E-06
   4.04519987       8.43889302E-06
   4.05719995       8.12238068E-06
   4.06920004       8.06730077E-06
   4.08120012       8.30108638E-06
   4.09320021       8.84208839E-06
   4.10519981       9.69865414E-06
   4.11719990       1.08685745E-05
   4.12919998       1.23388827E-05
   4.14120007       1.40860584E-05
   4.15320015       1.60765958E-05
   4.16520023       1.82679305E-05
   4.17719984       2.06097029E-05
   4.18919992       2.30453170E-05
   4.20120001       2.55137511E-05
   4.21320009       2.79515607E-05
   4.22520018       3.02950284E-05
   4.23719978       3.24823886E-05
   4.24919987       3.44560540E-05
   4.26119995       3.61647835E-05
   4.27320004       3.75656891E-05
   4.28520012       3.86260690E-05
   4.29720020       3.93248811E-05
   4.30919981       3.96539435E-05
   4.32119989       3.96186406E-05
   4.33319998       3.92381735E-05
   4.34520006       3.85453022E-05
   4.35720015       3.75855707E-05
   4.36920023       3.64159314E-05
   4.38119984       3.51029194E-05
   4.39319992       3.37203310E-05
   4.40520000       3.23465283E-05
   4.41720009       3.10614232E-05
   4.42920017       2.99432668E-05
   4.44119978       2.90653807E-05
   4.45319986       2.84929301E-05
   4.46519995       2.82798756E-05
   4.47720003       2.84662510E-05
   4.48920012       2.90758362E-05
   4.50120020       3.01143882E-05
   4.51319981       3.15684592E-05
   4.52519989       3.34049037E-05
   4.53719997       3.55710617E-05
   4.54920006       3.79956837E-05
   4.56120014       4.05904902E-05
   4.57320023       4.32524357E-05
   4.58519983       4.58664363E-05
   4.59719992       4.83086515E-05
   4.60920000       5.04500385E-05
   4.62120008       5.21602014E-05
   4.63320017       5.33113162E-05
   4.64519978       5.37820197E-05
   4.65719986       5.34612009E-05
   4.66919994       5.22515074E-05
   4.68120003       5.00724527E-05
   4.69320011       4.68630897E-05
   4.70520020       4.25841026E-05
   4.71719980       3.72193172E-05
   4.72919989       3.07765185E-05
   4.74119997       2.32876191E-05
   4.75320005       1.48081626E-05
   4.76520014       5.41615100E-06
   4.77720022      -4.78970014E-06
   4.78919983      -1.56922815E-05
   4.80119991      -2.71588488E-05
   4.81320000      -3.90441855E-05
   4.82520008      -5.11940489E-05
   4.83720016      -6.34488097E-05
   4.84919977      -7.56470909E-05
   4.86119986      -8.76294871E-05
   4.87319994      -9.92420173E-05
   4.88520002      -1.10339439E-04
   4.89720011      -1.20788172E-04
   4.90920019      -1.30468907E-04
   4.92119980      -1.39278709E-04
   4.93319988      -1.47132741E-04
   4.94519997      -1.53965346E-04
   4.95720005      -1.59730844E-04
   4.96920013      -1.64403726E-04
   4.98120022      -1.67978360E-04
   4.99319983      -1.70468367E-04
   5.00519991      -1.71905500E-04
   5.01719999      -1.72338259E-04
   5.02920008      -1.71830165E-04
   5.04120016      -1.70457730E-04
   5.05319977      -1.68308310E-04
   5.06519985      -1.65477701E-04
   5.07719994      -1.62067750E-04
   5.08920002      -1.58183742E-04
   5.10120010      -1.53931876E-04
   5.11320019      -1.49416810E-04
   5.12519979      -1.44739155E-04
   5.13719988      -1.39993281E-04
   5.14919996      -1.35265203E-04
   5.16120005      -1.30630855E-04
   5.17320013      -1.26154526E-04
   5.18520021      -1.21887882E-04
   5.19719982      -1.17869167E-04
   5.20919991      -1.14123060E-04
   5.22119999      -1.10660745E-04
   5.23320007      -1.07480620E-04
   5.24520016      -1.04569277E-04
   5.25719976      -1.01902988E-04
   5.26919985      -9.94493603E-05
   5.28119993      -9.71694171E-05
   5.29320002      -9.50197427E-05
   5.30520010      -9.29547605E-05
   5.31720018      -9.09290393E-05
   5.32919979      -8.88994473E-05
   5.34119987      -8.68271673E-05
   5.35319996      -8.46794574E-05
   5.36520004      -8.24310846E-05
   5.37720013      -8.00653652E-05
   5.38920021      -7.75749286E-05
   5.40119982      -7.49618921E-05
   5.41319990      -7.22378099E-05
   5.42519999      -6.94231567E-05
   5.43720007      -6.65463813E-05
   5.44920015      -6.36427576E-05
   5.46120024      -6.07528636E-05
   5.47319984      -5.79208463E-05
   5.48519993      -5.51924968E-05
   5.49720001      -5.26132862E-05
   5.50920010      -5.02262737E-05
   5.52120018      -4.80701201E-05
   5.53319979      -4.61771961E-05
   5.54519987      -4.45718433E-05
   5.55719995      -4.32689412E-05
   5.56920004      -4.22727753E-05
   5.58120012      -4.15762806E-05
   5.59320021      -4.11607325E-05
   5.60519981      -4.09958957E-05
   5.61719990      -4.10406683E-05
   5.62919998      -4.12441841E-05
   5.64120007      -4.15474278E-05
   5.65320015      -4.18852032E-05
   5.66520023      -4.21885125E-05
   5.67719984      -4.23871788E-05
   5.68919992      -4.24126229E-05
   5.70120001      -4.22006779E-05
   5.71320009      -4.16943367E-05
   5.72520018      -4.08463020E-05
   5.73719978      -3.96211617E-05
   5.74919987      -3.79971934E-05
   5.76119995      -3.59676051E-05
   5.77320004      -3.35412296E-05
   5.78520012      -3.07425653E-05
   5.79720020      -2.76112223E-05
   5.80919981      -2.42007463E-05
   5.82119989      -2.05769011E-05
   5.83319998      -1.68154584E-05
   5.84520006      -1.29996070E-05
   5.85720015      -9.21706942E-06
   5.86920023      -5.55705947E-06
   5.88119984      -2.10718144E-06
   5.89319992       1.04960247E-06
   5.90520000       3.83783481E-06
   5.91720009       6.19215825E-06
   5.92920017       8.05955642E-06
   5.94119978       9.40117297E-06
   5.95319986       1.01936548E-05
   5.96519995       1.04299879E-05
   5.97720003       1.01198102E-05
   5.98920012       9.28919144E-06
   6.00120020       7.97990742E-06
   6.01319981       6.24822633E-06
   6.02519989       4.16326066E-06
   6.03719997       1.80491941E-06
   6.04920006      -7.38461267E-07
   6.06120014      -3.37274923E-06
   6.07320023      -6.00082785E-06
   6.08519983      -8.52550875E-06
   6.09719992      -1.08524491E-05
   6.10920000      -1.28930069E-05
   6.12120008      -1.45669128E-05
   6.13320017      -1.58047114E-05
   6.14519978      -1.65498604E-05
   6.15719986      -1.67604467E-05
   6.16919994      -1.64104404E-05
   6.18120003      -1.54904792E-05
   6.19320011      -1.40081156E-05
   6.20520020      -1.19875631E-05
   6.21719980      -9.46892578E-06
   6.22919989      -6.50695074E-06
   6.24119997      -3.16933620E-06
   6.25320005       4.65331226E-07
   6.26520014       4.30996124E-06
   6.27720022       8.27157601E-06
   6.28919983       1.22540841E-05
   6.30119991       1.61611133E-05
   6.31320000       1.98988382E-05
   6.32520008       2.33786923E-05
   6.33720016       2.65199087E-05
   6.34919977       2.92518071E-05
   6.36119986       3.15157740E-05
   6.37319994       3.32668969E-05
   6.38520002       3.44751788E-05
   6.39720011       3.51263516E-05
   6.40920019       3.52222232E-05
   6.42119980       3.47805872E-05
   6.43319988       3.38346690E-05
   6.44519997       3.24321336E-05
   6.45720005       3.06336588E-05
   6.46920013       2.85111164E-05
   6.48120022       2.61454061E-05
   6.49319983       2.36239648E-05
   6.50519991       2.10380695E-05
   6.51719999       1.84799501E-05
   6.52920008       1.60398595E-05
   6.54120016       1.38031373E-05
   6.55319977       1.18474127E-05
   6.56519985       1.02400163E-05
   6.57719994       9.03571163E-06
   6.58920002       8.27483382E-06
   6.60120010       7.98192468E-06
   6.61320019       8.16490865E-06
   6.62519979       8.81488450E-06
   6.63719988       9.90652097E-06
   6.64919996       1.13990736E-05
   6.66120005       1.32379691E-05
   6.67320013       1.53569090E-05
   6.68520021       1.76803769E-05
   6.69719982       2.01264702E-05
   6.70919991       2.26098891E-05
   6.72119999       2.50450012E-05
   6.73320007       2.73487913E-05
   6.74520016       2.94436231E-05
   6.75719976       3.12596676E-05
   6.76919985       3.27369235E-05
   6.78119993       3.38267637E-05
   6.79320002       3.44929686E-05
   6.80520010       3.47122550E-05
   6.81720018       3.44742839E-05
   6.82919979       3.37812526E-05
   6.84119987       3.26470581E-05
   6.85319996       3.10962132E-05
   6.86520004       2.91625092E-05
   6.87720013       2.68875792E-05
   6.88920021       2.43194136E-05
   6.90119982       2.15108903E-05
   6.91319990       1.85183853E-05
   6.92519999       1.54004938E-05
   6.93720007       1.22168613E-05
   6.94920015       9.02712782E-06
   6.96120024       5.88998682E-06
   6.97319984       2.86231420E-06
   6.98519993      -1.65456782E-09
   6.99720001      -2.65111339E-06
   7.00920010      -5.03947558E-06
   7.02120018      -7.12517749E-06
   7.03319979      -8.87249462E-06
   7.04519987      -1.02523636E-05
   7.05719995      -1.12431790E-05
   7.06920004      -1.18315347E-05
   7.08120012      -1.20128470E-05
   7.09320021      -1.17918198E-05
   7.10519981      -1.11826748E-05
   7.11719990      -1.02091244E-05
   7.12919998      -8.90402953E-06
   7.14120007      -7.30872489E-06
   7.15320015      -5.47202808E-06
   7.16520023      -3.44893147E-06
   7.17719984      -1.29903617E-06
   7.18919992       9.15225201E-07
   7.20120001       3.13050236E-06
   7.21320009       5.28449846E-06
   7.22520018       7.31791397E-06
   7.23719978       9.17627767E-06
   7.24919987       1.08115892E-05
   7.26119995       1.21836983E-05
   7.27320004       1.32613750E-05
   7.28520012       1.40230168E-05
   7.29720020       1.44569931E-05
   7.30919981       1.45616086E-05
   7.32119989       1.43447232E-05
   7.33319998       1.38230589E-05
   7.34520006       1.30212429E-05
   7.35720015       1.19706592E-05
   7.36920023       1.07081723E-05
   7.38119984       9.27476231E-06
   7.39319992       7.71417308E-06
   7.40520000       6.07157699E-06
   7.41720009       4.39233145E-06
   7.42920017       2.72082275E-06
   7.44119978       1.09943687E-06
   7.45319986      -4.32351129E-07
   7.46519995      -1.83876250E-06
   7.47720003      -3.08838685E-06
   7.48920012      -4.15474597E-06
   7.50120020      -5.01676004E-06
   7.51319981      -5.65912842E-06
   7.52519989      -6.07262336E-06
   7.53719997      -6.25429720E-06
   7.54920006      -6.20759420E-06
   7.56120014      -5.94235053E-06
   7.57320023      -5.47466243E-06
   7.58519983      -4.82659789E-06
   7.59719992      -4.02573414E-06
   7.60920000      -3.10449695E-06
   7.62120008      -2.09930431E-06
   7.63320017      -1.04951255E-06
   7.64519978       3.81152798E-09
   7.65719986       1.01925468E-06
   7.66919994       1.95650773E-06
   7.68120003       2.77784284E-06
   7.69320011       3.44954105E-06
   7.70520020       3.94320523E-06
   7.71719980       4.23688243E-06
   7.72919989       4.31594026E-06
   7.74119997       4.17363754E-06
   7.75320005       3.81136442E-06
   7.76520014       3.23852987E-06
   7.77720022       2.47210528E-06
   7.78919983       1.53584369E-06
   7.80119991       4.59225873E-07
   7.81320000      -7.23815504E-07
   7.82520008      -1.97631675E-06
   7.83720016      -3.25977135E-06
   7.84919977      -4.53561279E-06
   7.86119986      -5.76660796E-06
   7.87319994      -6.91811147E-06
   7.88520002      -7.95912183E-06
   7.89720011      -8.86312409E-06
   7.90920019      -9.60869238E-06
   7.92119980      -1.01798651E-05
   7.93319988      -1.05663121E-05
   7.94519997      -1.07633059E-05
   7.95720005      -1.07715505E-05
   7.96920013      -1.05968857E-05
   7.98120022      -1.02498971E-05
   7.99319983      -9.74547311E-06
   8.00520039      -9.10231574E-06
   8.01720047      -8.34242928E-06
   8.02919960      -7.49058609E-06
   8.04119968      -6.57378268E-06
   8.05319977      -5.62066134E-06
   8.06519985      -4.66090796E-06
   8.07719994      -3.72460136E-06
   8.08920002      -2.84152043E-06
   8.10120010      -2.04040475E-06
   8.11320019      -1.34817594E-06
   8.12520027      -7.89143598E-07
   8.13720036      -3.84218339E-07
   8.14920044      -1.50172895E-07
   8.16119957      -9.89814808E-08
   8.17319965      -2.37285292E-07
   8.18519974      -5.66011465E-07
   8.19719982      -1.08018332E-06
   8.20919991      -1.76893502E-06
   8.22119999      -2.61575497E-06
   8.23320007      -3.59894784E-06
   8.24520016      -4.69231099E-06
   8.25720024      -5.86600663E-06
   8.26920033      -7.08758989E-06
   8.28120041      -8.32315891E-06
   8.29319954      -9.53857216E-06
   8.30519962      -1.07006872E-05
   8.31719971      -1.17785457E-05
   8.32919979      -1.27444682E-05
   8.34119987      -1.35749942E-05
   8.35319996      -1.42516274E-05
   8.36520004      -1.47613719E-05
   8.37720013      -1.50970063E-05
   8.38920021      -1.52571374E-05
   8.40120029      -1.52460025E-05
   8.41320038      -1.50730448E-05
   8.42520046      -1.47523069E-05
   8.43719959      -1.43016641E-05
   8.44919968      -1.37419192E-05
   8.46119976      -1.30958442E-05
   8.47319984      -1.23871760E-05
   8.48519993      -1.16396322E-05
   8.49720001      -1.08759768E-05
   8.50920010      -1.01171945E-05
   8.52120018      -9.38177072E-06
   8.53320026      -8.68514235E-06
   8.54520035      -8.03929743E-06
   8.55720043      -7.45256057E-06
   8.56919956      -6.92954609E-06
   8.58119965      -6.47127990E-06
   8.59319973      -6.07548145E-06
   8.60519981      -5.73698708E-06
   8.61719990      -5.44829572E-06
   8.62919998      -5.20020467E-06
   8.64120007      -4.98251848E-06
   8.65320015      -4.78479069E-06
   8.66520023      -4.59706189E-06
   8.67720032      -4.41057364E-06
   8.68920040      -4.21840241E-06
   8.70119953      -4.01599982E-06
   8.71319962      -3.80160668E-06
   8.72519970      -3.57651084E-06
   8.73719978      -3.34513788E-06
   8.74919987      -3.11496069E-06
   8.76119995      -2.89623017E-06
   8.77320004      -2.70152827E-06
   8.78520012      -2.54516340E-06
   8.79720020      -2.44244029E-06
   8.80920029      -2.40883969E-06
   8.82120037      -2.45915749E-06
   8.83320045      -2.60665956E-06
   8.84519958      -2.86229761E-06
   8.85719967      -3.23405447E-06
   8.86919975      -3.72643876E-06
   8.88119984      -4.34017647E-06
   8.89319992      -5.07210143E-06
   8.90520000      -5.91524986E-06
   8.91720009      -6.85914119E-06
   8.92920017      -7.89021760E-06
   8.94120026      -8.99240604E-06
   8.95320034      -1.01477617E-05
   8.96520042      -1.13371352E-05
   8.97719955      -1.25408369E-05
   8.98919964      -1.37392290E-05
   9.00119972      -1.49132320E-05
   9.01319981      -1.60447144E-05
   9.02519989      -1.71167358E-05
   9.03719997      -1.81136875E-05
   9.04920006      -1.90213214E-05
   9.06120014      -1.98267062E-05
   9.07320023      -2.05181786E-05
   9.08520031      -2.10852922E-05
   9.09720039      -2.15188466E-05
   9.10919952      -2.18110054E-05
   9.12119961      -2.19555113E-05
   9.13319969      -2.19479953E-05
   9.14519978      -2.17863562E-05
   9.15719986      -2.14711818E-05
   9.16919994      -2.10061426E-05
   9.18120003      -2.03983127E-05
   9.19320011      -1.96583715E-05
   9.20520020      -1.88006507E-05
   9.21720028      -1.78429800E-05
   9.22920036      -1.68063052E-05
   9.24120045      -1.57141149E-05
   9.25319958      -1.45916529E-05
   9.26519966      -1.34649881E-05
   9.27719975      -1.23599821E-05
   9.28919983      -1.13012202E-05
   9.30119991      -1.03110124E-05
   9.31320000      -9.40850623E-06
   9.32520008      -8.60901855E-06
   9.33720016      -7.92360606E-06
   9.34920025      -7.35893309E-06
   9.36120033      -6.91740979E-06
   9.37320042      -6.59758916E-06
   9.38519955      -6.39476866E-06
   9.39719963      -6.30171417E-06
   9.40919971      -6.30943669E-06
   9.42119980      -6.40793223E-06
   9.43319988      -6.58681893E-06
   9.44519997      -6.83580947E-06
