 -0.622799993         1.00000002E-24
 -0.610800028         1.00000002E-24
 -0.598800004         1.00000002E-24
 -0.586799979         1.00000002E-24
 -0.574800014         1.00000002E-24
 -0.562799990         1.00000002E-24
 -0.550800025         1.00000002E-24
 -0.538800001         1.00000002E-24
 -0.526799977         1.00000002E-24
 -0.514800012         1.00000012E-24
 -0.502799988         1.00000022E-24
 -0.490799993         1.00000032E-24
 -0.478799999         1.00000032E-24
 -0.466800004         1.00000032E-24
 -0.454800010         1.00000032E-24
 -0.442799985         1.00000032E-24
 -0.430799991         1.00000032E-24
 -0.418799996         1.00000032E-24
 -0.406800002         1.00000032E-24
 -0.394800007         1.00000022E-24
 -0.382800013         9.99999921E-25
 -0.370799989         9.99999132E-25
 -0.358799994         9.99997061E-25
 -0.346799999         9.99992624E-25
 -0.334800005         9.99984933E-25
 -0.322800010         9.99974875E-25
 -0.310799986         9.99968465E-25
 -0.298799992         9.99983355E-25
 -0.286799997         1.00005406E-24
 -0.274800003         1.00023194E-24
 -0.262800008         1.00057185E-24
 -0.250800014         1.00109654E-24
 -0.238800004         1.00173906E-24
 -0.226799995         1.00227647E-24
 -0.214800000         1.00228693E-24
 -0.202800006         1.00115481E-24
 -0.190799996         9.98110500E-25
 -0.178800002         9.92211201E-25
 -0.166800007         9.82099188E-25
 -0.154799998         9.65457280E-25
 -0.142800003         9.38480209E-25
 -0.130799994         8.96523655E-25
 -0.118799999         8.38157612E-25
 -0.106799997         7.75377350E-25
  -9.48000029E-02     7.51286080E-25
  -8.28000009E-02     8.61457506E-25
  -7.07999989E-02     1.26560702E-24
  -5.88000007E-02     2.16402039E-24
  -4.67999987E-02     3.70482213E-24
  -3.48000005E-02     5.79508541E-24
  -2.28000004E-02     7.82463322E-24
  -1.08000003E-02     8.38484595E-24
   1.20000006E-03     5.16761322E-24
   1.31999999E-02    -4.67493330E-24
   2.52000000E-02    -2.34114037E-23
   3.72000001E-02    -5.07052211E-23
   4.91999984E-02    -8.09290257E-23
   6.12000003E-02    -1.00703875E-22
   7.32000023E-02    -8.82804962E-23
   8.51999968E-02    -1.68769360E-23
   9.71999988E-02     1.36137513E-22
  0.109200001         3.73762701E-22
  0.121200003         6.60038531E-22
  0.133200005         9.03328182E-22
  0.145199999         9.52625804E-22
  0.157199994         6.19153372E-22
  0.169200003        -2.67205844E-22
  0.181199998        -1.76638038E-21
  0.193200007        -3.71729434E-21
  0.205200002        -5.64355120E-21
  0.217199996        -6.72871766E-21
  0.229200006        -5.91943209E-21
  0.241200000        -2.19735925E-21
  0.253199995         4.98461137E-21
  0.265199989         1.51781616E-20
  0.277200013         2.64858579E-20
  0.289200008         3.54010393E-20
  0.301200002         3.71745953E-20
  0.313199997         2.68640588E-20
  0.325199991         1.03964365E-21
  0.337199986        -4.01433724E-20
  0.349200010        -9.10835779E-20
  0.361200005        -1.39869857E-19
  0.373199999        -1.69214076E-19
  0.385199994        -1.59700504E-19
  0.397199988        -9.52780040E-20
  0.409200013         2.99063370E-20
  0.421200007         2.05086237E-19
  0.433200002         3.99201836E-19
  0.445199996         5.62294013E-19
  0.457199991         6.33466132E-19
  0.469199985         5.55270991E-19
  0.481200010         2.92206540E-19
  0.493200004        -1.51116502E-19
  0.505200028        -7.17895888E-19
  0.517199993        -1.29871802E-18
  0.529200017        -1.74627940E-18
  0.541199982        -1.90492602E-18
  0.553200006        -1.65000147E-18
  0.565199971        -9.27819232E-19
  0.577199996         2.15025626E-19
  0.589200020         1.62313040E-18
  0.601199985         3.04994871E-18
  0.613200009         4.19980442E-18
  0.625199974         4.78479647E-18
  0.637199998         4.58201315E-18
  0.649200022         3.47625548E-18
  0.661199987         1.47905860E-18
  0.673200011        -1.27514689E-18
  0.685199976        -4.54441862E-18
  0.697200000        -7.98904105E-18
  0.709200025        -1.11621142E-17
  0.721199989        -1.34821903E-17
  0.733200014        -1.42117107E-17
  0.745199978        -1.24865337E-17
  0.757200003        -7.44998233E-18
  0.769200027         1.47239286E-18
  0.781199992         1.41690315E-17
  0.793200016         2.93941245E-17
  0.805199981         4.44366223E-17
  0.817200005         5.51181643E-17
  0.829200029         5.63189493E-17
  0.841199994         4.31299846E-17
  0.853200018         1.25412128E-17
  0.865199983        -3.46691247E-17
  0.877200007        -9.24079130E-17
  0.889199972        -1.48790231E-16
  0.901199996        -1.87326127E-16
  0.913200021        -1.90066716E-16
  0.925199986        -1.42459110E-16
  0.937200010        -3.89960271E-17
  0.949199975         1.11850026E-16
  0.961199999         2.85215819E-16
  0.973200023         4.41569075E-16
  0.985199988         5.33379876E-16
  0.997200012         5.16252764E-16
   1.00919998         3.62481794E-16
   1.02119994         7.36372129E-17
   1.03320003        -3.11868902E-16
   1.04519999        -7.19855238E-16
   1.05719995        -1.05200772E-15
   1.06920004        -1.20727161E-15
   1.08120000        -1.10902214E-15
   1.09319997        -7.31332429E-16
   1.10520005        -1.16384564E-16
   1.11720002         6.24018331E-16
   1.12919998         1.32659643E-15
   1.14119995         1.81297259E-15
   1.15320003         1.93703327E-15
   1.16520000         1.63121033E-15
   1.17719996         9.37587546E-16
   1.18920004         1.16542469E-17
   1.20120001        -9.07384574E-16
   1.21319997        -1.55667948E-15
   1.22520006        -1.72717959E-15
   1.23720002        -1.33765836E-15
   1.24919999        -4.81768518E-16
   1.26119995         5.71405567E-16
   1.27320004         1.43202482E-15
   1.28520000         1.69270270E-15
   1.29719996         1.05745690E-15
   1.30920005        -5.38274244E-16
   1.32120001        -2.85458489E-15
   1.33319998        -5.35143600E-15
   1.34519994        -7.28278843E-15
   1.35720003        -7.86839652E-15
   1.36919999        -6.50651916E-15
   1.38119996        -2.97346363E-15
   1.39320004         2.44791272E-15
   1.40520000         8.95593770E-15
   1.41719997         1.53518572E-14
   1.42920005         2.02774080E-14
   1.44120002         2.25155621E-14
   1.45319998         2.12789550E-14
   1.46519995         1.64077126E-14
   1.47720003         8.41835299E-15
   1.48920000        -1.61530030E-15
   1.50119996        -1.23201247E-14
   1.51320004        -2.23479665E-14
   1.52520001        -3.06689725E-14
   1.53719997        -3.67405115E-14
   1.54920006        -4.04923491E-14
   1.56120002        -4.21257267E-14
   1.57319999        -4.17882383E-14
   1.58519995        -3.92385336E-14
   1.59720004        -3.36364441E-14
   1.60920000        -2.35741975E-14
   1.62119997        -7.40373034E-15
   1.63320005         1.61734622E-14
   1.64520001         4.73802855E-14
   1.65719998         8.46975213E-14
   1.66919994         1.24474663E-13
   1.68120003         1.60997639E-13
   1.69319999         1.87097354E-13
   1.70519996         1.95251448E-13
   1.71720004         1.78995463E-13
   1.72920001         1.34359348E-13
   1.74119997         6.10088491E-14
   1.75320005        -3.71812702E-14
   1.76520002        -1.52274786E-13
   1.77719998        -2.73126058E-13
   1.78919995        -3.86750311E-13
   1.80120003        -4.79902142E-13
   1.81320000        -5.40514573E-13
   1.82519996        -5.58715563E-13
   1.83720005        -5.27294354E-13
   1.84920001        -4.41692852E-13
   1.86119998        -2.99785804E-13
   1.87320006        -1.01827143E-13
   1.88520002         1.49079628E-13
   1.89719999         4.45787179E-13
   1.90919995         7.75266949E-13
   1.92120004         1.11654175E-12
   1.93320000         1.43909049E-12
   1.94519997         1.70258013E-12
   1.95720005         1.85871587E-12
   1.96920002         1.85569377E-12
   1.98119998         1.64523028E-12
   1.99319994         1.19150620E-12
   2.00519991         4.80762945E-13
   2.01719999        -4.70141666E-13
   2.02920008        -1.60804627E-12
   2.04119992        -2.84224922E-12
   2.05320001        -4.04872099E-12
   2.06520009        -5.07990915E-12
   2.07719994        -5.77935616E-12
   2.08920002        -5.99949951E-12
   2.10120010        -5.62049149E-12
   2.11319995        -4.56769041E-12
   2.12520003        -2.82570863E-12
   2.13720012        -4.47478480E-13
   2.14919996         2.44250822E-12
   2.16120005         5.65091593E-12
   2.17319989         8.92388073E-12
   2.18519998         1.19603485E-11
   2.19720006         1.44299269E-11
   2.20919991         1.59949380E-11
   2.22119999         1.63365554E-11
   2.23320007         1.51847614E-11
   2.24519992         1.23514428E-11
   2.25720000         7.76489550E-12
   2.26920009         1.50281805E-12
   2.28119993        -6.18049492E-12
   2.29320002        -1.48380336E-11
   2.30520010        -2.38306180E-11
   2.31719995        -3.23489568E-11
   2.32920003        -3.94603066E-11
   2.34120011        -4.41798403E-11
   2.35319996        -4.55634870E-11
   2.36520004        -4.28151924E-11
   2.37719989        -3.53984550E-11
   2.38919997        -2.31398997E-11
   2.40120006        -6.31186032E-12
   2.41319990         1.43178976E-11
   2.42519999         3.74788776E-11
   2.43720007         6.14387013E-11
   2.44919991         8.40936140E-11
   2.46120000         1.03105545E-10
   2.47320008         1.16078515E-10
   2.48519993         1.20763663E-10
   2.49720001         1.15279307E-10
   2.50920010         9.83307186E-11
   2.52119994         6.94126284E-11
   2.53320003         2.89770690E-11
   2.54520011        -2.14508637E-11
   2.55719995        -7.92261326E-11
   2.56920004        -1.40620182E-10
   2.58119988        -2.00951783E-10
   2.59319997        -2.54817889E-10
   2.60520005        -2.96422747E-10
   2.61719990        -3.19995141E-10
   2.62919998        -3.20273114E-10
   2.64120007        -2.93026881E-10
   2.65319991        -2.35581388E-10
   2.66520000        -1.47294676E-10
   2.67720008        -2.99460561E-11
   2.68919992         1.12011428E-10
   2.70120001         2.71372036E-10
   2.71320009         4.38301728E-10
   2.72519994         6.00682060E-10
   2.73720002         7.44676765E-10
   2.74920011         8.55506943E-10
   2.76119995         9.18409349E-10
   2.77320004         9.19736676E-10
   2.78520012         8.48147663E-10
   2.79719996         6.95825120E-10
   2.80920005         4.59650623E-10
   2.82119989         1.42259649E-10
   2.83319998        -2.47104531E-10
   2.84520006        -6.92021662E-10
   2.85719991        -1.16869081E-09
   2.86919999        -1.64616787E-09
   2.88120008        -2.08710671E-09
   2.89319992        -2.44905052E-09
   2.90520000        -2.68629297E-09
   2.91720009        -2.75230194E-09
   2.92919993        -2.60266386E-09
   2.94120002        -2.19846519E-09
   2.95320010        -1.50999124E-09
   2.96519995        -5.20584187E-10
   2.97720003         7.69537489E-10
   2.98920012         2.33973019E-09
   3.00119996         4.14590584E-09
   3.01320004         6.11833029E-09
   3.02519989         8.16053358E-09
   3.03719997         1.01496429E-08
   3.04920006         1.19384262E-08
   3.06119990         1.33593101E-08
   3.07319999         1.42305643E-08
   3.08520007         1.43647707E-08
   3.09719992         1.35795295E-08
   3.10920000         1.17102088E-08
   3.12120008         8.62430749E-09
   3.13319993         4.23672830E-09
   3.14520001        -1.47500956E-09
   3.15720010        -8.45689652E-09
   3.16919994        -1.65674958E-08
   3.18120003        -2.55717723E-08
   3.19320011        -3.51417562E-08
   3.20519996        -4.48661801E-08
   3.21720004        -5.42712613E-08
   3.22919989        -6.28546815E-08
   3.24119997        -7.01343410E-08
   3.25320005        -7.57132810E-08
   3.26519990        -7.93611363E-08
   3.27719998        -8.11118639E-08
   3.28920007        -8.13765197E-08
   3.30119991        -8.10685066E-08
   3.31320000        -8.17378165E-08
   3.32520008        -8.57092957E-08
   3.33719993        -9.62189404E-08
   3.34920001        -1.17541227E-07
   3.36120009        -1.55099357E-07
   3.37319994        -2.15550244E-07
   3.38520002        -3.06835091E-07
   3.39720011        -4.38187698E-07
   3.40919995        -6.20091896E-07
   3.42120004        -8.64182084E-07
   3.43319988        -1.18308196E-06
   3.44519997        -1.59017770E-06
   3.45720005        -2.09932614E-06
   3.46919990        -2.72450029E-06
   3.48119998        -3.47937703E-06
   3.49320006        -4.37687686E-06
   3.50519991        -5.42866565E-06
   3.51719999        -6.64463323E-06
   3.52920008        -8.03236799E-06
   3.54119992        -9.59664703E-06
   3.55320001        -1.13389488E-05
   3.56520009        -1.32570385E-05
   3.57719994        -1.53446072E-05
   3.58920002        -1.75910209E-05
   3.60120010        -1.99811657E-05
   3.61319995        -2.24954365E-05
   3.62520003        -2.51098481E-05
   3.63720012        -2.77962790E-05
   3.64919996        -3.05228932E-05
   3.66120005        -3.32546515E-05
   3.67319989        -3.59540027E-05
   3.68519998        -3.85816493E-05
   3.69720006        -4.10974426E-05
   3.70919991        -4.34613212E-05
   3.72119999        -4.56343187E-05
   3.73320007        -4.75795787E-05
   3.74519992        -4.92633408E-05
   3.75720000        -5.06558972E-05
   3.76920009        -5.17324588E-05
   3.78119993        -5.24739080E-05
   3.79320002        -5.28674209E-05
   3.80520010        -5.29069075E-05
   3.81719995        -5.25933065E-05
   3.82920003        -5.19346431E-05
   3.84120011        -5.09459460E-05
   3.85319996        -4.96488901E-05
   3.86520004        -4.80712988E-05
   3.87719989        -4.62464668E-05
   3.88919997        -4.42122946E-05
   3.90120006        -4.20103024E-05
   3.91319990        -3.96845571E-05
   3.92519999        -3.72804971E-05
   3.93720007        -3.48437607E-05
   3.94919991        -3.24189932E-05
   3.96120000        -3.00487045E-05
   3.97320008        -2.77722265E-05
   3.98519993        -2.56247567E-05
   3.99720001        -2.36365577E-05
   4.00920010        -2.18323366E-05
   4.02120018        -2.02307838E-05
   4.03319979        -1.88443355E-05
   4.04519987        -1.76791200E-05
   4.05719995        -1.67351227E-05
   4.06920004        -1.60065192E-05
   4.08120012        -1.54821955E-05
   4.09320021        -1.51464228E-05
   4.10519981        -1.49796451E-05
   4.11719990        -1.49593670E-05
   4.12919998        -1.50610995E-05
   4.14120007        -1.52593311E-05
   4.15320015        -1.55284888E-05
   4.16520023        -1.58438506E-05
   4.17719984        -1.61823828E-05
   4.18919992        -1.65234724E-05
   4.20120001        -1.68495426E-05
   4.21320009        -1.71464890E-05
   4.22520018        -1.74040015E-05
   4.23719978        -1.76156864E-05
   4.24919987        -1.77790389E-05
   4.26119995        -1.78952560E-05
   4.27320004        -1.79688923E-05
   4.28520012        -1.80074076E-05
   4.29720020        -1.80205843E-05
   4.30919981        -1.80198858E-05
   4.32119989        -1.80177412E-05
   4.33319998        -1.80268325E-05
   4.34520006        -1.80593743E-05
   4.35720015        -1.81264368E-05
   4.36920023        -1.82373406E-05
   4.38119984        -1.83991579E-05
   4.39319992        -1.86163034E-05
   4.40520000        -1.88902850E-05
   4.41720009        -1.92195748E-05
   4.42920017        -1.95996563E-05
   4.44119978        -2.00231934E-05
   4.45319986        -2.04803546E-05
   4.46519995        -2.09592545E-05
   4.47720003        -2.14465163E-05
   4.48920012        -2.19278882E-05
   4.50120020        -2.23889456E-05
   4.51319981        -2.28157878E-05
   4.52519989        -2.31957474E-05
   4.53719997        -2.35180432E-05
   4.54920006        -2.37743661E-05
   4.56120014        -2.39593865E-05
   4.57320023        -2.40711106E-05
   4.58519983        -2.41111265E-05
   4.59719992        -2.40846894E-05
   4.60920000        -2.40006557E-05
   4.62120008        -2.38712837E-05
   4.63320017        -2.37118638E-05
   4.64519978        -2.35402549E-05
   4.65719986        -2.33762839E-05
   4.66919994        -2.32410948E-05
   4.68120003        -2.31564118E-05
   4.69320011        -2.31438044E-05
   4.70520020        -2.32239381E-05
   4.71719980        -2.34158742E-05
   4.72919989        -2.37364147E-05
   4.74119997        -2.41995385E-05
   4.75320005        -2.48159540E-05
   4.76520014        -2.55927425E-05
   4.77720022        -2.65331564E-05
   4.78919983        -2.76365299E-05
   4.80119991        -2.88983410E-05
   4.81320000        -3.03103752E-05
   4.82520008        -3.18610146E-05
   4.83720016        -3.35356344E-05
   4.84919977        -3.53170581E-05
   4.86119986        -3.71860879E-05
   4.87319994        -3.91220638E-05
   4.88520002        -4.11034307E-05
   4.89720011        -4.31082954E-05
   4.90920019        -4.51149572E-05
   4.92119980        -4.71023777E-05
   4.93319988        -4.90505918E-05
   4.94519997        -5.09410420E-05
   4.95720005        -5.27568227E-05
   4.96920013        -5.44828326E-05
   4.98120022        -5.61058550E-05
   4.99319983        -5.76145794E-05
   5.00519991        -5.89995107E-05
   5.01719999        -6.02528853E-05
   5.02920008        -6.13685042E-05
   5.04120016        -6.23416199E-05
   5.05319977        -6.31687653E-05
   5.06519985        -6.38476340E-05
   5.07719994        -6.43769890E-05
   5.08920002        -6.47566194E-05
   5.10120010        -6.49873327E-05
   5.11320019        -6.50710208E-05
   5.12519979        -6.50107468E-05
   5.13719988        -6.48108398E-05
   5.14919996        -6.44770771E-05
   5.16120005        -6.40168073E-05
   5.17320013        -6.34390381E-05
   5.18520021        -6.27545523E-05
   5.19719982        -6.19759012E-05
   5.20919991        -6.11173382E-05
   5.22119999        -6.01946813E-05
   5.23320007        -5.92250763E-05
   5.24520016        -5.82266657E-05
   5.25719976        -5.72181598E-05
   5.26919985        -5.62183595E-05
   5.28119993        -5.52456077E-05
   5.29320002        -5.43172209E-05
   5.30520010        -5.34489336E-05
   5.31720018        -5.26543517E-05
   5.32919979        -5.19444548E-05
   5.34119987        -5.13272389E-05
   5.35319996        -5.08074008E-05
   5.36520004        -5.03862248E-05
   5.37720013        -5.00615715E-05
   5.38920021        -4.98280133E-05
   5.40119982        -4.96771354E-05
   5.41319990        -4.95979584E-05
   5.42519999        -4.95774875E-05
   5.43720007        -4.96013381E-05
   5.44920015        -4.96544199E-05
   5.46120024        -4.97216715E-05
   5.47319984        -4.97887195E-05
   5.48519993        -4.98425688E-05
   5.49720001        -4.98721274E-05
   5.50920010        -4.98686895E-05
   5.52120018        -4.98262416E-05
   5.53319979        -4.97416295E-05
   5.54519987        -4.96145767E-05
   5.55719995        -4.94475462E-05
   5.56920004        -4.92454419E-05
   5.58120012        -4.90152161E-05
   5.59320021        -4.87653560E-05
   5.60519981        -4.85052988E-05
   5.61719990        -4.82448304E-05
   5.62919998        -4.79934461E-05
   5.64120007        -4.77597823E-05
   5.65320015        -4.75510751E-05
   5.66520023        -4.73727232E-05
   5.67719984        -4.72279535E-05
   5.68919992        -4.71176063E-05
   5.70120001        -4.70400482E-05
   5.71320009        -4.69912120E-05
   5.72520018        -4.69647457E-05
   5.73719978        -4.69522929E-05
   5.74919987        -4.69438564E-05
   5.76119995        -4.69282058E-05
   5.77320004        -4.68933977E-05
   5.78520012        -4.68272483E-05
   5.79720020        -4.67178652E-05
   5.80919981        -4.65541380E-05
   5.82119989        -4.63262004E-05
   5.83319998        -4.60258161E-05
   5.84520006        -4.56467387E-05
   5.85720015        -4.51849628E-05
   5.86920023        -4.46388804E-05
   5.88119984        -4.40093900E-05
   5.89319992        -4.32998604E-05
   5.90520000        -4.25160542E-05
   5.91720009        -4.16659532E-05
   5.92920017        -4.07594598E-05
   5.94119978        -3.98081247E-05
   5.95319986        -3.88247208E-05
   5.96519995        -3.78228215E-05
   5.97720003        -3.68163637E-05
   5.98920012        -3.58191355E-05
   6.00120020        -3.48443427E-05
   6.01319981        -3.39041253E-05
   6.02519989        -3.30091643E-05
   6.03719997        -3.21683037E-05
   6.04920006        -3.13882774E-05
   6.06120014        -3.06734837E-05
   6.07320023        -3.00258653E-05
   6.08519983        -2.94448928E-05
   6.09719992        -2.89276213E-05
   6.10920000        -2.84688649E-05
   6.12120008        -2.80614386E-05
   6.13320017        -2.76964875E-05
   6.14519978        -2.73638543E-05
   6.15719986        -2.70525106E-05
   6.16919994        -2.67509768E-05
   6.18120003        -2.64477621E-05
   6.19320011        -2.61317600E-05
   6.20520020        -2.57926240E-05
   6.21719980        -2.54210590E-05
   6.22919989        -2.50090670E-05
   6.24119997        -2.45500996E-05
   6.25320005        -2.40391364E-05
   6.26520014        -2.34726849E-05
   6.27720022        -2.28487188E-05
   6.28919983        -2.21665468E-05
   6.30119991        -2.14266365E-05
   6.31320000        -2.06304230E-05
   6.32520008        -1.97800946E-05
   6.33720016        -1.88783797E-05
   6.34919977        -1.79283616E-05
   6.36119986        -1.69333161E-05
   6.37319994        -1.58965977E-05
   6.38520002        -1.48215622E-05
   6.39720011        -1.37115385E-05
   6.40920019        -1.25698534E-05
   6.42119980        -1.13998740E-05
   6.43319988        -1.02051026E-05
   6.44519997        -8.98928647E-06
   6.45720005        -7.75652643E-06
   6.46920013        -6.51139771E-06
   6.48120022        -5.25905170E-06
   6.49319983        -4.00529780E-06
   6.50519991        -2.75664797E-06
   6.51719999        -1.52032760E-06
   6.52920008        -3.04234447E-07
   6.54120016         8.83144594E-07
   6.55319977         2.03286618E-06
   6.56519985         3.13570945E-06
   6.57719994         4.18238960E-06
   6.58920002         5.16380351E-06
   6.60120010         6.07129459E-06
   6.61320019         6.89692206E-06
   6.62519979         7.63372282E-06
   6.63719988         8.27594795E-06
   6.64919996         8.81927008E-06
   6.66120005         9.26092980E-06
   6.67320013         9.59982663E-06
   6.68520021         9.83654900E-06
   6.69719982         9.97332063E-06
   6.70919991         1.00138959E-05
   6.72119999         9.96337349E-06
   6.73320007         9.82798065E-06
   6.74520016         9.61479964E-06
   6.75719976         9.33150022E-06
   6.76919985         8.98605958E-06
   6.78119993         8.58650310E-06
   6.79320002         8.14069881E-06
   6.80520010         7.65619188E-06
   6.81720018         7.14011321E-06
   6.82919979         6.59915077E-06
   6.84119987         6.03958961E-06
   6.85319996         5.46740830E-06
   6.86520004         4.88841897E-06
   6.87720013         4.30843284E-06
   6.88920021         3.73342687E-06
   6.90119982         3.16969408E-06
   6.91319990         2.62394929E-06
   6.92519999         2.10337930E-06
   6.93720007         1.61562218E-06
   6.94920015         1.16867056E-06
   6.96120024         7.70698648E-07
   6.97319984         4.29825064E-07
   6.98519993         1.53825141E-07
   6.99720001        -5.01879391E-08
   7.00920010        -1.76086488E-07
   7.02120018        -2.19032074E-07
   7.03319979        -1.75735764E-07
   7.04519987        -4.46513582E-08
   7.05719995         1.73913449E-07
   7.06920004         4.77778997E-07
   7.08120012         8.62970751E-07
   7.09320021         1.32388766E-06
   7.10519981         1.85354691E-06
   7.11719990         2.44389139E-06
   7.12919998         3.08612971E-06
   7.14120007         3.77109131E-06
   7.15320015         4.48956553E-06
   7.16520023         5.23260360E-06
   7.17719984         5.99176474E-06
   7.18919992         6.75929277E-06
   7.20120001         7.52821597E-06
   7.21320009         8.29237615E-06
   7.22520018         9.04638728E-06
   7.23719978         9.78554635E-06
   7.24919987         1.05057143E-05
   7.26119995         1.12031767E-05
   7.27320004         1.18745229E-05
   7.28520012         1.25165598E-05
   7.29720020         1.31262559E-05
   7.30919981         1.37007592E-05
   7.32119989         1.42374556E-05
   7.33319998         1.47340897E-05
   7.34520006         1.51889235E-05
   7.35720015         1.56009100E-05
   7.36920023         1.59698557E-05
   7.38119984         1.62965753E-05
   7.39319992         1.65829679E-05
   7.40520000         1.68320221E-05
   7.41720009         1.70477433E-05
   7.42920017         1.72349664E-05
   7.44119978         1.73990647E-05
   7.45319986         1.75456007E-05
   7.46519995         1.76798749E-05
   7.47720003         1.78064583E-05
   7.48920012         1.79287308E-05
   7.50120020         1.80484458E-05
   7.51319981         1.81653650E-05
   7.52519989         1.82770273E-05
   7.53719997         1.83786433E-05
   7.54920006         1.84631699E-05
   7.56120014         1.85215304E-05
   7.57320023         1.85430326E-05
   7.58519983         1.85159242E-05
   7.59719992         1.84280580E-05
   7.60920000         1.82676613E-05
   7.62120008         1.80241223E-05
   7.63320017         1.76887643E-05
   7.64519978         1.72555592E-05
   7.65719986         1.67217149E-05
   7.66919994         1.60881100E-05
   7.68120003         1.53595320E-05
   7.69320011         1.45447166E-05
   7.70520020         1.36561612E-05
   7.71719980         1.27097273E-05
   7.72919989         1.17240597E-05
   7.74119997         1.07198366E-05
   7.75320005         9.71888676E-06
   7.76520014         8.74324360E-06
   7.77720022         7.81415656E-06
   7.78919983         6.95111930E-06
   7.80119991         6.17096430E-06
   7.81320000         5.48706521E-06
   7.82520008         4.90868570E-06
   7.83720016         4.44049965E-06
   7.84919977         4.08232017E-06
   7.86119986         3.82903409E-06
   7.87319994         3.67076245E-06
   7.88520002         3.59323462E-06
   7.89720011         3.57836825E-06
   7.90920019         3.60503054E-06
   7.92119980         3.64995617E-06
   7.93319988         3.68878023E-06
   7.94519997         3.69714940E-06
   7.95720005         3.65185838E-06
   7.96920013         3.53196606E-06
   7.98120022         3.31983551E-06
   7.99319983         3.00205056E-06
   8.00520039         2.57015517E-06
   8.01720047         2.02118008E-06
   8.02919960         1.35791743E-06
   8.04119968         5.88924479E-07
   8.05319977        -2.71757102E-07
   8.06519985        -1.20516097E-06
   8.07719994        -2.18821629E-06
   8.08920002        -3.19479545E-06
   8.10120010        -4.19694379E-06
   8.11320019        -5.16623186E-06
   8.12520027        -6.07516813E-06
   8.13720036        -6.89859553E-06
   8.14920044        -7.61500542E-06
   8.16119957        -8.20769583E-06
   8.17319965        -8.66570826E-06
   8.18519974        -8.98450526E-06
   8.19719982        -9.16632416E-06
   8.20919991        -9.22020354E-06
   8.22119999        -9.16166755E-06
   8.23320007        -9.01207841E-06
   8.24520016        -8.79767686E-06
   8.25720024        -8.54837072E-06
   8.26920033        -8.29630972E-06
   8.28120041        -8.07432571E-06
   8.29319954        -7.91431376E-06
   8.30519962        -7.84562599E-06
   8.31719971        -7.89356636E-06
   8.32919979        -8.07805645E-06
   8.34119987        -8.41254132E-06
   8.35319996        -8.90319643E-06
   8.36520004        -9.54846655E-06
   8.37720013        -1.03389821E-05
   8.38920021        -1.12578455E-05
   8.40120029        -1.22812771E-05
   8.41320038        -1.33796148E-05
   8.42520046        -1.45185904E-05
   8.43719959        -1.56608567E-05
   8.44919968        -1.67676608E-05
   8.46119976        -1.78006085E-05
   8.47319984        -1.87234273E-05
   8.48519993        -1.95036209E-05
   8.49720001        -2.01139792E-05
   8.50920010        -2.05338074E-05
   8.52120018        -2.07498924E-05
   8.53320026        -2.07570774E-05
   8.54520035        -2.05585002E-05
   8.55720043        -2.01654111E-05
   8.56919956        -1.95966568E-05
   8.58119965        -1.88778049E-05
   8.59319973        -1.80399911E-05
   8.60519981        -1.71185475E-05
   8.61719990        -1.61514727E-05
   8.62919998        -1.51778322E-05
   8.64120007        -1.42361687E-05
   8.65320015        -1.33629883E-05
   8.66520023        -1.25914003E-05
   8.67720032        -1.19499582E-05
   8.68920040        -1.14617524E-05
   8.70119953        -1.11437766E-05
   8.71319962        -1.10065821E-05
   8.72519970        -1.10542123E-05
   8.73719978        -1.12844018E-05
   8.74919987        -1.16890096E-05
   8.76119995        -1.22546535E-05
   8.77320004        -1.29634846E-05
   8.78520012        -1.37940769E-05
   8.79720020        -1.47223627E-05
   8.80920029        -1.57225913E-05
   8.82120037        -1.67682483E-05
   8.83320045        -1.78329265E-05
   8.84519958        -1.88910963E-05
   8.85719967        -1.99187944E-05
   8.86919975        -2.08941728E-05
   8.88119984        -2.17979450E-05
   8.89319992        -2.26137217E-05
   8.90520000        -2.33282044E-05
   8.91720009        -2.39313031E-05
   8.92920017        -2.44161438E-05
   8.94120026        -2.47790085E-05
   8.95320034        -2.50191879E-05
   8.96520042        -2.51387974E-05
   8.97719955        -2.51425317E-05
   8.98919964        -2.50374105E-05
   9.00119972        -2.48324832E-05
   9.01319981        -2.45385345E-05
   9.02519989        -2.41677917E-05
   9.03719997        -2.37336335E-05
   9.04920006        -2.32502935E-05
   9.06120014        -2.27326200E-05
   9.07320023        -2.21958035E-05
   9.08520031        -2.16551598E-05