  -3.000000      1.0000000E-24
  -2.992500      1.0000000E-24
  -2.985000      1.0000000E-24
  -2.977500      1.0000000E-24
  -2.970000      1.0000000E-24
  -2.962500      1.0000000E-24
  -2.955000      1.0000000E-24
  -2.947500      1.0000000E-24
  -2.940000      1.0000000E-24
  -2.932500      1.0000000E-24
  -2.925000      1.0000000E-24
  -2.917500      1.0000000E-24
  -2.910000      1.0000000E-24
  -2.902500      1.0000000E-24
  -2.895000      1.0000000E-24
  -2.887500      1.0000000E-24
  -2.880000      1.0000000E-24
  -2.872500      1.0000000E-24
  -2.865000      1.0000000E-24
  -2.857500      1.0000000E-24
  -2.850000      1.0000000E-24
  -2.842500      1.0000000E-24
  -2.835000      1.0000000E-24
  -2.827500      1.0000000E-24
  -2.820000      1.0000000E-24
  -2.812500      1.0000000E-24
  -2.805000      1.0000000E-24
  -2.797500      1.0000000E-24
  -2.790000      1.0000000E-24
  -2.782500      1.0000000E-24
  -2.775000      1.0000000E-24
  -2.767500      1.0000000E-24
  -2.760000      1.0000000E-24
  -2.752500      1.0000000E-24
  -2.745000      1.0000000E-24
  -2.737500      1.0000000E-24
  -2.730000      1.0000000E-24
  -2.722500      1.0000000E-24
  -2.715000      1.0000000E-24
  -2.707500      1.0000000E-24
  -2.700000      1.0000000E-24
  -2.692500      1.0000000E-24
  -2.685000      1.0000000E-24
  -2.677500      1.0000000E-24
  -2.670000      1.0000000E-24
  -2.662500      1.0000000E-24
  -2.655000      1.0000000E-24
  -2.647500      1.0000000E-24
  -2.640000      1.0000000E-24
  -2.632500      1.0000000E-24
  -2.625000      1.0000000E-24
  -2.617500      1.0000000E-24
  -2.610000      1.0000000E-24
  -2.602500      1.0000000E-24
  -2.595000      1.0000000E-24
  -2.587500      1.0000000E-24
  -2.580000      1.0000000E-24
  -2.572500      1.0000000E-24
  -2.565000      9.9999992E-25
  -2.557500      9.9999982E-25
  -2.550000      9.9999982E-25
  -2.542500      9.9999982E-25
  -2.535000      9.9999992E-25
  -2.527500      1.0000001E-24
  -2.520000      1.0000005E-24
  -2.512500      1.0000012E-24
  -2.505000      1.0000021E-24
  -2.497500      1.0000031E-24
  -2.490000      1.0000041E-24
  -2.482500      1.0000047E-24
  -2.475000      1.0000045E-24
  -2.467500      1.0000029E-24
  -2.460000      9.9999933E-25
  -2.452500      9.9999331E-25
  -2.445000      9.9998493E-25
  -2.437500      9.9997428E-25
  -2.430000      9.9996265E-25
  -2.422500      9.9995200E-25
  -2.415000      9.9994529E-25
  -2.407500      9.9994648E-25
  -2.400000      9.9995979E-25
  -2.392500      9.9998947E-25
  -2.385000      1.0000384E-24
  -2.377500      1.0001074E-24
  -2.370000      1.0001935E-24
  -2.362500      1.0002891E-24
  -2.355000      1.0003812E-24
  -2.347500      1.0004508E-24
  -2.340000      1.0004740E-24
  -2.332500      1.0004244E-24
  -2.325000      1.0002755E-24
  -2.317500      1.0000067E-24
  -2.310000      9.9960736E-25
  -2.302500      9.9908455E-25
  -2.295000      9.9846805E-25
  -2.287500      9.9781537E-25
  -2.280000      9.9721396E-25
  -2.272500      9.9677999E-25
  -2.265000      9.9665170E-25
  -2.257500      9.9697849E-25
  -2.250000      9.9790254E-25
  -2.242500      9.9953568E-25
  -2.235000      1.0019307E-24
  -2.227500      1.0050506E-24
  -2.220000      1.0087389E-24
  -2.212500      1.0126943E-24
  -2.205000      1.0164562E-24
  -2.197500      1.0194082E-24
  -2.190000      1.0208045E-24
  -2.182500      1.0198250E-24
  -2.175000      1.0156656E-24
  -2.167500      1.0076610E-24
  -2.160000      9.9543794E-25
  -2.152500      9.7908663E-25
  -2.145000      9.5933217E-25
  -2.137500      9.3767853E-25
  -2.130000      9.1649032E-25
  -2.122500      8.9897534E-25
  -2.115000      8.8902711E-25
  -2.107500      8.9089740E-25
  -2.100000      9.0868316E-25
  -2.092500      9.4563656E-25
  -2.085000      1.0033432E-24
  -2.077500      1.0808521E-24
  -2.070000      1.1738841E-24
  -2.062500      1.2742803E-24
  -2.055000      1.3698768E-24
  -2.047500      1.4449835E-24
  -2.040000      1.4816153E-24
  -2.032500      1.4615420E-24
  -2.025000      1.3691091E-24
  -2.017500      1.1946310E-24
  -2.010000      9.3798362E-25
  -2.002500      6.1185832E-25
  -1.995000      2.4400723E-25
  -1.987500     -1.2225316E-25
  -1.980000     -4.2996114E-25
  -1.972500     -6.1335020E-25
  -1.965000     -6.0577235E-25
  -1.957500     -3.5039022E-25
  -1.950000      1.8726270E-25
  -1.942500      1.0063699E-24
  -1.935000      2.0596482E-24
  -1.927500      3.2463516E-24
  -1.920000      4.4120123E-24
  -1.912500      5.3571288E-24
  -1.905000      5.8562064E-24
  -1.897500      5.6872477E-24
  -1.890000      4.6700467E-24
  -1.882500      2.7096504E-24
  -1.875000     -1.6065727E-25
  -1.867500     -3.7441512E-24
  -1.860000     -7.6615197E-24
  -1.852500     -1.1355906E-23
  -1.845000     -1.4128786E-23
  -1.837500     -1.5210226E-23
  -1.830000     -1.3862588E-23
  -1.822500     -9.5109638E-24
  -1.815000     -1.8873592E-24
  -1.807500      8.8304127E-24
  -1.800000      2.1908887E-23
  -1.792500      3.6004192E-23
  -1.785000      4.9187207E-23
  -1.777500      5.9067967E-23
  -1.770000      6.3028737E-23
  -1.762500      5.8560591E-23
  -1.755000      4.3681374E-23
  -1.747500      1.7393681E-23
  -1.740000     -1.9875552E-23
  -1.732500     -6.5925674E-23
  -1.725000     -1.1660061E-22
  -1.717500     -1.6584781E-22
  -1.710000     -2.0607418E-22
  -1.702500     -2.2882570E-22
  -1.695000     -2.2577651E-22
  -1.687500     -1.8996389E-22
  -1.680000     -1.1715296E-22
  -1.672500     -7.1666775E-24
  -1.665000      1.3501934E-22
  -1.657500      2.9863358E-22
  -1.650000      4.6712117E-22
  -1.642500      6.1897162E-22
  -1.635000      7.2944350E-22
  -1.627500      7.7315911E-22
  -1.620000      7.2741255E-22
  -1.612500      5.7589769E-22
  -1.605000      3.1243668E-22
  -1.597500     -5.5806886E-23
  -1.590000     -5.0618768E-22
  -1.582500     -1.0000457E-21
  -1.575000     -1.4842075E-21
  -1.567500     -1.8947610E-21
  -1.560000     -2.1630834E-21
  -1.552500     -2.2237878E-21
  -1.545000     -2.0239227E-21
  -1.537500     -1.5324552E-21
  -1.530000     -7.4883004E-22
  -1.522500      2.9071622E-22
  -1.515000      1.5103686E-21
  -1.507500      2.7965323E-21
  -1.500000      4.0048660E-21
  -1.492500      4.9726294E-21
  -1.485000      5.5357277E-21
  -1.477500      5.5491100E-21
  -1.470000      4.9084950E-21
  -1.462500      3.5708450E-21
  -1.455000      1.5707394E-21
  -1.447500     -9.7018300E-22
  -1.440000     -3.8431179E-21
  -1.432500     -6.7629338E-21
  -1.425000     -9.3904217E-21
  -1.417500     -1.1365025E-20
  -1.410000     -1.2345627E-20
  -1.402500     -1.2055558E-20
  -1.395000     -1.0326797E-20
  -1.387500     -7.1377253E-21
  -1.380000     -2.6386405E-21
  -1.372500      2.8400299E-21
  -1.365000      8.8005086E-21
  -1.357500      1.4613028E-20
  -1.350000      1.9572764E-20
  -1.342500      2.2974481E-20
  -1.335000      2.4198238E-20
  -1.327500      2.2797130E-20
  -1.320000      1.8576509E-20
  -1.312500      1.1653617E-20
  -1.305000      2.4874129E-21
  -1.297500     -8.1294050E-21
  -1.290000     -1.9120624E-20
  -1.282500     -2.9218882E-20
  -1.275000     -3.7094750E-20
  -1.267500     -4.1511894E-20
  -1.260000     -4.1492801E-20
  -1.252500     -3.6476103E-20
  -1.245000     -2.6444631E-20
  -1.237500     -1.2004190E-20
  -1.230000      5.6041995E-21
  -1.222500      2.4569806E-20
  -1.215000      4.2658981E-20
  -1.207500      5.7437037E-20
  -1.200000      6.6548890E-20
  -1.192500      6.8032297E-20
  -1.185000      6.0629276E-20
  -1.177500      4.4056412E-20
  -1.170000      1.9193384E-20
  -1.162500     -1.1847160E-20
  -1.155000     -4.5796292E-20
  -1.147500     -7.8466340E-20
  -1.140000     -1.0514576E-19
  -1.132500     -1.2112744E-19
  -1.125000     -1.2232611E-19
  -1.117500     -1.0592159E-19
  -1.110000     -7.0951036E-20
  -1.102500     -1.8766167E-20
  -1.095000      4.6725513E-20
  -1.087500      1.1910388E-19
  -1.080000      1.8980813E-19
  -1.072500      2.4884863E-19
  -1.065000      2.8582934E-19
  -1.057500      2.9120782E-19
  -1.050000      2.5767751E-19
  -1.042500      1.8152149E-19
  -1.035000      6.3764465E-20
  -1.027500     -8.9055661E-20
  -1.020000     -2.6465967E-19
  -1.012500     -4.4546680E-19
  -1.005000     -6.0976699E-19
 -0.9975000     -7.3361154E-19
 -0.9900000     -7.9331904E-19
 -0.9825000     -7.6840095E-19
 -0.9750000     -6.4462738E-19
 -0.9675000     -4.1688972E-19
 -0.9600000     -9.1483597E-20
 -0.9525000      3.1255821E-19
 -0.9450000      7.6340194E-19
 -0.9375000      1.2178395E-18
 -0.9300000      1.6242878E-18
 -0.9225000      1.9272717E-18
 -0.9150000      2.0731146E-18
 -0.9075000      2.0163766E-18
 -0.9000000      1.7264212E-18
 -0.8925000      1.1933761E-18
 -0.8850000      4.3271850E-19
 -0.8775000     -5.1225905E-19
 -0.8700000     -1.5707084E-18
 -0.8625000     -2.6476052E-18
 -0.8550000     -3.6303501E-18
 -0.8475000     -4.3983422E-18
 -0.8400000     -4.8349112E-18
 -0.8325000     -4.8406386E-18
 -0.8250000     -4.3467994E-18
 -0.8175000     -3.3274620E-18
 -0.8100000     -1.8087189E-18
 -0.8025000      1.2638322E-19
 -0.7950000      2.3383788E-18
 -0.7875000      4.6381121E-18
 -0.7800000      6.7998217E-18
 -0.7725000      8.5800641E-18
 -0.7650000      9.7412569E-18
 -0.7575000      1.0077949E-17
 -0.7500000      9.4433503E-18
 -0.7425000      7.7732958E-18
 -0.7350000      5.1046730E-18
 -0.7275000      1.5855327E-18
 -0.7200000     -2.5253967E-18
 -0.7125000     -6.8712644E-18
 -0.7050000     -1.1022098E-17
 -0.6975000     -1.4511349E-17
 -0.6900000     -1.6881696E-17
 -0.6825000     -1.7736498E-17
 -0.6750000     -1.6792145E-17
 -0.6675000     -1.3925766E-17
 -0.6600000     -9.2123725E-18
 -0.6525000     -2.9458058E-18
 -0.6450000      4.3612994E-18
 -0.6375000      1.2001818E-17
 -0.6300000      1.9123876E-17
 -0.6225000      2.4804713E-17
 -0.6150000      2.8144470E-17
 -0.6075000      2.8373010E-17
 -0.6000000      2.4960259E-17
 -0.5925000      1.7718652E-17
 -0.5850000      6.8851971E-18
 -0.5775000     -6.8292958E-18
 -0.5700000     -2.2234924E-17
 -0.5625000     -3.7709695E-17
 -0.5550000     -5.1303105E-17
 -0.5475000     -6.0895488E-17
 -0.5400000     -6.4406116E-17
 -0.5325000     -6.0036895E-17
 -0.5250000     -4.6532251E-17
 -0.5175000     -2.3430749E-17
 -0.5100000      8.7198593E-18
 -0.5025000      4.8213622E-17
 -0.4950000      9.2131734E-17
 -0.4875000      1.3640604E-16
 -0.4800000      1.7601690E-16
 -0.4725000      2.0533108E-16
 -0.4650000      2.1857198E-16
 -0.4575000      2.1039991E-16
 -0.4500000      1.7656496E-16
 -0.4425000      1.1458022E-16
 -0.4350000      2.4351966E-17
 -0.4275000     -9.1305003E-17
 -0.4200000     -2.2634031E-16
 -0.4125000     -3.7139830E-16
 -0.4050000     -5.1406234E-16
 -0.3975000     -6.3944979E-16
 -0.3900000     -7.3116726E-16
 -0.3825000     -7.7260194E-16
 -0.3750000     -7.4848993E-16
 -0.3675000     -6.4666164E-16
 -0.3600000     -4.5983285E-16
 -0.3525000     -1.8727790E-16
 -0.3450000      1.6379388E-16
 -0.3375000      5.7734459E-16
 -0.3300000      1.0282696E-15
 -0.3225000      1.4829576E-15
 -0.3150000      1.9007438E-15
 -0.3075000      2.2362807E-15
 -0.3000000      2.4427791E-15
 -0.2925000      2.4759713E-15
 -0.2850000      2.2985702E-15
 -0.2775000      1.8849007E-15
 -0.2700000      1.2253194E-15
 -0.2625000      3.2998516E-16
 -0.2550000     -7.6846688E-16
 -0.2475000     -2.0137732E-15
 -0.2400000     -3.3267723E-15
 -0.2325000     -4.6082671E-15
 -0.2250000     -5.7441209E-15
 -0.2175000     -6.6125037E-15
 -0.2100000     -7.0930171E-15
 -0.2025000     -7.0771898E-15
 -0.1950000     -6.4796695E-15
 -0.1875000     -5.2492504E-15
 -0.1800000     -3.3787575E-15
 -0.1725000     -9.1277647E-16
 -0.1650000      2.0477701E-15
 -0.1575000      5.3450633E-15
 -0.1500000      8.7684961E-15
 -0.1425000      1.2063804E-14
 -0.1350000      1.4947187E-14
 -0.1275000      1.7123976E-14
 -0.1200000      1.8310952E-14
 -0.1125000      1.8260973E-14
 -0.1050000      1.6788240E-14
 -9.7499996E-02  1.3792162E-14
 -9.0000004E-02  9.2777179E-15
 -8.2500003E-02  3.3701552E-15
 -7.5000003E-02 -3.6779450E-15
 -6.7500003E-02 -1.1488823E-14
 -5.9999999E-02 -1.9571975E-14
 -5.2499998E-02 -2.7347221E-14
 -4.5000002E-02 -3.4177932E-14
 -3.7500001E-02 -3.9413100E-14
 -2.9999999E-02 -4.2436039E-14
 -2.2500001E-02 -4.2716654E-14
 -1.5000000E-02 -3.9863651E-14
 -7.4999998E-03 -3.3672562E-14
  0.0000000E+00 -2.4165301E-14
  7.4999998E-03 -1.1617142E-14
  1.5000000E-02  3.4324918E-15
  2.2500001E-02  2.0188200E-14
  2.9999999E-02  3.7627338E-14
  3.7500001E-02  5.4549498E-14
  4.5000002E-02  6.9645380E-14
  5.2499998E-02  8.1581992E-14
  5.9999999E-02  8.9099497E-14
  6.7500003E-02  9.1113816E-14
  7.5000003E-02  8.6817679E-14
  8.2500003E-02  7.5772491E-14
  9.0000004E-02  5.7982942E-14
  9.7499996E-02  3.3947082E-14
  0.1050000      4.6752369E-15
  0.1125000     -2.8326804E-14
  0.1200000     -6.3113021E-14
  0.1275000     -9.7390710E-14
  0.1350000     -1.2864952E-13
  0.1425000     -1.5432015E-13
  0.1500000     -1.7195413E-13
  0.1575000     -1.7941378E-13
  0.1650000     -1.7505939E-13
  0.1725000     -1.5791982E-13
  0.1800000     -1.2783234E-13
  0.1875000     -8.5538686E-14
  0.1950000     -3.2725701E-14
  0.2025000      2.7997541E-14
  0.2100000      9.3191012E-14
  0.2175000      1.5874349E-13
  0.2250000      2.2009604E-13
  0.2325000      2.7251966E-13
  0.2400000      3.1143217E-13
  0.2475000      3.3273590E-13
  0.2550000      3.3315427E-13
  0.2625000      3.1054280E-13
  0.2700000      2.6415073E-13
  0.2775000      1.9480957E-13
  0.2850000      1.0502883E-13
  0.2925000     -1.0168952E-15
  0.3000000     -1.1761848E-13
  0.3075000     -2.3778237E-13
  0.3150000     -3.5359359E-13
  0.3225000     -4.5667696E-13
  0.3300000     -5.3873269E-13
  0.3375000     -5.9211680E-13
  0.3450000     -6.1042848E-13
  0.3525000     -5.8906547E-13
  0.3600000     -5.2570529E-13
  0.3675000     -4.2067245E-13
  0.3750000     -2.7715588E-13
  0.3825000     -1.0124878E-13
  0.3900000      9.8207494E-14
  0.3975000      3.0998188E-13
  0.4050000      5.2100674E-13
  0.4125000      7.1710411E-13
  0.4200000      8.8384931E-13
  0.4275000      1.0075247E-12
  0.4350000      1.0761043E-12
  0.4425000      1.0802049E-12
  0.4500000      1.0139357E-12
  0.4575000      8.7557874E-13
  0.4650000      6.6804293E-13
  0.4725000      3.9903904E-13
  0.4800000      8.0945653E-14
  0.4875000     -2.6965021E-13
  0.4950000     -6.3273020E-13
  0.5025000     -9.8591003E-13
  0.5100000     -1.3057412E-12
  0.5175000     -1.5691785E-12
  0.5250000     -1.7551227E-12
  0.5325000     -1.8459420E-12
  0.5400000     -1.8288643E-12
  0.5475000     -1.6971412E-12
  0.5550000     -1.4508847E-12
  0.5625000     -1.0975050E-12
  0.5700000     -6.5169132E-13
  0.5775000     -1.3491015E-13
  0.5850000      4.2557264E-13
  0.5925000      9.9810806E-13
  0.6000000      1.5484478E-12
  0.6075000      2.0417943E-12
  0.6150000      2.4449943E-12
  0.6225000      2.7287350E-12
  0.6300000      2.8695950E-12
  0.6375000      2.8518065E-12
  0.6450000      2.6685971E-12
  0.6525000      2.3230007E-12
  0.6600000      1.8280653E-12
  0.6675000      1.2064162E-12
  0.6750000      4.8918080E-13
  0.6825000     -2.8567383E-13
  0.6900000     -1.0755016E-12
  0.6975000     -1.8355042E-12
  0.7050000     -2.5214663E-12
  0.7125000     -3.0925202E-12
  0.7200000     -3.5137542E-12
  0.7275000     -3.7584848E-12
  0.7350000     -3.8100352E-12
  0.7425000     -3.6628855E-12
  0.7500000     -3.3231098E-12
  0.7575000     -2.8080602E-12
  0.7650000     -2.1453117E-12
  0.7725000     -1.3709307E-12
  0.7800000     -5.2718398E-13
  0.7875000      3.4015553E-13
  0.7950000      1.1847213E-12
  0.8025000      1.9624790E-12
  0.8100000      2.6344608E-12
  0.8175000      3.1691134E-12
  0.8250000      3.5440949E-12
  0.8325000      3.7473974E-12
  0.8400000      3.7777164E-12
  0.8475000      3.6440521E-12
  0.8550000      3.3645818E-12
  0.8625000      2.9648942E-12
  0.8700000      2.4757353E-12
  0.8775000      1.9304465E-12
  0.8850000      1.3622931E-12
  0.8925000      8.0190889E-13
  0.9000000      2.7505068E-13
  0.9075000     -1.9915191E-13
  0.9150000     -6.0931262E-13
  0.9225000     -9.5218213E-13
  0.9300000     -1.2322886E-12
  0.9375000     -1.4608550E-12
  0.9450000     -1.6540873E-12
  0.9525000     -1.8309753E-12
  0.9600000     -2.0107947E-12
  0.9675000     -2.2105260E-12
  0.9750000     -2.4424163E-12
  0.9825000     -2.7119043E-12
  0.9900000     -3.0161060E-12
  0.9975000     -3.3430145E-12
   1.005000     -3.6715193E-12
   1.012500     -3.9722847E-12
   1.020000     -4.2094583E-12
   1.027500     -4.3431170E-12
   1.035000     -4.3322988E-12
   1.042500     -4.1384101E-12
   1.050000     -3.7287664E-12
   1.057500     -3.0800083E-12
   1.065000     -2.1811270E-12
   1.072500     -1.0358508E-12
   1.080000      3.3581116E-13
   1.087500      1.8970272E-12
   1.095000      3.5946983E-12
   1.102500      5.3611317E-12
   1.110000      7.1167772E-12
   1.117500      8.7739069E-12
   1.125000      1.0241037E-11
   1.132500      1.1427860E-11
   1.140000      1.2250382E-11
   1.147500      1.2635992E-11
   1.155000      1.2528115E-11
   1.162500      1.1890188E-11
   1.170000      1.0708692E-11
   1.177500      8.9950400E-12
   1.185000      6.7861780E-12
   1.192500      4.1438433E-12
   1.200000      1.1524900E-12
   1.207500     -2.0840215E-12
   1.215000     -5.4468023E-12
   1.222500     -8.8071477E-12
   1.230000     -1.2032302E-11
   1.237500     -1.4991454E-11
   1.245000     -1.7561634E-11
   1.252500     -1.9633189E-11
   1.260000     -2.1114523E-11
   1.267500     -2.1935866E-11
   1.275000     -2.2051848E-11
   1.282500     -2.1442806E-11
   1.290000     -2.0114735E-11
   1.297500     -1.8097999E-11
   1.305000     -1.5444876E-11
   1.312500     -1.2226223E-11
   1.320000     -8.5274791E-12
   1.327500     -4.4443906E-12
   1.335000     -7.8753071E-14
   1.342500      4.4654488E-12
   1.350000      9.0852282E-12
   1.357500      1.3680850E-11
   1.365000      1.8156997E-11
   1.372500      2.2422803E-11
   1.380000      2.6390822E-11
   1.387500      2.9975113E-11
   1.395000      3.3088761E-11
   1.402500      3.5641247E-11
   1.410000      3.7536127E-11
   1.417500      3.8669571E-11
   1.425000      3.8930255E-11
   1.432500      3.8201067E-11
   1.440000      3.6362975E-11
   1.447500      3.3301254E-11
   1.455000      2.8914066E-11
   1.462500      2.3123161E-11
   1.470000      1.5886225E-11
   1.477500      7.2101253E-12
   1.485000     -2.8358145E-12
   1.492500     -1.4107705E-11
   1.500000     -2.6377322E-11
   1.507500     -3.9325956E-11
   1.515000     -5.2543046E-11
   1.522500     -6.5530650E-11
   1.530000     -7.7714508E-11
   1.537500     -8.8461995E-11
   1.545000     -9.7107052E-11
   1.552500     -1.0298139E-10
   1.560000     -1.0545093E-10
   1.567500     -1.0395580E-10
   1.575000     -9.8051962E-11
   1.582500     -8.7451768E-11
   1.590000     -7.2060892E-11
   1.597500     -5.2008831E-11
   1.605000     -2.7670111E-11
   1.612500      3.2605656E-13
   1.620000      3.1099723E-11
   1.627500      6.3538994E-11
   1.635000      9.6334121E-11
   1.642500      1.2802641E-10
   1.650000      1.5707052E-10
   1.657500      1.8190760E-10
   1.665000      2.0104611E-10
   1.672500      2.1314592E-10
   1.680000      2.1710127E-10
   1.687500      2.1211731E-10
   1.695000      1.9777556E-10
   1.702500      1.7408318E-10
   1.710000      1.4150238E-10
   1.717500      1.0095656E-10
   1.725000      5.3811511E-11
   1.732500      1.8309651E-12
   1.740000     -5.2892319E-11
   1.747500     -1.0802746E-10
   1.755000     -1.6111418E-10
   1.762500     -2.0968408E-10
   1.770000     -2.5138802E-10
   1.777500     -2.8412234E-10
   1.785000     -3.0614697E-10
   1.792500     -3.1618747E-10
   1.800000     -3.1351541E-10
   1.807500     -2.9800060E-10
   1.815000     -2.7013189E-10
   1.822500     -2.3100404E-10
   1.830000     -1.8227025E-10
   1.837500     -1.2606259E-10
   1.845000     -6.4883723E-11
   1.852500     -1.4762286E-12
   1.860000      6.1323668E-11
   1.867500      1.2073918E-10
   1.875000      1.7420393E-10
   1.882500      2.1950142E-10
   1.890000      2.5488470E-10
   1.897500      2.7916833E-10
   1.905000      2.9178665E-10
   1.912500      2.9281466E-10
   1.920000      2.8294930E-10
   1.927500      2.6345270E-10
   1.935000      2.3605987E-10
   1.942500      2.0285704E-10
   1.950000      1.6613805E-10
   1.957500      1.2824806E-10
   1.965000      9.1424431E-11
   1.972500      5.7645787E-11
   1.980000      2.8498932E-11
   1.987500      5.0730461E-12
   1.995000     -1.2111467E-11
   2.002500     -2.3134128E-11
   2.010000     -2.8662749E-11
   2.017500     -2.9899073E-11
   2.025000     -2.8484541E-11
   2.032500     -2.6371813E-11
   2.040000     -2.5670030E-11
   2.047500     -2.8473774E-11
   2.055000     -3.6686973E-11
   2.062500     -5.1853629E-11
   2.070000     -7.5007091E-11
   2.077500     -1.0654866E-10
   2.085000     -1.4616468E-10
   2.092500     -1.9278899E-10
   2.100000     -2.4461494E-10
   2.107500     -2.9915800E-10
   2.115000     -3.5336659E-10
   2.122500     -4.0377637E-10
   2.130000     -4.4669929E-10
   2.137500     -4.7843723E-10
   2.145000     -4.9550786E-10
   2.152500     -4.9486931E-10
   2.160000     -4.7413012E-10
   2.167500     -4.3173159E-10
   2.175000     -3.6709108E-10
   2.182500     -2.8069636E-10
   2.190000     -1.7414485E-10
   2.197500     -5.0123981E-11
   2.205000      8.7667790E-11
   2.212500      2.3465574E-10
   2.220000      3.8557321E-10
   2.227500      5.3468657E-10
   2.235000      6.7604877E-10
   2.242500      8.0376855E-10
   2.250000      9.1228153E-10
   2.257500      9.9660891E-10
   2.265000      1.0525902E-09
   2.272500      1.0770796E-09
   2.280000      1.0680939E-09
   2.287500      1.0249068E-09
   2.295000      9.4808539E-10
   2.302500      8.3946700E-10
   2.310000      7.0207906E-10
   2.317500      5.4000682E-10
   2.325000      3.5821640E-10
   2.332500      1.6234310E-10
   2.340000     -4.1544660E-11
   2.347500     -2.4719365E-10
   2.355000     -4.4841442E-10
   2.362500     -6.3931865E-10
   2.370000     -8.1453505E-10
   2.377500     -9.6939456E-10
   2.385000     -1.1000776E-09
   2.392500     -1.2037187E-09
   2.400000     -1.2784658E-09
   2.407500     -1.3234924E-09
   2.415000     -1.3389656E-09
   2.422500     -1.3259723E-09
   2.430000     -1.2864092E-09
   2.437500     -1.2228424E-09
   2.445000     -1.1383439E-09
   2.452500     -1.0363137E-09
   2.460000     -9.2029523E-10
   2.467500     -7.9379164E-10
   2.475000     -6.6009337E-10
   2.482500     -5.2212190E-10
   2.490000     -3.8229861E-10
   2.497500     -2.4244418E-10
   2.505000     -1.0371318E-10
   2.512500      3.3431685E-11
   2.520000      1.6920339E-10
   2.527500      3.0443170E-10
   2.535000      4.4046189E-10
   2.542500      5.7901378E-10
   2.550000      7.2200473E-10
   2.557500      8.7134361E-10
   2.565000      1.0287027E-09
   2.572500      1.1952777E-09
   2.580000      1.3715467E-09
   2.587500      1.5570409E-09
   2.595000      1.7501398E-09
   2.602500      1.9479045E-09
   2.610000      2.1459619E-09
   2.617500      2.3384530E-09
   2.625000      2.5180544E-09
   2.632500      2.6760814E-09
   2.640000      2.8026774E-09
   2.647500      2.8870937E-09
   2.655000      2.9180498E-09
   2.662500      2.8841760E-09
   2.670000      2.7745186E-09
   2.677500      2.5790965E-09
   2.685000      2.2894886E-09
   2.692500      1.8994246E-09
   2.700000      1.4053613E-09
   2.707500      8.0700724E-10
   2.715000      1.0777866E-10
   2.722500     -6.8484923E-10
   2.730000     -1.5591134E-09
   2.737500     -2.4988809E-09
   2.745000     -3.4837286E-09
   2.752500     -4.4891966E-09
   2.760000     -5.4872191E-09
   2.767500     -6.4467289E-09
   2.775000     -7.3344322E-09
   2.782500     -8.1157312E-09
   2.790000     -8.7557721E-09
   2.797500     -9.2205958E-09
   2.805000     -9.4783505E-09
   2.812500     -9.5005319E-09
   2.820000     -9.2632089E-09
   2.827500     -8.7481897E-09
   2.835000     -7.9440907E-09
   2.842500     -6.8472614E-09
   2.850000     -5.4625353E-09
   2.857500     -3.8037564E-09
   2.865000     -1.8940685E-09
   2.872500      2.3406549E-10
   2.880000      2.5391249E-09
   2.887500      4.9710831E-09
   2.895000      7.4722477E-09
   2.902500      9.9783710E-09
   2.910000      1.2420023E-08
   2.917500      1.4724183E-08
   2.925000      1.6816010E-08
   2.932500      1.8620760E-08
   2.940000      2.0065773E-08
   2.947500      2.1082476E-08
   2.955000      2.1608344E-08
   2.962500      2.1588729E-08
   2.970000      2.0978511E-08
   2.977500      1.9743487E-08
   2.985000      1.7861442E-08
   2.992500      1.5322847E-08
   3.000000      1.2131145E-08
   3.007500      8.3025826E-09
   3.015000      3.8655923E-09
   3.022500     -1.1402977E-09
   3.030000     -6.6659878E-09
   3.037500     -1.2654731E-08
   3.045000     -1.9044398E-08
   3.052500     -2.5770028E-08
   3.060000     -3.2766533E-08
   3.067500     -3.9971518E-08
   3.075000     -4.7328040E-08
   3.082500     -5.4787261E-08
   3.090000     -6.2310839E-08
   3.097500     -6.9872968E-08
   3.105000     -7.7462019E-08
   3.112500     -8.5081588E-08
   3.120000     -9.2751101E-08
   3.127500     -1.0050575E-07
   3.135000     -1.0839585E-07
   3.142500     -1.1648569E-07
   3.150000     -1.2485179E-07
   3.157500     -1.3358087E-07
   3.165000     -1.4276736E-07
   3.172500     -1.5251082E-07
   3.180000     -1.6291320E-07
   3.187500     -1.7407623E-07
   3.195000     -1.8609904E-07
   3.202500     -1.9907598E-07
   3.210000     -2.1309501E-07
   3.217500     -2.2823639E-07
   3.225000     -2.4457233E-07
   3.232500     -2.6216671E-07
   3.240000     -2.8107584E-07
   3.247500     -3.0134962E-07
   3.255000     -3.2303282E-07
   3.262500     -3.4616758E-07
   3.270000     -3.7079511E-07
   3.277500     -3.9695843E-07
   3.285000     -4.2470447E-07
   3.292500     -4.5408640E-07
   3.300000     -4.8516551E-07
   3.307500     -5.1801271E-07
   3.315000     -5.5270959E-07
   3.322500     -5.8934899E-07
   3.330000     -6.2803485E-07
   3.337500     -6.6888197E-07
   3.345000     -7.1201492E-07
   3.352500     -7.5756662E-07
   3.360000     -8.0567673E-07
   3.367500     -8.5649009E-07
   3.375000     -9.1015494E-07
   3.382500     -9.6682129E-07
   3.390000     -1.0266402E-06
   3.397500     -1.0897626E-06
   3.405000     -1.1563393E-06
   3.412500     -1.2265215E-06
   3.420000     -1.3004621E-06
   3.427500     -1.3783172E-06
   3.435000     -1.4602484E-06
   3.442500     -1.5464266E-06
   3.450000     -1.6370340E-06
   3.457500     -1.7322686E-06
   3.465000     -1.8323477E-06
   3.472500     -1.9375113E-06
   3.480000     -2.0480245E-06
   3.487500     -2.1641815E-06
   3.495000     -2.2863069E-06
   3.502500     -2.4147566E-06
   3.510000     -2.5499194E-06
   3.517500     -2.6922155E-06
   3.525000     -2.8420961E-06
   3.532500     -3.0000406E-06
   3.540000     -3.1665550E-06
   3.547500     -3.3421666E-06
   3.555000     -3.5274229E-06
   3.562500     -3.7228863E-06
   3.570000     -3.9291294E-06
   3.577500     -4.1467347E-06
   3.585000     -4.3762871E-06
   3.592500     -4.6183764E-06
   3.600000     -4.8735915E-06
   3.607500     -5.1425232E-06
   3.615000     -5.4257612E-06
   3.622500     -5.7238981E-06
   3.630000     -6.0375296E-06
   3.637500     -6.3672587E-06
   3.645000     -6.7136993E-06
   3.652500     -7.0774804E-06
   3.660000     -7.4592522E-06
   3.667500     -7.8596886E-06
   3.675000     -8.2794941E-06
   3.682500     -8.7194094E-06
   3.690000     -9.1802167E-06
   3.697500     -9.6627382E-06
   3.705000     -1.0167849E-05
   3.712500     -1.0696473E-05
   3.720000     -1.1249588E-05
   3.727500     -1.1828230E-05
   3.735000     -1.2433484E-05
   3.742500     -1.3066498E-05
   3.750000     -1.3728472E-05
   3.757500     -1.4420663E-05
   3.765000     -1.5144379E-05
   3.772500     -1.5900985E-05
   3.780000     -1.6691889E-05
   3.787500     -1.7518552E-05
   3.795000     -1.8382487E-05
   3.802500     -1.9285248E-05
   3.810000     -2.0228437E-05
   3.817500     -2.1213702E-05
   3.825000     -2.2242741E-05
   3.832500     -2.3317296E-05
   3.840000     -2.4439154E-05
   3.847500     -2.5610158E-05
   3.855000     -2.6832200E-05
   3.862500     -2.8107228E-05
   3.870000     -2.9437242E-05
   3.877500     -3.0824303E-05
   3.885000     -3.2270538E-05
   3.892500     -3.3778131E-05
   3.900000     -3.5349331E-05
   3.907500     -3.6986454E-05
   3.915000     -3.8691891E-05
   3.922500     -4.0468098E-05
   3.930000     -4.2317599E-05
   3.937500     -4.4242992E-05
   3.945000     -4.6246940E-05
   3.952500     -4.8332178E-05
   3.960000     -5.0501520E-05
   3.967500     -5.2757830E-05
   3.975000     -5.5104061E-05
   3.982500     -5.7543224E-05
   3.990000     -6.0078397E-05
   3.997500     -6.2712730E-05
   4.005000     -6.5449443E-05
   4.012500     -6.8291811E-05
   4.020000     -7.1243194E-05
   4.027500     -7.4306998E-05
   4.035000     -7.7486737E-05
   4.042500     -8.0785969E-05
   4.050000     -8.4208317E-05
   4.057500     -8.7757522E-05
   4.065000     -9.1437338E-05
   4.072500     -9.5251657E-05
   4.080000     -9.9204408E-05
   4.087500     -1.0329962E-04
   4.095000     -1.0754139E-04
   4.102500     -1.1193389E-04
   4.110000     -1.1648138E-04
   4.117500     -1.2118818E-04
   4.125000     -1.2605869E-04
   4.132500     -1.3109736E-04
   4.140000     -1.3630872E-04
   4.147500     -1.4169735E-04
   4.155000     -1.4726791E-04
   4.162500     -1.5302510E-04
   4.170000     -1.5897363E-04
   4.177500     -1.6511830E-04
   4.185000     -1.7146395E-04
   4.192500     -1.7801544E-04
   4.200000     -1.8477769E-04
   4.207500     -1.9175567E-04
   4.215000     -1.9895434E-04
   4.222500     -2.0637878E-04
   4.230000     -2.1403408E-04
   4.237500     -2.2192537E-04
   4.245000     -2.3005783E-04