  -4.00000000       0.00000000    
  -3.99900007       0.00000000    
  -3.99799991       0.00000000    
  -3.99699998       0.00000000    
  -3.99600005       2.32659918E-26
  -3.99499989       2.09445529E-25
  -3.99399996       1.04740869E-24
  -3.99300003       3.84088052E-24
  -3.99200010       1.15229394E-23
  -3.99099994       2.99582077E-23
  -3.99000001       6.98939850E-23
  -3.98900008       1.49743622E-22
  -3.98799992       2.99406792E-22
  -3.98699999       5.65352554E-22
  -3.98600006       1.01721122E-21
  -3.98499990       1.75614079E-21
  -3.98399997       2.92525254E-21
  -3.98300004       4.72239714E-21
  -3.98200011       7.41563380E-21
  -3.98099995       1.13617143E-20
  -3.98000002       1.70279362E-20
  -3.97900009       2.50177287E-20
  -3.97799993       3.61003430E-20
  -3.97700000       5.12450474E-20
  -3.97600007       7.16602268E-20
  -3.97499990       9.88377434E-20
  -3.97399998       1.34603094E-19
  -3.97300005       1.81171631E-19
  -3.97199988       2.41211450E-19
  -3.97099996       3.17913091E-19
  -3.97000003       4.15066875E-19
  -3.96900010       5.37148032E-19
  -3.96799994       6.89409959E-19
  -3.96700001       8.77986356E-19
  -3.96600008       1.11000256E-18
  -3.96499991       1.39369614E-18
  -3.96399999       1.73854774E-18
  -3.96300006       2.15542154E-18
  -3.96199989       2.65671781E-18
  -3.96099997       3.25653521E-18
  -3.96000004       3.97084496E-18
  -3.95900011       4.81767690E-18
  -3.95799994       5.81731723E-18
  -3.95700002       6.99252002E-18
  -3.95600009       8.36872771E-18
  -3.95499992       9.97430926E-18
  -3.95400000       1.18408084E-17
  -3.95300007       1.40032033E-17
  -3.95199990       1.65001869E-17
  -3.95099998       1.93744526E-17
  -3.95000005       2.26729958E-17
  -3.94899988       2.64474308E-17
  -3.94799995       3.07543237E-17
  -3.94700003       3.56555277E-17
  -3.94600010       4.12185522E-17
  -3.94499993       4.75169204E-17
  -3.94400001       5.46305645E-17
  -3.94300008       6.26462061E-17
  -3.94199991       7.16577896E-17
  -3.94099998       8.17668830E-17
  -3.94000006       9.30831174E-17
  -3.93899989       1.05724628E-16
  -3.93799996       1.19818528E-16
  -3.93700004       1.35501356E-16
  -3.93600011       1.52919583E-16
  -3.93499994       1.72230055E-16
  -3.93400002       1.93600511E-16
  -3.93300009       2.17210098E-16
  -3.93199992       2.43249889E-16
  -3.93099999       2.71923384E-16
  -3.93000007       3.03446986E-16
  -3.92899990       3.38050664E-16
  -3.92799997       3.75978311E-16
  -3.92700005       4.17488431E-16
  -3.92600012       4.62854590E-16
  -3.92499995       5.12365995E-16
  -3.92400002       5.66327923E-16
  -3.92300010       6.25062511E-16
  -3.92199993       6.88908943E-16
  -3.92100000       7.58224243E-16
  -3.92000008       8.33383594E-16
  -3.91899991       9.14781078E-16
  -3.91799998       1.00282983E-15
  -3.91700006       1.09796296E-15
  -3.91599989       1.20063373E-15
  -3.91499996       1.31131616E-15
  -3.91400003       1.43050513E-15
  -3.91300011       1.55871734E-15
  -3.91199994       1.69649137E-15
  -3.91100001       1.84438820E-15
  -3.91000009       2.00299130E-15
  -3.90899992       2.17290738E-15
  -3.90799999       2.35476620E-15
  -3.90700006       2.54922168E-15
  -3.90599990       2.75695100E-15
  -3.90499997       2.97865552E-15
  -3.90400004       3.21506115E-15
  -3.90300012       3.46691750E-15
  -3.90199995       3.73499898E-15
  -3.90100002       4.02010519E-15
  -3.90000010       4.32305880E-15
  -3.89899993       4.64470728E-15
  -3.89800000       4.98592307E-15
  -3.89700007       5.34760233E-15
  -3.89599991       5.73066493E-15
  -3.89499998       6.13605448E-15
  -3.89400005       6.56473870E-15
  -3.89299989       7.01770736E-15
  -3.89199996       7.49597392E-15
  -3.89100003       8.00057178E-15
  -3.89000010       8.53255760E-15
  -3.88899994       9.09300711E-15
  -3.88800001       9.68301807E-15
  -3.88700008       1.03037069E-14
  -3.88599992       1.09562060E-14
  -3.88499999       1.16416683E-14
  -3.88400006       1.23612609E-14
  -3.88299990       1.31161671E-14
  -3.88199997       1.39075839E-14
  -3.88100004       1.47367216E-14
  -3.88000011       1.56047999E-14
  -3.87899995       1.65130513E-14
  -3.87800002       1.74627108E-14
  -3.87700009       1.84550285E-14
  -3.87599993       1.94912513E-14
  -3.87500000       2.05726346E-14
  -3.87400007       2.17004301E-14
  -3.87299991       2.28758917E-14
  -3.87199998       2.41002676E-14
  -3.87100005       2.53748066E-14
  -3.86999989       2.67007418E-14
  -3.86899996       2.80792997E-14
  -3.86800003       2.95116951E-14
  -3.86700010       3.09991223E-14
  -3.86599994       3.25427653E-14
  -3.86500001       3.41437795E-14
  -3.86400008       3.58032966E-14
  -3.86299992       3.75224245E-14
  -3.86199999       3.93022440E-14
  -3.86100006       4.11437953E-14
  -3.85999990       4.30480812E-14
  -3.85899997       4.50160708E-14
  -3.85800004       4.70486856E-14
  -3.85700011       4.91467964E-14
  -3.85599995       5.13112265E-14
  -3.85500002       5.35427415E-14
  -3.85400009       5.58420463E-14
  -3.85299993       5.82097914E-14
  -3.85200000       6.06465426E-14
  -3.85100007       6.31528047E-14
  -3.84999990       6.57290181E-14
  -3.84899998       6.83755149E-14
  -3.84800005       7.10925662E-14
  -3.84699988       7.38803346E-14
  -3.84599996       7.67389014E-14
  -3.84500003       7.96682531E-14
  -3.84400010       8.26682540E-14
  -3.84299994       8.57386739E-14
  -3.84200001       8.88791604E-14
  -3.84100008       9.20892526E-14
  -3.83999991       9.53683611E-14
  -3.83899999       9.87157608E-14
  -3.83800006       1.02130605E-13
  -3.83699989       1.05611903E-13
  -3.83599997       1.09158525E-13
  -3.83500004       1.12769176E-13
  -3.83400011       1.16442419E-13
  -3.83299994       1.20176655E-13
  -3.83200002       1.23970116E-13
  -3.83100009       1.27820877E-13
  -3.82999992       1.31726823E-13
  -3.82900000       1.35685679E-13
  -3.82800007       1.39694950E-13
  -3.82699990       1.43751981E-13
  -3.82599998       1.47853911E-13
  -3.82500005       1.51997664E-13
  -3.82399988       1.56180001E-13
  -3.82299995       1.60397411E-13
  -3.82200003       1.64646210E-13
  -3.82100010       1.68922466E-13
  -3.81999993       1.73222060E-13
  -3.81900001       1.77540599E-13
  -3.81800008       1.81873491E-13
  -3.81699991       1.86215884E-13
  -3.81599998       1.90562694E-13
  -3.81500006       1.94908570E-13
  -3.81399989       1.99247913E-13
  -3.81299996       2.03574896E-13
  -3.81200004       2.07883407E-13
  -3.81100011       2.12167076E-13
  -3.80999994       2.16419276E-13
  -3.80900002       2.20633082E-13
  -3.80800009       2.24801338E-13
  -3.80699992       2.28916576E-13
  -3.80599999       2.32971059E-13
  -3.80500007       2.36956803E-13
  -3.80399990       2.40865514E-13
  -3.80299997       2.44688574E-13
  -3.80200005       2.48417145E-13
  -3.80100012       2.52042067E-13
  -3.79999995       2.55553906E-13
  -3.79900002       2.58942905E-13
  -3.79800010       2.62199062E-13
  -3.79699993       2.65312051E-13
  -3.79600000       2.68271299E-13
  -3.79500008       2.71065885E-13
  -3.79399991       2.73684612E-13
  -3.79299998       2.76116071E-13
  -3.79200006       2.78348443E-13
  -3.79099989       2.80369722E-13
  -3.78999996       2.82167546E-13
  -3.78900003       2.83729366E-13
  -3.78800011       2.85042253E-13
  -3.78699994       2.86093116E-13
  -3.78600001       2.86868457E-13
  -3.78500009       2.87354640E-13
  -3.78399992       2.87537680E-13
  -3.78299999       2.87403402E-13
  -3.78200006       2.86937358E-13
  -3.78099990       2.86124802E-13
  -3.77999997       2.84950828E-13
  -3.77900004       2.83400256E-13
  -3.77800012       2.81457718E-13
  -3.77699995       2.79107575E-13
  -3.77600002       2.76334050E-13
  -3.77500010       2.73121098E-13
  -3.77399993       2.69452565E-13
  -3.77300000       2.65312024E-13
  -3.77200007       2.60682968E-13
  -3.77099991       2.55548675E-13
  -3.76999998       2.49892284E-13
  -3.76900005       2.43696854E-13
  -3.76799989       2.36945229E-13
  -3.76699996       2.29620224E-13
  -3.76600003       2.21704531E-13
  -3.76500010       2.13180751E-13
  -3.76399994       2.04031440E-13
  -3.76300001       1.94239075E-13
  -3.76200008       1.83786132E-13
  -3.76099992       1.72655049E-13
  -3.75999999       1.60828260E-13
  -3.75900006       1.48288215E-13
  -3.75799990       1.35017391E-13
  -3.75699997       1.20998345E-13
  -3.75600004       1.06213676E-13
  -3.75500011       9.06460779E-14
  -3.75399995       7.42783656E-14
  -3.75300002       5.70934765E-14
  -3.75200009       3.90744938E-14
  -3.75099993       2.02046784E-14
  -3.75000000       4.67487436E-16
  -3.74900007      -2.01534058E-14
  -3.74799991      -4.16740888E-14
  -3.74699998      -6.41103856E-14
  -3.74600005      -8.74778358E-14
  -3.74499989      -1.11791659E-13
  -3.74399996      -1.37066750E-13
  -3.74300003      -1.63317629E-13
  -3.74200010      -1.90558452E-13
  -3.74099994      -2.18802935E-13
  -3.74000001      -2.48064346E-13
  -3.73900008      -2.78355545E-13
  -3.73799992      -3.09688825E-13
  -3.73699999      -3.42076031E-13
  -3.73600006      -3.75528412E-13
  -3.73499990      -4.10056619E-13
  -3.73399997      -4.45670763E-13
  -3.73300004      -4.82380249E-13
  -3.73200011      -5.20193914E-13
  -3.73099995      -5.59119808E-13
  -3.73000002      -5.99165249E-13
  -3.72900009      -6.40336905E-13
  -3.72799993      -6.82640630E-13
  -3.72700000      -7.26081413E-13
  -3.72600007      -7.70663427E-13
  -3.72499990      -8.16390033E-13
  -3.72399998      -8.63263616E-13
  -3.72300005      -9.11285587E-13
  -3.72199988      -9.60456649E-13
  -3.72099996      -1.01077621E-12
  -3.72000003      -1.06224274E-12
  -3.71900010      -1.11485376E-12
  -3.71799994      -1.16860558E-12
  -3.71700001      -1.22349353E-12
  -3.71600008      -1.27951165E-12
  -3.71499991      -1.33665301E-12
  -3.71399999      -1.39490936E-12
  -3.71300006      -1.45427117E-12
  -3.71199989      -1.51472769E-12
  -3.71099997      -1.57626689E-12
  -3.71000004      -1.63887556E-12
  -3.70900011      -1.70253883E-12
  -3.70799994      -1.76724076E-12
  -3.70700002      -1.83296390E-12
  -3.70600009      -1.89968939E-12
  -3.70499992      -1.96739673E-12
  -3.70400000      -2.03606446E-12
  -3.70300007      -2.10566937E-12
  -3.70199990      -2.17618631E-12
  -3.70099998      -2.24758927E-12
  -3.70000005      -2.31985004E-12
  -3.69899988      -2.39293915E-12
  -3.69799995      -2.46682579E-12
  -3.69700003      -2.54147679E-12
  -3.69600010      -2.61685812E-12
  -3.69499993      -2.69293377E-12
  -3.69400001      -2.76966579E-12
  -3.69300008      -2.84701472E-12
  -3.69199991      -2.92493937E-12
  -3.69099998      -3.00339701E-12
  -3.69000006      -3.08234297E-12
  -3.68899989      -3.16173086E-12
  -3.68799996      -3.24151253E-12
  -3.68700004      -3.32163810E-12
  -3.68600011      -3.40205576E-12
  -3.68499994      -3.48271195E-12
  -3.68400002      -3.56355158E-12
  -3.68300009      -3.64451741E-12
  -3.68199992      -3.72555068E-12
  -3.68099999      -3.80659089E-12
  -3.68000007      -3.88757516E-12
  -3.67899990      -3.96843886E-12
  -3.67799997      -4.04911651E-12
  -3.67700005      -4.12954003E-12
  -3.67600012      -4.20963958E-12
  -3.67499995      -4.28934362E-12
  -3.67400002      -4.36857928E-12
  -3.67300010      -4.44727111E-12
  -3.67199993      -4.52534321E-12
  -3.67100000      -4.60271621E-12
  -3.67000008      -4.67931032E-12
  -3.66899991      -4.75504401E-12
  -3.66799998      -4.82983271E-12
  -3.66700006      -4.90359186E-12
  -3.66599989      -4.97623470E-12
  -3.66499996      -5.04767278E-12
  -3.66400003      -5.11781589E-12
  -3.66300011      -5.18657296E-12
  -3.66199994      -5.25385031E-12
  -3.66100001      -5.31955426E-12
  -3.66000009      -5.38358854E-12
  -3.65899992      -5.44585557E-12
  -3.65799999      -5.50625691E-12
  -3.65700006      -5.56469280E-12
  -3.65599990      -5.62106134E-12
  -3.65499997      -5.67526061E-12
  -3.65400004      -5.72718652E-12
  -3.65300012      -5.77673499E-12
  -3.65199995      -5.82380021E-12
  -3.65100002      -5.86827505E-12
  -3.65000010      -5.91005153E-12
  -3.64899993      -5.94902122E-12
  -3.64800000      -5.98507485E-12
  -3.64700007      -6.01810225E-12
  -3.64599991      -6.04799240E-12
  -3.64499998      -6.07463429E-12
  -3.64400005      -6.09791558E-12
  -3.64299989      -6.11772395E-12
  -3.64199996      -6.13394622E-12
  -3.64100003      -6.14646918E-12
  -3.64000010      -6.15518010E-12
  -3.63899994      -6.15996490E-12
  -3.63800001      -6.16071040E-12
  -3.63700008      -6.15730253E-12
  -3.63599992      -6.14962812E-12
  -3.63499999      -6.13757352E-12
  -3.63400006      -6.12102643E-12
  -3.63299990      -6.09987451E-12
  -3.63199997      -6.07400501E-12
  -3.63100004      -6.04330691E-12
  -3.63000011      -6.00766919E-12
  -3.62899995      -5.96698255E-12
  -3.62800002      -5.92113771E-12
  -3.62700009      -5.87002712E-12
  -3.62599993      -5.81354322E-12
  -3.62500000      -5.75158107E-12
  -3.62400007      -5.68403614E-12
  -3.62299991      -5.61080566E-12
  -3.62199998      -5.53178900E-12
  -3.62100005      -5.44688643E-12
  -3.61999989      -5.35599993E-12
  -3.61899996      -5.25903453E-12
  -3.61800003      -5.15589611E-12
  -3.61700010      -5.04649404E-12
  -3.61599994      -4.93073854E-12
  -3.61500001      -4.80854375E-12
  -3.61400008      -4.67982510E-12
  -3.61299992      -4.54450149E-12
  -3.61199999      -4.40249443E-12
  -3.61100006      -4.25372888E-12
  -3.60999990      -4.09813156E-12
  -3.60899997      -3.93563394E-12
  -3.60800004      -3.76616967E-12
  -3.60700011      -3.58967717E-12
  -3.60599995      -3.40609745E-12
  -3.60500002      -3.21537588E-12
  -3.60400009      -3.01746128E-12
  -3.60299993      -2.81230659E-12
  -3.60200000      -2.59986910E-12
  -3.60100007      -2.38011043E-12
  -3.59999990      -2.15299675E-12
  -3.59899998      -1.91849835E-12
  -3.59800005      -1.67659051E-12
  -3.59699988      -1.42725350E-12
  -3.59599996      -1.17047236E-12
  -3.59500003      -9.06237216E-13
  -3.59400010      -6.34543633E-13
  -3.59299994      -3.55392365E-13
  -3.59200001      -6.87897818E-14
  -3.59100008       2.25252136E-13
  -3.58999991       5.26715607E-13
  -3.58899999       8.35577050E-13
  -3.58800006       1.15180673E-12
  -3.58699989       1.47536887E-12
  -3.58599997       1.80622141E-12
  -3.58500004       2.14431597E-12
  -3.58400011       2.48959750E-12
  -3.58299994       2.84200441E-12
  -3.58200002       3.20146839E-12
  -3.58100009       3.56791419E-12
  -3.57999992       3.94126008E-12
  -3.57900000       4.32141649E-12
  -3.57800007       4.70828715E-12
  -3.57699990       5.10176883E-12
  -3.57599998       5.50175010E-12
  -3.57500005       5.90811254E-12
  -3.57399988       6.32073040E-12
  -3.57299995       6.73946966E-12
  -3.57200003       7.16418938E-12
  -3.57100010       7.59473994E-12
  -3.56999993       8.03096478E-12
  -3.56900001       8.47269910E-12
  -3.56800008       8.91976944E-12
  -3.56699991       9.37199450E-12
  -3.56599998       9.82918434E-12
  -3.56500006       1.02911429E-11
  -3.56399989       1.07576639E-11
  -3.56299996       1.12285329E-11
  -3.56200004       1.17035270E-11
  -3.56100011       1.21824165E-11
  -3.55999994       1.26649620E-11
  -3.55900002       1.31509153E-11
  -3.55800009       1.36400205E-11
  -3.55699992       1.41320124E-11
  -3.55599999       1.46266176E-11
  -3.55500007       1.51235552E-11
  -3.55399990       1.56225363E-11
  -3.55299997       1.61232590E-11
  -3.55200005       1.66254181E-11
  -3.55100012       1.71286978E-11
  -3.54999995       1.76327754E-11
  -3.54900002       1.81373163E-11
  -3.54800010       1.86419786E-11
  -3.54699993       1.91464154E-11
  -3.54600000       1.96502675E-11
  -3.54500008       2.01531691E-11
  -3.54399991       2.06547487E-11
  -3.54299998       2.11546215E-11
  -3.54200006       2.16524004E-11
  -3.54099989       2.21476847E-11
  -3.53999996       2.26400704E-11
  -3.53900003       2.31291444E-11
  -3.53800011       2.36144854E-11
  -3.53699994       2.40956647E-11
  -3.53600001       2.45722470E-11
  -3.53500009       2.50437882E-11
  -3.53399992       2.55098390E-11
  -3.53299999       2.59699432E-11
  -3.53200006       2.64236341E-11
  -3.53099990       2.68704416E-11
  -3.52999997       2.73098905E-11
  -3.52900004       2.77414949E-11
  -3.52800012       2.81647674E-11
  -3.52699995       2.85792136E-11
  -3.52600002       2.89843306E-11
  -3.52500010       2.93796133E-11
  -3.52399993       2.97645485E-11
  -3.52300000       3.01386173E-11
  -3.52200007       3.05012994E-11
  -3.52099991       3.08520709E-11
  -3.51999998       3.11904010E-11
  -3.51900005       3.15157553E-11
  -3.51799989       3.18275926E-11
  -3.51699996       3.21253718E-11
  -3.51600003       3.24085515E-11
  -3.51500010       3.26765802E-11
  -3.51399994       3.29289061E-11
  -3.51300001       3.31649742E-11
  -3.51200008       3.33842329E-11
  -3.51099992       3.35861269E-11
  -3.50999999       3.37700978E-11
  -3.50900006       3.39355835E-11
  -3.50799990       3.40820289E-11
  -3.50699997       3.42088684E-11
  -3.50600004       3.43155435E-11
  -3.50500011       3.44014955E-11
  -3.50399995       3.44661660E-11
  -3.50300002       3.45089929E-11
  -3.50200009       3.45294245E-11
  -3.50099993       3.45269022E-11
  -3.50000000       3.45008778E-11
  -3.49900007       3.44508033E-11
  -3.49799991       3.43761269E-11
  -3.49699998       3.42763110E-11
  -3.49600005       3.41508107E-11
  -3.49499989       3.39990952E-11
  -3.49399996       3.38206373E-11
  -3.49300003       3.36149095E-11
  -3.49200010       3.33813983E-11
  -3.49099994       3.31195869E-11
  -3.49000001       3.28289722E-11
  -3.48900008       3.25090545E-11
  -3.48799992       3.21593412E-11
  -3.48699999       3.17793569E-11
  -3.48600006       3.13686230E-11
  -3.48499990       3.09266744E-11
  -3.48399997       3.04530567E-11
  -3.48300004       2.99473224E-11
  -3.48200011       2.94090377E-11
  -3.48099995       2.88377794E-11
  -3.48000002       2.82331328E-11
  -3.47900009       2.75947008E-11
  -3.47799993       2.69220930E-11
  -3.47700000       2.62149365E-11
  -3.47600007       2.54728651E-11
  -3.47499990       2.46955355E-11
  -3.47399998       2.38826146E-11
  -3.47300005       2.30337832E-11
  -3.47199988       2.21487377E-11
  -3.47099996       2.12271953E-11
  -3.47000003       2.02688838E-11
  -3.46900010       1.92735498E-11
  -3.46799994       1.82409574E-11
  -3.46700001       1.71708914E-11
  -3.46600008       1.60631508E-11
  -3.46499991       1.49175585E-11
  -3.46399999       1.37339523E-11
  -3.46300006       1.25121918E-11
  -3.46199989       1.12521581E-11
  -3.46099997       9.95375136E-12
  -3.46000004       8.61689539E-12
  -3.45900011       7.24153506E-12
  -3.45799994       5.82763655E-12
  -3.45700002       4.37519118E-12
  -3.45600009       2.88421175E-12
  -3.45499992       1.35473533E-12
  -3.45400000      -2.13176129E-13
  -3.45300007      -1.81943631E-12
  -3.45199990      -3.46393378E-12
  -3.45099998      -5.14653207E-12
  -3.45000005      -6.86706768E-12
  -3.44899988      -8.62535043E-12
  -3.44799995      -1.04211648E-11
  -3.44700003      -1.22542670E-11
  -3.44600010      -1.41243866E-11
  -3.44499993      -1.60312232E-11
  -3.44400001      -1.79744501E-11
  -3.44300008      -1.99537106E-11
  -3.44199991      -2.19686196E-11
  -3.44099998      -2.40187609E-11
  -3.44000006      -2.61036921E-11
  -3.43899989      -2.82229396E-11
  -3.43799996      -3.03759934E-11
  -3.43700004      -3.25623209E-11
  -3.43600011      -3.47813583E-11
  -3.43499994      -3.70325090E-11
  -3.43400002      -3.93151380E-11
  -3.43300009      -4.16285895E-11
  -3.43199992      -4.39721697E-11
  -3.43099999      -4.63451534E-11
  -3.43000007      -4.87467844E-11
  -3.42899990      -5.11762750E-11
  -3.42799997      -5.36327996E-11
  -3.42700005      -5.61155046E-11
  -3.42600012      -5.86235088E-11
  -3.42499995      -6.11558859E-11
  -3.42400002      -6.37116887E-11
  -3.42300010      -6.62899249E-11
  -3.42199993      -6.88895815E-11
  -3.42100000      -7.15095969E-11
  -3.42000008      -7.41488954E-11
  -3.41899991      -7.68063599E-11
  -3.41799998      -7.94808386E-11
  -3.41700006      -8.21711379E-11
  -3.41599989      -8.48760506E-11
  -3.41499996      -8.75943207E-11
  -3.41400003      -9.03246644E-11
  -3.41300011      -9.30657634E-11
  -3.41199994      -9.58162785E-11
  -3.41100001      -9.85748289E-11
  -3.41000009      -1.01339992E-10
  -3.40899992      -1.04110331E-10
  -3.40799999      -1.06884376E-10
  -3.40700006      -1.09660607E-10
  -3.40599990      -1.12437497E-10
  -3.40499997      -1.15213471E-10
  -3.40400004      -1.17986926E-10
  -3.40300012      -1.20756252E-10
  -3.40199995      -1.23519778E-10
  -3.40100002      -1.26275809E-10
  -3.40000010      -1.29022626E-10
  -3.39899993      -1.31758507E-10
  -3.39800000      -1.34481676E-10
  -3.39700007      -1.37190315E-10
  -3.39599991      -1.39882605E-10
  -3.39499998      -1.42556689E-10
  -3.39400005      -1.45210705E-10
  -3.39299989      -1.47842738E-10
  -3.39199996      -1.50450860E-10
  -3.39100003      -1.53033114E-10
  -3.39000010      -1.55587529E-10
  -3.38899994      -1.58112121E-10
  -3.38800001      -1.60604849E-10
  -3.38700008      -1.63063701E-10
  -3.38599992      -1.65486597E-10
  -3.38499999      -1.67871467E-10
  -3.38400006      -1.70216202E-10
  -3.38299990      -1.72518708E-10
  -3.38199997      -1.74776846E-10
  -3.38100004      -1.76988466E-10
  -3.38000011      -1.79151416E-10
  -3.37899995      -1.81263518E-10
  -3.37800002      -1.83322579E-10
  -3.37700009      -1.85326393E-10
  -3.37599993      -1.87272753E-10
  -3.37500000      -1.89159438E-10
  -3.37400007      -1.90984228E-10
  -3.37299991      -1.92744876E-10
  -3.37199998      -1.94439145E-10
  -3.37100005      -1.96064776E-10
  -3.36999989      -1.97619532E-10
  -3.36899996      -1.99101152E-10
  -3.36800003      -2.00507375E-10
  -3.36700010      -2.01835937E-10
  -3.36599994      -2.03084591E-10
  -3.36500001      -2.04251074E-10
  -3.36400008      -2.05333126E-10
  -3.36299992      -2.06328510E-10
  -3.36199999      -2.07234993E-10
  -3.36100006      -2.08050313E-10
  -3.35999990      -2.08772263E-10
  -3.35899997      -2.09398623E-10
  -3.35800004      -2.09927187E-10
  -3.35700011      -2.10355761E-10
  -3.35599995      -2.10682166E-10
  -3.35500002      -2.10904239E-10
  -3.35400009      -2.11019840E-10
  -3.35299993      -2.11026835E-10
  -3.35200000      -2.10923112E-10
  -3.35100007      -2.10706591E-10
  -3.34999990      -2.10375217E-10
  -3.34899998      -2.09926937E-10
  -3.34800005      -2.09359752E-10
  -3.34699988      -2.08671663E-10
  -3.34599996      -2.07860729E-10
  -3.34500003      -2.06925005E-10
  -3.34400010      -2.05862619E-10
  -3.34299994      -2.04671710E-10
  -3.34200001      -2.03350461E-10
  -3.34100008      -2.01897055E-10
  -3.33999991      -2.00309769E-10
  -3.33899999      -1.98586897E-10
  -3.33800006      -1.96726760E-10
  -3.33699989      -1.94727734E-10
  -3.33599997      -1.92588251E-10
  -3.33500004      -1.90306770E-10
  -3.33400011      -1.87881821E-10
  -3.33299994      -1.85311960E-10
  -3.33200002      -1.82595813E-10
  -3.33100009      -1.79732049E-10
  -3.32999992      -1.76719403E-10
  -3.32900000      -1.73556641E-10
  -3.32800007      -1.70242598E-10
  -3.32699990      -1.66776190E-10
  -3.32599998      -1.63156363E-10
  -3.32500005      -1.59382132E-10
  -3.32399988      -1.55452595E-10
  -3.32299995      -1.51366919E-10
  -3.32200003      -1.47124299E-10
  -3.32100010      -1.42724027E-10
  -3.31999993      -1.38165465E-10
  -3.31900001      -1.33448030E-10
  -3.31800008      -1.28571223E-10
  -3.31699991      -1.23534641E-10
  -3.31599998      -1.18337909E-10
  -3.31500006      -1.12980764E-10
  -3.31399989      -1.07463011E-10
  -3.31299996      -1.01784539E-10
  -3.31200004      -9.59453211E-11
  -3.31100011      -8.99453914E-11
  -3.30999994      -8.37848957E-11
  -3.30900002      -7.74640491E-11
  -3.30800009      -7.09831638E-11
  -3.30699992      -6.43426215E-11
  -3.30599999      -5.75429079E-11
  -3.30500007      -5.05845955E-11
  -3.30399990      -4.34683470E-11
  -3.30299997      -3.61949186E-11
  -3.30200005      -2.87651552E-11
  -3.30100012      -2.11799987E-11
  -3.29999995      -1.34404883E-11
  -3.29900002      -5.54775583E-12
  -3.29800010       2.49696704E-12
  -3.29699993       1.06923524E-11
  -3.29600000       1.90369734E-11
  -3.29500008       2.75293035E-11
  -3.29399991       3.61677181E-11
  -3.29299998       4.49504878E-11
  -3.29200006       5.38757788E-11
  -3.29099989       6.29416658E-11
  -3.28999996       7.21461085E-11
  -3.28900003       8.14869699E-11
  -3.28800011       9.09620018E-11
  -3.28699994       1.00568866E-10
  -3.28600001       1.10305112E-10
  -3.28500009       1.20168167E-10
  -3.28399992       1.30155386E-10
  -3.28299999       1.40264009E-10
  -3.28200006       1.50491133E-10
  -3.28099990       1.60833805E-10
  -3.27999997       1.71288927E-10
  -3.27900004       1.81853296E-10
  -3.27800012       1.92523636E-10
  -3.27699995       2.03296532E-10
  -3.27600002       2.14168488E-10
  -3.27500010       2.25135868E-10
  -3.27399993       2.36194952E-10
  -3.27300000       2.47341925E-10
  -3.27200007       2.58572830E-10
  -3.27099991       2.69883699E-10
  -3.26999998       2.81270313E-10
  -3.26900005       2.92728480E-10
  -3.26799989       3.04253817E-10
  -3.26699996       3.15841908E-10
  -3.26600003       3.27488203E-10
  -3.26500010       3.39188067E-10
  -3.26399994       3.50936696E-10
  -3.26300001       3.62729291E-10
  -3.26200008       3.74560910E-10
  -3.26099992       3.86426474E-10
  -3.25999999       3.98320849E-10
  -3.25900006       4.10238843E-10
  -3.25799990       4.22175100E-10
  -3.25699997       4.34124237E-10
  -3.25600004       4.46080700E-10
  -3.25500011       4.58038940E-10
  -3.25399995       4.69993267E-10
  -3.25300002       4.81937878E-10
  -3.25200009       4.93866947E-10
  -3.25099993       5.05774478E-10
  -3.25000000       5.17654530E-10
  -3.24900007       5.29500999E-10
  -3.24799991       5.41307721E-10
  -3.24699998       5.53068424E-10
  -3.24600005       5.64776781E-10
  -3.24499989       5.76426407E-10
  -3.24399996       5.88010862E-10
  -3.24300003       5.99523597E-10
  -3.24200010       6.10958062E-10
  -3.24099994       6.22307539E-10
  -3.24000001       6.33565311E-10
  -3.23900008       6.44724663E-10
  -3.23799992       6.55778765E-10
  -3.23699999       6.66720734E-10
  -3.23600006       6.77543688E-10
  -3.23499990       6.88240631E-10
  -3.23399997       6.98804514E-10
  -3.23300004       7.09228287E-10
  -3.23200011       7.19504900E-10
  -3.23099995       7.29627192E-10
  -3.23000002       7.39588057E-10
  -3.22900009       7.49380225E-10
  -3.22799993       7.58996532E-10
  -3.22700000       7.68429764E-10
  -3.22600007       7.77672593E-10
  -3.22499990       7.86717802E-10
  -3.22399998       7.95558119E-10
  -3.22300005       8.04186273E-10
  -3.22199988       8.12594880E-10
  -3.22099996       8.20776669E-10
  -3.22000003       8.28724367E-10
  -3.21900010       8.36430702E-10
  -3.21799994       8.43888348E-10
  -3.21700001       8.51090087E-10
  -3.21600008       8.58028537E-10
  -3.21499991       8.64696592E-10
  -3.21399999       8.71086980E-10
  -3.21300006       8.77192485E-10
  -3.21199989       8.83006002E-10
  -3.21099997       8.88520424E-10
  -3.21000004       8.93728647E-10
  -3.20900011       8.98623620E-10
  -3.20799994       9.03198349E-10
  -3.20700002       9.07445896E-10
  -3.20600009       9.11359377E-10
  -3.20499992       9.14931964E-10
  -3.20400000       9.18156939E-10
  -3.20300007       9.21027477E-10
  -3.20199990       9.23537080E-10
  -3.20099998       9.25679200E-10
  -3.20000005       9.27447286E-10
  -3.19899988       9.28835009E-10
  -3.19799995       9.29836041E-10
  -3.19700003       9.30444166E-10
  -3.19600010       9.30653277E-10
  -3.19499993       9.30457378E-10
  -3.19400001       9.29850585E-10
  -3.19300008       9.28827126E-10
  -3.19199991       9.27381227E-10
  -3.19099998       9.25507393E-10
  -3.19000006       9.23200127E-10
  -3.18899989       9.20454157E-10
  -3.18799996       9.17264320E-10
  -3.18700004       9.13625509E-10
  -3.18600011       9.09532838E-10
  -3.18499994       9.04981534E-10
  -3.18400002       8.99966934E-10
  -3.18300009       8.94484598E-10
  -3.18199992       8.88530194E-10
  -3.18099999       8.82099505E-10
  -3.18000007       8.75188588E-10
  -3.17899990       8.67793615E-10
  -3.17799997       8.59910920E-10
  -3.17700005       8.51537063E-10
  -3.17600012       8.42668657E-10
  -3.17499995       8.33302594E-10
  -3.17400002       8.23435931E-10
  -3.17300010       8.13065892E-10
  -3.17199993       8.02189926E-10
  -3.17100000       7.90805754E-10
  -3.17000008       7.78911102E-10
  -3.16899991       7.66504082E-10
  -3.16799998       7.53582918E-10
  -3.16700006       7.40146056E-10
  -3.16599989       7.26192217E-10
  -3.16499996       7.11720294E-10
  -3.16400003       6.96729341E-10
  -3.16300011       6.81218748E-10
  -3.16199994       6.65188127E-10
  -3.16100001       6.48637200E-10
  -3.16000009       6.31566022E-10
  -3.15899992       6.13974815E-10
  -3.15799999       5.95864191E-10
  -3.15700006       5.77234816E-10
  -3.15599990       5.58087687E-10
  -3.15499997       5.38424083E-10
  -3.15400004       5.18245391E-10
  -3.15300012       4.97553443E-10
  -3.15199995       4.76350237E-10
  -3.15100002       4.54637966E-10
  -3.15000010       4.32419128E-10
  -3.14899993       4.09696527E-10
  -3.14800000       3.86473159E-10
  -3.14700007       3.62752356E-10
  -3.14599991       3.38537642E-10
  -3.14499998       3.13832821E-10
  -3.14400005       2.88641999E-10