  -4.00000000       0.00000000    
  -3.99900007       0.00000000    
  -3.99799991       0.00000000    
  -3.99699998       0.00000000    
  -3.99600005       0.00000000    
  -3.99499989       1.23285678E-30
  -3.99399996       1.35641591E-29
  -3.99300003       8.13972745E-29
  -3.99200010       3.52757373E-28
  -3.99099994       1.23471388E-27
  -3.99000001       3.70414568E-27
  -3.98900008       9.87723649E-27
  -3.98799992       2.39851926E-26
  -3.98699999       5.39586159E-26
  -3.98600006       1.13889907E-25
  -3.98499990       2.27722943E-25
  -3.98399997       4.34613449E-25
  -3.98300004       7.96512412E-25
  -3.98200011       1.40865038E-24
  -3.98099995       2.41374161E-24
  -3.98000002       4.02088911E-24
  -3.97900009       6.53034677E-24
  -3.97799993       1.03654950E-23
  -3.97700000       1.61136057E-23
  -3.97600007       2.45772013E-23
  -3.97499990       3.68380972E-23
  -3.97399998       5.43364489E-23
  -3.97300005       7.89675073E-23
  -3.97199988       1.13198978E-22
  -3.97099996       1.60212475E-22
  -3.97000003       2.24072545E-22
  -3.96900010       3.09927546E-22
  -3.96799994       4.24246921E-22
  -3.96700001       5.75099340E-22
  -3.96600008       7.72478195E-22
  -3.96499991       1.02867876E-21
  -3.96399999       1.35873534E-21
  -3.96300006       1.78092309E-21
  -3.96199989       2.31733437E-21
  -3.96099997       2.99453599E-21
  -3.96000004       3.84431624E-21
  -3.95900011       4.90453197E-21
  -3.95799994       6.22006378E-21
  -3.95700002       7.84389202E-21
  -3.95600009       9.83830284E-21
  -3.95499992       1.22762376E-20
  -3.95400000       1.52427948E-20
  -3.95300007       1.88369059E-20
  -3.95199990       2.31731886E-20
  -3.95099998       2.83840016E-20
  -3.95000005       3.46216995E-20
  -3.94899988       4.20611389E-20
  -3.94799995       5.09024040E-20
  -3.94700003       6.13738223E-20
  -3.94600010       7.37352288E-20
  -3.94499993       8.82815488E-20
  -3.94400001       1.05346724E-19
  -3.94300008       1.25307924E-19
  -3.94199991       1.48590176E-19
  -3.94099998       1.75671332E-19
  -3.94000006       2.07087458E-19
  -3.93899989       2.43438686E-19
  -3.93799996       2.85395458E-19
  -3.93700004       3.33705287E-19
  -3.93600011       3.89200007E-19
  -3.93499994       4.52803579E-19
  -3.93400002       5.25540362E-19
  -3.93300009       6.08544110E-19
  -3.93199992       7.03067538E-19
  -3.93099999       8.10492295E-19
  -3.93000007       9.32339980E-19
  -3.92899990       1.07028362E-18
  -3.92799997       1.22615970E-18
  -3.92700005       1.40198160E-18
  -3.92600012       1.59995280E-18
  -3.92499995       1.82248176E-18
  -3.92400002       2.07219786E-18
  -3.92300010       2.35196627E-18
  -3.92199993       2.66490669E-18
  -3.92100000       3.01441055E-18
  -3.92000008       3.40416007E-18
  -3.91899991       3.83814865E-18
  -3.91799998       4.32070183E-18
  -3.91700006       4.85649897E-18
  -3.91599989       5.45059787E-18
  -3.91499996       6.10845668E-18
  -3.91400003       6.83596079E-18
  -3.91300011       7.63944971E-18
  -3.91199994       8.52574396E-18
  -3.91100001       9.50217359E-18
  -3.91000009       1.05766092E-17
  -3.90899992       1.17574931E-17
  -3.90799999       1.30538721E-17
  -3.90700006       1.44754308E-17
  -3.90599990       1.60325271E-17
  -3.90499997       1.77362280E-17
  -3.90400004       1.95983489E-17
  -3.90300012       2.16314910E-17
  -3.90199995       2.38490861E-17
  -3.90100002       2.62654329E-17
  -3.90000010       2.88957415E-17
  -3.89899993       3.17561850E-17
  -3.89800000       3.48639357E-17
  -3.89700007       3.82372146E-17
  -3.89599991       4.18953481E-17
  -3.89499998       4.58588104E-17
  -3.89400005       5.01492739E-17
  -3.89299989       5.47896678E-17
  -3.89199996       5.98042385E-17
  -3.89100003       6.52185789E-17
  -3.89000010       7.10597248E-17
  -3.88899994       7.73561773E-17
  -3.88800001       8.41379796E-17
  -3.88700008       9.14367831E-17
  -3.88599992       9.92858934E-17
  -3.88499999       1.07720343E-16
  -3.88400006       1.16776965E-16
  -3.88299990       1.26494431E-16
  -3.88199997       1.36913347E-16
  -3.88100004       1.48076301E-16
  -3.88000011       1.60027949E-16
  -3.87899995       1.72815077E-16
  -3.87800002       1.86486665E-16
  -3.87700009       2.01093960E-16
  -3.87599993       2.16690536E-16
  -3.87500000       2.33332404E-16
  -3.87400007       2.51078089E-16
  -3.87299991       2.69988602E-16
  -3.87199998       2.90127657E-16
  -3.87100005       3.11561641E-16
  -3.86999989       3.34359718E-16
  -3.86899996       3.58593966E-16
  -3.86800003       3.84339320E-16
  -3.86700010       4.11673788E-16
  -3.86599994       4.40678446E-16
  -3.86500001       4.71437468E-16
  -3.86400008       5.04038337E-16
  -3.86299992       5.38571818E-16
  -3.86199999       5.75131983E-16
  -3.86100006       6.13816401E-16
  -3.85999990       6.54726240E-16
  -3.85899997       6.97966160E-16
  -3.85800004       7.43644423E-16
  -3.85700011       7.91873156E-16
  -3.85599995       8.42768189E-16
  -3.85500002       8.96449167E-16
  -3.85400009       9.53039756E-16
  -3.85299993       1.01266759E-15
  -3.85200000       1.07546418E-15
  -3.85100007       1.14156536E-15
  -3.84999990       1.21111079E-15
  -3.84899998       1.28424467E-15
  -3.84800005       1.36111524E-15
  -3.84699988       1.44187496E-15
  -3.84599996       1.52668075E-15
  -3.84500003       1.61569375E-15
  -3.84400010       1.70907955E-15
  -3.84299994       1.80700842E-15
  -3.84200001       1.90965463E-15
  -3.84100008       2.01719711E-15
  -3.83999991       2.12981945E-15
  -3.83899999       2.24770950E-15
  -3.83800006       2.37105952E-15
  -3.83699989       2.50006666E-15
  -3.83599997       2.63493252E-15
  -3.83500004       2.77586271E-15
  -3.83400011       2.92306793E-15
  -3.83299994       3.07676311E-15
  -3.83200002       3.23716722E-15
  -3.83100009       3.40450430E-15
  -3.82999992       3.57900219E-15
  -3.82900000       3.76089362E-15
  -3.82800007       3.95041513E-15
  -3.82699990       4.14780726E-15
  -3.82599998       4.35331567E-15
  -3.82500005       4.56718895E-15
  -3.82399988       4.78967994E-15
  -3.82299995       5.02104614E-15
  -3.82200003       5.26154844E-15
  -3.82100010       5.51145069E-15
  -3.81999993       5.77102097E-15
  -3.81900001       6.04053118E-15
  -3.81800008       6.32025577E-15
  -3.81699991       6.61047255E-15
  -3.81599998       6.91146317E-15
  -3.81500006       7.22351053E-15
  -3.81399989       7.54690178E-15
  -3.81299996       7.88192618E-15
  -3.81200004       8.22887511E-15
  -3.81100011       8.58804164E-15
  -3.80999994       8.95972224E-15
  -3.80900002       9.34421252E-15
  -3.80800009       9.74181232E-15
  -3.80699992       1.01528207E-14
  -3.80599999       1.05775391E-14
  -3.80500007       1.10162691E-14
  -3.80399990       1.14693123E-14
  -3.80299997       1.19369719E-14
  -3.80200005       1.24195494E-14
  -3.80100012       1.29173465E-14
  -3.79999995       1.34306645E-14
  -3.79900002       1.39598035E-14
  -3.79800010       1.45050614E-14
  -3.79699993       1.50667358E-14
  -3.79600000       1.56451204E-14
  -3.79500008       1.62405083E-14
  -3.79399991       1.68531892E-14
  -3.79299998       1.74834495E-14
  -3.79200006       1.81315720E-14
  -3.79099989       1.87978346E-14
  -3.78999996       1.94825116E-14
  -3.78900003       2.01858743E-14
  -3.78800011       2.09081867E-14
  -3.78699994       2.16497047E-14
  -3.78600001       2.24106825E-14
  -3.78500009       2.31913657E-14
  -3.78399992       2.39919914E-14
  -3.78299999       2.48127917E-14
  -3.78200006       2.56539886E-14
  -3.78099990       2.65157972E-14
  -3.77999997       2.73984242E-14
  -3.77900004       2.83020626E-14
  -3.77800012       2.92268990E-14
  -3.77699995       3.01731059E-14
  -3.77600002       3.11408478E-14
  -3.77500010       3.21302772E-14
  -3.77399993       3.31415329E-14
  -3.77300000       3.41747437E-14
  -3.77200007       3.52300180E-14
  -3.77099991       3.63074608E-14
  -3.76999998       3.74071501E-14
  -3.76900005       3.85291605E-14
  -3.76799989       3.96735460E-14
  -3.76699996       4.08403373E-14
  -3.76600003       4.20295614E-14
  -3.76500010       4.32412217E-14
  -3.76399994       4.44752979E-14
  -3.76300001       4.57317594E-14
  -3.76200008       4.70105556E-14
  -3.76099992       4.83116117E-14
  -3.75999999       4.96348331E-14
  -3.75900006       5.09801043E-14
  -3.75799990       5.23472934E-14
  -3.75699997       5.37362445E-14
  -3.75600004       5.51467712E-14
  -3.75500011       5.65786736E-14
  -3.75399995       5.80317248E-14
  -3.75300002       5.95056705E-14
  -3.75200009       6.10002297E-14
  -3.75099993       6.25151108E-14
  -3.75000000       6.40499820E-14
  -3.74900007       6.56044839E-14
  -3.74799991       6.71782305E-14
  -3.74699998       6.87708151E-14
  -3.74600005       7.03818040E-14
  -3.74499989       7.20107229E-14
  -3.74399996       7.36570839E-14
  -3.74300003       7.53203584E-14
  -3.74200010       7.69999909E-14
  -3.74099994       7.86953985E-14
  -3.74000001       8.04059578E-14
  -3.73900008       8.21310251E-14
  -3.73799992       8.38699159E-14
  -3.73699999       8.56219324E-14
  -3.73600006       8.73863156E-14
  -3.73499990       8.91622998E-14
  -3.73399997       9.09490717E-14
  -3.73300004       9.27457845E-14
  -3.73200011       9.45515638E-14
  -3.73099995       9.63655018E-14
  -3.73000002       9.81866566E-14
  -3.72900009       1.00014045E-13
  -3.72799993       1.01846666E-13
  -3.72700000       1.03683460E-13
  -3.72600007       1.05523358E-13
  -3.72499990       1.07365234E-13
  -3.72399998       1.09207944E-13
  -3.72300005       1.11050302E-13
  -3.72199988       1.12891088E-13
  -3.72099996       1.14729054E-13
  -3.72000003       1.16562901E-13
  -3.71900010       1.18391326E-13
  -3.71799994       1.20212949E-13
  -3.71700001       1.22026399E-13
  -3.71600008       1.23830240E-13
  -3.71499991       1.25623023E-13
  -3.71399999       1.27403256E-13
  -3.71300006       1.29169407E-13
  -3.71199989       1.30919920E-13
  -3.71099997       1.32653234E-13
  -3.71000004       1.34367696E-13
  -3.70900011       1.36061681E-13
  -3.70799994       1.37733493E-13
  -3.70700002       1.39381426E-13
  -3.70600009       1.41003745E-13
  -3.70499992       1.42598688E-13
  -3.70400000       1.44164438E-13
  -3.70300007       1.45699194E-13
  -3.70199990       1.47201099E-13
  -3.70099998       1.48668282E-13
  -3.70000005       1.50098846E-13
  -3.69899988       1.51490853E-13
  -3.69799995       1.52842379E-13
  -3.69700003       1.54151445E-13
  -3.69600010       1.55416058E-13
  -3.69499993       1.56634227E-13
  -3.69400001       1.57803932E-13
  -3.69300008       1.58923113E-13
  -3.69199991       1.59989738E-13
  -3.69099998       1.61001719E-13
  -3.69000006       1.61956969E-13
  -3.68899989       1.62853400E-13
  -3.68799996       1.63688914E-13
  -3.68700004       1.64461381E-13
  -3.68600011       1.65168687E-13
  -3.68499994       1.65808719E-13
  -3.68400002       1.66379334E-13
  -3.68300009       1.66878393E-13
  -3.68199992       1.67303779E-13
  -3.68099999       1.67653353E-13
  -3.68000007       1.67924973E-13
  -3.67899990       1.68116538E-13
  -3.67799997       1.68225920E-13
  -3.67700005       1.68251006E-13
  -3.67600012       1.68189708E-13
  -3.67499995       1.68039939E-13
  -3.67400002       1.67799626E-13
  -3.67300010       1.67466721E-13
  -3.67199993       1.67039180E-13
  -3.67100000       1.66515009E-13
  -3.67000008       1.65892189E-13
  -3.66899991       1.65168782E-13
  -3.66799998       1.64342837E-13
  -3.66700006       1.63412456E-13
  -3.66599989       1.62375755E-13
  -3.66499996       1.61230905E-13
  -3.66400003       1.59976091E-13
  -3.66300011       1.58609562E-13
  -3.66199994       1.57129585E-13
  -3.66100001       1.55534494E-13
  -3.66000009       1.53822647E-13
  -3.65899992       1.51992459E-13
  -3.65799999       1.50042413E-13
  -3.65700006       1.47971018E-13
  -3.65599990       1.45776864E-13
  -3.65499997       1.43458596E-13
  -3.65400004       1.41014899E-13
  -3.65300012       1.38444540E-13
  -3.65199995       1.35746354E-13
  -3.65100002       1.32919229E-13
  -3.65000010       1.29962135E-13
  -3.64899993       1.26874124E-13
  -3.64800000       1.23654328E-13
  -3.64700007       1.20301921E-13
  -3.64599991       1.16816198E-13
  -3.64499998       1.13196521E-13
  -3.64400005       1.09442342E-13
  -3.64299989       1.05553207E-13
  -3.64199996       1.01528737E-13
  -3.64100003       9.73686599E-14
  -3.64000010       9.30727934E-14
  -3.63899994       8.86410560E-14
  -3.63800001       8.40734681E-14
  -3.63700008       7.93701449E-14
  -3.63599992       7.45313167E-14
  -3.63499999       6.95573156E-14
  -3.63400006       6.44485889E-14
  -3.63299990       5.92056718E-14
  -3.63199997       5.38292487E-14
  -3.63100004       4.83200922E-14
  -3.63000011       4.26791069E-14
  -3.62899995       3.69073058E-14
  -3.62800002       3.10058274E-14
  -3.62700009       2.49759337E-14
  -3.62599993       1.88190104E-14
  -3.62500000       1.25365670E-14
  -3.62400007       6.13024298E-15
  -3.62299991      -3.98195800E-16
  -3.62199998      -7.04685122E-15
  -3.62100005      -1.38136954E-14
  -3.61999989      -2.06965674E-14
  -3.61899996      -2.76931713E-14
  -3.61800003      -3.48010771E-14
  -3.61700010      -4.20177233E-14
  -3.61599994      -4.93404010E-14
  -3.61500001      -5.67662745E-14
  -3.61400008      -6.42923689E-14
  -3.61299992      -7.19155638E-14
  -3.61199999      -7.96326099E-14
  -3.61100006      -8.74401056E-14
  -3.60999990      -9.53345272E-14
  -3.60899997      -1.03312195E-13
  -3.60800004      -1.11369295E-13
  -3.60700011      -1.19501875E-13
  -3.60599995      -1.27705856E-13
  -3.60500002      -1.35977004E-13
  -3.60400009      -1.44310941E-13
  -3.60299993      -1.52703181E-13
  -3.60200000      -1.61149062E-13
  -3.60100007      -1.69643813E-13
  -3.59999990      -1.78182528E-13
  -3.59899998      -1.86760153E-13
  -3.59800005      -1.95371524E-13
  -3.59699988      -2.04011314E-13
  -3.59599996      -2.12674089E-13
  -3.59500003      -2.21354293E-13
  -3.59400010      -2.30046207E-13
  -3.59299994      -2.38744056E-13
  -3.59200001      -2.47441905E-13
  -3.59100008      -2.56133656E-13
  -3.58999991      -2.64813155E-13
  -3.58899999      -2.73474114E-13
  -3.58800006      -2.82110164E-13
  -3.58699989      -2.90714772E-13
  -3.58599997      -2.99281325E-13
  -3.58500004      -3.07803127E-13
  -3.58400011      -3.16273375E-13
  -3.58299994      -3.24685157E-13
  -3.58200002      -3.33031454E-13
  -3.58100009      -3.41305218E-13
  -3.57999992      -3.49499292E-13
  -3.57900000      -3.57606387E-13
  -3.57800007      -3.65619210E-13
  -3.57699990      -3.73530335E-13
  -3.57599998      -3.81332336E-13
  -3.57500005      -3.89017675E-13
  -3.57399988      -3.96578820E-13
  -3.57299995      -4.04008126E-13
  -3.57200003      -4.11297895E-13
  -3.57100010      -4.18440429E-13
  -3.56999993      -4.25428003E-13
  -3.56900001      -4.32252839E-13
  -3.56800008      -4.38907103E-13
  -3.56699991      -4.45383015E-13
  -3.56599998      -4.51672716E-13
  -3.56500006      -4.57768372E-13
  -3.56399989      -4.63662203E-13
  -3.56299996      -4.69346350E-13
  -3.56200004      -4.74813006E-13
  -3.56100011      -4.80054364E-13
  -3.55999994      -4.85062619E-13
  -3.55900002      -4.89830127E-13
  -3.55800009      -4.94349136E-13
  -3.55699992      -4.98612057E-13
  -3.55599999      -5.02611299E-13
  -3.55500007      -5.06339274E-13
  -3.55399990      -5.09788609E-13
  -3.55299997      -5.12951931E-13
  -3.55200005      -5.15821869E-13
  -3.55100012      -5.18391265E-13
  -3.54999995      -5.20653074E-13
  -3.54900002      -5.22600246E-13
  -3.54800010      -5.24225953E-13
  -3.54699993      -5.25523418E-13
  -3.54600000      -5.26486081E-13
  -3.54500008      -5.27107383E-13
  -3.54399991      -5.27381090E-13
  -3.54299998      -5.27300968E-13
  -3.54200006      -5.26860998E-13
  -3.54099989      -5.26055382E-13
  -3.53999996      -5.24878426E-13
  -3.53900003      -5.23324765E-13
  -3.53800011      -5.21389030E-13
  -3.53699994      -5.19066235E-13
  -3.53600001      -5.16351501E-13
  -3.53500009      -5.13240167E-13
  -3.53399992      -5.09727894E-13
  -3.53299999      -5.05810508E-13
  -3.53200006      -5.01484054E-13
  -3.53099990      -4.96744952E-13
  -3.52999997      -4.91589733E-13
  -3.52900004      -4.86015254E-13
  -3.52800012      -4.80018748E-13
  -3.52699995      -4.73597561E-13
  -3.52600002      -4.66749469E-13
  -3.52500010      -4.59472467E-13
  -3.52399993      -4.51764900E-13
  -3.52300000      -4.43625415E-13
  -3.52200007      -4.35052981E-13
  -3.52099991      -4.26046866E-13
  -3.51999998      -4.16606718E-13
  -3.51900005      -4.06732536E-13
  -3.51799989      -3.96424592E-13
  -3.51699996      -3.85683564E-13
  -3.51600003      -3.74510508E-13
  -3.51500010      -3.62906807E-13
  -3.51399994      -3.50874278E-13
  -3.51300001      -3.38415033E-13
  -3.51200008      -3.25531594E-13
  -3.51099992      -3.12226915E-13
  -3.50999999      -2.98504331E-13
  -3.50900006      -2.84367527E-13
  -3.50799990      -2.69820651E-13
  -3.50699997      -2.54868229E-13
  -3.50600004      -2.39515168E-13
  -3.50500011      -2.23766847E-13
  -3.50399995      -2.07629026E-13
  -3.50300002      -1.91107926E-13
  -3.50200009      -1.74210147E-13
  -3.50099993      -1.56942737E-13
  -3.50000000      -1.39313176E-13
  -3.49900007      -1.21329352E-13
  -3.49799991      -1.02999613E-13
  -3.49699998      -8.43327212E-14
  -3.49600005      -6.53378854E-14
  -3.49499989      -4.60247515E-14
  -3.49399996      -2.64033841E-14
  -3.49300003      -6.48429471E-15
  -3.49200010       1.37215755E-14
  -3.49099994       3.42028516E-14
  -3.49000001       5.49477252E-14
  -3.48900008       7.59439576E-14
  -3.48799992       9.71788906E-14
  -3.48699999       1.18639419E-13
  -3.48600006       1.40312051E-13
  -3.48499990       1.62182849E-13
  -3.48399997       1.84237472E-13
  -3.48300004       2.06461150E-13
  -3.48200011       2.28838731E-13
  -3.48099995       2.51354655E-13
  -3.48000002       2.73992959E-13
  -3.47900009       2.96737298E-13
  -3.47799993       3.19570921E-13
  -3.47700000       3.42476752E-13
  -3.47600007       3.65437335E-13
  -3.47499990       3.88434808E-13
  -3.47399998       4.11450984E-13
  -3.47300005       4.34467322E-13
  -3.47199988       4.57465012E-13
  -3.47099996       4.80424836E-13
  -3.47000003       5.03327252E-13
  -3.46900010       5.26152472E-13
  -3.46799994       5.48880440E-13
  -3.46700001       5.71490771E-13
  -3.46600008       5.93962759E-13
  -3.46499991       6.16275585E-13
  -3.46399999       6.38408055E-13
  -3.46300006       6.60338754E-13
  -3.46199989       6.82046162E-13
  -3.46099997       7.03508432E-13
  -3.46000004       7.24703609E-13
  -3.45900011       7.45609520E-13
  -3.45799994       7.66203886E-13
  -3.45700002       7.86464264E-13
  -3.45600009       8.06368102E-13
  -3.45499992       8.25892685E-13
  -3.45400000       8.45015247E-13
  -3.45300007       8.63713018E-13
  -3.45199990       8.81963014E-13
  -3.45099998       8.99742412E-13
  -3.45000005       9.17028281E-13
  -3.44899988       9.33797636E-13
  -3.44799995       9.50027492E-13
  -3.44700003       9.65695189E-13
  -3.44600010       9.80777850E-13
  -3.44499993       9.95252708E-13
  -3.44400001       1.00909732E-12
  -3.44300008       1.02228924E-12
  -3.44199991       1.03480603E-12
  -3.44099998       1.04662557E-12
  -3.44000006       1.05772606E-12
  -3.43899989       1.06808562E-12
  -3.43799996       1.07768297E-12
  -3.43700004       1.08649678E-12
  -3.43600011       1.09450610E-12
  -3.43499994       1.10169046E-12
  -3.43400002       1.10802968E-12
  -3.43300009       1.11350371E-12
  -3.43199992       1.11809325E-12
  -3.43099999       1.12177921E-12
  -3.43000007       1.12454284E-12
  -3.42899990       1.12636604E-12
  -3.42799997       1.12723101E-12
  -3.42700005       1.12712075E-12
  -3.42600012       1.12601866E-12
  -3.42499995       1.12390869E-12
  -3.42400002       1.12077535E-12
  -3.42300010       1.11660377E-12
  -3.42199993       1.11137987E-12
  -3.42100000       1.10508998E-12
  -3.42000008       1.09772131E-12
  -3.41899991       1.08926193E-12
  -3.41799998       1.07970035E-12
  -3.41700006       1.06902594E-12
  -3.41599989       1.05722907E-12
  -3.41499996       1.04430082E-12
  -3.41400003       1.03023308E-12
  -3.41300011       1.01501847E-12
  -3.41199994       9.98650706E-13
  -3.41100001       9.81124470E-13
  -3.41000009       9.62435318E-13
  -3.40899992       9.42579782E-13
  -3.40799999       9.21555258E-13
  -3.40700006       8.99360447E-13
  -3.40599990       8.75994806E-13
  -3.40499997       8.51459040E-13
  -3.40400004       8.25754883E-13
  -3.40300012       7.98885209E-13
  -3.40199995       7.70853975E-13
  -3.40100002       7.41666331E-13
  -3.40000010       7.11328565E-13
  -3.39899993       6.79848159E-13
  -3.39800000       6.47233840E-13
  -3.39700007       6.13495528E-13
  -3.39599991       5.78644446E-13
  -3.39499998       5.42693061E-13
  -3.39400005       5.05655142E-13
  -3.39299989       4.67545707E-13
  -3.39199996       4.28381126E-13
  -3.39100003       3.88179099E-13
  -3.39000010       3.46958681E-13
  -3.38899994       3.04740255E-13
  -3.38800001       2.61545614E-13
  -3.38700008       2.17397918E-13
  -3.38599992       1.72321711E-13
  -3.38499999       1.26342974E-13
  -3.38400006       7.94890887E-14
  -3.38299990       3.17888348E-14
  -3.38199997      -1.67275522E-14
  -3.38100004      -6.60284070E-14
  -3.38000011      -1.16080621E-13
  -3.37899995      -1.66849661E-13
  -3.37800002      -2.18299486E-13
  -3.37700009      -2.70392676E-13
  -3.37599993      -3.23090296E-13
  -3.37500000      -3.76352026E-13
  -3.37400007      -4.30136016E-13
  -3.37299991      -4.84399033E-13
  -3.37199998      -5.39096328E-13
  -3.37100005      -5.94181768E-13
  -3.36999989      -6.49607809E-13
  -3.36899996      -7.05325392E-13
  -3.36800003      -7.61284102E-13
  -3.36700010      -8.17432114E-13
  -3.36599994      -8.73716193E-13
  -3.36500001      -9.30081641E-13
  -3.36400008      -9.86472514E-13
  -3.36299992      -1.04283151E-12
  -3.36199999      -1.09909976E-12
  -3.36100006      -1.15521731E-12
  -3.35999990      -1.21112278E-12
  -3.35899997      -1.26675363E-12
  -3.35800004      -1.32204599E-12
  -3.35700011      -1.37693459E-12
  -3.35599995      -1.43135308E-12
  -3.35500002      -1.48523403E-12
  -3.35400009      -1.53850869E-12
  -3.35299993      -1.59110724E-12
  -3.35200000      -1.64295866E-12
  -3.35100007      -1.69399087E-12
  -3.34999990      -1.74413088E-12
  -3.34899998      -1.79330476E-12
  -3.34800005      -1.84143738E-12
  -3.34699988      -1.88845272E-12
  -3.34599996      -1.93427370E-12
  -3.34500003      -1.97882292E-12
  -3.34400010      -2.02202166E-12
  -3.34299994      -2.06379054E-12
  -3.34200001      -2.10404979E-12
  -3.34100008      -2.14271873E-12
  -3.33999991      -2.17971583E-12
  -3.33899999      -2.21495912E-12
  -3.33800006      -2.24836621E-12
  -3.33699989      -2.27985426E-12
  -3.33599997      -2.30934000E-12
  -3.33500004      -2.33673953E-12
  -3.33400011      -2.36196869E-12
  -3.33299994      -2.38494315E-12
  -3.33200002      -2.40557877E-12
  -3.33100009      -2.42379055E-12
  -3.32999992      -2.43949414E-12
  -3.32900000      -2.45260453E-12
  -3.32800007      -2.46303715E-12
  -3.32699990      -2.47070723E-12
  -3.32599998      -2.47553085E-12
  -3.32500005      -2.47742343E-12
  -3.32399988      -2.47630150E-12
  -3.32299995      -2.47208113E-12
  -3.32200003      -2.46467972E-12
  -3.32100010      -2.45401486E-12
  -3.31999993      -2.44000436E-12
  -3.31900001      -2.42256736E-12
  -3.31800008      -2.40162317E-12
  -3.31699991      -2.37709266E-12
  -3.31599998      -2.34889668E-12
  -3.31500006      -2.31695782E-12
  -3.31399989      -2.28119953E-12
  -3.31299996      -2.24154614E-12
  -3.31200004      -2.19792327E-12
  -3.31100011      -2.15025805E-12
  -3.30999994      -2.09847894E-12
  -3.30900002      -2.04251590E-12
  -3.30800009      -1.98230017E-12
  -3.30699992      -1.91776499E-12
  -3.30599999      -1.84884530E-12
  -3.30500007      -1.77547744E-12
  -3.30399990      -1.69759996E-12
  -3.30299997      -1.61515343E-12
  -3.30200005      -1.52808029E-12
  -3.30100012      -1.43632513E-12
  -3.29999995      -1.33983482E-12
  -3.29900002      -1.23855873E-12
  -3.29800010      -1.13244841E-12
  -3.29699993      -1.02145809E-12
  -3.29600000      -9.05544357E-13
  -3.29500008      -7.84666548E-13
  -3.29399991      -6.58786773E-13
  -3.29299998      -5.27869957E-13
  -3.29200006      -3.91883954E-13
  -3.29099989      -2.50799598E-13
  -3.28999996      -1.04590849E-13
  -3.28900003       4.67651803E-14
  -3.28800011       2.03288111E-13
  -3.28699994       3.64994222E-13
  -3.28600001       5.31896359E-13
  -3.28500009       7.04003912E-13
  -3.28399992       8.81322684E-13
  -3.28299999       1.06385473E-12
  -3.28200006       1.25159854E-12
  -3.28099990       1.44454847E-12
  -3.27999997       1.64269520E-12
  -3.27900004       1.84602550E-12
  -3.27800012       2.05452192E-12
  -3.27699995       2.26816309E-12
  -3.27600002       2.48692321E-12
  -3.27500010       2.71077214E-12
  -3.27399993       2.93967585E-12
  -3.27300000       3.17359572E-12
  -3.27200007       3.41248861E-12
  -3.27099991       3.65630659E-12
  -3.26999998       3.90499742E-12
  -3.26900005       4.15850470E-12
  -3.26799989       4.41676600E-12
  -3.26699996       4.67971538E-12
  -3.26600003       4.94728173E-12
  -3.26500010       5.21938872E-12
  -3.26399994       5.49595569E-12
  -3.26300001       5.77689632E-12
  -3.26200008       6.06211956E-12
  -3.26099992       6.35152955E-12
  -3.25999999       6.64502481E-12
  -3.25900006       6.94249996E-12
  -3.25799990       7.24384268E-12
  -3.25699997       7.54893630E-12
  -3.25600004       7.85765984E-12
  -3.25500011       8.16988577E-12
  -3.25399995       8.48548228E-12
  -3.25300002       8.80431058E-12
  -3.25200009       9.12622842E-12
  -3.25099993       9.45108661E-12
  -3.25000000       9.77873251E-12
  -3.24900007       1.01090065E-11
  -3.24799991       1.04417447E-11
  -3.24699998       1.07767779E-11
  -3.24600005       1.11139301E-11
  -3.24499989       1.14530217E-11
  -3.24399996       1.17938662E-11
  -3.24300003       1.21362729E-11
  -3.24200010       1.24800448E-11
  -3.24099994       1.28249815E-11
  -3.24000001       1.31708758E-11
  -3.23900008       1.35175161E-11
  -3.23799992       1.38646837E-11
  -3.23699999       1.42121566E-11
  -3.23600006       1.45597093E-11
  -3.23499990       1.49071051E-11
  -3.23399997       1.52541105E-11
  -3.23300004       1.56004810E-11
  -3.23200011       1.59459685E-11
  -3.23099995       1.62903215E-11
  -3.23000002       1.66332833E-11
  -3.22900009       1.69745901E-11
  -3.22799993       1.73139766E-11
  -3.22700000       1.76511705E-11
  -3.22600007       1.79858992E-11
  -3.22499990       1.83178802E-11
  -3.22399998       1.86468289E-11
  -3.22300005       1.89724573E-11
  -3.22199988       1.92944740E-11
  -3.22099996       1.96125807E-11
  -3.22000003       1.99264789E-11
  -3.21900010       2.02358616E-11
  -3.21799994       2.05404218E-11
  -3.21700001       2.08398472E-11
  -3.21600008       2.11338221E-11
  -3.21499991       2.14220308E-11
  -3.21399999       2.17041506E-11
  -3.21300006       2.19798554E-11
  -3.21199989       2.22488191E-11
  -3.21099997       2.25107120E-11
  -3.21000004       2.27651994E-11
  -3.20900011       2.30119465E-11
  -3.20799994       2.32506167E-11
  -3.20700002       2.34808700E-11
  -3.20600009       2.37023630E-11
  -3.20499992       2.39147539E-11
  -3.20400000       2.41176992E-11
  -3.20300007       2.43108502E-11
  -3.20199990       2.44938601E-11
  -3.20099998       2.46663783E-11
  -3.20000005       2.48280580E-11
  -3.19899988       2.49785487E-11
  -3.19799995       2.51174984E-11
  -3.19700003       2.52445547E-11
  -3.19600010       2.53593691E-11
  -3.19499993       2.54615894E-11
  -3.19400001       2.55508652E-11
  -3.19300008       2.56268479E-11
  -3.19199991       2.56891869E-11
  -3.19099998       2.57375336E-11
  -3.19000006       2.57715429E-11
  -3.18899989       2.57908694E-11
  -3.18799996       2.57951681E-11
  -3.18700004       2.57840971E-11
  -3.18600011       2.57573182E-11
  -3.18499994       2.57144948E-11
  -3.18400002       2.56552921E-11
  -3.18300009       2.55793772E-11
  -3.18199992       2.54864237E-11
  -3.18099999       2.53761057E-11
  -3.18000007       2.52481040E-11
  -3.17899990       2.51020992E-11
  -3.17799997       2.49377793E-11
  -3.17700005       2.47548353E-11
  -3.17600012       2.45529656E-11
  -3.17499995       2.43318681E-11
  -3.17400002       2.40912516E-11
  -3.17300010       2.38308279E-11
  -3.17199993       2.35503145E-11
  -3.17100000       2.32494354E-11
  -3.17000008       2.29279200E-11
  -3.16899991       2.25855064E-11
  -3.16799998       2.22219361E-11
  -3.16700006       2.18369628E-11
  -3.16599989       2.14303436E-11
  -3.16499996       2.10018426E-11
  -3.16400003       2.05512361E-11
  -3.16300011       2.00783053E-11
  -3.16199994       1.95828406E-11
  -3.16100001       1.90646422E-11
  -3.16000009       1.85235178E-11
  -3.15899992       1.79592868E-11
  -3.15799999       1.73717742E-11
  -3.15700006       1.67608184E-11
  -3.15599990       1.61262653E-11
  -3.15499997       1.54679741E-11
  -3.15400004       1.47858132E-11
  -3.15300012       1.40796602E-11
  -3.15199995       1.33494058E-11
  -3.15100002       1.25949529E-11
  -3.15000010       1.18162138E-11
  -3.14899993       1.10131140E-11
  -3.14800000       1.01855920E-11
  -3.14700007       9.33359726E-12
  -3.14599991       8.45709267E-12
  -3.14499998       7.55605387E-12
  -3.14400005       6.63046831E-12