  -4.00000000       0.00000000    
  -3.99900007       0.00000000    
  -3.99799991       0.00000000    
  -3.99699998       0.00000000    
  -3.99600005       1.86127478E-26
  -3.99499989       1.67614503E-25
  -3.99399996       8.38568017E-25
  -3.99300003       3.07655477E-24
  -3.99200010       9.23504631E-24
  -3.99099994       2.40250287E-23
  -3.99000001       5.60906357E-23
  -3.98900008       1.20262829E-22
  -3.98799992       2.40661949E-22
  -3.98699999       4.54839376E-22
  -3.98600006       8.19167856E-22
  -3.98499990       1.41570992E-21
  -3.98399997       2.36081285E-21
  -3.98300004       3.81569894E-21
  -3.98200011       5.99933863E-21
  -3.98099995       9.20391428E-21
  -3.98000002       1.38132038E-20
  -3.97900009       2.03242235E-20
  -3.97799993       2.93725179E-20
  -3.97700000       4.17614443E-20
  -3.97600007       5.84959123E-20
  -3.97499990       8.08209613E-20
  -3.97399998       1.10265605E-19
  -3.97300005       1.48692501E-19
  -3.97199988       1.98353827E-19
  -3.97099996       2.61953883E-19
  -3.97000003       3.42719074E-19
  -3.96900010       4.44475524E-19
  -3.96799994       5.71735297E-19
  -3.96700001       7.29791469E-19
  -3.96600008       9.24822666E-19
  -3.96499991       1.16400794E-18
  -3.96399999       1.45565249E-18
  -3.96300006       1.80932441E-18
  -3.96199989       2.23600465E-18
  -3.96099997       2.74824865E-18
  -3.96000004       3.36036147E-18
  -3.95900011       4.08858916E-18
  -3.95799994       4.95132158E-18
  -3.95700002       5.96931498E-18
  -3.95600009       7.16592851E-18
  -3.95499992       8.56737927E-18
  -3.95400000       1.02030148E-17
  -3.95300007       1.21056021E-17
  -3.95199990       1.43116457E-17
  -3.95099998       1.68617128E-17
  -3.95000005       1.98007898E-17
  -3.94899988       2.31786612E-17
  -3.94799995       2.70503032E-17
  -3.94700003       3.14763101E-17
  -3.94600010       3.65233427E-17
  -3.94499993       4.22646048E-17
  -3.94400001       4.87803396E-17
  -3.94300008       5.61583704E-17
  -3.94199991       6.44946305E-17
  -3.94099998       7.38937911E-17
  -3.94000006       8.44698445E-17
  -3.93899989       9.63467817E-17
  -3.93799996       1.09659248E-16
  -3.93700004       1.24553270E-16
  -3.93600011       1.41187025E-16
  -3.93499994       1.59731607E-16
  -3.93400002       1.80371828E-16
  -3.93300009       2.03307138E-16
  -3.93199992       2.28752471E-16
  -3.93099999       2.56939160E-16
  -3.93000007       2.88116034E-16
  -3.92899990       3.22550279E-16
  -3.92799997       3.60528616E-16
  -3.92700005       4.02358358E-16
  -3.92600012       4.48368526E-16
  -3.92499995       4.98911035E-16
  -3.92400002       5.54362153E-16
  -3.92300010       6.15123426E-16
  -3.92199993       6.81623242E-16
  -3.92100000       7.54318097E-16
  -3.92000008       8.33694190E-16
  -3.91899991       9.20268686E-16
  -3.91799998       1.01459142E-15
  -3.91700006       1.11724641E-15
  -3.91599989       1.22885327E-15
  -3.91499996       1.35006930E-15
  -3.91400003       1.48159096E-15
  -3.91300011       1.62415582E-15
  -3.91199994       1.77854409E-15
  -3.91100001       1.94558068E-15
  -3.91000009       2.12613761E-15
  -3.90899992       2.32113497E-15
  -3.90799999       2.53154410E-15
  -3.90700006       2.75838905E-15
  -3.90599990       3.00274895E-15
  -3.90499997       3.26575988E-15
  -3.90400004       3.54861806E-15
  -3.90300012       3.85258113E-15
  -3.90199995       4.17897088E-15
  -3.90100002       4.52917665E-15
  -3.90000010       4.90465619E-15
  -3.89899993       5.30693924E-15
  -3.89800000       5.73763051E-15
  -3.89700007       6.19841093E-15
  -3.89599991       6.69104232E-15
  -3.89499998       7.21736784E-15
  -3.89400005       7.77931745E-15
  -3.89299989       8.37890921E-15
  -3.89199996       9.01825137E-15
  -3.89100003       9.69954623E-15
  -3.89000010       1.04250960E-14
  -3.88899994       1.11973004E-14
  -3.88800001       1.20186648E-14
  -3.88700008       1.28918008E-14
  -3.88599992       1.38194289E-14
  -3.88499999       1.48043843E-14
  -3.88400006       1.58496178E-14
  -3.88299990       1.69581993E-14
  -3.88199997       1.81333254E-14
  -3.88100004       1.93783147E-14
  -3.88000011       2.06966216E-14
  -3.87899995       2.20918288E-14
  -3.87800002       2.35676601E-14
  -3.87700009       2.51279795E-14
  -3.87599993       2.67767935E-14
  -3.87500000       2.85182610E-14
  -3.87400007       3.03566884E-14
  -3.87299991       3.22965362E-14
  -3.87199998       3.43424257E-14
  -3.87100005       3.64991478E-14
  -3.86999989       3.87716491E-14
  -3.86899996       4.11650525E-14
  -3.86800003       4.36846570E-14
  -3.86700010       4.63359311E-14
  -3.86599994       4.91245330E-14
  -3.86500001       5.20562970E-14
  -3.86400008       5.51372539E-14
  -3.86299992       5.83736211E-14
  -3.86199999       6.17718225E-14
  -3.86100006       6.53384681E-14
  -3.85999990       6.90803751E-14
  -3.85899997       7.30045839E-14
  -3.85800004       7.71183180E-14
  -3.85700011       8.14290245E-14
  -3.85599995       8.59443742E-14
  -3.85500002       9.06722614E-14
  -3.85400009       9.56207973E-14
  -3.85299993       1.00798310E-13
  -3.85200000       1.06213378E-13
  -3.85100007       1.11874804E-13
  -3.84999990       1.17791614E-13
  -3.84899998       1.23973111E-13
  -3.84800005       1.30428803E-13
  -3.84699988       1.37168461E-13
  -3.84599996       1.44202101E-13
  -3.84500003       1.51539981E-13
  -3.84400010       1.59192632E-13
  -3.84299994       1.67170802E-13
  -3.84200001       1.75485548E-13
  -3.84100008       1.84148148E-13
  -3.83999991       1.93170160E-13
  -3.83899999       2.02563389E-13
  -3.83800006       2.12339911E-13
  -3.83699989       2.22512086E-13
  -3.83599997       2.33092517E-13
  -3.83500004       2.44094106E-13
  -3.83400011       2.55529945E-13
  -3.83299994       2.67413506E-13
  -3.83200002       2.79758476E-13
  -3.83100009       2.92578814E-13
  -3.82999992       3.05888751E-13
  -3.82900000       3.19702787E-13
  -3.82800007       3.34035723E-13
  -3.82699990       3.48902575E-13
  -3.82599998       3.64318683E-13
  -3.82500005       3.80299606E-13
  -3.82399988       3.96861201E-13
  -3.82299995       4.14019594E-13
  -3.82200003       4.31791159E-13
  -3.82100010       4.50192536E-13
  -3.81999993       4.69240640E-13
  -3.81900001       4.88952628E-13
  -3.81800008       5.09345929E-13
  -3.81699991       5.30438161E-13
  -3.81599998       5.52247213E-13
  -3.81500006       5.74791245E-13
  -3.81399989       5.98088690E-13
  -3.81299996       6.22158195E-13
  -3.81200004       6.47018463E-13
  -3.81100011       6.72688684E-13
  -3.80999994       6.99188157E-13
  -3.80900002       7.26536344E-13
  -3.80800009       7.54752977E-13
  -3.80699992       7.83857896E-13
  -3.80599999       8.13871269E-13
  -3.80500007       8.44813369E-13
  -3.80399990       8.76704579E-13
  -3.80299997       9.09565609E-13
  -3.80200005       9.43417111E-13
  -3.80100012       9.78280174E-13
  -3.79999995       1.01417583E-12
  -3.79900002       1.05112522E-12
  -3.79800010       1.08914960E-12
  -3.79699993       1.12827055E-12
  -3.79600000       1.16850941E-12
  -3.79500008       1.20988777E-12
  -3.79399991       1.25242742E-12
  -3.79299998       1.29615014E-12
  -3.79200006       1.34107764E-12
  -3.79099989       1.38723180E-12
  -3.78999996       1.43463431E-12
  -3.78900003       1.48330708E-12
  -3.78800011       1.53327188E-12
  -3.78699994       1.58455052E-12
  -3.78600001       1.63716480E-12
  -3.78500009       1.69113638E-12
  -3.78399992       1.74648685E-12
  -3.78299999       1.80323779E-12
  -3.78200006       1.86141077E-12
  -3.78099990       1.92102671E-12
  -3.77999997       1.98210675E-12
  -3.77900004       2.04467216E-12
  -3.77800012       2.10874374E-12
  -3.77699995       2.17434165E-12
  -3.77600002       2.24148651E-12
  -3.77500010       2.31019826E-12
  -3.77399993       2.38049684E-12
  -3.77300000       2.45240178E-12
  -3.77200007       2.52593215E-12
  -3.77099991       2.60110683E-12
  -3.76999998       2.67794424E-12
  -3.76900005       2.75646259E-12
  -3.76799989       2.83667968E-12
  -3.76699996       2.91861262E-12
  -3.76600003       3.00227811E-12
  -3.76500010       3.08769264E-12
  -3.76399994       3.17487182E-12
  -3.76300001       3.26383083E-12
  -3.76200008       3.35458462E-12
  -3.76099992       3.44714730E-12
  -3.75999999       3.54153208E-12
  -3.75900006       3.63775178E-12
  -3.75799990       3.73581895E-12
  -3.75699997       3.83574466E-12
  -3.75600004       3.93753910E-12
  -3.75500011       4.04121268E-12
  -3.75399995       4.14677450E-12
  -3.75300002       4.25423325E-12
  -3.75200009       4.36359586E-12
  -3.75099993       4.47486883E-12
  -3.75000000       4.58805780E-12
  -3.74900007       4.70316798E-12
  -3.74799991       4.82020240E-12
  -3.74699998       4.93916410E-12
  -3.74600005       5.06005437E-12
  -3.74499989       5.18287366E-12
  -3.74399996       5.30762196E-12
  -3.74300003       5.43429754E-12
  -3.74200010       5.56289693E-12
  -3.74099994       5.69341709E-12
  -3.74000001       5.82585195E-12
  -3.73900008       5.96019501E-12
  -3.73799992       6.09643846E-12
  -3.73699999       6.23457275E-12
  -3.73600006       6.37458792E-12
  -3.73499990       6.51647182E-12
  -3.73399997       6.66021101E-12
  -3.73300004       6.80579074E-12
  -3.73200011       6.95319453E-12
  -3.73099995       7.10240417E-12
  -3.73000002       7.25340057E-12
  -3.72900009       7.40616249E-12
  -3.72799993       7.56066737E-12
  -3.72700000       7.71689136E-12
  -3.72600007       7.87480758E-12
  -3.72499990       8.03438913E-12
  -3.72399998       8.19560652E-12
  -3.72300005       8.35842767E-12
  -3.72199988       8.52282047E-12
  -3.72099996       8.68875024E-12
  -3.72000003       8.85617968E-12
  -3.71900010       9.02506975E-12
  -3.71799994       9.19538057E-12
  -3.71700001       9.36706875E-12
  -3.71600008       9.54009181E-12
  -3.71499991       9.71440203E-12
  -3.71399999       9.88995084E-12
  -3.71300006       1.00666888E-11
  -3.71199989       1.02445630E-11
  -3.71099997       1.04235180E-11
  -3.71000004       1.06034981E-11
  -3.70900011       1.07844445E-11
  -3.70799994       1.09662956E-11
  -3.70700002       1.11489880E-11
  -3.70600009       1.13324575E-11
  -3.70499992       1.15166357E-11
  -3.70400000       1.17014523E-11
  -3.70300007       1.18868361E-11
  -3.70199990       1.20727135E-11
  -3.70099998       1.22590072E-11
  -3.70000005       1.24456391E-11
  -3.69899988       1.26325270E-11
  -3.69799995       1.28195883E-11
  -3.69700003       1.30067372E-11
  -3.69600010       1.31938861E-11
  -3.69499993       1.33809448E-11
  -3.69400001       1.35678205E-11
  -3.69300008       1.37544177E-11
  -3.69199991       1.39406403E-11
  -3.69099998       1.41263876E-11
  -3.69000006       1.43115589E-11
  -3.68899989       1.44960502E-11
  -3.68799996       1.46797539E-11
  -3.68700004       1.48625626E-11
  -3.68600011       1.50443651E-11
  -3.68499994       1.52250469E-11
  -3.68400002       1.54044937E-11
  -3.68300009       1.55825873E-11
  -3.68199992       1.57592064E-11
  -3.68099999       1.59342296E-11
  -3.68000007       1.61075320E-11
  -3.67899990       1.62789886E-11
  -3.67799997       1.64484693E-11
  -3.67700005       1.66158441E-11
  -3.67600012       1.67809776E-11
  -3.67499995       1.69437363E-11
  -3.67400002       1.71039832E-11
  -3.67300010       1.72615793E-11
  -3.67199993       1.74163808E-11
  -3.67100000       1.75682472E-11
  -3.67000008       1.77170327E-11
  -3.66899991       1.78625899E-11
  -3.66799998       1.80047713E-11
  -3.66700006       1.81434243E-11
  -3.66599989       1.82783979E-11
  -3.66499996       1.84095378E-11
  -3.66400003       1.85366878E-11
  -3.66300011       1.86596918E-11
  -3.66199994       1.87783903E-11
  -3.66100001       1.88926236E-11
  -3.66000009       1.90022303E-11
  -3.65899992       1.91070475E-11
  -3.65799999       1.92069104E-11
  -3.65700006       1.93016540E-11
  -3.65599990       1.93911102E-11
  -3.65499997       1.94751142E-11
  -3.65400004       1.95534942E-11
  -3.65300012       1.96260837E-11
  -3.65199995       1.96927110E-11
  -3.65100002       1.97532043E-11
  -3.65000010       1.98073936E-11
  -3.64899993       1.98551054E-11
  -3.64800000       1.98961663E-11
  -3.64700007       1.99304028E-11
  -3.64599991       1.99576414E-11
  -3.64499998       1.99777087E-11
  -3.64400005       1.99904312E-11
  -3.64299989       1.99956336E-11
  -3.64199996       1.99931408E-11
  -3.64100003       1.99827811E-11
  -3.64000010       1.99643808E-11
  -3.63899994       1.99377667E-11
  -3.63800001       1.99027669E-11
  -3.63700008       1.98592080E-11
  -3.63599992       1.98069200E-11
  -3.63499999       1.97457311E-11
  -3.63400006       1.96754731E-11
  -3.63299990       1.95959759E-11
  -3.63199997       1.95070730E-11
  -3.63100004       1.94085980E-11
  -3.63000011       1.93003877E-11
  -3.62899995       1.91822773E-11
  -3.62800002       1.90541055E-11
  -3.62700009       1.89157145E-11
  -3.62599993       1.87669463E-11
  -3.62500000       1.86076467E-11
  -3.62400007       1.84376611E-11
  -3.62299991       1.82568387E-11
  -3.62199998       1.80650321E-11
  -3.62100005       1.78620955E-11
  -3.61999989       1.76478866E-11
  -3.61899996       1.74222633E-11
  -3.61800003       1.71850902E-11
  -3.61700010       1.69362354E-11
  -3.61599994       1.66755654E-11
  -3.61500001       1.64029554E-11
  -3.61400008       1.61182821E-11
  -3.61299992       1.58214275E-11
  -3.61199999       1.55122738E-11
  -3.61100006       1.51907115E-11
  -3.60999990       1.48566350E-11
  -3.60899997       1.45099393E-11
  -3.60800004       1.41505271E-11
  -3.60700011       1.37783058E-11
  -3.60599995       1.33931867E-11
  -3.60500002       1.29950868E-11
  -3.60400009       1.25839278E-11
  -3.60299993       1.21596370E-11
  -3.60200000       1.17221467E-11
  -3.60100007       1.12713961E-11
  -3.59999990       1.08073281E-11
  -3.59899998       1.03298941E-11
  -3.59800005       9.83904885E-12
  -3.59699988       9.33475606E-12
  -3.59599996       8.81698360E-12
  -3.59500003       8.28570719E-12
  -3.59400010       7.74090861E-12
  -3.59299994       7.18257745E-12
  -3.59200001       6.61070938E-12
  -3.59100008       6.02530699E-12
  -3.58999991       5.42638113E-12
  -3.58899999       4.81394959E-12
  -3.58800006       4.18803750E-12
  -3.58699989       3.54867828E-12
  -3.58599997       2.89591268E-12
  -3.58500004       2.22978970E-12
  -3.58400011       1.55036628E-12
  -3.58299994       8.57707893E-13
  -3.58200002       1.51888281E-13
  -3.58100009      -5.67010306E-13
  -3.57999992      -1.29889686E-12
  -3.57900000      -2.04367166E-12
  -3.57800007      -2.80122605E-12
  -3.57699990      -3.57144240E-12
  -3.57599998      -4.35419409E-12
  -3.57500005      -5.14934493E-12
  -3.57399988      -5.95674985E-12
  -3.57299995      -6.77625317E-12
  -3.57200003      -7.60769139E-12
  -3.57100010      -8.45088929E-12
  -3.56999993      -9.30566388E-12
  -3.56900001      -1.01718217E-11
  -3.56800008      -1.10491581E-11
  -3.56699991      -1.19374597E-11
  -3.56599998      -1.28365027E-11
  -3.56500006      -1.37460529E-11
  -3.56399989      -1.46658657E-11
  -3.56299996      -1.55956879E-11
  -3.56200004      -1.65352523E-11
  -3.56100011      -1.74842849E-11
  -3.55999994      -1.84424975E-11
  -3.55900002      -1.94095955E-11
  -3.55800009      -2.03852699E-11
  -3.55699992      -2.13692068E-11
  -3.55599999      -2.23610731E-11
  -3.55500007      -2.33605305E-11
  -3.55399990      -2.43672305E-11
  -3.55299997      -2.53808103E-11
  -3.55200005      -2.64009006E-11
  -3.55100012      -2.74271179E-11
  -3.54999995      -2.84590702E-11
  -3.54900002      -2.94963498E-11
  -3.54800010      -3.05385439E-11
  -3.54699993      -3.15852310E-11
  -3.54600000      -3.26359703E-11
  -3.54500008      -3.36903179E-11
  -3.54399991      -3.47478157E-11
  -3.54299998      -3.58079920E-11
  -3.54200006      -3.68703713E-11
  -3.54099989      -3.79344646E-11
  -3.53999996      -3.89997722E-11
  -3.53900003      -4.00657806E-11
  -3.53800011      -4.11319728E-11
  -3.53699994      -4.21978216E-11
  -3.53600001      -4.32627822E-11
  -3.53500009      -4.43263030E-11
  -3.53399992      -4.53878254E-11
  -3.53299999      -4.64467804E-11
  -3.53200006      -4.75025852E-11
  -3.53099990      -4.85546499E-11
  -3.52999997      -4.96023778E-11
  -3.52900004      -5.06451582E-11
  -3.52800012      -5.16823737E-11
  -3.52699995      -5.27133996E-11
  -3.52600002      -5.37375977E-11
  -3.52500010      -5.47543295E-11
  -3.52399993      -5.57629394E-11
  -3.52300000      -5.67627646E-11
  -3.52200007      -5.77531391E-11
  -3.52099991      -5.87333862E-11
  -3.51999998      -5.97028191E-11
  -3.51900005      -6.06607473E-11
  -3.51799989      -6.16064769E-11
  -3.51699996      -6.25393001E-11
  -3.51600003      -6.34584954E-11
  -3.51500010      -6.43633549E-11
  -3.51399994      -6.52531432E-11
  -3.51300001      -6.61271385E-11
  -3.51200008      -6.69845984E-11
  -3.51099992      -6.78247805E-11
  -3.50999999      -6.86469354E-11
  -3.50900006      -6.94503136E-11
  -3.50799990      -7.02341588E-11
  -3.50699997      -7.09977147E-11
  -3.50600004      -7.17402041E-11
  -3.50500011      -7.24608637E-11
  -3.50399995      -7.31589234E-11
  -3.50300002      -7.38336128E-11
  -3.50200009      -7.44841480E-11
  -3.50099993      -7.51097448E-11
  -3.50000000      -7.57096330E-11
  -3.49900007      -7.62830285E-11
  -3.49799991      -7.68291403E-11
  -3.49699998      -7.73471912E-11
  -3.49600005      -7.78363901E-11
  -3.49499989      -7.82959531E-11
  -3.49399996      -7.87250959E-11
  -3.49300003      -7.91230415E-11
  -3.49200010      -7.94889918E-11
  -3.49099994      -7.98221836E-11
  -3.49000001      -8.01218328E-11
  -3.48900008      -8.03871553E-11
  -3.48799992      -8.06173878E-11
  -3.48699999      -8.08117601E-11
  -3.48600006      -8.09695019E-11
  -3.48499990      -8.10898571E-11
  -3.48399997      -8.11720621E-11
  -3.48300004      -8.12153747E-11
  -3.48200011      -8.12190523E-11
  -3.48099995      -8.11823456E-11
  -3.48000002      -8.11045328E-11
  -3.47900009      -8.09848716E-11
  -3.47799993      -8.08226611E-11
  -3.47700000      -8.06171796E-11
  -3.47600007      -8.03677402E-11
  -3.47499990      -8.00736422E-11
  -3.47399998      -7.97342053E-11
  -3.47300005      -7.93487637E-11
  -3.47199988      -7.89166441E-11
  -3.47099996      -7.84372081E-11
  -3.47000003      -7.79098105E-11
  -3.46900010      -7.73338268E-11
  -3.46799994      -7.67086464E-11
  -3.46700001      -7.60336655E-11
  -3.46600008      -7.53082943E-11
  -3.46499991      -7.45319709E-11
  -3.46399999      -7.37041331E-11
  -3.46300006      -7.28242328E-11
  -3.46199989      -7.18917495E-11
  -3.46099997      -7.09061698E-11
  -3.46000004      -6.98670080E-11
  -3.45900011      -6.87737714E-11
  -3.45799994      -6.76260159E-11
  -3.45700002      -6.64232974E-11
  -3.45600009      -6.51651927E-11
  -3.45499992      -6.38512992E-11
  -3.45400000      -6.24812424E-11
  -3.45300007      -6.10546613E-11
  -3.45199990      -5.95712021E-11
  -3.45099998      -5.80305561E-11
  -3.45000005      -5.64324212E-11
  -3.44899988      -5.47765271E-11
  -3.44799995      -5.30626168E-11
  -3.44700003      -5.12904615E-11
  -3.44600010      -4.94598598E-11
  -3.44499993      -4.75706280E-11
  -3.44400001      -4.56226099E-11
  -3.44300008      -4.36156770E-11
  -3.44199991      -4.15497220E-11
  -3.44099998      -3.94246684E-11
  -3.44000006      -3.72404572E-11
  -3.43899989      -3.49970677E-11
  -3.43799996      -3.26945034E-11
  -3.43700004      -3.03327918E-11
  -3.43600011      -2.79119904E-11
  -3.43499994      -2.54321876E-11
  -3.43400002      -2.28934961E-11
  -3.43300009      -2.02960634E-11
  -3.43199992      -1.76400630E-11
  -3.43099999      -1.49257013E-11
  -3.43000007      -1.21532142E-11
  -3.42899990      -9.32286713E-12
  -3.42799997      -6.43495847E-12
  -3.42700005      -3.48981738E-12
  -3.42600012      -4.87805163E-13
  -3.42499995       2.57068455E-12
  -3.42400002       5.68522573E-12
  -3.42300010       8.85536002E-12
  -3.42199993       1.20805952E-11
  -3.42100000       1.53604057E-11
  -3.42000008       1.86942337E-11
  -3.41899991       2.20814877E-11
  -3.41799998       2.55215397E-11
  -3.41700006       2.90137307E-11
  -3.41599989       3.25573665E-11
  -3.41499996       3.61517170E-11
  -3.41400003       3.97960172E-11
  -3.41300011       4.34894655E-11
  -3.41199994       4.72312293E-11
  -3.41100001       5.10204448E-11
  -3.41000009       5.48562029E-11
  -3.40899992       5.87375634E-11
  -3.40799999       6.26635549E-11
  -3.40700006       6.66331643E-11
  -3.40599990       7.06453507E-11
  -3.40499997       7.46990317E-11
  -3.40400004       7.87930832E-11
  -3.40300012       8.29263602E-11
  -3.40199995       8.70976832E-11
  -3.40100002       9.13058240E-11
  -3.40000010       9.55495197E-11
  -3.39899993       9.98274796E-11
  -3.39800000       1.04138378E-10
  -3.39700007       1.08480849E-10
  -3.39599991       1.12853504E-10
  -3.39499998       1.17254914E-10
  -3.39400005       1.21683594E-10
  -3.39299989       1.26138058E-10
  -3.39199996       1.30616767E-10
  -3.39100003       1.35118153E-10
  -3.39000010       1.39640605E-10
  -3.38899994       1.44182499E-10
  -3.38800001       1.48742171E-10
  -3.38700008       1.53317928E-10
  -3.38599992       1.57908034E-10
  -3.38499999       1.62510713E-10
  -3.38400006       1.67124189E-10
  -3.38299990       1.71746617E-10
  -3.38199997       1.76376150E-10
  -3.38100004       1.81010901E-10
  -3.38000011       1.85648955E-10
  -3.37899995       1.90288355E-10
  -3.37800002       1.94927144E-10
  -3.37700009       1.99563310E-10
  -3.37599993       2.04194842E-10
  -3.37500000       2.08819642E-10
  -3.37400007       2.13435658E-10
  -3.37299991       2.18040780E-10
  -3.37199998       2.22632884E-10
  -3.37100005       2.27209807E-10
  -3.36999989       2.31769354E-10
  -3.36899996       2.36309333E-10
  -3.36800003       2.40827497E-10
  -3.36700010       2.45321652E-10
  -3.36599994       2.49789467E-10
  -3.36500001       2.54228694E-10
  -3.36400008       2.58637001E-10
  -3.36299992       2.63012084E-10
  -3.36199999       2.67351585E-10
  -3.36100006       2.71653144E-10
  -3.35999990       2.75914402E-10
  -3.35899997       2.80132945E-10
  -3.35800004       2.84306356E-10
  -3.35700011       2.88432250E-10
  -3.35599995       2.92508184E-10
  -3.35500002       2.96531716E-10
  -3.35400009       3.00500402E-10
  -3.35299993       3.04411774E-10
  -3.35200000       3.08263332E-10
  -3.35100007       3.12052634E-10
  -3.34999990       3.15777210E-10
  -3.34899998       3.19434562E-10
  -3.34800005       3.23022192E-10
  -3.34699988       3.26537603E-10
  -3.34599996       3.29978322E-10
  -3.34500003       3.33341826E-10
  -3.34400010       3.36625644E-10
  -3.34299994       3.39827305E-10
  -3.34200001       3.42944284E-10
  -3.34100008       3.45974110E-10
  -3.33999991       3.48914286E-10
  -3.33899999       3.51762369E-10
  -3.33800006       3.54515861E-10
  -3.33699989       3.57172319E-10
  -3.33599997       3.59729302E-10
  -3.33500004       3.62184394E-10
  -3.33400011       3.64535152E-10
  -3.33299994       3.66779163E-10
  -3.33200002       3.68914066E-10
  -3.33100009       3.70937447E-10
  -3.32999992       3.72847003E-10
  -3.32900000       3.74640374E-10
  -3.32800007       3.76315229E-10
  -3.32699990       3.77869291E-10
  -3.32599998       3.79300286E-10
  -3.32500005       3.80605963E-10
  -3.32399988       3.81784104E-10
  -3.32299995       3.82832516E-10
  -3.32200003       3.83749033E-10
  -3.32100010       3.84531545E-10
  -3.31999993       3.85177945E-10
  -3.31900001       3.85686177E-10
  -3.31800008       3.86054161E-10
  -3.31699991       3.86279925E-10
  -3.31599998       3.86361526E-10
  -3.31500006       3.86297022E-10
  -3.31399989       3.86084525E-10
  -3.31299996       3.85722204E-10
  -3.31200004       3.85208282E-10
  -3.31100011       3.84540982E-10
  -3.30999994       3.83718585E-10
  -3.30900002       3.82739423E-10
  -3.30800009       3.81601917E-10
  -3.30699992       3.80304482E-10
  -3.30599999       3.78845594E-10
  -3.30500007       3.77223780E-10
  -3.30399990       3.75437653E-10
  -3.30299997       3.73485826E-10
  -3.30200005       3.71367020E-10
  -3.30100012       3.69080017E-10
  -3.29999995       3.66623565E-10
  -3.29900002       3.63996583E-10
  -3.29800010       3.61198016E-10
  -3.29699993       3.58226837E-10
  -3.29600000       3.55082103E-10
  -3.29500008       3.51762952E-10
  -3.29399991       3.48268553E-10
  -3.29299998       3.44598183E-10
  -3.29200006       3.40751150E-10
  -3.29099989       3.36726841E-10
  -3.28999996       3.32524730E-10
  -3.28900003       3.28144345E-10
  -3.28800011       3.23585270E-10
  -3.28699994       3.18847254E-10
  -3.28600001       3.13929965E-10
  -3.28500009       3.08833292E-10
  -3.28399992       3.03557096E-10
  -3.28299999       2.98101405E-10
  -3.28200006       2.92466246E-10
  -3.28099990       2.86651758E-10
  -3.27999997       2.80658191E-10
  -3.27900004       2.74485795E-10
  -3.27800012       2.68134986E-10
  -3.27699995       2.61606181E-10
  -3.27600002       2.54899962E-10
  -3.27500010       2.48016968E-10
  -3.27399993       2.40957893E-10
  -3.27300000       2.33723541E-10
  -3.27200007       2.26314800E-10
  -3.27099991       2.18732643E-10
  -3.26999998       2.10978124E-10
  -3.26900005       2.03052380E-10
  -3.26799989       1.94956662E-10
  -3.26699996       1.86692273E-10
  -3.26600003       1.78260628E-10
  -3.26500010       1.69663242E-10
  -3.26399994       1.60901681E-10
  -3.26300001       1.51977653E-10
  -3.26200008       1.42892906E-10
  -3.26099992       1.33649314E-10
  -3.25999999       1.24248820E-10
  -3.25900006       1.14693463E-10
  -3.25799990       1.04985388E-10
  -3.25699997       9.51268092E-11
  -3.25600004       8.51200499E-11
  -3.25500011       7.49675114E-11
  -3.25399995       6.46716986E-11
  -3.25300002       5.42351893E-11
  -3.25200009       4.36606723E-11
  -3.25099993       3.29509128E-11
  -3.25000000       2.21087749E-11
  -3.24900007       1.11372101E-11
  -3.24799991       3.92610884E-14
  -3.24699998      -1.11819417E-11
  -3.24600005      -2.25231760E-11
  -3.24499989      -3.39811373E-11
  -3.24399996      -4.55524195E-11
  -3.24300003      -5.72335374E-11
  -3.24200010      -6.90209209E-11
  -3.24099994      -8.09109099E-11
  -3.24000001      -9.28997504E-11
  -3.23900008      -1.04983619E-10
  -3.23799992      -1.17158602E-10
  -3.23699999      -1.29420683E-10
  -3.23600006      -1.41765794E-10
  -3.23499990      -1.54189758E-10
  -3.23399997      -1.66688344E-10
  -3.23300004      -1.79257206E-10
  -3.23200011      -1.91891947E-10
  -3.23099995      -2.04588083E-10
  -3.23000002      -2.17341034E-10
  -3.22900009      -2.30146180E-10
  -3.22799993      -2.42998788E-10
  -3.22700000      -2.55894111E-10
  -3.22600007      -2.68827238E-10
  -3.22499990      -2.81793283E-10
  -3.22399998      -2.94787250E-10
  -3.22300005      -3.07804032E-10
  -3.22199988      -3.20838522E-10
  -3.22099996      -3.33885503E-10
  -3.22000003      -3.46939699E-10
  -3.21900010      -3.59995811E-10
  -3.21799994      -3.73048453E-10
  -3.21700001      -3.86092186E-10
  -3.21600008      -3.99121514E-10
  -3.21499991      -4.12130857E-10
  -3.21399999      -4.25114638E-10
  -3.21300006      -4.38067166E-10
  -3.21199989      -4.50982751E-10
  -3.21099997      -4.63855648E-10
  -3.21000004      -4.76680029E-10
  -3.20900011      -4.89450036E-10
  -3.20799994      -5.02159814E-10
  -3.20700002      -5.14803478E-10
  -3.20600009      -5.27374977E-10
  -3.20499992      -5.39868372E-10
  -3.20400000      -5.52277613E-10
  -3.20300007      -5.64596647E-10
  -3.20199990      -5.76819426E-10
  -3.20099998      -5.88939786E-10
  -3.20000005      -6.00951566E-10
  -3.19899988      -6.12848661E-10
  -3.19799995      -6.24624852E-10
  -3.19700003      -6.36273978E-10
  -3.19600010      -6.47789766E-10
  -3.19499993      -6.59166055E-10
  -3.19400001      -6.70396627E-10
  -3.19300008      -6.81475265E-10
  -3.19199991      -6.92395696E-10
  -3.19099998      -7.03151759E-10
  -3.19000006      -7.13737125E-10
  -3.18899989      -7.24145632E-10
  -3.18799996      -7.34371008E-10
  -3.18700004      -7.44407092E-10
  -3.18600011      -7.54247664E-10
  -3.18499994      -7.63886510E-10
  -3.18400002      -7.73317521E-10
  -3.18300009      -7.82534482E-10
  -3.18199992      -7.91531340E-10
  -3.18099999      -8.00302047E-10
  -3.18000007      -8.08840495E-10
  -3.17899990      -8.17140633E-10
  -3.17799997      -8.25196522E-10
  -3.17700005      -8.33002167E-10
  -3.17600012      -8.40551684E-10
  -3.17499995      -8.47839188E-10
  -3.17400002      -8.54858906E-10
  -3.17300010      -8.61605010E-10
  -3.17199993      -8.68071837E-10
  -3.17100000      -8.74253669E-10
  -3.17000008      -8.80145012E-10
  -3.16899991      -8.85740259E-10
  -3.16799998      -8.91033969E-10
  -3.16700006      -8.96020758E-10
  -3.16599989      -9.00695241E-10
  -3.16499996      -9.05052255E-10
  -3.16400003      -9.09086528E-10
  -3.16300011      -9.12793063E-10
  -3.16199994      -9.16166754E-10
  -3.16100001      -9.19202769E-10
  -3.16000009      -9.21896282E-10
  -3.15899992      -9.24242460E-10
  -3.15799999      -9.26236698E-10
  -3.15700006      -9.27874444E-10
  -3.15599990      -9.29151256E-10
  -3.15499997      -9.30062805E-10
  -3.15400004      -9.30604815E-10
  -3.15300012      -9.30773125E-10
  -3.15199995      -9.30563793E-10
  -3.15100002      -9.29972876E-10
  -3.15000010      -9.28996602E-10
  -3.14899993      -9.27631361E-10
  -3.14800000      -9.25873544E-10
  -3.14700007      -9.23719767E-10
  -3.14599991      -9.21166754E-10
  -3.14499998      -9.18211340E-10
  -3.14400005      -9.14850473E-10