  -4.00000000       0.00000000    
  -3.99900007       0.00000000    
  -3.99799991       0.00000000    
  -3.99699998       0.00000000    
  -3.99600005       0.00000000    
  -3.99499989       5.44753940E-31
  -3.99399996       5.99425684E-30
  -3.99300003       3.59762751E-29
  -3.99200010       1.55939165E-28
  -3.99099994       5.45918084E-28
  -3.99000001       1.63809952E-27
  -3.98900008       4.36905913E-27
  -3.98799992       1.06121898E-26
  -3.98699999       2.38803711E-26
  -3.98600006       5.04188645E-26
  -3.98499990       1.00844280E-25
  -3.98399997       1.92527778E-25
  -3.98300004       3.52969920E-25
  -3.98200011       6.24471118E-25
  -3.98099995       1.07046640E-24
  -3.98000002       1.78396614E-24
  -3.97900009       2.89862581E-24
  -3.97799993       4.60305821E-24
  -3.97700000       7.15910520E-24
  -3.97600007       1.09248937E-23
  -3.97499990       1.63836202E-23
  -3.97399998       2.41791484E-23
  -3.97300005       3.51596284E-23
  -3.97199988       5.04305492E-23
  -3.97099996       7.14187079E-23
  -3.97000003       9.99488786E-23
  -3.96900010       1.38335065E-22
  -3.96799994       1.89488428E-22
  -3.96700001       2.57044305E-22
  -3.96600008       3.45510777E-22
  -3.96499991       4.60441677E-22
  -3.96399999       6.08637011E-22
  -3.96300006       7.98374189E-22
  -3.96199989       1.03967374E-21
  -3.96099997       1.34460319E-21
  -3.96000004       1.72762366E-21
  -3.95900011       2.20598366E-21
  -3.95799994       2.80016389E-21
  -3.95700002       3.53438079E-21
  -3.95600009       4.43715190E-21
  -3.95499992       5.54192916E-21
  -3.95400000       6.88781018E-21
  -3.95300007       8.52032705E-21
  -3.95199990       1.04923297E-20
  -3.95099998       1.28649591E-20
  -3.95000005       1.57087334E-20
  -3.94899988       1.91047395E-20
  -3.94799995       2.31459498E-20
  -3.94700003       2.79386747E-20
  -3.94600010       3.36041478E-20
  -3.94499993       4.02802772E-20
  -3.94400001       4.81235327E-20
  -3.94300008       5.73110472E-20
  -3.94199991       6.80428691E-20
  -3.94099998       8.05444309E-20
  -3.94000006       9.50692184E-20
  -3.93899989       1.11901691E-19
  -3.93799996       1.31360378E-19
  -3.93700004       1.53801362E-19
  -3.93600011       1.79621844E-19
  -3.93499994       2.09264158E-19
  -3.93400002       2.43220000E-19
  -3.93300009       2.82034985E-19
  -3.93199992       3.26313575E-19
  -3.93099999       3.76724366E-19
  -3.93000007       4.34005641E-19
  -3.92899990       4.98971424E-19
  -3.92799997       5.72518068E-19
  -3.92700005       6.55630850E-19
  -3.92600012       7.49391514E-19
  -3.92499995       8.54985927E-19
  -3.92400002       9.73712453E-19
  -3.92300010       1.10699089E-18
  -3.92199993       1.25637144E-18
  -3.92100000       1.42354506E-18
  -3.92000008       1.61035367E-18
  -3.91899991       1.81880142E-18
  -3.91799998       2.05106671E-18
  -3.91700006       2.30951371E-18
  -3.91599989       2.59670647E-18
  -3.91499996       2.91542268E-18
  -3.91400003       3.26866726E-18
  -3.91300011       3.65968898E-18
  -3.91199994       4.09199590E-18
  -3.91100001       4.56937259E-18
  -3.91000009       5.09589745E-18
  -3.90899992       5.67596199E-18
  -3.90799999       6.31429065E-18
  -3.90700006       7.01595984E-18
  -3.90599990       7.78642316E-18
  -3.90499997       8.63152878E-18
  -3.90400004       9.55754755E-18
  -3.90300012       1.05711937E-17
  -3.90199995       1.16796546E-17
  -3.90100002       1.28906147E-17
  -3.90000010       1.42122848E-17
  -3.89899993       1.56534286E-17
  -3.89800000       1.72233976E-17
  -3.89700007       1.89321608E-17
  -3.89599991       2.07903360E-17
  -3.89499998       2.28092241E-17
  -3.89400005       2.50008475E-17
  -3.89299989       2.73779826E-17
  -3.89199996       2.99542018E-17
  -3.89100003       3.27439148E-17
  -3.89000010       3.57623994E-17
  -3.88899994       3.90258552E-17
  -3.88800001       4.25514479E-17
  -3.88700008       4.63573423E-17
  -3.88599992       5.04627621E-17
  -3.88499999       5.48880361E-17
  -3.88400006       5.96546379E-17
  -3.88299990       6.47852554E-17
  -3.88199997       7.03038273E-17
  -3.88100004       7.62356056E-17
  -3.88000011       8.26072257E-17
  -3.87899995       8.94467388E-17
  -3.87800002       9.67836852E-17
  -3.87700009       1.04649167E-16
  -3.87599993       1.13075894E-16
  -3.87500000       1.22098238E-16
  -3.87400007       1.31752349E-16
  -3.87299991       1.42076171E-16
  -3.87199998       1.53109543E-16
  -3.87100005       1.64894246E-16
  -3.86999989       1.77474128E-16
  -3.86899996       1.90895114E-16
  -3.86800003       2.05205325E-16
  -3.86700010       2.20455161E-16
  -3.86599994       2.36697348E-16
  -3.86500001       2.53987064E-16
  -3.86400008       2.72382000E-16
  -3.86299992       2.91942452E-16
  -3.86199999       3.12731367E-16
  -3.86100006       3.34814495E-16
  -3.85999990       3.58260526E-16
  -3.85899997       3.83141007E-16
  -3.85800004       4.09530636E-16
  -3.85700011       4.37507234E-16
  -3.85599995       4.67151852E-16
  -3.85500002       4.98548981E-16
  -3.85400009       5.31786501E-16
  -3.85299993       5.66955892E-16
  -3.85200000       6.04152285E-16
  -3.85100007       6.43474625E-16
  -3.84999990       6.85025667E-16
  -3.84899998       7.28912191E-16
  -3.84800005       7.75245158E-16
  -3.84699988       8.24139658E-16
  -3.84599996       8.75715124E-16
  -3.84500003       9.30095539E-16
  -3.84400010       9.87409177E-16
  -3.84299994       1.04778928E-15
  -3.84200001       1.11137372E-15
  -3.84100008       1.17830542E-15
  -3.83999991       1.24873218E-15
  -3.83899999       1.32280712E-15
  -3.83800006       1.40068830E-15
  -3.83699989       1.48253964E-15
  -3.83599997       1.56853021E-15
  -3.83500004       1.65883494E-15
  -3.83400011       1.75363444E-15
  -3.83299994       1.85311518E-15
  -3.83200002       1.95746985E-15
  -3.83100009       2.06689676E-15
  -3.82999992       2.18160112E-15
  -3.82900000       2.30179403E-15
  -3.82800007       2.42769320E-15
  -3.82699990       2.55952308E-15
  -3.82599998       2.69751470E-15
  -3.82500005       2.84190629E-15
  -3.82399988       2.99294285E-15
  -3.82299995       3.15087638E-15
  -3.82200003       3.31596606E-15
  -3.82100010       3.48847872E-15
  -3.81999993       3.66868816E-15
  -3.81900001       3.85687643E-15
  -3.81800008       4.05333260E-15
  -3.81699991       4.25835396E-15
  -3.81599998       4.47224545E-15
  -3.81500006       4.69532047E-15
  -3.81399989       4.92789962E-15
  -3.81299996       5.17031198E-15
  -3.81200004       5.42289593E-15
  -3.81100011       5.68599707E-15
  -3.80999994       5.95996988E-15
  -3.80900002       6.24517773E-15
  -3.80800009       6.54199205E-15
  -3.80699992       6.85079358E-15
  -3.80599999       7.17197196E-15
  -3.80500007       7.50592486E-15
  -3.80399990       7.85305929E-15
  -3.80299997       8.21379199E-15
  -3.80200005       8.58854732E-15
  -3.80100012       8.97776065E-15
  -3.79999995       9.38187499E-15
  -3.79900002       9.80134434E-15
  -3.79800010       1.02366295E-14
  -3.79699993       1.06882031E-14
  -3.79600000       1.11565445E-14
  -3.79500008       1.16421451E-14
  -3.79399991       1.21455038E-14
  -3.79299998       1.26671295E-14
  -3.79200006       1.32075400E-14
  -3.79099989       1.37672636E-14
  -3.78999996       1.43468374E-14
  -3.78900003       1.49468078E-14
  -3.78800011       1.55677303E-14
  -3.78699994       1.62101693E-14
  -3.78600001       1.68746988E-14
  -3.78500009       1.75619034E-14
  -3.78399992       1.82723743E-14
  -3.78299999       1.90067146E-14
  -3.78200006       1.97655342E-14
  -3.78099990       2.05494513E-14
  -3.77999997       2.13590945E-14
  -3.77900004       2.21951008E-14
  -3.77800012       2.30581172E-14
  -3.77699995       2.39487961E-14
  -3.77600002       2.48677980E-14
  -3.77500010       2.58157956E-14
  -3.77399993       2.67934665E-14
  -3.77300000       2.78014950E-14
  -3.77200007       2.88405774E-14
  -3.77099991       2.99114134E-14
  -3.76999998       3.10147111E-14
  -3.76900005       3.21511853E-14
  -3.76799989       3.33215579E-14
  -3.76699996       3.45265571E-14
  -3.76600003       3.57669217E-14
  -3.76500010       3.70433867E-14
  -3.76399994       3.83567012E-14
  -3.76300001       3.97076171E-14
  -3.76200008       4.10968934E-14
  -3.76099992       4.25252891E-14
  -3.75999999       4.39935699E-14
  -3.75900006       4.55025083E-14
  -3.75799990       4.70528767E-14
  -3.75699997       4.86454579E-14
  -3.75600004       5.02810277E-14
  -3.75500011       5.19603688E-14
  -3.75399995       5.36842706E-14
  -3.75300002       5.54535157E-14
  -3.75200009       5.72688937E-14
  -3.75099993       5.91311939E-14
  -3.75000000       6.10412057E-14
  -3.74900007       6.29997221E-14
  -3.74799991       6.50075222E-14
  -3.74699998       6.70653989E-14
  -3.74600005       6.91741450E-14
  -3.74499989       7.13345331E-14
  -3.74399996       7.35473490E-14
  -3.74300003       7.58133722E-14
  -3.74200010       7.81333751E-14
  -3.74099994       8.05081235E-14
  -3.74000001       8.29383830E-14
  -3.73900008       8.54249126E-14
  -3.73799992       8.79684577E-14
  -3.73699999       9.05697636E-14
  -3.73600006       9.32295690E-14
  -3.73499990       9.59486058E-14
  -3.73399997       9.87275854E-14
  -3.73300004       1.01567219E-13
  -3.73200011       1.04468205E-13
  -3.73099995       1.07431222E-13
  -3.73000002       1.10456952E-13
  -3.72900009       1.13546054E-13
  -3.72799993       1.16699171E-13
  -3.72700000       1.19916934E-13
  -3.72600007       1.23199966E-13
  -3.72499990       1.26548864E-13
  -3.72399998       1.29964222E-13
  -3.72300005       1.33446585E-13
  -3.72199988       1.36996520E-13
  -3.72099996       1.40614530E-13
  -3.72000003       1.44301143E-13
  -3.71900010       1.48056819E-13
  -3.71799994       1.51882033E-13
  -3.71700001       1.55777233E-13
  -3.71600008       1.59742811E-13
  -3.71499991       1.63779160E-13
  -3.71399999       1.67886660E-13
  -3.71300006       1.72065622E-13
  -3.71199989       1.76316373E-13
  -3.71099997       1.80639168E-13
  -3.71000004       1.85034280E-13
  -3.70900011       1.89501897E-13
  -3.70799994       1.94042224E-13
  -3.70700002       1.98655410E-13
  -3.70600009       2.03341548E-13
  -3.70499992       2.08100735E-13
  -3.70400000       2.12933024E-13
  -3.70300007       2.17838402E-13
  -3.70199990       2.22816855E-13
  -3.70099998       2.27868316E-13
  -3.70000005       2.32992635E-13
  -3.69899988       2.38189703E-13
  -3.69799995       2.43459305E-13
  -3.69700003       2.48801197E-13
  -3.69600010       2.54215079E-13
  -3.69499993       2.59700654E-13
  -3.69400001       2.65257542E-13
  -3.69300008       2.70885338E-13
  -3.69199991       2.76583525E-13
  -3.69099998       2.82351589E-13
  -3.69000006       2.88188988E-13
  -3.68899989       2.94095043E-13
  -3.68799996       3.00069133E-13
  -3.68700004       3.06110497E-13
  -3.68600011       3.12218350E-13
  -3.68499994       3.18391852E-13
  -3.68400002       3.24630080E-13
  -3.68300009       3.30932113E-13
  -3.68199992       3.37296922E-13
  -3.68099999       3.43723422E-13
  -3.68000007       3.50210502E-13
  -3.67899990       3.56756942E-13
  -3.67799997       3.63361495E-13
  -3.67700005       3.70022806E-13
  -3.67600012       3.76739520E-13
  -3.67499995       3.83510172E-13
  -3.67400002       3.90333246E-13
  -3.67300010       3.97207169E-13
  -3.67199993       4.04130261E-13
  -3.67100000       4.11100841E-13
  -3.67000008       4.18117120E-13
  -3.66899991       4.25177200E-13
  -3.66799998       4.32279185E-13
  -3.66700006       4.39421042E-13
  -3.66599989       4.46600737E-13
  -3.66499996       4.53816103E-13
  -3.66400003       4.61064943E-13
  -3.66300011       4.68344981E-13
  -3.66199994       4.75653805E-13
  -3.66100001       4.82988974E-13
  -3.66000009       4.90348051E-13
  -3.65899992       4.97728378E-13
  -3.65799999       5.05127353E-13
  -3.65700006       5.12542157E-13
  -3.65599990       5.19970080E-13
  -3.65499997       5.27408195E-13
  -3.65400004       5.34853520E-13
  -3.65300012       5.42303019E-13
  -3.65199995       5.49753548E-13
  -3.65100002       5.57201908E-13
  -3.65000010       5.64644902E-13
  -3.64899993       5.72079114E-13
  -3.64800000       5.79501182E-13
  -3.64700007       5.86907530E-13
  -3.64599991       5.94294633E-13
  -3.64499998       6.01658859E-13
  -3.64400005       6.08996360E-13
  -3.64299989       6.16303449E-13
  -3.64199996       6.23576169E-13
  -3.64100003       6.30810616E-13
  -3.64000010       6.38002780E-13
  -3.63899994       6.45148485E-13
  -3.63800001       6.52243559E-13
  -3.63700008       6.59283825E-13
  -3.63599992       6.66264895E-13
  -3.63499999       6.73182430E-13
  -3.63400006       6.80031931E-13
  -3.63299990       6.86808900E-13
  -3.63199997       6.93508673E-13
  -3.63100004       7.00126589E-13
  -3.63000011       7.06657985E-13
  -3.62899995       7.13097983E-13
  -3.62800002       7.19441759E-13
  -3.62700009       7.25684378E-13
  -3.62599993       7.31820854E-13
  -3.62500000       7.37846091E-13
  -3.62400007       7.43755047E-13
  -3.62299991       7.49542572E-13
  -3.62199998       7.55203354E-13
  -3.62100005       7.60732189E-13
  -3.61999989       7.66123764E-13
  -3.61899996       7.71372603E-13
  -3.61800003       7.76473341E-13
  -3.61700010       7.81420555E-13
  -3.61599994       7.86208663E-13
  -3.61500001       7.90832081E-13
  -3.61400008       7.95285279E-13
  -3.61299992       7.99562565E-13
  -3.61199999       8.03658247E-13
  -3.61100006       8.07566687E-13
  -3.60999990       8.11282085E-13
  -3.60899997       8.14798641E-13
  -3.60800004       8.18110607E-13
  -3.60700011       8.21212130E-13
  -3.60599995       8.24097409E-13
  -3.60500002       8.26760535E-13
  -3.60400009       8.29195707E-13
  -3.60299993       8.31396963E-13
  -3.60200000       8.33358393E-13
  -3.60100007       8.35074143E-13
  -3.59999990       8.36538304E-13
  -3.59899998       8.37744967E-13
  -3.59800005       8.38688168E-13
  -3.59699988       8.39362054E-13
  -3.59599996       8.39760661E-13
  -3.59500003       8.39878134E-13
  -3.59400010       8.39708619E-13
  -3.59299994       8.39246316E-13
  -3.59200001       8.38485314E-13
  -3.59100008       8.37419869E-13
  -3.58999991       8.36044233E-13
  -3.58899999       8.34352607E-13
  -3.58800006       8.32339352E-13
  -3.58699989       8.29998776E-13
  -3.58599997       8.27325242E-13
  -3.58500004       8.24313274E-13
  -3.58400011       8.20957289E-13
  -3.58299994       8.17251919E-13
  -3.58200002       8.13191691E-13
  -3.58100009       8.08771344E-13
  -3.57999992       8.03985622E-13
  -3.57900000       7.98829319E-13
  -3.57800007       7.93297340E-13
  -3.57699990       7.87384697E-13
  -3.57599998       7.81086404E-13
  -3.57500005       7.74397636E-13
  -3.57399988       7.67313676E-13
  -3.57299995       7.59829862E-13
  -3.57200003       7.51941640E-13
  -3.57100010       7.43644566E-13
  -3.56999993       7.34934357E-13
  -3.56900001       7.25806839E-13
  -3.56800008       7.16257891E-13
  -3.56699991       7.06283610E-13
  -3.56599998       6.95880094E-13
  -3.56500006       6.85043710E-13
  -3.56399989       6.73770935E-13
  -3.56299996       6.62058299E-13
  -3.56200004       6.49902604E-13
  -3.56100011       6.37300759E-13
  -3.55999994       6.24249838E-13
  -3.55900002       6.10747022E-13
  -3.55800009       5.96789762E-13
  -3.55699992       5.82375619E-13
  -3.55599999       5.67502317E-13
  -3.55500007       5.52167795E-13
  -3.55399990       5.36370210E-13
  -3.55299997       5.20107774E-13
  -3.55200005       5.03379022E-13
  -3.55100012       4.86182709E-13
  -3.54999995       4.68517694E-13
  -3.54900002       4.50383085E-13
  -3.54800010       4.31778203E-13
  -3.54699993       4.12702614E-13
  -3.54600000       3.93156048E-13
  -3.54500008       3.73138505E-13
  -3.54399991       3.52650201E-13
  -3.54299998       3.31691597E-13
  -3.54200006       3.10263371E-13
  -3.54099989       2.88366444E-13
  -3.53999996       2.66002010E-13
  -3.53900003       2.43171450E-13
  -3.53800011       2.19876458E-13
  -3.53699994       1.96118973E-13
  -3.53600001       1.71901162E-13
  -3.53500009       1.47225494E-13
  -3.53399992       1.22094690E-13
  -3.53299999       9.65117268E-14
  -3.53200006       7.04798768E-14
  -3.53099990       4.40026738E-14
  -3.52999997       1.70839346E-14
  -3.52900004      -1.02722421E-14
  -3.52800012      -3.80614729E-14
  -3.52699995      -6.62790881E-14
  -3.52600002      -9.49201248E-14
  -3.52500010      -1.23979332E-13
  -3.52399993      -1.53451159E-13
  -3.52300000      -1.83329765E-13
  -3.52200007      -2.13609011E-13
  -3.52099991      -2.44282459E-13
  -3.51999998      -2.75343333E-13
  -3.51900005      -3.06784600E-13
  -3.51799989      -3.38598913E-13
  -3.51699996      -3.70778603E-13
  -3.51600003      -4.03315700E-13
  -3.51500010      -4.36201910E-13
  -3.51399994      -4.69428695E-13
  -3.51300001      -5.02987083E-13
  -3.51200008      -5.36867913E-13
  -3.51099992      -5.71061644E-13
  -3.50999999      -6.05558409E-13
  -3.50900006      -6.40348126E-13
  -3.50799990      -6.75420277E-13
  -3.50699997      -7.10764184E-13
  -3.50600004      -7.46368733E-13
  -3.50500011      -7.82222486E-13
  -3.50399995      -8.18313787E-13
  -3.50300002      -8.54630602E-13
  -3.50200009      -8.91160680E-13
  -3.50099993      -9.27891336E-13
  -3.50000000      -9.64809721E-13
  -3.49900007      -1.00190255E-12
  -3.49799991      -1.03915628E-12
  -3.49699998      -1.07655725E-12
  -3.49600005      -1.11409113E-12
  -3.49499989      -1.15174374E-12
  -3.49399996      -1.18950021E-12
  -3.49300003      -1.22734570E-12
  -3.49200010      -1.26526491E-12
  -3.49099994      -1.30324224E-12
  -3.49000001      -1.34126185E-12
  -3.48900008      -1.37930780E-12
  -3.48799992      -1.41736362E-12
  -3.48699999      -1.45541272E-12
  -3.48600006      -1.49343829E-12
  -3.48499990      -1.53142310E-12
  -3.48399997      -1.56934990E-12
  -3.48300004      -1.60720103E-12
  -3.48200011      -1.64495869E-12
  -3.48099995      -1.68260468E-12
  -3.48000002      -1.72012079E-12
  -3.47900009      -1.75748836E-12
  -3.47799993      -1.79468875E-12
  -3.47700000      -1.83170319E-12
  -3.47600007      -1.86851229E-12
  -3.47499990      -1.90509674E-12
  -3.47399998      -1.94143703E-12
  -3.47300005      -1.97751364E-12
  -3.47199988      -2.01330662E-12
  -3.47099996      -2.04879581E-12
  -3.47000003      -2.08396104E-12
  -3.46900010      -2.11878215E-12
  -3.46799994      -2.15323852E-12
  -3.46700001      -2.18730980E-12
  -3.46600008      -2.22097514E-12
  -3.46499991      -2.25421374E-12
  -3.46399999      -2.28700457E-12
  -3.46300006      -2.31932681E-12
  -3.46199989      -2.35115941E-12
  -3.46099997      -2.38248093E-12
  -3.46000004      -2.41327032E-12
  -3.45900011      -2.44350655E-12
  -3.45799994      -2.47316815E-12
  -3.45700002      -2.50223366E-12
  -3.45600009      -2.53068204E-12
  -3.45499992      -2.55849161E-12
  -3.45400000      -2.58564134E-12
  -3.45300007      -2.61210975E-12
  -3.45199990      -2.63787560E-12
  -3.45099998      -2.66291763E-12
  -3.45000005      -2.68721460E-12
  -3.44899988      -2.71074526E-12
  -3.44799995      -2.73348900E-12
  -3.44700003      -2.75542458E-12
  -3.44600010      -2.77653096E-12
  -3.44499993      -2.79678776E-12
  -3.44400001      -2.81617394E-12
  -3.44300008      -2.83466935E-12
  -3.44199991      -2.85225359E-12
  -3.44099998      -2.86890672E-12
  -3.44000006      -2.88460835E-12
  -3.43899989      -2.89933897E-12
  -3.43799996      -2.91307907E-12
  -3.43700004      -2.92580912E-12
  -3.43600011      -2.93751004E-12
  -3.43499994      -2.94816320E-12
  -3.43400002      -2.95774971E-12
  -3.43300009      -2.96625116E-12
  -3.43199992      -2.97364976E-12
  -3.43099999      -2.97992772E-12
  -3.43000007      -2.98506749E-12
  -3.42899990      -2.98905215E-12
  -3.42799997      -2.99186500E-12
  -3.42700005      -2.99348935E-12
  -3.42600012      -2.99390937E-12
  -3.42499995      -2.99310945E-12
  -3.42400002      -2.99107440E-12
  -3.42300010      -2.98778949E-12
  -3.42199993      -2.98324017E-12
  -3.42100000      -2.97741237E-12
  -3.42000008      -2.97029285E-12
  -3.41899991      -2.96186838E-12
  -3.41799998      -2.95212661E-12
  -3.41700006      -2.94105560E-12
  -3.41599989      -2.92864344E-12
  -3.41499996      -2.91487949E-12
  -3.41400003      -2.89975292E-12
  -3.41300011      -2.88325397E-12
  -3.41199994      -2.86537330E-12
  -3.41100001      -2.84610204E-12
  -3.41000009      -2.82543216E-12
  -3.40899992      -2.80335564E-12
  -3.40799999      -2.77986575E-12
  -3.40700006      -2.75495599E-12
  -3.40599990      -2.72862093E-12
  -3.40499997      -2.70085516E-12
  -3.40400004      -2.67165435E-12
  -3.40300012      -2.64101458E-12
  -3.40199995      -2.60893282E-12
  -3.40100002      -2.57540647E-12
  -3.40000010      -2.54043401E-12
  -3.39899993      -2.50401436E-12
  -3.39800000      -2.46614730E-12
  -3.39700007      -2.42683326E-12
  -3.39599991      -2.38607333E-12
  -3.39499998      -2.34386967E-12
  -3.39400005      -2.30022468E-12
  -3.39299989      -2.25514204E-12
  -3.39199996      -2.20862564E-12
  -3.39100003      -2.16068071E-12
  -3.39000010      -2.11131286E-12
  -3.38899994      -2.06052883E-12
  -3.38800001      -2.00833577E-12
  -3.38700008      -1.95474214E-12
  -3.38599992      -1.89975683E-12
  -3.38499999      -1.84338937E-12
  -3.38400006      -1.78565073E-12
  -3.38299990      -1.72655217E-12
  -3.38199997      -1.66610595E-12
  -3.38100004      -1.60432529E-12
  -3.38000011      -1.54122407E-12
  -3.37899995      -1.47681704E-12
  -3.37800002      -1.41111981E-12
  -3.37700009      -1.34414886E-12
  -3.37599993      -1.27592153E-12
  -3.37500000      -1.20645583E-12
  -3.37400007      -1.13577084E-12
  -3.37299991      -1.06388639E-12
  -3.37199998      -9.90823200E-13
  -3.37100005      -9.16602731E-13
  -3.36999989      -8.41247319E-13
  -3.36899996      -7.64780220E-13
  -3.36800003      -6.87225450E-13
  -3.36700010      -6.08607836E-13
  -3.36599994      -5.28953075E-13
  -3.36500001      -4.48287620E-13
  -3.36400008      -3.66638821E-13
  -3.36299992      -2.84034813E-13
  -3.36199999      -2.00504516E-13
  -3.36100006      -1.16077666E-13
  -3.35999990      -3.07847755E-14
  -3.35899997       5.53428492E-14
  -3.35800004       1.42273143E-13
  -3.35700011       2.29973267E-13
  -3.35599995       3.18409605E-13
  -3.35500002       4.07547883E-13
  -3.35400009       4.97353027E-13
  -3.35299993       5.87789257E-13
  -3.35200000       6.78820064E-13
  -3.35100007       7.70408260E-13
  -3.34999990       8.62516005E-13
  -3.34899998       9.55104810E-13
  -3.34800005       1.04813554E-12
  -3.34699988       1.14156818E-12
  -3.34599996       1.23536251E-12
  -3.34500003       1.32947722E-12
  -3.34400010       1.42387090E-12
  -3.34299994       1.51850136E-12
  -3.34200001       1.61332579E-12
  -3.34100008       1.70830093E-12
  -3.33999991       1.80338296E-12
  -3.33899999       1.89852756E-12
  -3.33800006       1.99368994E-12
  -3.33699989       2.08882521E-12
  -3.33599997       2.18388740E-12
  -3.33500004       2.27883077E-12
  -3.33400011       2.37360869E-12
  -3.33299994       2.46817432E-12
  -3.33200002       2.56248061E-12
  -3.33100009       2.65648029E-12
  -3.32999992       2.75012565E-12
  -3.32900000       2.84336855E-12
  -3.32800007       2.93616086E-12
  -3.32699990       3.02845444E-12
  -3.32599998       3.12020050E-12
  -3.32500005       3.21135002E-12
  -3.32399988       3.30185467E-12
  -3.32299995       3.39166520E-12
  -3.32200003       3.48073285E-12
  -3.32100010       3.56900837E-12
  -3.31999993       3.65644277E-12
  -3.31900001       3.74298726E-12
  -3.31800008       3.82859239E-12
  -3.31699991       3.91320960E-12
  -3.31599998       3.99679031E-12
  -3.31500006       4.07928552E-12
  -3.31399989       4.16064709E-12
  -3.31299996       4.24082644E-12
  -3.31200004       4.31977631E-12
  -3.31100011       4.39744855E-12
  -3.30999994       4.47379633E-12
  -3.30900002       4.54877195E-12
  -3.30800009       4.62232943E-12
  -3.30699992       4.69442193E-12
  -3.30599999       4.76500480E-12
  -3.30500007       4.83403205E-12
  -3.30399990       4.90145901E-12
  -3.30299997       4.96724146E-12
  -3.30200005       5.03133602E-12
  -3.30100012       5.09369933E-12
  -3.29999995       5.15429019E-12
  -3.29900002       5.21306609E-12
  -3.29800010       5.26998670E-12
  -3.29699993       5.32501213E-12
  -3.29600000       5.37810248E-12
  -3.29500008       5.42921957E-12
  -3.29399991       5.47832656E-12
  -3.29299998       5.52538614E-12
  -3.29200006       5.57036318E-12
  -3.29099989       5.61322299E-12
  -3.28999996       5.65393132E-12
  -3.28900003       5.69245649E-12
  -3.28800011       5.72876642E-12
  -3.28699994       5.76283075E-12
  -3.28600001       5.79462086E-12
  -3.28500009       5.82410812E-12
  -3.28399992       5.85126652E-12
  -3.28299999       5.87607003E-12
  -3.28200006       5.89849437E-12
  -3.28099990       5.91851698E-12
  -3.27999997       5.93611618E-12
  -3.27900004       5.95127246E-12
  -3.27800012       5.96396630E-12
  -3.27699995       5.97418122E-12
  -3.27600002       5.98190117E-12
  -3.27500010       5.98711185E-12
  -3.27399993       5.98980110E-12
  -3.27300000       5.98995723E-12
  -3.27200007       5.98757112E-12
  -3.27099991       5.98263496E-12
  -3.26999998       5.97514269E-12
  -3.26900005       5.96508997E-12
  -3.26799989       5.95247376E-12
  -3.26699996       5.93729276E-12
  -3.26600003       5.91954784E-12
  -3.26500010       5.89924203E-12
  -3.26399994       5.87637924E-12
  -3.26300001       5.85096598E-12
  -3.26200008       5.82301048E-12
  -3.26099992       5.79252228E-12
  -3.25999999       5.75951353E-12
  -3.25900006       5.72399766E-12
  -3.25799990       5.68599031E-12
  -3.25699997       5.64550923E-12
  -3.25600004       5.60257439E-12
  -3.25500011       5.55720617E-12
  -3.25399995       5.50942928E-12
  -3.25300002       5.45926889E-12
  -3.25200009       5.40675274E-12
  -3.25099993       5.35190989E-12
  -3.25000000       5.29477200E-12
  -3.24900007       5.23537333E-12
  -3.24799991       5.17374902E-12
  -3.24699998       5.10993721E-12
  -3.24600005       5.04397782E-12
  -3.24499989       4.97591204E-12
  -3.24399996       4.90578455E-12
  -3.24300003       4.83364087E-12
  -3.24200010       4.75952871E-12
  -3.24099994       4.68349881E-12
  -3.24000001       4.60560279E-12
  -3.23900008       4.52589485E-12
  -3.23799992       4.44443137E-12
  -3.23699999       4.36127089E-12
  -3.23600006       4.27647327E-12
  -3.23499990       4.19010052E-12
  -3.23399997       4.10221726E-12
  -3.23300004       4.01288985E-12
  -3.23200011       3.92218636E-12
  -3.23099995       3.83017663E-12
  -3.23000002       3.73693307E-12
  -3.22900009       3.64252985E-12
  -3.22799993       3.54704222E-12
  -3.22700000       3.45054801E-12
  -3.22600007       3.35312702E-12
  -3.22499990       3.25486036E-12
  -3.22399998       3.15583128E-12
  -3.22300005       3.05612436E-12
  -3.22199988       2.95582656E-12
  -3.22099996       2.85502589E-12
  -3.22000003       2.75381237E-12
  -3.21900010       2.65227727E-12
  -3.21799994       2.55051384E-12
  -3.21700001       2.44861683E-12
  -3.21600008       2.34668188E-12
  -3.21499991       2.24480699E-12
  -3.21399999       2.14309083E-12
  -3.21300006       2.04163401E-12
  -3.21199989       1.94053779E-12
  -3.21099997       1.83990518E-12
  -3.21000004       1.73984015E-12
  -3.20900011       1.64044798E-12
  -3.20799994       1.54183491E-12
  -3.20700002       1.44410840E-12
  -3.20600009       1.34737685E-12
  -3.20499992       1.25174936E-12
  -3.20400000       1.15733616E-12
  -3.20300007       1.06424797E-12
  -3.20199990       9.72596678E-13
  -3.20099998       8.82494490E-13
  -3.20000005       7.94054330E-13
  -3.19899988       7.07389659E-13
  -3.19799995       6.22614482E-13
  -3.19700003       5.39843127E-13
  -3.19600010       4.59190140E-13
  -3.19499993       3.80770448E-13
  -3.19400001       3.04699137E-13
  -3.19300008       2.31091323E-13
  -3.19199991       1.60062190E-13
  -3.19099998       9.17268513E-14
  -3.19000006       2.62002656E-14
  -3.18899989      -3.64028299E-14
  -3.18799996      -9.59679994E-14
  -3.18700004      -1.52381214E-13
  -3.18600011      -2.05528926E-13
  -3.18499994      -2.55298143E-13
  -3.18400002      -3.01576553E-13
  -3.18300009      -3.44252513E-13
  -3.18199992      -3.83215297E-13
  -3.18099999      -4.18355048E-13
  -3.18000007      -4.49562940E-13
  -3.17899990      -4.76731230E-13
  -3.17799997      -4.99753450E-13
  -3.17700005      -5.18524297E-13
  -3.17600012      -5.32940012E-13
  -3.17499995      -5.42898246E-13
  -3.17400002      -5.48298115E-13
  -3.17300010      -5.49040576E-13
  -3.17199993      -5.45028269E-13
  -3.17100000      -5.36165784E-13
  -3.17000008      -5.22359608E-13
  -3.16899991      -5.03518288E-13
  -3.16799998      -4.79552596E-13
  -3.16700006      -4.50375495E-13
  -3.16599989      -4.15902339E-13
  -3.16499996      -3.76050997E-13
  -3.16400003      -3.30741809E-13
  -3.16300011      -2.79897850E-13
  -3.16199994      -2.23444920E-13
  -3.16100001      -1.61311692E-13
  -3.16000009      -9.34297805E-14
  -3.15899992      -1.97338670E-14
  -3.15799999       5.98382021E-14
  -3.15700006       1.45345338E-13
  -3.15599990       2.36843070E-13
  -3.15499997       3.34383535E-13
  -3.15400004       4.38015265E-13
  -3.15300012       5.47783173E-13
  -3.15199995       6.63728458E-13
  -3.15100002       7.85888444E-13
  -3.15000010       9.14296525E-13
  -3.14899993       1.04898219E-12
  -3.14800000       1.18997054E-12
  -3.14700007       1.33728282E-12
  -3.14599991       1.49093563E-12
  -3.14499998       1.65094143E-12
  -3.14400005       1.81730824E-12