  -4.00000000       0.00000000    
  -3.99900007       0.00000000    
  -3.99799991       0.00000000    
  -3.99699998       0.00000000    
  -3.99600005       4.66756055E-27
  -3.99499989       4.20344841E-26
  -3.99399996       2.10305288E-25
  -3.99300003       7.71609158E-25
  -3.99200010       2.31630348E-24
  -3.99099994       6.02624690E-24
  -3.99000001       1.40702872E-23
  -3.98900008       3.01700800E-23
  -3.98799992       6.03792748E-23
  -3.98699999       1.14123927E-22
  -3.98600006       2.05557146E-22
  -3.98499990       3.55285761E-22
  -3.98399997       5.92531929E-22
  -3.98300004       9.57797601E-22
  -3.98200011       1.50610485E-21
  -3.98099995       2.31089020E-21
  -3.98000002       3.46863650E-21
  -3.97900009       5.10432921E-21
  -3.97799993       7.37783391E-21
  -3.97700000       1.04912884E-20
  -3.97600007       1.46976198E-20
  -3.97499990       2.03102939E-20
  -3.97399998       2.77144021E-20
  -3.97300005       3.73792191E-20
  -3.97199988       4.98723573E-20
  -3.97099996       6.58756235E-20
  -3.97000003       8.62027470E-20
  -3.96900010       1.11819102E-19
  -3.96799994       1.43863549E-19
  -3.96700001       1.83672625E-19
  -3.96600008       2.32807088E-19
  -3.96499991       2.93081206E-19
  -3.96399999       3.66594634E-19
  -3.96300006       4.55767470E-19
  -3.96199989       5.63378291E-19
  -3.96099997       6.92605358E-19
  -3.96000004       8.47071825E-19
  -3.95900011       1.03089390E-18
  -3.95799994       1.24873346E-18
  -3.95700002       1.50585459E-18
  -3.95600009       1.80818435E-18
  -3.95499992       2.16237771E-18
  -3.95400000       2.57588820E-18
  -3.95300007       3.05704220E-18
  -3.95199990       3.61511966E-18
  -3.95099998       4.26043883E-18
  -3.95000005       5.00444726E-18
  -3.94899988       5.85981984E-18
  -3.94799995       6.84055991E-18
  -3.94700003       7.96211053E-18
  -3.94600010       9.24146860E-18
  -3.94499993       1.06973073E-17
  -3.94400001       1.23501076E-17
  -3.94300008       1.42222936E-17
  -3.94199991       1.63383788E-17
  -3.94099998       1.87251125E-17
  -3.94000006       2.14116496E-17
  -3.93899989       2.44297123E-17
  -3.93799996       2.78137661E-17
  -3.93700004       3.16012144E-17
  -3.93600011       3.58325807E-17
  -3.93499994       4.05517255E-17
  -3.93400002       4.58060496E-17
  -3.93300009       5.16467255E-17
  -3.93199992       5.81289264E-17
  -3.93099999       6.53120768E-17
  -3.93000007       7.32600914E-17
  -3.92899990       8.20416525E-17
  -3.92799997       9.17304984E-17
  -3.92700005       1.02405688E-16
  -3.92600012       1.14151904E-16
  -3.92499995       1.27059773E-16
  -3.92400002       1.41226174E-16
  -3.92300010       1.56754617E-16
  -3.92199993       1.73755508E-16
  -3.92100000       1.92346597E-16
  -3.92000008       2.12653273E-16
  -3.91899991       2.34809021E-16
  -3.91799998       2.58955733E-16
  -3.91700006       2.85244221E-16
  -3.91599989       3.13834574E-16
  -3.91499996       3.44896622E-16
  -3.91400003       3.78610360E-16
  -3.91300011       4.15166423E-16
  -3.91199994       4.54766590E-16
  -3.91100001       4.97624233E-16
  -3.91000009       5.43964876E-16
  -3.90899992       5.94026747E-16
  -3.90799999       6.48061096E-16
  -3.90700006       7.06333046E-16
  -3.90599990       7.69121957E-16
  -3.90499997       8.36722068E-16
  -3.90400004       9.09443076E-16
  -3.90300012       9.87610664E-16
  -3.90199995       1.07156730E-15
  -3.90100002       1.16167276E-15
  -3.90000010       1.25830461E-15
  -3.89899993       1.36185915E-15
  -3.89800000       1.47275196E-15
  -3.89700007       1.59141863E-15
  -3.89599991       1.71831528E-15
  -3.89499998       1.85391943E-15
  -3.89400005       1.99873094E-15
  -3.89299989       2.15327210E-15
  -3.89199996       2.31808883E-15
  -3.89100003       2.49375161E-15
  -3.89000010       2.68085568E-15
  -3.88899994       2.88002256E-15
  -3.88800001       3.09190002E-15
  -3.88700008       3.31716356E-15
  -3.88599992       3.55651643E-15
  -3.88499999       3.81069154E-15
  -3.88400006       4.08045120E-15
  -3.88299990       4.36658867E-15
  -3.88199997       4.66992854E-15
  -3.88100004       4.99132799E-15
  -3.88000011       5.33167726E-15
  -3.87899995       5.69190005E-15
  -3.87800002       6.07295603E-15
  -3.87700009       6.47584005E-15
  -3.87599993       6.90158295E-15
  -3.87500000       7.35125411E-15
  -3.87400007       7.82596017E-15
  -3.87299991       8.32684802E-15
  -3.87199998       8.85510351E-15
  -3.87100005       9.41195313E-15
  -3.86999989       9.99866575E-15
  -3.86899996       1.06165526E-14
  -3.86800003       1.12669671E-14
  -3.86700010       1.19513096E-14
  -3.86599994       1.26710217E-14
  -3.86500001       1.34275932E-14
  -3.86400008       1.42225573E-14
  -3.86299992       1.50574997E-14
  -3.86199999       1.59340484E-14
  -3.86100006       1.68538838E-14
  -3.85999990       1.78187340E-14
  -3.85899997       1.88303776E-14
  -3.85800004       1.98906443E-14
  -3.85700011       2.10014128E-14
  -3.85599995       2.21646178E-14
  -3.85500002       2.33822429E-14
  -3.85400009       2.46563278E-14
  -3.85299993       2.59889630E-14
  -3.85200000       2.73822967E-14
  -3.85100007       2.88385276E-14
  -3.84999990       3.03599105E-14
  -3.84899998       3.19487580E-14
  -3.84800005       3.36074349E-14
  -3.84699988       3.53383670E-14
  -3.84599996       3.71440278E-14
  -3.84500003       3.90269583E-14
  -3.84400010       4.09897437E-14
  -3.84299994       4.30350369E-14
  -3.84200001       4.51655416E-14
  -3.84100008       4.73840192E-14
  -3.83999991       4.96932885E-14
  -3.83899999       5.20962261E-14
  -3.83800006       5.45957593E-14
  -3.83699989       5.71948765E-14
  -3.83599997       5.98966270E-14
  -3.83500004       6.27041008E-14
  -3.83400011       6.56204556E-14
  -3.83299994       6.86489033E-14
  -3.83200002       7.17926966E-14
  -3.83100009       7.50551558E-14
  -3.82999992       7.84396419E-14
  -3.82900000       8.19495703E-14
  -3.82800007       8.55884171E-14
  -3.82699990       8.93596991E-14
  -3.82599998       9.32669808E-14
  -3.82500005       9.73138738E-14
  -3.82399988       1.01504031E-13
  -3.82299995       1.05841171E-13
  -3.82200003       1.10329030E-13
  -3.82100010       1.14971387E-13
  -3.81999993       1.19772071E-13
  -3.81900001       1.24734966E-13
  -3.81800008       1.29863947E-13
  -3.81699991       1.35162958E-13
  -3.81599998       1.40635957E-13
  -3.81500006       1.46286954E-13
  -3.81399989       1.52119948E-13
  -3.81299996       1.58138991E-13
  -3.81200004       1.64348149E-13
  -3.81100011       1.70751515E-13
  -3.80999994       1.77353182E-13
  -3.80900002       1.84157268E-13
  -3.80800009       1.91167882E-13
  -3.80699992       1.98389170E-13
  -3.80599999       2.05825266E-13
  -3.80500007       2.13480289E-13
  -3.80399990       2.21358386E-13
  -3.80299997       2.29463665E-13
  -3.80200005       2.37800258E-13
  -3.80100012       2.46372231E-13
  -3.79999995       2.55183651E-13
  -3.79900002       2.64238609E-13
  -3.79800010       2.73541091E-13
  -3.79699993       2.83095108E-13
  -3.79600000       2.92904617E-13
  -3.79500008       3.02973494E-13
  -3.79399991       3.13305588E-13
  -3.79299998       3.23904721E-13
  -3.79200006       3.34774634E-13
  -3.79099989       3.45919013E-13
  -3.78999996       3.57341489E-13
  -3.78900003       3.69045587E-13
  -3.78800011       3.81034749E-13
  -3.78699994       3.93312336E-13
  -3.78600001       4.05881627E-13
  -3.78500009       4.18745821E-13
  -3.78399992       4.31907927E-13
  -3.78299999       4.45370954E-13
  -3.78200006       4.59137665E-13
  -3.78099990       4.73210826E-13
  -3.77999997       4.87593039E-13
  -3.77900004       5.02286689E-13
  -3.77800012       5.17294053E-13
  -3.77699995       5.32617245E-13
  -3.77600002       5.48258270E-13
  -3.77500010       5.64218919E-13
  -3.77399993       5.80500817E-13
  -3.77300000       5.97105373E-13
  -3.77200007       6.14033780E-13
  -3.77099991       6.31287123E-13
  -3.76999998       6.48866215E-13
  -3.76900005       6.66771651E-13
  -3.76799989       6.85003811E-13
  -3.76699996       7.03562859E-13
  -3.76600003       7.22448685E-13
  -3.76500010       7.41660856E-13
  -3.76399994       7.61198830E-13
  -3.76300001       7.81061685E-13
  -3.76200008       8.01248282E-13
  -3.76099992       8.21757105E-13
  -3.75999999       8.42586417E-13
  -3.75900006       8.63734160E-13
  -3.75799990       8.85197948E-13
  -3.75699997       9.06975070E-13
  -3.75600004       9.29062491E-13
  -3.75500011       9.51456795E-13
  -3.75399995       9.74154243E-13
  -3.75300002       9.97150821E-13
  -3.75200009       1.02044209E-12
  -3.75099993       1.04402294E-12
  -3.75000000       1.06788840E-12
  -3.74900007       1.09203271E-12
  -3.74799991       1.11644981E-12
  -3.74699998       1.14113319E-12
  -3.74600005       1.16607602E-12
  -3.74499989       1.19127104E-12
  -3.74399996       1.21671033E-12
  -3.74300003       1.24238575E-12
  -3.74200010       1.26828853E-12
  -3.74099994       1.29440946E-12
  -3.74000001       1.32073898E-12
  -3.73900008       1.34726681E-12
  -3.73799992       1.37398242E-12
  -3.73699999       1.40087464E-12
  -3.73600006       1.42793188E-12
  -3.73499990       1.45514178E-12
  -3.73399997       1.48249176E-12
  -3.73300004       1.50996837E-12
  -3.73200011       1.53755795E-12
  -3.73099995       1.56524609E-12
  -3.73000002       1.59301793E-12
  -3.72900009       1.62085774E-12
  -3.72799993       1.64874960E-12
  -3.72700000       1.67667692E-12
  -3.72600007       1.70462234E-12
  -3.72499990       1.73256797E-12
  -3.72399998       1.76049540E-12
  -3.72300005       1.78838563E-12
  -3.72199988       1.81621883E-12
  -3.72099996       1.84397484E-12
  -3.72000003       1.87163284E-12
  -3.71900010       1.89917114E-12
  -3.71799994       1.92656741E-12
  -3.71700001       1.95379888E-12
  -3.71600008       1.98084236E-12
  -3.71499991       2.00767354E-12
  -3.71399999       2.03426772E-12
  -3.71300006       2.06059952E-12
  -3.71199989       2.08664292E-12
  -3.71099997       2.11237104E-12
  -3.71000004       2.13775677E-12
  -3.70900011       2.16277191E-12
  -3.70799994       2.18738807E-12
  -3.70700002       2.21157554E-12
  -3.70600009       2.23530461E-12
  -3.70499992       2.25854470E-12
  -3.70400000       2.28126437E-12
  -3.70300007       2.30343197E-12
  -3.70199990       2.32501496E-12
  -3.70099998       2.34597975E-12
  -3.70000005       2.36629271E-12
  -3.69899988       2.38591959E-12
  -3.69799995       2.40482504E-12
  -3.69700003       2.42297328E-12
  -3.69600010       2.44032832E-12
  -3.69499993       2.45685286E-12
  -3.69400001       2.47250983E-12
  -3.69300008       2.48726061E-12
  -3.69199991       2.50106684E-12
  -3.69099998       2.51388905E-12
  -3.69000006       2.52568734E-12
  -3.68899989       2.53642138E-12
  -3.68799996       2.54605039E-12
  -3.68700004       2.55453254E-12
  -3.68600011       2.56182597E-12
  -3.68499994       2.56788818E-12
  -3.68400002       2.57267623E-12
  -3.68300009       2.57614676E-12
  -3.68199992       2.57825553E-12
  -3.68099999       2.57895831E-12
  -3.68000007       2.57821043E-12
  -3.67899990       2.57596635E-12
  -3.67799997       2.57218075E-12
  -3.67700005       2.56680744E-12
  -3.67600012       2.55980025E-12
  -3.67499995       2.55111253E-12
  -3.67400002       2.54069725E-12
  -3.67300010       2.52850735E-12
  -3.67199993       2.51449491E-12
  -3.67100000       2.49861243E-12
  -3.67000008       2.48081178E-12
  -3.66899991       2.46104504E-12
  -3.66799998       2.43926385E-12
  -3.66700006       2.41541943E-12
  -3.66599989       2.38946341E-12
  -3.66499996       2.36134723E-12
  -3.66400003       2.33102188E-12
  -3.66300011       2.29843900E-12
  -3.66199994       2.26354981E-12
  -3.66100001       2.22630551E-12
  -3.66000009       2.18665732E-12
  -3.65899992       2.14455732E-12
  -3.65799999       2.09995649E-12
  -3.65700006       2.05280714E-12
  -3.65599990       2.00306091E-12
  -3.65499997       1.95067031E-12
  -3.65400004       1.89558785E-12
  -3.65300012       1.83776627E-12
  -3.65199995       1.77715904E-12
  -3.65100002       1.71371966E-12
  -3.65000010       1.64740216E-12
  -3.64899993       1.57816121E-12
  -3.64800000       1.50595172E-12
  -3.64700007       1.43072945E-12
  -3.64599991       1.35245049E-12
  -3.64499998       1.27107168E-12
  -3.64400005       1.18655064E-12
  -3.64299989       1.09884573E-12
  -3.64199996       1.00791586E-12
  -3.64100003       9.13721030E-13
  -3.64000010       8.16221819E-13
  -3.63899994       7.15380012E-13
  -3.63800001       6.11158151E-13
  -3.63700008       5.03519860E-13
  -3.63599992       3.92429795E-13
  -3.63499999       2.77853749E-13
  -3.63400006       1.59758654E-13
  -3.63299990       3.81126235E-14
  -3.63199997      -8.71149940E-14
  -3.63100004      -2.15953530E-13
  -3.63000011      -3.48430974E-13
  -3.62899995      -4.84573969E-13
  -3.62800002      -6.24407698E-13
  -3.62700009      -7.67955740E-13
  -3.62599993      -9.15240214E-13
  -3.62500000      -1.06628161E-12
  -3.62400007      -1.22109885E-12
  -3.62299991      -1.37970917E-12
  -3.62199998      -1.54212786E-12
  -3.62100005      -1.70836869E-12
  -3.61999989      -1.87844315E-12
  -3.61899996      -2.05236154E-12
  -3.61800003      -2.23013144E-12
  -3.61700010      -2.41175894E-12
  -3.61599994      -2.59724772E-12
  -3.61500001      -2.78659951E-12
  -3.61400008      -2.97981388E-12
  -3.61299992      -3.17688844E-12
  -3.61199999      -3.37781799E-12
  -3.61100006      -3.58259559E-12
  -3.60999990      -3.79121127E-12
  -3.60899997      -4.00365375E-12
  -3.60800004      -4.21990828E-12
  -3.60700011      -4.43995752E-12
  -3.60599995      -4.66378281E-12
  -3.60500002      -4.89136162E-12
  -3.60400009      -5.12266922E-12
  -3.60299993      -5.35767871E-12
  -3.60200000      -5.59635931E-12
  -3.60100007      -5.83867850E-12
  -3.59999990      -6.08460071E-12
  -3.59899998      -6.33408690E-12
  -3.59800005      -6.58709589E-12
  -3.59699988      -6.84358343E-12
  -3.59599996      -7.10350181E-12
  -3.59500003      -7.36680075E-12
  -3.59400010      -7.63342688E-12
  -3.59299994      -7.90332296E-12
  -3.59200001      -8.17643002E-12
  -3.59100008      -8.45268560E-12
  -3.58999991      -8.73202292E-12
  -3.58899999      -9.01437258E-12
  -3.58800006      -9.29966260E-12
  -3.58699989      -9.58781578E-12
  -3.58599997      -9.87875406E-12
  -3.58500004      -1.01723950E-11
  -3.58400011      -1.04686520E-11
  -3.58299994      -1.07674364E-11
  -3.58200002      -1.10686547E-11
  -3.58100009      -1.13722113E-11
  -3.57999992      -1.16780075E-11
  -3.57900000      -1.19859392E-11
  -3.57800007      -1.22958995E-11
  -3.57699990      -1.26077785E-11
  -3.57599998      -1.29214634E-11
  -3.57500005      -1.32368370E-11
  -3.57399988      -1.35537788E-11
  -3.57299995      -1.38721638E-11
  -3.57200003      -1.41918656E-11
  -3.57100010      -1.45127521E-11
  -3.56999993      -1.48346890E-11
  -3.56900001      -1.51575384E-11
  -3.56800008      -1.54811580E-11
  -3.56699991      -1.58054021E-11
  -3.56599998      -1.61301215E-11
  -3.56500006      -1.64551654E-11
  -3.56399989      -1.67803774E-11
  -3.56299996      -1.71055999E-11
  -3.56200004      -1.74306680E-11
  -3.56100011      -1.77554169E-11
  -3.55999994      -1.80796766E-11
  -3.55900002      -1.84032737E-11
  -3.55800009      -1.87260311E-11
  -3.55699992      -1.90477738E-11
  -3.55599999      -1.93683142E-11
  -3.55500007      -1.96874687E-11
  -3.55399990      -2.00050480E-11
  -3.55299997      -2.03208613E-11
  -3.55200005      -2.06347092E-11
  -3.55100012      -2.09463974E-11
  -3.54999995      -2.12557229E-11
  -3.54900002      -2.15624792E-11
  -3.54800010      -2.18664618E-11
  -3.54699993      -2.21674606E-11
  -3.54600000      -2.24652606E-11
  -3.54500008      -2.27596466E-11
  -3.54399991      -2.30504019E-11
  -3.54299998      -2.33373060E-11
  -3.54200006      -2.36201336E-11
  -3.54099989      -2.38986591E-11
  -3.53999996      -2.41726552E-11
  -3.53900003      -2.44418912E-11
  -3.53800011      -2.47061364E-11
  -3.53699994      -2.49651549E-11
  -3.53600001      -2.52187091E-11
  -3.53500009      -2.54665629E-11
  -3.53399992      -2.57084735E-11
  -3.53299999      -2.59442016E-11
  -3.53200006      -2.61735009E-11
  -3.53099990      -2.63961283E-11
  -3.52999997      -2.66118377E-11
  -3.52900004      -2.68203793E-11
  -3.52800012      -2.70215066E-11
  -3.52699995      -2.72149699E-11
  -3.52600002      -2.74005159E-11
  -3.52500010      -2.75778948E-11
  -3.52399993      -2.77468552E-11
  -3.52300000      -2.79071419E-11
  -3.52200007      -2.80585034E-11
  -3.52099991      -2.82006866E-11
  -3.51999998      -2.83334380E-11
  -3.51900005      -2.84565028E-11
  -3.51799989      -2.85696276E-11
  -3.51699996      -2.86725609E-11
  -3.51600003      -2.87650476E-11
  -3.51500010      -2.88468381E-11
  -3.51399994      -2.89176790E-11
  -3.51300001      -2.89773223E-11
  -3.51200008      -2.90255164E-11
  -3.51099992      -2.90620132E-11
  -3.50999999      -2.90865648E-11
  -3.50900006      -2.90989299E-11
  -3.50799990      -2.90988587E-11
  -3.50699997      -2.90861137E-11
  -3.50600004      -2.90604554E-11
  -3.50500011      -2.90216427E-11
  -3.50399995      -2.89694432E-11
  -3.50300002      -2.89036226E-11
  -3.50200009      -2.88239519E-11
  -3.50099993      -2.87302022E-11
  -3.50000000      -2.86221515E-11
  -3.49900007      -2.84995777E-11
  -3.49799991      -2.83622639E-11
  -3.49699998      -2.82099968E-11
  -3.49600005      -2.80425648E-11
  -3.49499989      -2.78597631E-11
  -3.49399996      -2.76613905E-11
  -3.49300003      -2.74472476E-11
  -3.49200010      -2.72171417E-11
  -3.49099994      -2.69708856E-11
  -3.49000001      -2.67082953E-11
  -3.48900008      -2.64291939E-11
  -3.48799992      -2.61334062E-11
  -3.48699999      -2.58207639E-11
  -3.48600006      -2.54911075E-11
  -3.48499990      -2.51442808E-11
  -3.48399997      -2.47801328E-11
  -3.48300004      -2.43985197E-11
  -3.48200011      -2.39993060E-11
  -3.48099995      -2.35823583E-11
  -3.48000002      -2.31475533E-11
  -3.47900009      -2.26947749E-11
  -3.47799993      -2.22239137E-11
  -3.47700000      -2.17348674E-11
  -3.47600007      -2.12275406E-11
  -3.47499990      -2.07018465E-11
  -3.47399998      -2.01577054E-11
  -3.47300005      -1.95950461E-11
  -3.47199988      -1.90138044E-11
  -3.47099996      -1.84139284E-11
  -3.47000003      -1.77953728E-11
  -3.46900010      -1.71580979E-11
  -3.46799994      -1.65020775E-11
  -3.46700001      -1.58272909E-11
  -3.46600008      -1.51337311E-11
  -3.46499991      -1.44213964E-11
  -3.46399999      -1.36902972E-11
  -3.46300006      -1.29404517E-11
  -3.46199989      -1.21718902E-11
  -3.46099997      -1.13846510E-11
  -3.46000004      -1.05787852E-11
  -3.45900011      -9.75435271E-12
  -3.45799994      -8.91142281E-12
  -3.45700002      -8.05007797E-12
  -3.45600009      -7.17041010E-12
  -3.45499992      -6.27252243E-12
  -3.45400000      -5.35652902E-12
  -3.45300007      -4.42255520E-12
  -3.45199990      -3.47073802E-12
  -3.45099998      -2.50122536E-12
  -3.45000005      -1.51417735E-12
  -3.44899988      -5.09765407E-13
  -3.44799995       5.11827234E-13
  -3.44700003       1.55040542E-12
  -3.44600010       2.60576196E-12
  -3.44499993       3.67767795E-12
  -3.44400001       4.76592160E-12
  -3.44300008       5.87024960E-12
  -3.44199991       6.99040608E-12
  -3.44099998       8.12612304E-12
  -3.44000006       9.27711900E-12
  -3.43899989       1.04431012E-11
  -3.43799996       1.16237645E-11
  -3.43700004       1.28187903E-11
  -3.43600011       1.40278483E-11
  -3.43499994       1.52505942E-11
  -3.43400002       1.64866731E-11
  -3.43300009       1.77357139E-11
  -3.43199992       1.89973384E-11
  -3.43099999       2.02711511E-11
  -3.43000007       2.15567442E-11
  -3.42899990       2.28536998E-11
  -3.42799997       2.41615825E-11
  -3.42700005       2.54799497E-11
  -3.42600012       2.68083437E-11
  -3.42499995       2.81462961E-11
  -3.42400002       2.94933244E-11
  -3.42300010       3.08489276E-11
  -3.42199993       3.22126041E-11
  -3.42100000       3.35838336E-11
  -3.42000008       3.49620853E-11
  -3.41899991       3.63468110E-11
  -3.41799998       3.77374590E-11
  -3.41700006       3.91334569E-11
  -3.41599989       4.05342288E-11
  -3.41499996       4.19391813E-11
  -3.41400003       4.33477143E-11
  -3.41300011       4.47592068E-11
  -3.41199994       4.61730341E-11
  -3.41100001       4.75885616E-11
  -3.41000009       4.90051368E-11
  -3.40899992       5.04221040E-11
  -3.40799999       5.18387937E-11
  -3.40700006       5.32545258E-11
  -3.40599990       5.46686064E-11
  -3.40499997       5.60803348E-11
  -3.40400004       5.74890031E-11
  -3.40300012       5.88938828E-11
  -3.40199995       6.02942557E-11
  -3.40100002       6.16893828E-11
  -3.40000010       6.30785077E-11
  -3.39899993       6.44608741E-11
  -3.39800000       6.58357188E-11
  -3.39700007       6.72022715E-11
  -3.39599991       6.85597482E-11
  -3.39499998       6.99073646E-11
  -3.39400005       7.12443229E-11
  -3.39299989       7.25698113E-11
  -3.39199996       7.38830316E-11
  -3.39100003       7.51831583E-11
  -3.39000010       7.64693794E-11
  -3.38899994       7.77408554E-11
  -3.38800001       7.89967605E-11
  -3.38700008       8.02362482E-11
  -3.38599992       8.14584858E-11
  -3.38499999       8.26626198E-11
  -3.38400006       8.38477968E-11
  -3.38299990       8.50131701E-11
  -3.38199997       8.61578725E-11
  -3.38100004       8.72810435E-11
  -3.38000011       8.83818296E-11
  -3.37899995       8.94593497E-11
  -3.37800002       9.05127501E-11
  -3.37700009       9.15411566E-11
  -3.37599993       9.25437088E-11
  -3.37500000       9.35195324E-11
  -3.37400007       9.44677531E-11
  -3.37299991       9.53875104E-11
  -3.37199998       9.62779370E-11
  -3.37100005       9.71381656E-11
  -3.36999989       9.79673356E-11
  -3.36899996       9.87645868E-11
  -3.36800003       9.95290586E-11
  -3.36700010       1.00259905E-10
  -3.36599994       1.00956257E-10
  -3.36500001       1.01617284E-10
  -3.36400008       1.02242145E-10
  -3.36299992       1.02830008E-10
  -3.36199999       1.03380034E-10
  -3.36100006       1.03891402E-10
  -3.35999990       1.04363303E-10
  -3.35899997       1.04794923E-10
  -3.35800004       1.05185465E-10
  -3.35700011       1.05534130E-10
  -3.35599995       1.05840142E-10
  -3.35500002       1.06102731E-10
  -3.35400009       1.06321126E-10
  -3.35299993       1.06494584E-10
  -3.35200000       1.06622357E-10
  -3.35100007       1.06703722E-10
  -3.34999990       1.06737952E-10
  -3.34899998       1.06724352E-10
  -3.34800005       1.06662235E-10
  -3.34699988       1.06550914E-10
  -3.34599996       1.06389730E-10
  -3.34500003       1.06178032E-10
  -3.34400010       1.05915200E-10
  -3.34299994       1.05600612E-10
  -3.34200001       1.05233662E-10
  -3.34100008       1.04813776E-10
  -3.33999991       1.04340390E-10
  -3.33899999       1.03812958E-10
  -3.33800006       1.03230952E-10
  -3.33699989       1.02593864E-10
  -3.33599997       1.01901210E-10
  -3.33500004       1.01152510E-10
  -3.33400011       1.00347328E-10
  -3.33299994       9.94852326E-11
  -3.33200002       9.85658222E-11
  -3.33100009       9.75887079E-11
  -3.32999992       9.65535429E-11
  -3.32900000       9.54599802E-11
  -3.32800007       9.43077214E-11
  -3.32699990       9.30964680E-11
  -3.32599998       9.18259635E-11
  -3.32500005       9.04959649E-11
  -3.32399988       8.91062640E-11
  -3.32299995       8.76566805E-11
  -3.32200003       8.61470409E-11
  -3.32100010       8.45772272E-11
  -3.31999993       8.29471283E-11
  -3.31900001       8.12566681E-11
  -3.31800008       7.95057978E-11
  -3.31699991       7.76945036E-11
  -3.31599998       7.58227786E-11
  -3.31500006       7.38906783E-11
  -3.31399989       7.18982651E-11
  -3.31299996       6.98456362E-11
  -3.31200004       6.77329165E-11
  -3.31100011       6.55602725E-11
  -3.30999994       6.33278985E-11
  -3.30900002       6.10360096E-11
  -3.30800009       5.86848625E-11
  -3.30699992       5.62747453E-11
  -3.30599999       5.38059736E-11
  -3.30500007       5.12789013E-11
  -3.30399990       4.86939135E-11
  -3.30299997       4.60514231E-11
  -3.30200005       4.33518846E-11
  -3.30100012       4.05957837E-11
  -3.29999995       3.77836373E-11
  -3.29900002       3.49159937E-11
  -3.29800010       3.19934426E-11
  -3.29699993       2.90165999E-11
  -3.29600000       2.59861212E-11
  -3.29500008       2.29026954E-11
  -3.29399991       1.97670439E-11
  -3.29299998       1.65799284E-11
  -3.29200006       1.33421382E-11
  -3.29099989       1.00545006E-11
  -3.28999996       6.71787799E-12
  -3.28900003       3.33316577E-12
  -3.28800011      -9.87044783E-14
  -3.28699994      -3.57676692E-12
  -3.28600001      -7.10002153E-12
  -3.28500009      -1.06674331E-11
  -3.28399992      -1.42779321E-11
  -3.28299999      -1.79304158E-11
  -3.28200006      -2.16237445E-11
  -3.28099990      -2.53567462E-11
  -3.27999997      -2.91282172E-11
  -3.27900004      -3.29369136E-11
  -3.27800012      -3.67815674E-11
  -3.27699995      -4.06608670E-11
  -3.27600002      -4.45734734E-11
  -3.27500010      -4.85180160E-11
  -3.27399993      -5.24930863E-11
  -3.27300000      -5.64972513E-11
  -3.27200007      -6.05290332E-11
  -3.27099991      -6.45869400E-11
  -3.26999998      -6.86694382E-11
  -3.26900005      -7.27749597E-11
  -3.26799989      -7.69019085E-11
  -3.26699996      -8.10486608E-11
  -3.26600003      -8.52135723E-11
  -3.26500010      -8.93949567E-11
  -3.26399994      -9.35911001E-11
  -3.26300001      -9.78002609E-11
  -3.26200008      -1.02020677E-10
  -3.26099992      -1.06250557E-10
  -3.25999999      -1.10488070E-10
  -3.25900006      -1.14731370E-10
  -3.25799990      -1.18978591E-10
  -3.25699997      -1.23227845E-10
  -3.25600004      -1.27477195E-10
  -3.25500011      -1.31724714E-10
  -3.25399995      -1.35968417E-10
  -3.25300002      -1.40206319E-10
  -3.25200009      -1.44436421E-10
  -3.25099993      -1.48656684E-10
  -3.25000000      -1.52865054E-10
  -3.24900007      -1.57059463E-10
  -3.24799991      -1.61237829E-10
  -3.24699998      -1.65398042E-10
  -3.24600005      -1.69537981E-10
  -3.24499989      -1.73655521E-10
  -3.24399996      -1.77748483E-10
  -3.24300003      -1.81814716E-10
  -3.24200010      -1.85852056E-10
  -3.24099994      -1.89858296E-10
  -3.24000001      -1.93831229E-10
  -3.23900008      -1.97768663E-10
  -3.23799992      -2.01668363E-10
  -3.23699999      -2.05528095E-10
  -3.23600006      -2.09345638E-10
  -3.23499990      -2.13118731E-10
  -3.23399997      -2.16845139E-10
  -3.23300004      -2.20522600E-10
  -3.23200011      -2.24148866E-10
  -3.23099995      -2.27721675E-10
  -3.23000002      -2.31238778E-10
  -3.22900009      -2.34697928E-10
  -3.22799993      -2.38096848E-10
  -3.22700000      -2.41433290E-10
  -3.22600007      -2.44705006E-10
  -3.22499990      -2.47909748E-10
  -3.22399998      -2.51045268E-10
  -3.22300005      -2.54109345E-10
  -3.22199988      -2.57099786E-10
  -3.22099996      -2.60014343E-10
  -3.22000003      -2.62850797E-10
  -3.21900010      -2.65607009E-10
  -3.21799994      -2.68280759E-10
  -3.21700001      -2.70869910E-10
  -3.21600008      -2.73372297E-10
  -3.21499991      -2.75785783E-10
  -3.21399999      -2.78108286E-10
  -3.21300006      -2.80337670E-10
  -3.21199989      -2.82471907E-10
  -3.21099997      -2.84508916E-10
  -3.21000004      -2.86446672E-10
  -3.20900011      -2.88283175E-10
  -3.20799994      -2.90016455E-10
  -3.20700002      -2.91644542E-10
  -3.20600009      -2.93165547E-10
  -3.20499992      -2.94577585E-10
  -3.20400000      -2.95878738E-10
  -3.20300007      -2.97067204E-10
  -3.20199990      -2.98141206E-10
  -3.20099998      -2.99098968E-10
  -3.20000005      -2.99938768E-10
  -3.19899988      -3.00658887E-10
  -3.19799995      -3.01257713E-10
  -3.19700003      -3.01733610E-10
  -3.19600010      -3.02084996E-10
  -3.19499993      -3.02310371E-10
  -3.19400001      -3.02408237E-10
  -3.19300008      -3.02377151E-10
  -3.19199991      -3.02215725E-10
  -3.19099998      -3.01922598E-10
  -3.19000006      -3.01496467E-10
  -3.18899989      -3.00936109E-10
  -3.18799996      -3.00240277E-10
  -3.18700004      -2.99407832E-10
  -3.18600011      -2.98437663E-10
  -3.18499994      -2.97328745E-10
  -3.18400002      -2.96080105E-10
  -3.18300009      -2.94690772E-10
  -3.18199992      -2.93159885E-10
  -3.18099999      -2.91486613E-10
  -3.18000007      -2.89670177E-10
  -3.17899990      -2.87709939E-10
  -3.17799997      -2.85605206E-10
  -3.17700005      -2.83355395E-10
  -3.17600012      -2.80960005E-10
  -3.17499995      -2.78418566E-10
  -3.17400002      -2.75730716E-10
  -3.17300010      -2.72896095E-10
  -3.17199993      -2.69914507E-10
  -3.17100000      -2.66785705E-10
  -3.17000008      -2.63509575E-10
  -3.16899991      -2.60086092E-10
  -3.16799998      -2.56515226E-10
  -3.16700006      -2.52797117E-10
  -3.16599989      -2.48931875E-10
  -3.16499996      -2.44919751E-10
  -3.16400003      -2.40761022E-10
  -3.16300011      -2.36456105E-10
  -3.16199994      -2.32005415E-10
  -3.16100001      -2.27409480E-10
  -3.16000009      -2.22668883E-10
  -3.15899992      -2.17784304E-10
  -3.15799999      -2.12756493E-10
  -3.15700006      -2.07586268E-10
  -3.15599990      -2.02274517E-10
  -3.15499997      -1.96822225E-10
  -3.15400004      -1.91230434E-10
  -3.15300012      -1.85500282E-10
  -3.15199995      -1.79632947E-10
  -3.15100002      -1.73629722E-10
  -3.15000010      -1.67491979E-10
  -3.14899993      -1.61221148E-10
  -3.14800000      -1.54818741E-10
  -3.14700007      -1.48286355E-10
  -3.14599991      -1.41625656E-10
  -3.14499998      -1.34838390E-10
  -3.14400005      -1.27926406E-10