  -4.00000000       0.00000000    
  -3.99900007       0.00000000    
  -3.99799991       0.00000000    
  -3.99699998       0.00000000    
  -3.99600005       8.80008698E-27
  -3.99499989       7.92523192E-26
  -3.99399996       3.96522364E-25
  -3.99300003       1.45488226E-24
  -3.99200010       4.36758007E-24
  -3.99099994       1.13634206E-23
  -3.99000001       2.65328443E-23
  -3.98900008       5.68955010E-23
  -3.98799992       1.13870633E-22
  -3.98699999       2.15240963E-22
  -3.98600006       3.87710090E-22
  -3.98499990       6.70163264E-22
  -3.98399997       1.11775022E-21
  -3.98300004       1.80692011E-21
  -3.98200011       2.84154554E-21
  -3.98099995       4.36028590E-21
  -3.98000002       6.54534650E-21
  -3.97900009       9.63280581E-21
  -3.97799993       1.39246825E-20
  -3.97700000       1.98029414E-20
  -3.97600007       2.77456217E-20
  -3.97499990       3.83453144E-20
  -3.97399998       5.23302017E-20
  -3.97300005       7.05878776E-20
  -3.97199988       9.41922066E-20
  -3.97099996       1.24433477E-19
  -3.97000003       1.62852075E-19
  -3.96900010       2.11275991E-19
  -3.96799994       2.71862395E-19
  -3.96700001       3.47143767E-19
  -3.96600008       4.40078439E-19
  -3.96499991       5.54106372E-19
  -3.96399999       6.93210337E-19
  -3.96300006       8.61982582E-19
  -3.96199989       1.06569763E-18
  -3.96099997       1.31039130E-18
  -3.96000004       1.60294699E-18
  -3.95900011       1.95118858E-18
  -3.95799994       2.36398127E-18
  -3.95700002       2.85133975E-18
  -3.95600009       3.42454614E-18
  -3.95499992       4.09627367E-18
  -3.95400000       4.88072461E-18
  -3.95300007       5.79377277E-18
  -3.95199990       6.85311858E-18
  -3.95099998       8.07845514E-18
  -3.95000005       9.49164524E-18
  -3.94899988       1.11169079E-17
  -3.94799995       1.29810190E-17
  -3.94700003       1.51135245E-17
  -3.94600010       1.75469674E-17
  -3.94499993       2.03171225E-17
  -3.94400001       2.34632593E-17
  -3.94300008       2.70283995E-17
  -3.94199991       3.10596063E-17
  -3.94099998       3.56082923E-17
  -3.94000006       4.07305123E-17
  -3.93899989       4.64873188E-17
  -3.93799996       5.29451079E-17
  -3.93700004       6.01759867E-17
  -3.93600011       6.82581434E-17
  -3.93499994       7.72762849E-17
  -3.93400002       8.73220493E-17
  -3.93300009       9.84944403E-17
  -3.93199992       1.10900323E-16
  -3.93099999       1.24654901E-16
  -3.93000007       1.39882224E-16
  -3.92899990       1.56715733E-16
  -3.92799997       1.75298815E-16
  -3.92700005       1.95785392E-16
  -3.92600012       2.18340556E-16
  -3.92499995       2.43141152E-16
  -3.92400002       2.70376464E-16
  -3.92300010       3.00248907E-16
  -3.92199993       3.32974793E-16
  -3.92100000       3.68784990E-16
  -3.92000008       4.07925721E-16
  -3.91899991       4.50659486E-16
  -3.91799998       4.97265621E-16
  -3.91700006       5.48041487E-16
  -3.91599989       6.03303134E-16
  -3.91499996       6.63386410E-16
  -3.91400003       7.28647652E-16
  -3.91300011       7.99465059E-16
  -3.91199994       8.76239384E-16
  -3.91100001       9.59395256E-16
  -3.91000009       1.04938192E-15
  -3.90899992       1.14667488E-15
  -3.90799999       1.25177663E-15
  -3.90700006       1.36521816E-15
  -3.90599990       1.48755990E-15
  -3.90499997       1.61939338E-15
  -3.90400004       1.76134212E-15
  -3.90300012       1.91406343E-15
  -3.90199995       2.07824955E-15
  -3.90100002       2.25462912E-15
  -3.90000010       2.44396851E-15
  -3.89899993       2.64707346E-15
  -3.89800000       2.86479121E-15
  -3.89700007       3.09801093E-15
  -3.89599991       3.34766648E-15
  -3.89499998       3.61473724E-15
  -3.89400005       3.90025087E-15
  -3.89299989       4.20528353E-15
  -3.89199996       4.53096346E-15
  -3.89100003       4.87847101E-15
  -3.89000010       5.24904200E-15
  -3.88899994       5.64396942E-15
  -3.88800001       6.06460428E-15
  -3.88700008       6.51235945E-15
  -3.88599992       6.98871045E-15
  -3.88499999       7.49519719E-15
  -3.88400006       8.03342818E-15
  -3.88299990       8.60507971E-15
  -3.88199997       9.21190004E-15
  -3.88100004       9.85571284E-15
  -3.88000011       1.05384163E-14
  -3.87899995       1.12619874E-14
  -3.87800002       1.20284853E-14
  -3.87700009       1.28400522E-14
  -3.87599993       1.36989139E-14
  -3.87500000       1.46073881E-14
  -3.87400007       1.55678794E-14
  -3.87299991       1.65828909E-14
  -3.87199998       1.76550194E-14
  -3.87100005       1.87869570E-14
  -3.86999989       1.99815038E-14
  -3.86899996       2.12415585E-14
  -3.86800003       2.25701314E-14
  -3.86700010       2.39703395E-14
  -3.86599994       2.54454135E-14
  -3.86500001       2.69986992E-14
  -3.86400008       2.86336608E-14
  -3.86299992       3.03538831E-14
  -3.86199999       3.21630777E-14
  -3.86100006       3.40650800E-14
  -3.85999990       3.60638609E-14
  -3.85899997       3.81635167E-14
  -3.85800004       4.03682858E-14
  -3.85700011       4.26825425E-14
  -3.85599995       4.51108030E-14
  -3.85500002       4.76577328E-14
  -3.85400009       5.03281465E-14
  -3.85299993       5.31270008E-14
  -3.85200000       5.60594187E-14
  -3.85100007       5.91306721E-14
  -3.84999990       6.23461921E-14
  -3.84899998       6.57115895E-14
  -3.84800005       6.92326242E-14
  -3.84699988       7.29152321E-14
  -3.84599996       7.67655254E-14
  -3.84500003       8.07897924E-14
  -3.84400010       8.49944979E-14
  -3.84299994       8.93862824E-14
  -3.84200001       9.39719900E-14
  -3.84100008       9.87586342E-14
  -3.83999991       1.03753425E-13
  -3.83899999       1.08963775E-13
  -3.83800006       1.14397288E-13
  -3.83699989       1.20061770E-13
  -3.83599997       1.25965224E-13
  -3.83500004       1.32115862E-13
  -3.83400011       1.38522101E-13
  -3.83299994       1.45192587E-13
  -3.83200002       1.52136157E-13
  -3.83100009       1.59361876E-13
  -3.82999992       1.66879030E-13
  -3.82900000       1.74697117E-13
  -3.82800007       1.82825855E-13
  -3.82699990       1.91275232E-13
  -3.82599998       2.00055386E-13
  -3.82500005       2.09176765E-13
  -3.82399988       2.18649995E-13
  -3.82299995       2.28485958E-13
  -3.82200003       2.38695782E-13
  -3.82100010       2.49290822E-13
  -3.81999993       2.60282681E-13
  -3.81900001       2.71683202E-13
  -3.81800008       2.83504448E-13
  -3.81699991       2.95758779E-13
  -3.81599998       3.08458744E-13
  -3.81500006       3.21617163E-13
  -3.81399989       3.35247102E-13
  -3.81299996       3.49361897E-13
  -3.81200004       3.63975126E-13
  -3.81100011       3.79100587E-13
  -3.80999994       3.94752373E-13
  -3.80900002       4.10944797E-13
  -3.80800009       4.27692441E-13
  -3.80699992       4.45010131E-13
  -3.80599999       4.62912965E-13
  -3.80500007       4.81416231E-13
  -3.80399990       5.00535540E-13
  -3.80299997       5.20286722E-13
  -3.80200005       5.40685877E-13
  -3.80100012       5.61749323E-13
  -3.79999995       5.83493648E-13
  -3.79900002       6.05935658E-13
  -3.79800010       6.29092481E-13
  -3.79699993       6.52981358E-13
  -3.79600000       6.77619853E-13
  -3.79500008       7.03025799E-13
  -3.79399991       7.29217197E-13
  -3.79299998       7.56212313E-13
  -3.79200006       7.84029634E-13
  -3.79099989       8.12687862E-13
  -3.78999996       8.42205971E-13
  -3.78900003       8.72603151E-13
  -3.78800011       9.03898701E-13
  -3.78699994       9.36112299E-13
  -3.78600001       9.69263732E-13
  -3.78500009       1.00337295E-12
  -3.78399992       1.03846012E-12
  -3.78299999       1.07454573E-12
  -3.78200006       1.11165027E-12
  -3.78099990       1.14979467E-12
  -3.77999997       1.18899975E-12
  -3.77900004       1.22928664E-12
  -3.77800012       1.27067660E-12
  -3.77699995       1.31319109E-12
  -3.77600002       1.35685181E-12
  -3.77500010       1.40168031E-12
  -3.77399993       1.44769851E-12
  -3.77300000       1.49492831E-12
  -3.77200007       1.54339193E-12
  -3.77099991       1.59311149E-12
  -3.76999998       1.64410944E-12
  -3.76900005       1.69640820E-12
  -3.76799989       1.75003013E-12
  -3.76699996       1.80499788E-12
  -3.76600003       1.86133400E-12
  -3.76500010       1.91906148E-12
  -3.76399994       1.97820254E-12
  -3.76300001       2.03878039E-12
  -3.76200008       2.10081757E-12
  -3.76099992       2.16433707E-12
  -3.75999999       2.22936144E-12
  -3.75900006       2.29591346E-12
  -3.75799990       2.36401588E-12
  -3.75699997       2.43369149E-12
  -3.75600004       2.50496303E-12
  -3.75500011       2.57785286E-12
  -3.75399995       2.65238374E-12
  -3.75300002       2.72857778E-12
  -3.75200009       2.80645754E-12
  -3.75099993       2.88604492E-12
  -3.75000000       2.96736225E-12
  -3.74900007       3.05043100E-12
  -3.74799991       3.13527329E-12
  -3.74699998       3.22191037E-12
  -3.74600005       3.31036370E-12
  -3.74499989       3.40065454E-12
  -3.74399996       3.49280349E-12
  -3.74300003       3.58683114E-12
  -3.74200010       3.68275809E-12
  -3.74099994       3.78060430E-12
  -3.74000001       3.88038950E-12
  -3.73900008       3.98213320E-12
  -3.73799992       4.08585405E-12
  -3.73699999       4.19157157E-12
  -3.73600006       4.29930353E-12
  -3.73499990       4.40906773E-12
  -3.73399997       4.52088280E-12
  -3.73300004       4.63476479E-12
  -3.73200011       4.75073106E-12
  -3.73099995       4.86879721E-12
  -3.73000002       4.98897928E-12
  -3.72900009       5.11129247E-12
  -3.72799993       5.23575150E-12
  -3.72700000       5.36237027E-12
  -3.72600007       5.49116265E-12
  -3.72499990       5.62214164E-12
  -3.72399998       5.75531896E-12
  -3.72300005       5.89070633E-12
  -3.72199988       6.02831543E-12
  -3.72099996       6.16815626E-12
  -3.72000003       6.31023836E-12
  -3.71900010       6.45457082E-12
  -3.71799994       6.60116233E-12
  -3.71700001       6.75001938E-12
  -3.71600008       6.90114936E-12
  -3.71499991       7.05455789E-12
  -3.71399999       7.21024976E-12
  -3.71300006       7.36822929E-12
  -3.71199989       7.52849953E-12
  -3.71099997       7.69106306E-12
  -3.71000004       7.85592164E-12
  -3.70900011       8.02307526E-12
  -3.70799994       8.19252392E-12
  -3.70700002       8.36426588E-12
  -3.70600009       8.53829941E-12
  -3.70499992       8.71462104E-12
  -3.70400000       8.89322557E-12
  -3.70300007       9.07410778E-12
  -3.70199990       9.25726076E-12
  -3.70099998       9.44267754E-12
  -3.70000005       9.63034947E-12
  -3.69899988       9.82026526E-12
  -3.69799995       1.00124154E-11
  -3.69700003       1.02067859E-11
  -3.69600010       1.04033648E-11
  -3.69499993       1.06021355E-11
  -3.69400001       1.08030833E-11
  -3.69300008       1.10061908E-11
  -3.69199991       1.12114389E-11
  -3.69099998       1.14188095E-11
  -3.69000006       1.16282799E-11
  -3.68899989       1.18398277E-11
  -3.68799996       1.20534294E-11
  -3.68700004       1.22690590E-11
  -3.68600011       1.24866914E-11
  -3.68499994       1.27062978E-11
  -3.68400002       1.29278489E-11
  -3.68300009       1.31513134E-11
  -3.68199992       1.33766600E-11
  -3.68099999       1.36038542E-11
  -3.68000007       1.38328619E-11
  -3.67899990       1.40636452E-11
  -3.67799997       1.42961667E-11
  -3.67700005       1.45303864E-11
  -3.67600012       1.47662646E-11
  -3.67499995       1.50037552E-11
  -3.67400002       1.52428174E-11
  -3.67300010       1.54834028E-11
  -3.67199993       1.57254661E-11
  -3.67100000       1.59689588E-11
  -3.67000008       1.62138289E-11
  -3.66899991       1.64600243E-11
  -3.66799998       1.67074930E-11
  -3.66700006       1.69561795E-11
  -3.66599989       1.72060248E-11
  -3.66499996       1.74569734E-11
  -3.66400003       1.77089628E-11
  -3.66300011       1.79619340E-11
  -3.66199994       1.82158247E-11
  -3.66100001       1.84705671E-11
  -3.66000009       1.87260971E-11
  -3.65899992       1.89823452E-11
  -3.65799999       1.92392421E-11
  -3.65700006       1.94967185E-11
  -3.65599990       1.97547013E-11
  -3.65499997       2.00131144E-11
  -3.65400004       2.02718849E-11
  -3.65300012       2.05309329E-11
  -3.65199995       2.07901821E-11
  -3.65100002       2.10495510E-11
  -3.65000010       2.13089581E-11
  -3.64899993       2.15683200E-11
  -3.64800000       2.18275502E-11
  -3.64700007       2.20865652E-11
  -3.64599991       2.23452749E-11
  -3.64499998       2.26035926E-11
  -3.64400005       2.28614246E-11
  -3.64299989       2.31186806E-11
  -3.64199996       2.33752670E-11
  -3.64100003       2.36310884E-11
  -3.64000010       2.38860494E-11
  -3.63899994       2.41400511E-11
  -3.63800001       2.43929946E-11
  -3.63700008       2.46447810E-11
  -3.63599992       2.48953098E-11
  -3.63499999       2.51444785E-11
  -3.63400006       2.53921814E-11
  -3.63299990       2.56383144E-11
  -3.63199997       2.58827716E-11
  -3.63100004       2.61254456E-11
  -3.63000011       2.63662286E-11
  -3.62899995       2.66050099E-11
  -3.62800002       2.68416817E-11
  -3.62700009       2.70761313E-11
  -3.62599993       2.73082459E-11
  -3.62500000       2.75379147E-11
  -3.62400007       2.77650229E-11
  -3.62299991       2.79894562E-11
  -3.62199998       2.82110984E-11
  -3.62100005       2.84298331E-11
  -3.61999989       2.86455425E-11
  -3.61899996       2.88581121E-11
  -3.61800003       2.90674238E-11
  -3.61700010       2.92733546E-11
  -3.61599994       2.94757899E-11
  -3.61500001       2.96746100E-11
  -3.61400008       2.98696970E-11
  -3.61299992       3.00609260E-11
  -3.61199999       3.02481790E-11
  -3.61100006       3.04313380E-11
  -3.60999990       3.06102782E-11
  -3.60899997       3.07848816E-11
  -3.60800004       3.09550233E-11
  -3.60700011       3.11205887E-11
  -3.60599995       3.12814566E-11
  -3.60500002       3.14375019E-11
  -3.60400009       3.15886067E-11
  -3.60299993       3.17346496E-11
  -3.60200000       3.18755126E-11
  -3.60100007       3.20110743E-11
  -3.59999990       3.21412168E-11
  -3.59899998       3.22658254E-11
  -3.59800005       3.23847789E-11
  -3.59699988       3.24979592E-11
  -3.59599996       3.26052518E-11
  -3.59500003       3.27065423E-11
  -3.59400010       3.28017127E-11
  -3.59299994       3.28906520E-11
  -3.59200001       3.29732491E-11
  -3.59100008       3.30493896E-11
  -3.58999991       3.31189624E-11
  -3.58899999       3.31818600E-11
  -3.58800006       3.32379714E-11
  -3.58699989       3.32871959E-11
  -3.58599997       3.33294260E-11
  -3.58500004       3.33645542E-11
  -3.58400011       3.33924832E-11
  -3.58299994       3.34131126E-11
  -3.58200002       3.34263450E-11
  -3.58100009       3.34320800E-11
  -3.57999992       3.34302239E-11
  -3.57900000       3.34206864E-11
  -3.57800007       3.34033738E-11
  -3.57699990       3.33781995E-11
  -3.57599998       3.33450802E-11
  -3.57500005       3.33039256E-11
  -3.57399988       3.32546594E-11
  -3.57299995       3.31971985E-11
  -3.57200003       3.31314663E-11
  -3.57100010       3.30573936E-11
  -3.56999993       3.29749041E-11
  -3.56900001       3.28839317E-11
  -3.56800008       3.27844106E-11
  -3.56699991       3.26762783E-11
  -3.56599998       3.25594725E-11
  -3.56500006       3.24339409E-11
  -3.56399989       3.22996248E-11
  -3.56299996       3.21564789E-11
  -3.56200004       3.20044512E-11
  -3.56100011       3.18435035E-11
  -3.55999994       3.16735908E-11
  -3.55900002       3.14946784E-11
  -3.55800009       3.13067315E-11
  -3.55699992       3.11097224E-11
  -3.55599999       3.09036234E-11
  -3.55500007       3.06884136E-11
  -3.55399990       3.04640722E-11
  -3.55299997       3.02305854E-11
  -3.55200005       2.99879462E-11
  -3.55100012       2.97361441E-11
  -3.54999995       2.94751758E-11
  -3.54900002       2.92050481E-11
  -3.54800010       2.89257628E-11
  -3.54699993       2.86373321E-11
  -3.54600000       2.83397680E-11
  -3.54500008       2.80330915E-11
  -3.54399991       2.77173250E-11
  -3.54299998       2.73924980E-11
  -3.54200006       2.70586401E-11
  -3.54099989       2.67157910E-11
  -3.53999996       2.63639909E-11
  -3.53900003       2.60032846E-11
  -3.53800011       2.56337260E-11
  -3.53699994       2.52553690E-11
  -3.53600001       2.48682724E-11
  -3.53500009       2.44725039E-11
  -3.53399992       2.40681329E-11
  -3.53299999       2.36552340E-11
  -3.53200006       2.32338888E-11
  -3.53099990       2.28041804E-11
  -3.52999997       2.23662009E-11
  -3.52900004       2.19200422E-11
  -3.52800012       2.14658066E-11
  -3.52699995       2.10035964E-11
  -3.52600002       2.05335245E-11
  -3.52500010       2.00557036E-11
  -3.52399993       1.95702534E-11
  -3.52300000       1.90773022E-11
  -3.52200007       1.85769785E-11
  -3.52099991       1.80694175E-11
  -3.51999998       1.75547615E-11
  -3.51900005       1.70331561E-11
  -3.51799989       1.65047507E-11
  -3.51699996       1.59697013E-11
  -3.51600003       1.54281692E-11
  -3.51500010       1.48803192E-11
  -3.51399994       1.43263248E-11
  -3.51300001       1.37663622E-11
  -3.51200008       1.32006116E-11
  -3.51099992       1.26292596E-11
  -3.50999999       1.20524970E-11
  -3.50900006       1.14705198E-11
  -3.50799990       1.08835302E-11
  -3.50699997       1.02917336E-11
  -3.50600004       9.69534002E-12
  -3.50500011       9.09456625E-12
  -3.50399995       8.48963174E-12
  -3.50300002       7.88076115E-12
  -3.50200009       7.26818605E-12
  -3.50099993       6.65213934E-12
  -3.50000000       6.03286041E-12
  -3.49900007       5.41059255E-12
  -3.49799991       4.78558382E-12
  -3.49699998       4.15808577E-12
  -3.49600005       3.52835513E-12
  -3.49499989       2.89665275E-12
  -3.49399996       2.26324320E-12
  -3.49300003       1.62839523E-12
  -3.49200010       9.92381741E-13
  -3.49099994       3.55479508E-13
  -3.49000001      -2.82030990E-13
  -3.48900008      -9.19865421E-13
  -3.48799992      -1.55773604E-12
  -3.48699999      -2.19535154E-12
  -3.48600006      -2.83241703E-12
  -3.48499990      -3.46863423E-12
  -3.48399997      -4.10370219E-12
  -3.48300004      -4.73731644E-12
  -3.48200011      -5.36916909E-12
  -3.48099995      -5.99895047E-12
  -3.48000002      -6.62634747E-12
  -3.47900009      -7.25104395E-12
  -3.47799993      -7.87272244E-12
  -3.47700000      -8.49106115E-12
  -3.47600007      -9.10573873E-12
  -3.47499990      -9.71642992E-12
  -3.47399998      -1.03228068E-11
  -3.47300005      -1.09245425E-11
  -3.47199988      -1.15213056E-11
  -3.47099996      -1.21127639E-11
  -3.47000003      -1.26985844E-11
  -3.46900010      -1.32784322E-11
  -3.46799994      -1.38519725E-11
  -3.46700001      -1.44188663E-11
  -3.46600008      -1.49787769E-11
  -3.46499991      -1.55313679E-11
  -3.46399999      -1.60763000E-11
  -3.46300006      -1.66132351E-11
  -3.46199989      -1.71418314E-11
  -3.46099997      -1.76617505E-11
  -3.46000004      -1.81726561E-11
  -3.45900011      -1.86742080E-11
  -3.45799994      -1.91660663E-11
  -3.45700002      -1.96478962E-11
  -3.45600009      -2.01193593E-11
  -3.45499992      -2.05801227E-11
  -3.45400000      -2.10298497E-11
  -3.45300007      -2.14682092E-11
  -3.45199990      -2.18948696E-11
  -3.45099998      -2.23095015E-11
  -3.45000005      -2.27117769E-11
  -3.44899988      -2.31013698E-11
  -3.44799995      -2.34779592E-11
  -3.44700003      -2.38412224E-11
  -3.44600010      -2.41908438E-11
  -3.44499993      -2.45265058E-11
  -3.44400001      -2.48478980E-11
  -3.44300008      -2.51547116E-11
  -3.44199991      -2.54466413E-11
  -3.44099998      -2.57233852E-11
  -3.44000006      -2.59846467E-11
  -3.43899989      -2.62301326E-11
  -3.43799996      -2.64595516E-11
  -3.43700004      -2.66726190E-11
  -3.43600011      -2.68690539E-11
  -3.43499994      -2.70485821E-11
  -3.43400002      -2.72109332E-11
  -3.43300009      -2.73558398E-11
  -3.43199992      -2.74830419E-11
  -3.43099999      -2.75922861E-11
  -3.43000007      -2.76833209E-11
  -3.42899990      -2.77559052E-11
  -3.42799997      -2.78097996E-11
  -3.42700005      -2.78447768E-11
  -3.42600012      -2.78606097E-11
  -3.42499995      -2.78570795E-11
  -3.42400002      -2.78339782E-11
  -3.42300010      -2.77911010E-11
  -3.42199993      -2.77282503E-11
  -3.42100000      -2.76452351E-11
  -3.42000008      -2.75418750E-11
  -3.41899991      -2.74179950E-11
  -3.41799998      -2.72734266E-11
  -3.41700006      -2.71080138E-11
  -3.41599989      -2.69216038E-11
  -3.41499996      -2.67140563E-11
  -3.41400003      -2.64852359E-11
  -3.41300011      -2.62350159E-11
  -3.41199994      -2.59632819E-11
  -3.41100001      -2.56699263E-11
  -3.41000009      -2.53548484E-11
  -3.40899992      -2.50179582E-11
  -3.40799999      -2.46591775E-11
  -3.40700006      -2.42784352E-11
  -3.40599990      -2.38756671E-11
  -3.40499997      -2.34508229E-11
  -3.40400004      -2.30038610E-11
  -3.40300012      -2.25347484E-11
  -3.40199995      -2.20434625E-11
  -3.40100002      -2.15299931E-11
  -3.40000010      -2.09943347E-11
  -3.39899993      -2.04364980E-11
  -3.39800000      -1.98565019E-11
  -3.39700007      -1.92543741E-11
  -3.39599991      -1.86301564E-11
  -3.39499998      -1.79838956E-11
  -3.39400005      -1.73156559E-11
  -3.39299989      -1.66255065E-11
  -3.39199996      -1.59135309E-11
  -3.39100003      -1.51798227E-11
  -3.39000010      -1.44244842E-11
  -3.38899994      -1.36476316E-11
  -3.38800001      -1.28493908E-11
  -3.38700008      -1.20298988E-11
  -3.38599992      -1.11893038E-11
  -3.38499999      -1.03277638E-11
  -3.38400006      -9.44545050E-12
  -3.38299990      -8.54254341E-12
  -3.38199997      -7.61923597E-12
  -3.38100004      -6.67573071E-12
  -3.38000011      -5.71224188E-12
  -3.37899995      -4.72899411E-12
  -3.37800002      -3.72622419E-12
  -3.37700009      -2.70417955E-12
  -3.37599993      -1.66311745E-12
  -3.37500000      -6.03306955E-13
  -3.37400007       4.74972329E-13
  -3.37299991       1.57142994E-12
  -3.37199998       2.68576502E-12
  -3.37100005       3.81766580E-12
  -3.36999989       4.96681082E-12
  -3.36899996       6.13286678E-12
  -3.36800003       7.31549109E-12
  -3.36700010       8.51433160E-12
  -3.36599994       9.72902401E-12
  -3.36500001       1.09591962E-11
  -3.36400008       1.22044649E-11
  -3.36299992       1.34644370E-11
  -3.36199999       1.47387103E-11
  -3.36100006       1.60268760E-11
  -3.35999990       1.73285102E-11
  -3.35899997       1.86431825E-11
  -3.35800004       1.99704558E-11
  -3.35700011       2.13098827E-11
  -3.35599995       2.26610050E-11
  -3.35500002       2.40233597E-11
  -3.35400009       2.53964731E-11
  -3.35299993       2.67798665E-11
  -3.35200000       2.81730490E-11
  -3.35100007       2.95755226E-11
  -3.34999990       3.09867895E-11
  -3.34899998       3.24063346E-11
  -3.34800005       3.38336442E-11
  -3.34699988       3.52681911E-11
  -3.34599996       3.67094480E-11
  -3.34500003       3.81568735E-11
  -3.34400010       3.96099299E-11
  -3.34299994       4.10680656E-11
  -3.34200001       4.25307359E-11
  -3.34100008       4.39973752E-11
  -3.33999991       4.54674215E-11
  -3.33899999       4.69403093E-11
  -3.33800006       4.84154661E-11
  -3.33699989       4.98923194E-11
  -3.33599997       5.13702900E-11
  -3.33500004       5.28487948E-11
  -3.33400011       5.43272545E-11
  -3.33299994       5.58050758E-11
  -3.33200002       5.72816759E-11
  -3.33100009       5.87564580E-11
  -3.32999992       6.02288427E-11
  -3.32900000       6.16982229E-11
  -3.32800007       6.31640087E-11
  -3.32699990       6.46256035E-11
  -3.32599998       6.60824173E-11
  -3.32500005       6.75338604E-11
  -3.32399988       6.89793361E-11
  -3.32299995       7.04182476E-11
  -3.32200003       7.18500190E-11
  -3.32100010       7.32740466E-11
  -3.31999993       7.46897544E-11
  -3.31900001       7.60965527E-11
  -3.31800008       7.74938655E-11
  -3.31699991       7.88811169E-11
  -3.31599998       8.02577380E-11
  -3.31500006       8.16231527E-11
  -3.31399989       8.29767990E-11
  -3.31299996       8.43181219E-11
  -3.31200004       8.56465662E-11
  -3.31100011       8.69615907E-11
  -3.30999994       8.82626472E-11
  -3.30900002       8.95492083E-11
  -3.30800009       9.08207398E-11
  -3.30699992       9.20767351E-11
  -3.30599999       9.33166738E-11
  -3.30500007       9.45400633E-11
  -3.30399990       9.57464108E-11
  -3.30299997       9.69352307E-11
  -3.30200005       9.81060441E-11
  -3.30100012       9.92583862E-11
  -3.29999995       1.00391820E-10
  -3.29900002       1.01505887E-10
  -3.29800010       1.02600164E-10
  -3.29699993       1.03674236E-10
  -3.29600000       1.04727692E-10
  -3.29500008       1.05760137E-10
  -3.29399991       1.06771196E-10
  -3.29299998       1.07760502E-10
  -3.29200006       1.08727700E-10
  -3.29099989       1.09672459E-10
  -3.28999996       1.10594443E-10
  -3.28900003       1.11493356E-10
  -3.28800011       1.12368899E-10
  -3.28699994       1.13220794E-10
  -3.28600001       1.14048784E-10
  -3.28500009       1.14852627E-10
  -3.28399992       1.15632087E-10
  -3.28299999       1.16386963E-10
  -3.28200006       1.17117052E-10
  -3.28099990       1.17822196E-10
  -3.27999997       1.18502236E-10
  -3.27900004       1.19157045E-10
  -3.27800012       1.19786472E-10
  -3.27699995       1.20390461E-10
  -3.27600002       1.20968902E-10
  -3.27500010       1.21521751E-10
  -3.27399993       1.22048968E-10
  -3.27300000       1.22550539E-10
  -3.27200007       1.23026464E-10
  -3.27099991       1.23476770E-10
  -3.26999998       1.23901500E-10
  -3.26900005       1.24300722E-10
  -3.26799989       1.24674535E-10
  -3.26699996       1.25023047E-10
  -3.26600003       1.25346386E-10
  -3.26500010       1.25644731E-10
  -3.26399994       1.25918248E-10
  -3.26300001       1.26167146E-10
  -3.26200008       1.26391647E-10
  -3.26099992       1.26592001E-10
  -3.25999999       1.26768485E-10
  -3.25900006       1.26921390E-10
  -3.25799990       1.27051050E-10
  -3.25699997       1.27157812E-10
  -3.25600004       1.27242036E-10
  -3.25500011       1.27304112E-10
  -3.25399995       1.27344468E-10
  -3.25300002       1.27363550E-10
  -3.25200009       1.27361816E-10
  -3.25099993       1.27339764E-10
  -3.25000000       1.27297922E-10
  -3.24900007       1.27236804E-10
  -3.24799991       1.27156993E-10
  -3.24699998       1.27059085E-10
  -3.24600005       1.26943692E-10
  -3.24499989       1.26811436E-10
  -3.24399996       1.26663000E-10
  -3.24300003       1.26499061E-10
  -3.24200010       1.26320329E-10
  -3.24099994       1.26127553E-10
  -3.24000001       1.25921482E-10
  -3.23900008       1.25702893E-10
  -3.23799992       1.25472605E-10
  -3.23699999       1.25231450E-10
  -3.23600006       1.24980276E-10
  -3.23499990       1.24719984E-10
  -3.23399997       1.24451449E-10
  -3.23300004       1.24175614E-10
  -3.23200011       1.23893409E-10
  -3.23099995       1.23605806E-10
  -3.23000002       1.23313790E-10
  -3.22900009       1.23018387E-10
  -3.22799993       1.22720625E-10
  -3.22700000       1.22421545E-10
  -3.22600007       1.22122243E-10
  -3.22499990       1.21823801E-10
  -3.22399998       1.21527330E-10
  -3.22300005       1.21233967E-10
  -3.22199988       1.20944879E-10
  -3.22099996       1.20661231E-10
  -3.22000003       1.20384216E-10
  -3.21900010       1.20115029E-10
  -3.21799994       1.19854904E-10
  -3.21700001       1.19605076E-10
  -3.21600008       1.19366822E-10
  -3.21499991       1.19141391E-10
  -3.21399999       1.18930102E-10
  -3.21300006       1.18734231E-10
  -3.21199989       1.18555110E-10
  -3.21099997       1.18394058E-10
  -3.21000004       1.18252436E-10
  -3.20900011       1.18131574E-10
  -3.20799994       1.18032861E-10
  -3.20700002       1.17957671E-10
  -3.20600009       1.17907378E-10
  -3.20499992       1.17883397E-10
  -3.20400000       1.17887117E-10
  -3.20300007       1.17919965E-10
  -3.20199990       1.17983359E-10
  -3.20099998       1.18078727E-10
  -3.20000005       1.18207513E-10
  -3.19899988       1.18371118E-10
  -3.19799995       1.18571014E-10
  -3.19700003       1.18808643E-10
  -3.19600010       1.19085436E-10
  -3.19499993       1.19402876E-10
  -3.19400001       1.19762381E-10
  -3.19300008       1.20165405E-10
  -3.19199991       1.20613408E-10
  -3.19099998       1.21107818E-10
  -3.19000006       1.21650093E-10
  -3.18899989       1.22241675E-10
  -3.18799996       1.22883995E-10
  -3.18700004       1.23578467E-10
  -3.18600011       1.24326549E-10
  -3.18499994       1.25129629E-10
  -3.18400002       1.25989108E-10
  -3.18300009       1.26906402E-10
  -3.18199992       1.27882899E-10
  -3.18099999       1.28919958E-10
  -3.18000007       1.30018940E-10
  -3.17899990       1.31181205E-10
  -3.17799997       1.32408084E-10
  -3.17700005       1.33700898E-10
  -3.17600012       1.35060949E-10
  -3.17499995       1.36489528E-10
  -3.17400002       1.37987885E-10
  -3.17300010       1.39557269E-10
  -3.17199993       1.41198900E-10
  -3.17100000       1.42914000E-10
  -3.17000008       1.44703735E-10
  -3.16899991       1.46569271E-10
  -3.16799998       1.48511731E-10
  -3.16700006       1.50532212E-10
  -3.16599989       1.52631810E-10
  -3.16499996       1.54811566E-10
  -3.16400003       1.57072494E-10
  -3.16300011       1.59415592E-10
  -3.16199994       1.61841818E-10
  -3.16100001       1.64352087E-10
  -3.16000009       1.66947289E-10
  -3.15899992       1.69628298E-10
  -3.15799999       1.72395917E-10
  -3.15700006       1.75250939E-10
  -3.15599990       1.78194112E-10
  -3.15499997       1.81226131E-10
  -3.15400004       1.84347676E-10
  -3.15300012       1.87559371E-10
  -3.15199995       1.90861785E-10
  -3.15100002       1.94255473E-10
  -3.15000010       1.97740921E-10
  -3.14899993       2.01318587E-10
  -3.14800000       2.04988873E-10
  -3.14700007       2.08752141E-10
  -3.14599991       2.12608695E-10
  -3.14499998       2.16558785E-10
  -3.14400005       2.20602647E-10