  -7.500000        1.0000000E-24
  -7.493500        1.0000000E-24
  -7.487000        1.0000000E-24
  -7.480500        1.0000000E-24
  -7.474000        1.0000000E-24
  -7.467500        1.0000000E-24
  -7.461000        1.0000000E-24
  -7.454500        1.0000000E-24
  -7.448000        1.0000000E-24
  -7.441500        1.0000000E-24
  -7.435000        1.0000000E-24
  -7.428500        1.0000000E-24
  -7.422000        1.0000000E-24
  -7.415500        1.0000000E-24
  -7.409000        1.0000000E-24
  -7.402500        1.0000000E-24
  -7.396000        1.0000000E-24
  -7.389500        1.0000000E-24
  -7.383000        1.0000000E-24
  -7.376500        1.0000000E-24
  -7.370000        1.0000000E-24
  -7.363500        1.0000000E-24
  -7.357000        1.0000000E-24
  -7.350500        1.0000000E-24
  -7.344000        1.0000000E-24
  -7.337500        1.0000000E-24
  -7.331000        1.0000000E-24
  -7.324500        1.0000000E-24
  -7.318000        1.0000000E-24
  -7.311500        1.0000000E-24
  -7.305000        1.0000000E-24
  -7.298500        1.0000000E-24
  -7.292000        1.0000000E-24
  -7.285500        1.0000000E-24
  -7.279000        1.0000000E-24
  -7.272500        1.0000000E-24
  -7.266000        1.0000000E-24
  -7.259500        1.0000000E-24
  -7.253000        1.0000000E-24
  -7.246500        1.0000000E-24
  -7.240000        1.0000000E-24
  -7.233500        1.0000000E-24
  -7.227000        1.0000000E-24
  -7.220500        1.0000000E-24
  -7.214000        1.0000000E-24
  -7.207500        1.0000000E-24
  -7.201000        1.0000000E-24
  -7.194500        1.0000000E-24
  -7.188000        1.0000000E-24
  -7.181500        1.0000000E-24
  -7.175000        1.0000000E-24
  -7.168500        1.0000000E-24
  -7.162000        1.0000000E-24
  -7.155500        1.0000000E-24
  -7.149000        1.0000000E-24
  -7.142500        1.0000000E-24
  -7.136000        1.0000000E-24
  -7.129500        1.0000000E-24
  -7.123000        1.0000000E-24
  -7.116500        1.0000000E-24
  -7.110000        1.0000000E-24
  -7.103500        1.0000000E-24
  -7.097000        1.0000000E-24
  -7.090500        1.0000000E-24
  -7.084000        1.0000000E-24
  -7.077500        1.0000000E-24
  -7.071000        1.0000000E-24
  -7.064500        1.0000000E-24
  -7.058000        1.0000000E-24
  -7.051500        1.0000000E-24
  -7.045000        1.0000000E-24
  -7.038500        1.0000000E-24
  -7.032000        1.0000000E-24
  -7.025500        1.0000000E-24
  -7.019000        1.0000000E-24
  -7.012500        1.0000000E-24
  -7.006000        1.0000000E-24
  -6.999500        1.0000000E-24
  -6.993000        1.0000000E-24
  -6.986500        1.0000000E-24
  -6.980000        1.0000000E-24
  -6.973500        1.0000000E-24
  -6.967000        1.0000000E-24
  -6.960500        1.0000000E-24
  -6.954000        1.0000000E-24
  -6.947500        1.0000000E-24
  -6.941000        1.0000000E-24
  -6.934500        1.0000000E-24
  -6.928000        1.0000000E-24
  -6.921500        1.0000000E-24
  -6.915000        1.0000000E-24
  -6.908500        1.0000000E-24
  -6.902000        1.0000000E-24
  -6.895500        1.0000000E-24
  -6.889000        1.0000000E-24
  -6.882500        1.0000000E-24
  -6.876000        1.0000000E-24
  -6.869500        1.0000000E-24
  -6.863000        1.0000000E-24
  -6.856500        1.0000000E-24
  -6.850000        1.0000000E-24
  -6.843500        1.0000000E-24
  -6.837000        1.0000000E-24
  -6.830500        1.0000000E-24
  -6.824000        1.0000000E-24
  -6.817500        1.0000000E-24
  -6.811000        1.0000000E-24
  -6.804500        1.0000000E-24
  -6.798000        1.0000000E-24
  -6.791500        1.0000000E-24
  -6.785000        1.0000000E-24
  -6.778500        1.0000000E-24
  -6.772000        1.0000000E-24
  -6.765500        1.0000000E-24
  -6.759000        1.0000000E-24
  -6.752500        1.0000000E-24
  -6.746000        1.0000000E-24
  -6.739500        1.0000000E-24
  -6.733000        1.0000000E-24
  -6.726500        1.0000000E-24
  -6.720000        1.0000000E-24
  -6.713500        1.0000000E-24
  -6.707000        1.0000000E-24
  -6.700500        1.0000000E-24
  -6.694000        1.0000000E-24
  -6.687500        1.0000000E-24
  -6.681000        1.0000000E-24
  -6.674500        1.0000000E-24
  -6.668000        1.0000000E-24
  -6.661500        1.0000000E-24
  -6.655000        1.0000000E-24
  -6.648500        1.0000000E-24
  -6.642000        1.0000000E-24
  -6.635500        1.0000000E-24
  -6.629000        1.0000000E-24
  -6.622500        1.0000000E-24
  -6.616000        9.9999992E-25
  -6.609500        9.9999992E-25
  -6.603000        9.9999992E-25
  -6.596500        9.9999982E-25
  -6.590000        9.9999982E-25
  -6.583500        9.9999982E-25
  -6.577000        9.9999982E-25
  -6.570500        9.9999972E-25
  -6.564000        9.9999972E-25
  -6.557500        9.9999963E-25
  -6.551000        9.9999963E-25
  -6.544500        9.9999953E-25
  -6.538000        9.9999953E-25
  -6.531500        9.9999943E-25
  -6.525000        9.9999933E-25
  -6.518500        9.9999923E-25
  -6.512000        9.9999913E-25
  -6.505500        9.9999903E-25
  -6.499000        9.9999893E-25
  -6.492500        9.9999874E-25
  -6.486000        9.9999854E-25
  -6.479500        9.9999844E-25
  -6.473000        9.9999824E-25
  -6.466500        9.9999795E-25
  -6.460000        9.9999785E-25
  -6.453500        9.9999765E-25
  -6.447000        9.9999755E-25
  -6.440500        9.9999736E-25
  -6.434000        9.9999716E-25
  -6.427500        9.9999696E-25
  -6.421000        9.9999677E-25
  -6.414500        9.9999667E-25
  -6.408000        9.9999667E-25
  -6.401500        9.9999657E-25
  -6.395000        9.9999657E-25
  -6.388500        9.9999667E-25
  -6.382000        9.9999677E-25
  -6.375500        9.9999696E-25
  -6.369000        9.9999736E-25
  -6.362500        9.9999785E-25
  -6.356000        9.9999864E-25
  -6.349500        9.9999953E-25
  -6.343000        1.0000007E-24
  -6.336500        1.0000021E-24
  -6.330000        1.0000039E-24
  -6.323500        1.0000060E-24
  -6.317000        1.0000086E-24
  -6.310500        1.0000117E-24
  -6.304000        1.0000152E-24
  -6.297500        1.0000193E-24
  -6.291000        1.0000242E-24
  -6.284500        1.0000296E-24
  -6.278000        1.0000359E-24
  -6.271500        1.0000430E-24
  -6.265000        1.0000510E-24
  -6.258500        1.0000599E-24
  -6.252000        1.0000698E-24
  -6.245500        1.0000809E-24
  -6.239000        1.0000931E-24
  -6.232500        1.0001065E-24
  -6.226000        1.0001212E-24
  -6.219500        1.0001371E-24
  -6.213000        1.0001543E-24
  -6.206500        1.0001728E-24
  -6.200000        1.0001924E-24
  -6.193500        1.0002133E-24
  -6.187000        1.0002353E-24
  -6.180500        1.0002583E-24
  -6.174000        1.0002821E-24
  -6.167500        1.0003067E-24
  -6.161000        1.0003317E-24
  -6.154500        1.0003570E-24
  -6.148000        1.0003820E-24
  -6.141500        1.0004066E-24
  -6.135000        1.0004300E-24
  -6.128500        1.0004520E-24
  -6.122000        1.0004719E-24
  -6.115500        1.0004887E-24
  -6.109000        1.0005020E-24
  -6.102500        1.0005108E-24
  -6.096000        1.0005142E-24
  -6.089500        1.0005108E-24
  -6.083000        1.0004998E-24
  -6.076500        1.0004796E-24
  -6.070000        1.0004491E-24
  -6.063500        1.0004066E-24
  -6.057000        1.0003506E-24
  -6.050500        1.0002793E-24
  -6.044000        1.0001908E-24
  -6.037500        1.0000835E-24
  -6.031000        9.9995535E-25
  -6.024500        9.9980428E-25
  -6.018000        9.9962827E-25
  -6.011500        9.9942524E-25
  -6.005000        9.9919301E-25
  -5.998500        9.9892973E-25
  -5.992000        9.9863332E-25
  -5.985500        9.9830190E-25
  -5.979000        9.9793380E-25
  -5.972500        9.9752743E-25
  -5.966000        9.9708143E-25
  -5.959500        9.9659500E-25
  -5.953000        9.9606725E-25
  -5.946500        9.9549819E-25
  -5.940000        9.9488800E-25
  -5.933500        9.9423759E-25
  -5.927000        9.9354852E-25
  -5.920500        9.9282316E-25
  -5.914000        9.9206457E-25
  -5.907500        9.9127680E-25
  -5.901000        9.9046506E-25
  -5.894500        9.8963557E-25
  -5.888000        9.8879583E-25
  -5.881500        9.8795480E-25
  -5.875000        9.8712256E-25
  -5.868500        9.8631121E-25
  -5.862000        9.8553409E-25
  -5.855500        9.8480636E-25
  -5.849000        9.8414520E-25
  -5.842500        9.8356953E-25
  -5.836000        9.8310006E-25
  -5.829500        9.8275976E-25
  -5.823000        9.8257339E-25
  -5.816500        9.8256797E-25
  -5.810000        9.8277228E-25
  -5.803500        9.8321720E-25
  -5.797000        9.8393546E-25
  -5.790500        9.8496147E-25
  -5.784000        9.8633153E-25
  -5.777500        9.8808319E-25
  -5.771000        9.9025532E-25
  -5.764500        9.9288755E-25
  -5.758000        9.9602041E-25
  -5.751500        9.9969443E-25
  -5.745000        1.0039501E-24
  -5.738500        1.0088273E-24
  -5.732000        1.0143644E-24
  -5.725500        1.0205981E-24
  -5.719000        1.0275621E-24
  -5.712500        1.0352875E-24
  -5.706000        1.0438005E-24
  -5.699500        1.0531227E-24
  -5.693000        1.0632693E-24
  -5.686500        1.0742488E-24
  -5.680000        1.0860610E-24
  -5.673500        1.0986968E-24
  -5.667000        1.1121363E-24
  -5.660500        1.1263479E-24
  -5.654000        1.1412867E-24
  -5.647500        1.1568932E-24
  -5.641000        1.1730926E-24
  -5.634500        1.1897922E-24
  -5.628000        1.2068811E-24
  -5.621500        1.2242284E-24
  -5.615000        1.2416819E-24
  -5.608500        1.2590668E-24
  -5.602000        1.2761848E-24
  -5.595500        1.2928126E-24
  -5.589000        1.3087012E-24
  -5.582500        1.3235752E-24
  -5.576000        1.3371319E-24
  -5.569500        1.3490411E-24
  -5.563000        1.3589448E-24
  -5.556500        1.3664572E-24
  -5.550000        1.3711653E-24
  -5.543500        1.3726295E-24
  -5.537000        1.3703850E-24
  -5.530500        1.3639428E-24
  -5.524000        1.3527921E-24
  -5.517500        1.3364026E-24
  -5.511000        1.3142275E-24
  -5.504500        1.2857069E-24
  -5.498000        1.2502721E-24
  -5.491500        1.2073500E-24
  -5.485000        1.1563690E-24
  -5.478500        1.0967644E-24
  -5.472000        1.0279852E-24
  -5.465500        9.4950168E-25
  -5.459000        8.6081360E-25
  -5.452500        7.6145844E-25
  -5.446000        6.5102127E-25
  -5.439500        5.2914477E-25
  -5.433000        3.9554011E-25
  -5.426500        2.4999845E-25
  -5.420000        9.2402723E-26
  -5.413500       -7.7259465E-26
  -5.407000       -2.5888285E-25
  -5.400500       -4.5223103E-25
  -5.394000       -6.5692283E-25
  -5.387500       -8.7241794E-25
  -5.381000       -1.0980029E-24
  -5.374500       -1.3327769E-24
  -5.368000       -1.5756380E-24
  -5.361500       -1.8252693E-24
  -5.355000       -2.0801256E-24
  -5.348500       -2.3384214E-24
  -5.342000       -2.5981183E-24
  -5.335500       -2.8569156E-24
  -5.329000       -3.1122395E-24
  -5.322500       -3.3612373E-24
  -5.316000       -3.6007690E-24
  -5.309500       -3.8274060E-24
  -5.303000       -4.0374276E-24
  -5.296500       -4.2268224E-24
  -5.290000       -4.3912928E-24
  -5.283500       -4.5262610E-24
  -5.277000       -4.6268806E-24
  -5.270500       -4.6880493E-24
  -5.264000       -4.7044280E-24
  -5.257500       -4.6704640E-24
  -5.251000       -4.5804159E-24
  -5.244500       -4.4283878E-24
  -5.238000       -4.2083631E-24
  -5.231500       -3.9142481E-24
  -5.225000       -3.5399206E-24
  -5.218500       -3.0792793E-24
  -5.212000       -2.5263042E-24
  -5.205500       -1.8751206E-24
  -5.199000       -1.1200684E-24
  -5.192500       -2.5577644E-25
  -5.186000        7.2275431E-25
  -5.179500        1.8200674E-24
  -5.173000        3.0401573E-24
  -5.166500        4.3863751E-24
  -5.160000        5.8613257E-24
  -5.153500        7.4667641E-24
  -5.147000        9.2034887E-24
  -5.140500        1.1071226E-23
  -5.134000        1.3068519E-23
  -5.127500        1.5192617E-23
  -5.121000        1.7439353E-23
  -5.114500        1.9803031E-23
  -5.108000        2.2276313E-23
  -5.101500        2.4850111E-23
  -5.095000        2.7513474E-23
  -5.088500        3.0253497E-23
  -5.082000        3.3055206E-23
  -5.075500        3.5901502E-23
  -5.069000        3.8773056E-23
  -5.062500        4.1648252E-23
  -5.056000        4.4503149E-23
  -5.049500        4.7311425E-23
  -5.043000        5.0044367E-23
  -5.036500        5.2670867E-23
  -5.030000        5.5157438E-23
  -5.023500        5.7468271E-23
  -5.017000        5.9565284E-23
  -5.010500        6.1408202E-23
  -5.004000        6.2954723E-23
  -4.997500        6.4160607E-23
  -4.991000        6.4979899E-23
  -4.984500        6.5365135E-23
  -4.978000        6.5267568E-23
  -4.971500        6.4637458E-23
  -4.965000        6.3424398E-23
  -4.958500        6.1577662E-23
  -4.952000        5.9046573E-23
  -4.945500        5.5780967E-23
  -4.939000        5.1731624E-23
  -4.932500        4.6850777E-23
  -4.926000        4.1092664E-23
  -4.919500        3.4414060E-23
  -4.913000        2.6774908E-23
  -4.906500        1.8138954E-23
  -4.900000        8.4743817E-24
  -4.893500       -2.2454764E-24
  -4.887000       -1.4041450E-23
  -4.880500       -2.6927789E-23
  -4.874000       -4.0911447E-23
  -4.867500       -5.5991315E-23
  -4.861000       -7.2157479E-23
  -4.854500       -8.9390468E-23
  -4.848000       -1.0766052E-22
  -4.841500       -1.2692685E-22
  -4.835000       -1.4713700E-22
  -4.828500       -1.6822610E-22
  -4.822000       -1.9011631E-22
  -4.815500       -2.1271618E-22
  -4.809000       -2.3592012E-22
  -4.802500       -2.5960812E-22
  -4.796000       -2.8364510E-22
  -4.789500       -3.0788080E-22
  -4.783000       -3.3214957E-22
  -4.776500       -3.5627026E-22
  -4.770000       -3.8004620E-22
  -4.763500       -4.0326539E-22
  -4.757000       -4.2570080E-22
  -4.750500       -4.4711081E-22
  -4.744000       -4.6723976E-22
  -4.737500       -4.8581861E-22
  -4.731000       -5.0256609E-22
  -4.724500       -5.1718948E-22
  -4.718000       -5.2938615E-22
  -4.711500       -5.3884491E-22
  -4.705000       -5.4524753E-22
  -4.698500       -5.4827075E-22
  -4.692000       -5.4758821E-22
  -4.685500       -5.4287272E-22
  -4.679000       -5.3379877E-22
  -4.672500       -5.2004473E-22
  -4.666000       -5.0129614E-22
  -4.659500       -4.7724843E-22
  -4.653000       -4.4760993E-22
  -4.646500       -4.1210525E-22
  -4.640000       -3.7047889E-22
  -4.633500       -3.2249845E-22
  -4.627000       -2.6795845E-22
  -4.620500       -2.0668402E-22
  -4.614000       -1.3853464E-22
  -4.607500       -6.3408160E-23
  -4.601000        1.8755603E-23
  -4.594500        1.0797087E-22
  -4.588000        2.0420220E-22
  -4.581500        3.0736073E-22
  -4.575000        4.1730078E-22
  -4.568500        5.3381619E-22
  -4.562000        6.5663727E-22
  -4.555500        7.8542763E-22
  -4.549000        9.1978183E-22
  -4.542500        1.0592224E-21
  -4.536000        1.2031986E-21
  -4.529500        1.3510838E-21
  -4.523000        1.5021752E-21
  -4.516500        1.6556925E-21
  -4.510000        1.8107777E-21
  -4.503500        1.9664963E-21
  -4.497000        2.1218372E-21
  -4.490500        2.2757148E-21
  -4.484000        2.4269719E-21
  -4.477500        2.5743811E-21
  -4.471000        2.7166508E-21
  -4.464500        2.8524271E-21
  -4.458000        2.9803015E-21
  -4.451500        3.0988153E-21
  -4.445000        3.2064671E-21
  -4.438500        3.3017205E-21
  -4.432000        3.3830120E-21
  -4.425500        3.4487611E-21
  -4.419000        3.4973790E-21
  -4.412500        3.5272811E-21
  -4.406000        3.5368963E-21
  -4.399500        3.5246808E-21
  -4.393000        3.4891306E-21
  -4.386500        3.4287941E-21
  -4.380000        3.3422857E-21
  -4.373500        3.2283009E-21
  -4.367000        3.0856303E-21
  -4.360500        2.9131740E-21
  -4.354000        2.7099576E-21
  -4.347500        2.4751457E-21
  -4.341000        2.2080581E-21
  -4.334500        1.9081837E-21
  -4.328000        1.5751948E-21
  -4.321500        1.2089614E-21
  -4.315000        8.0956400E-22
  -4.308500        3.7730631E-22
  -4.302000       -8.7272824E-23
  -4.295500       -5.8338927E-22
  -4.289000       -1.1100037E-21
  -4.282500       -1.6658145E-21
  -4.276000       -2.2492507E-21
  -4.269500       -2.8584658E-21
  -4.263000       -3.4913367E-21
  -4.256500       -4.1454609E-21
  -4.250000       -4.8181582E-21
  -4.243500       -5.5064735E-21
  -4.237000       -6.2071811E-21
  -4.230500       -6.9167938E-21
  -4.224000       -7.6315708E-21
  -4.217500       -8.3475319E-21
  -4.211000       -9.0604719E-21
  -4.204500       -9.7659787E-21
  -4.198000       -1.0459452E-20
  -4.191500       -1.1136128E-20
  -4.185000       -1.1791103E-20
  -4.178500       -1.2419361E-20
  -4.172000       -1.3015805E-20
  -4.165500       -1.3575289E-20
  -4.159000       -1.4092650E-20
  -4.152500       -1.4562751E-20
  -4.146000       -1.4980507E-20
  -4.139500       -1.5340938E-20
  -4.133000       -1.5639203E-20
  -4.126500       -1.5870638E-20
  -4.120000       -1.6030804E-20
  -4.113500       -1.6115532E-20
  -4.107000       -1.6120954E-20
  -4.100500       -1.6043556E-20
  -4.094000       -1.5880218E-20
  -4.087500       -1.5628248E-20
  -4.081000       -1.5285420E-20
  -4.074500       -1.4850018E-20
  -4.068000       -1.4320860E-20
  -4.061500       -1.3697331E-20
  -4.055000       -1.2979411E-20
  -4.048500       -1.2167693E-20
  -4.042000       -1.1263403E-20
  -4.035500       -1.0268411E-20
  -4.029000       -9.1852381E-21
  -4.022500       -8.0170579E-21
  -4.016000       -6.7676868E-21
  -4.009500       -5.4415774E-21
  -4.003000       -4.0437940E-21
  -3.996500       -2.5799905E-21
  -3.990000       -1.0563725E-21
  -3.983500        5.2034346E-22
  -3.977000        2.1429790E-21
  -3.970500        3.8039508E-21
  -3.964000        5.4953368E-21
  -3.957500        7.2089469E-21
  -3.951000        8.9364054E-21
  -3.944500        1.0669234E-20
  -3.938000        1.2398948E-20
  -3.931500        1.4117154E-20
  -3.925000        1.5815655E-20
  -3.918500        1.7486559E-20
  -3.912000        1.9122396E-20
  -3.905500        2.0716226E-20
  -3.899000        2.2261765E-20
  -3.892500        2.3753491E-20
  -3.886000        2.5186784E-20
  -3.879500        2.6558015E-20
  -3.873000        2.7864678E-20
  -3.866500        2.9105490E-20
  -3.860000        3.0280491E-20
  -3.853500        3.1391136E-20
  -3.847000        3.2440379E-20
  -3.840500        3.3432750E-20
  -3.834000        3.4374402E-20
  -3.827500        3.5273143E-20
  -3.821000        3.6138500E-20
  -3.814500        3.6981678E-20
  -3.808000        3.7815573E-20
  -3.801500        3.8654725E-20
  -3.795000        3.9515245E-20
  -3.788500        4.0414743E-20
  -3.782000        4.1372214E-20
  -3.775500        4.2407870E-20
  -3.769000        4.3542991E-20
  -3.762500        4.4799711E-20
  -3.756000        4.6200768E-20
  -3.749500        4.7769260E-20
  -3.743000        4.9528328E-20
  -3.736500        5.1500824E-20
  -3.730000        5.3708957E-20
  -3.723500        5.6173887E-20
  -3.717000        5.8915312E-20
  -3.710500        6.1951001E-20
  -3.704000        6.5296319E-20
  -3.697500        6.8963741E-20
  -3.691000        7.2962293E-20
  -3.684500        7.7297036E-20
  -3.678000        8.1968506E-20
  -3.671500        8.6972141E-20
  -3.665000        9.2297711E-20
  -3.658500        9.7928730E-20
  -3.652000        1.0384191E-19
  -3.645500        1.1000658E-19
  -3.639000        1.1638417E-19
  -3.632500        1.2292767E-19
  -3.626000        1.2958116E-19
  -3.619500        1.3627935E-19
  -3.613000        1.4294720E-19
  -3.606500        1.4949953E-19
  -3.600000        1.5584081E-19
  -3.593500        1.6186486E-19
  -3.587000        1.6745481E-19
  -3.580500        1.7248296E-19
  -3.574000        1.7681095E-19
  -3.567500        1.8028983E-19
  -3.561000        1.8276033E-19
  -3.554500        1.8405337E-19
  -3.548000        1.8399047E-19
  -3.541500        1.8238450E-19
  -3.535000        1.7904043E-19
  -3.528500        1.7375632E-19
  -3.522000        1.6632450E-19
  -3.515500        1.5653278E-19
  -3.509000        1.4416590E-19
  -3.502500        1.2900718E-19
  -3.496000        1.1084033E-19
  -3.489500        8.9451299E-20
  -3.483000        6.4630523E-20
  -3.476500        3.6175158E-20
  -3.470000        3.8914744E-21
  -3.463500       -3.2402461E-20
  -3.457000       -7.2874069E-20
  -3.450500       -1.1767336E-19
  -3.444000       -1.6692996E-19
  -3.437500       -2.2074997E-19
  -3.431000       -2.7921280E-19
  -3.424500       -3.4236768E-19
  -3.418000       -4.1023058E-19
  -3.411500       -4.8278071E-19
  -3.405000       -5.5995702E-19
  -3.398500       -6.4165501E-19
  -3.392000       -7.2772326E-19
  -3.385500       -8.1796019E-19
  -3.379000       -9.1211086E-19
  -3.372500       -1.0098642E-18
  -3.366000       -1.1108496E-18
  -3.359500       -1.2146352E-18
  -3.353000       -1.3207244E-18
  -3.346500       -1.4285549E-18
  -3.340000       -1.5374959E-18
  -3.333500       -1.6468475E-18
  -3.327000       -1.7558393E-18
  -3.320500       -1.8636305E-18
  -3.314000       -1.9693086E-18
  -3.307500       -2.0718914E-18
  -3.301000       -2.1703275E-18
  -3.294500       -2.2634979E-18
  -3.288000       -2.3502184E-18
  -3.281500       -2.4292433E-18
  -3.275000       -2.4992681E-18
  -3.268500       -2.5589353E-18
  -3.262000       -2.6068388E-18
  -3.255500       -2.6415308E-18
  -3.249000       -2.6615283E-18
  -3.242500       -2.6653211E-18
  -3.236000       -2.6513806E-18
  -3.229500       -2.6181695E-18
  -3.223000       -2.5641515E-18
  -3.216500       -2.4878036E-18
  -3.210000       -2.3876271E-18
  -3.203500       -2.2621613E-18
  -3.197000       -2.1099971E-18
  -3.190500       -1.9297907E-18
  -3.184000       -1.7202795E-18
  -3.177500       -1.4802974E-18
  -3.171000       -1.2087912E-18
  -3.164500       -9.0483747E-19
  -3.158000       -5.6765942E-19
  -3.151500       -1.9664518E-19
  -3.145000        2.0863533E-19
  -3.138500        6.4841230E-19
  -3.132000        1.1226976E-18
  -3.125500        1.6312677E-18
  -3.119000        2.1736460E-18
  -3.112500        2.7490858E-18
  -3.106000        3.3565535E-18
  -3.099500        3.9947137E-18
  -3.093000        4.6619134E-18
  -3.086500        5.3561690E-18
  -3.080000        6.0751523E-18
  -3.073500        6.8161825E-18
  -3.067000        7.5762118E-18
  -3.060500        8.3518226E-18
  -3.054000        9.1392175E-18
  -3.047500        9.9342200E-18
  -3.041000        1.0732268E-17
  -3.034500        1.1528422E-17
  -3.028000        1.2317360E-17
  -3.021500        1.3093391E-17
  -3.015000        1.3850465E-17
  -3.008500        1.4582182E-17
  -3.002000        1.5281806E-17
  -2.995500        1.5942300E-17
  -2.989000        1.6556324E-17
  -2.982500        1.7116289E-17
  -2.976000        1.7614366E-17
  -2.969500        1.8042533E-17
  -2.963000        1.8392609E-17
  -2.956500        1.8656296E-17
  -2.950000        1.8825225E-17
  -2.943500        1.8891007E-17
  -2.937000        1.8845287E-17
  -2.930500        1.8679798E-17
  -2.924000        1.8386422E-17
  -2.917500        1.7957259E-17
  -2.911000        1.7384686E-17
  -2.904500        1.6661433E-17
  -2.898000        1.5780654E-17
  -2.891500        1.4736001E-17
  -2.885000        1.3521698E-17
  -2.878500        1.2132628E-17
  -2.872000        1.0564403E-17
  -2.865500        8.8134514E-18
  -2.859000        6.8770944E-18
  -2.852500        4.7536300E-18
  -2.846000        2.4424096E-18
  -2.839500       -5.6082057E-20
  -2.833000       -2.7401493E-18
  -2.826500       -5.6068138E-18
  -2.820000       -8.6517426E-18
  -2.813500       -1.1869181E-17
  -2.807000       -1.5251890E-17
  -2.800500       -1.8791097E-17
  -2.794000       -2.2476428E-17
  -2.787500       -2.6295880E-17
  -2.781000       -3.0235777E-17
  -2.774500       -3.4280747E-17
  -2.768000       -3.8413689E-17
  -2.761500       -4.2615779E-17
  -2.755000       -4.6866465E-17
  -2.748500       -5.1143479E-17
  -2.742000       -5.5422848E-17
  -2.735500       -5.9678964E-17
  -2.729000       -6.3884581E-17
  -2.722500       -6.8010922E-17
  -2.716000       -7.2027738E-17
  -2.709500       -7.5903390E-17
  -2.703000       -7.9604970E-17
  -2.696500       -8.3098392E-17
  -2.690000       -8.6348570E-17
  -2.683500       -8.9319525E-17
  -2.677000       -9.1974570E-17
  -2.670500       -9.4276494E-17
  -2.664000       -9.6187731E-17
  -2.657500       -9.7670602E-17
  -2.651000       -9.8687518E-17
  -2.644500       -9.9201203E-17
  -2.638000       -9.9174998E-17
  -2.631500       -9.8573042E-17
  -2.625000       -9.7360627E-17
  -2.618500       -9.5504414E-17
  -2.612000       -9.2972758E-17
  -2.605500       -8.9736020E-17
  -2.599000       -8.5766850E-17
  -2.592500       -8.1040493E-17
  -2.586000       -7.5535142E-17
  -2.579500       -6.9232211E-17
  -2.573000       -6.2116665E-17
  -2.566500       -5.4177366E-17
  -2.560000       -4.5407332E-17
  -2.553500       -3.5804063E-17
  -2.547000       -2.5369851E-17
  -2.540500       -1.4112035E-17
  -2.534000       -2.0432906E-18
  -2.527500        1.0818132E-17
  -2.521000        2.4448172E-17
  -2.514500        3.8816721E-17
  -2.508000        5.3887478E-17
  -2.501500        6.9617744E-17
  -2.495000        8.5958300E-17
  -2.488500        1.0285334E-16
  -2.482000        1.2024034E-16
  -2.475500        1.3805008E-16
  -2.469000        1.5620661E-16
  -2.462500        1.7462736E-16
  -2.456000        1.9322312E-16
  -2.449500        2.1189830E-16
  -2.443000        2.3055101E-16
  -2.436500        2.4907340E-16
  -2.430000        2.6735179E-16
  -2.423500        2.8526714E-16
  -2.417000        3.0269540E-16
  -2.410500        3.1950784E-16
  -2.404000        3.3557174E-16
  -2.397500        3.5075068E-16
  -2.391000        3.6490537E-16
  -2.384500        3.7789414E-16
  -2.378000        3.8957369E-16
  -2.371500        3.9979987E-16
  -2.365000        4.0842836E-16
  -2.358500        4.1531563E-16
  -2.352000        4.2031977E-16
  -2.345500        4.2330141E-16
  -2.339000        4.2412464E-16
  -2.332500        4.2265814E-16
  -2.326000        4.1877605E-16
  -2.319500        4.1235904E-16
  -2.313000        4.0329549E-16
  -2.306500        3.9148240E-16
  -2.300000        3.7682664E-16
  -2.293500        3.5924594E-16
  -2.287000        3.3866998E-16
  -2.280500        3.1504152E-16
  -2.274000        2.8831744E-16
  -2.267500        2.5846975E-16
  -2.261000        2.2548658E-16
  -2.254500        1.8937318E-16
  -2.248000        1.5015287E-16
  -2.241500        1.0786782E-16
  -2.235000        6.2579860E-17
  -2.228500        1.4371247E-17
  -2.222000       -3.6654749E-17
  -2.215500       -9.0373234E-17
  -2.209000       -1.4663729E-16
  -2.202500       -2.0527757E-16
  -2.196000       -2.6610212E-16
  -2.189500       -3.2889622E-16
  -2.183000       -3.9342229E-16
  -2.176500       -4.5942024E-16
  -2.170000       -5.2660758E-16
  -2.163500       -5.9467992E-16
  -2.157000       -6.6331140E-16
  -2.150500       -7.3215569E-16
  -2.144000       -8.0084652E-16
  -2.137500       -8.6899900E-16
  -2.131000       -9.3621080E-16
  -2.124500       -1.0020632E-15
  -2.118000       -1.0661231E-15
  -2.111500       -1.1279442E-15
  -2.105000       -1.1870696E-15
  -2.098500       -1.2430328E-15
  -2.092000       -1.2953608E-15
  -2.085500       -1.3435757E-15
  -2.079000       -1.3871980E-15
  -2.072500       -1.4257483E-15
  -2.066000       -1.4587504E-15
  -2.059500       -1.4857345E-15
  -2.053000       -1.5062398E-15
  -2.046500       -1.5198175E-15
  -2.040000       -1.5260339E-15
  -2.033500       -1.5244743E-15
  -2.027000       -1.5147452E-15
  -2.020500       -1.4964785E-15
  -2.014000       -1.4693343E-15
  -2.007500       -1.4330045E-15
  -2.001000       -1.3872161E-15
  -1.994500       -1.3317344E-15
  -1.988000       -1.2663660E-15
  -1.981500       -1.1909624E-15
  -1.975000       -1.1054229E-15
  -1.968500       -1.0096973E-15
  -1.962000       -9.0378871E-16
  -1.955500       -7.8775647E-16
  -1.949000       -6.6171828E-16
  -1.942500       -5.2585251E-16
  -1.936000       -3.8039998E-16
  -1.929500       -2.2566599E-16
  -1.923000       -6.2021288E-17
  -1.916500        1.1009631E-16
  -1.910000        2.9018155E-16
  -1.903500        4.7766131E-16
  -1.897000        6.7189412E-16
  -1.890500        8.7217077E-16
  -1.884000        1.0777151E-15
  -1.877500        1.2876850E-15
  -1.871000        1.5011738E-15
  -1.864500        1.7172128E-15
  -1.858000        1.9347728E-15
  -1.851500        2.1527679E-15
  -1.845000        2.3700583E-15
  -1.838500        2.5854546E-15
  -1.832000        2.7977210E-15
  -1.825500        3.0055814E-15
  -1.819000        3.2077237E-15
  -1.812500        3.4028052E-15
  -1.806000        3.5894597E-15
  -1.799500        3.7663024E-15
  -1.793000        3.9319388E-15
  -1.786500        4.0849693E-15
  -1.780000        4.2239987E-15
  -1.773500        4.3476444E-15
  -1.767000        4.4545416E-15
  -1.760500        4.5433560E-15
  -1.754000        4.6127894E-15
  -1.747500        4.6615882E-15
  -1.741000        4.6885556E-15
  -1.734500        4.6925566E-15
  -1.728000        4.6725302E-15
  -1.721500        4.6274973E-15
  -1.715000        4.5565684E-15
  -1.708500        4.4589559E-15
  -1.702000        4.3339792E-15
  -1.695500        4.1810758E-15
  -1.689000        3.9998077E-15
  -1.682500        3.7898706E-15
  -1.676000        3.5511014E-15
  -1.669500        3.2834836E-15
  -1.663000        2.9871563E-15
  -1.656500        2.6624179E-15
  -1.650000        2.3097331E-15
  -1.643500        1.9297357E-15
  -1.637000        1.5232343E-15
  -1.630500        1.0912143E-15
  -1.624000        6.3484029E-16
  -1.617500        1.5545691E-16
  -1.611000       -3.4541011E-16
  -1.604500       -8.6605482E-16
  -1.598000       -1.4045934E-15