  -7.500000        1.0000000E-24
  -7.493500        1.0000000E-24
  -7.487000        1.0000000E-24
  -7.480500        1.0000000E-24
  -7.474000        1.0000000E-24
  -7.467500        1.0000000E-24
  -7.461000        1.0000000E-24
  -7.454500        1.0000000E-24
  -7.448000        1.0000000E-24
  -7.441500        1.0000000E-24
  -7.435000        1.0000000E-24
  -7.428500        1.0000000E-24
  -7.422000        1.0000000E-24
  -7.415500        1.0000000E-24
  -7.409000        1.0000000E-24
  -7.402500        1.0000000E-24
  -7.396000        1.0000000E-24
  -7.389500        1.0000000E-24
  -7.383000        1.0000000E-24
  -7.376500        1.0000000E-24
  -7.370000        1.0000000E-24
  -7.363500        1.0000000E-24
  -7.357000        1.0000000E-24
  -7.350500        1.0000000E-24
  -7.344000        1.0000000E-24
  -7.337500        1.0000000E-24
  -7.331000        1.0000000E-24
  -7.324500        1.0000000E-24
  -7.318000        1.0000000E-24
  -7.311500        1.0000000E-24
  -7.305000        1.0000000E-24
  -7.298500        1.0000000E-24
  -7.292000        1.0000000E-24
  -7.285500        1.0000000E-24
  -7.279000        1.0000000E-24
  -7.272500        1.0000000E-24
  -7.266000        1.0000000E-24
  -7.259500        1.0000000E-24
  -7.253000        1.0000000E-24
  -7.246500        1.0000000E-24
  -7.240000        1.0000000E-24
  -7.233500        1.0000000E-24
  -7.227000        1.0000000E-24
  -7.220500        1.0000000E-24
  -7.214000        1.0000000E-24
  -7.207500        9.9999992E-25
  -7.201000        9.9999992E-25
  -7.194500        9.9999992E-25
  -7.188000        9.9999982E-25
  -7.181500        9.9999972E-25
  -7.175000        9.9999963E-25
  -7.168500        9.9999953E-25
  -7.162000        9.9999933E-25
  -7.155500        9.9999913E-25
  -7.149000        9.9999874E-25
  -7.142500        9.9999834E-25
  -7.136000        9.9999785E-25
  -7.129500        9.9999716E-25
  -7.123000        9.9999637E-25
  -7.116500        9.9999519E-25
  -7.110000        9.9999381E-25
  -7.103500        9.9999203E-25
  -7.097000        9.9998967E-25
  -7.090500        9.9998681E-25
  -7.084000        9.9998306E-25
  -7.077500        9.9997842E-25
  -7.071000        9.9997241E-25
  -7.064500        9.9996501E-25
  -7.058000        9.9995574E-25
  -7.051500        9.9994431E-25
  -7.045000        9.9993001E-25
  -7.038500        9.9991236E-25
  -7.032000        9.9989047E-25
  -7.025500        9.9986365E-25
  -7.019000        9.9983061E-25
  -7.012500        9.9979018E-25
  -7.006000        9.9974088E-25
  -6.999500        9.9968083E-25
  -6.993000        9.9960805E-25
  -6.986500        9.9952000E-25
  -6.980000        9.9941390E-25
  -6.973500        9.9928640E-25
  -6.967000        9.9913375E-25
  -6.960500        9.9895133E-25
  -6.954000        9.9873419E-25
  -6.947500        9.9847633E-25
  -6.941000        9.9817144E-25
  -6.934500        9.9781182E-25
  -6.928000        9.9738899E-25
  -6.921500        9.9689349E-25
  -6.915000        9.9631486E-25
  -6.908500        9.9564117E-25
  -6.902000        9.9485931E-25
  -6.895500        9.9395498E-25
  -6.889000        9.9291250E-25
  -6.882500        9.9171461E-25
  -6.876000        9.9034298E-25
  -6.869500        9.8877749E-25
  -6.863000        9.8699703E-25
  -6.856500        9.8497912E-25
  -6.850000        9.8269991E-25
  -6.843500        9.8013502E-25
  -6.837000        9.7725893E-25
  -6.830500        9.7404581E-25
  -6.824000        9.7046970E-25
  -6.817500        9.6650479E-25
  -6.811000        9.6212631E-25
  -6.804500        9.5731052E-25
  -6.798000        9.5203599E-25
  -6.791500        9.4628411E-25
  -6.785000        9.4003979E-25
  -6.778500        9.3329266E-25
  -6.772000        9.2603780E-25
  -6.765500        9.1827738E-25
  -6.759000        9.1002156E-25
  -6.752500        9.0128995E-25
  -6.746000        8.9211284E-25
  -6.739500        8.8253281E-25
  -6.733000        8.7260618E-25
  -6.726500        8.6240434E-25
  -6.720000        8.5201543E-25
  -6.713500        8.4154567E-25
  -6.707000        8.3112068E-25
  -6.700500        8.2088664E-25
  -6.694000        8.1101143E-25
  -6.687500        8.0168507E-25
  -6.681000        7.9312041E-25
  -6.674500        7.8555306E-25
  -6.668000        7.7924094E-25
  -6.661500        7.7446345E-25
  -6.655000        7.7151952E-25
  -6.648500        7.7072568E-25
  -6.642000        7.7241261E-25
  -6.635500        7.7692135E-25
  -6.629000        7.8459795E-25
  -6.622500        7.9578740E-25
  -6.616000        8.1082654E-25
  -6.609500        8.3003511E-25
  -6.603000        8.5370576E-25
  -6.596500        8.8209283E-25
  -6.590000        9.1539962E-25
  -6.583500        9.5376390E-25
  -6.577000        9.9724216E-25
  -6.570500        1.0457921E-24
  -6.564000        1.0992545E-24
  -6.557500        1.1573326E-24
  -6.551000        1.2195715E-24
  -6.544500        1.2853352E-24
  -6.538000        1.3537839E-24
  -6.531500        1.4238508E-24
  -6.525000        1.4942172E-24
  -6.518500        1.5632900E-24
  -6.512000        1.6291777E-24
  -6.505500        1.6896691E-24
  -6.499000        1.7422131E-24
  -6.492500        1.7839009E-24
  -6.486000        1.8114508E-24
  -6.479500        1.8211986E-24
  -6.473000        1.8090906E-24
  -6.466500        1.7706847E-24
  -6.460000        1.7011561E-24
  -6.453500        1.5953120E-24
  -6.447000        1.4476158E-24
  -6.440500        1.2522197E-24
  -6.434000        1.0030099E-24
  -6.427500        6.9366452E-25
  -6.421000        3.1772339E-25
  -6.414500       -1.3132537E-25
  -6.408000       -6.5994353E-25
  -6.401500       -1.2744249E-24
  -6.395000       -1.9807577E-24
  -6.388500       -2.7844699E-24
  -6.382000       -3.6904542E-24
  -6.375500       -4.7027730E-24
  -6.369000       -5.8244444E-24
  -6.362500       -7.0572057E-24
  -6.356000       -8.4012598E-24
  -6.349500       -9.8550011E-24
  -6.343000       -1.1414722E-23
  -6.336500       -1.3074304E-23
  -6.330000       -1.4824893E-23
  -6.323500       -1.6654569E-23
  -6.317000       -1.8547988E-23
  -6.310500       -2.0486042E-23
  -6.304000       -2.2445500E-23
  -6.297500       -2.4398657E-23
  -6.291000       -2.6312987E-23
  -6.284500       -2.8150826E-23
  -6.278000       -2.9869060E-23
  -6.271500       -3.1418840E-23
  -6.265000       -3.2745345E-23
  -6.258500       -3.3787588E-23
  -6.252000       -3.4478277E-23
  -6.245500       -3.4743728E-23
  -6.239000       -3.4503877E-23
  -6.232500       -3.3672370E-23
  -6.226000       -3.2156719E-23
  -6.219500       -2.9858638E-23
  -6.213000       -2.6674426E-23
  -6.206500       -2.2495533E-23
  -6.200000       -1.7209258E-23
  -6.193500       -1.0699588E-23
  -6.187000       -2.8482399E-24
  -6.180500        6.4641523E-24
  -6.174000        1.7356638E-23
  -6.167500        2.9946368E-23
  -6.161000        4.4346807E-23
  -6.154500        6.0665713E-23
  -6.148000        7.9002949E-23
  -6.141500        9.9448009E-23
  -6.135000        1.2207741E-22
  -6.128500        1.4695184E-22
  -6.122000        1.7411305E-22
  -6.115500        2.0358061E-22
  -6.109000        2.3534854E-22
  -6.102500        2.6938156E-22
  -6.096000        3.0561161E-22
  -6.089500        3.4393366E-22
  -6.083000        3.8420207E-22
  -6.076500        4.2622642E-22
  -6.070000        4.6976765E-22
  -6.063500        5.1453406E-22
  -6.057000        5.6017732E-22
  -6.050500        6.0628901E-22
  -6.044000        6.5239706E-22
  -6.037500        6.9796227E-22
  -6.031000        7.4237597E-22
  -6.024500        7.8495699E-22
  -6.018000        8.2495024E-22
  -6.011500        8.6152507E-22
  -6.005000        8.9377471E-22
  -5.998500        9.2071644E-22
  -5.992000        9.4129276E-22
  -5.985500        9.5437276E-22
  -5.979000        9.5875615E-22
  -5.972500        9.5317642E-22
  -5.966000        9.3630686E-22
  -5.959500        9.0676756E-22
  -5.953000        8.6313298E-22
  -5.946500        8.0394206E-22
  -5.940000        7.2770962E-22
  -5.933500        6.3293923E-22
  -5.927000        5.1813773E-22
  -5.920500        3.8183183E-22
  -5.914000        2.2258628E-22
  -5.907500        3.9023677E-23
  -5.901000       -1.7015347E-22
  -5.894500       -4.0613955E-22
  -5.888000       -6.7000059E-22
  -5.881500       -9.6264699E-22
  -5.875000       -1.2848057E-21
  -5.868500       -1.6369899E-21
  -5.862000       -2.0194688E-21
  -5.855500       -2.4322337E-21
  -5.849000       -2.8749666E-21
  -5.842500       -3.3470062E-21
  -5.836000       -3.8473132E-21
  -5.829500       -4.3744360E-21
  -5.823000       -4.9264781E-21
  -5.816500       -5.5010633E-21
  -5.810000       -6.0953053E-21
  -5.803500       -6.7057747E-21
  -5.797000       -7.3284737E-21
  -5.790500       -7.9588055E-21
  -5.784000       -8.5915551E-21
  -5.777500       -9.2208666E-21
  -5.771000       -9.8402318E-21
  -5.764500       -1.0442473E-20
  -5.758000       -1.1019745E-20
  -5.751500       -1.1563529E-20
  -5.745000       -1.2064640E-20
  -5.738500       -1.2513248E-20
  -5.732000       -1.2898892E-20
  -5.725500       -1.3210514E-20
  -5.719000       -1.3436496E-20
  -5.712500       -1.3564712E-20
  -5.706000       -1.3582582E-20
  -5.699500       -1.3477144E-20
  -5.693000       -1.3235133E-20
  -5.686500       -1.2843073E-20
  -5.680000       -1.2287377E-20
  -5.673500       -1.1554462E-20
  -5.667000       -1.0630876E-20
  -5.660500       -9.5034336E-21
  -5.654000       -8.1593637E-21
  -5.647500       -6.5864729E-21
  -5.641000       -4.7733124E-21
  -5.634500       -2.7093594E-21
  -5.628000       -3.8521227E-22
  -5.621500        2.2072149E-21
  -5.615000        5.0744816E-21
  -5.608500        8.2214063E-21
  -5.602000        1.1650851E-20
  -5.595500        1.5363495E-20
  -5.589000        1.9357603E-20
  -5.582500        2.3628813E-20
  -5.576000        2.8169894E-20
  -5.569500        3.2970547E-20
  -5.563000        3.8017160E-20
  -5.556500        4.3292630E-20
  -5.550000        4.8776156E-20
  -5.543500        5.4443044E-20
  -5.537000        6.0264580E-20
  -5.530500        6.6207840E-20
  -5.524000        7.2235596E-20
  -5.517500        7.8306203E-20
  -5.511000        8.4373566E-20
  -5.504500        9.0387066E-20
  -5.498000        9.6291559E-20
  -5.491500        1.0202746E-19
  -5.485000        1.0753078E-19
  -5.478500        1.1273328E-19
  -5.472000        1.1756263E-19
  -5.465500        1.2194262E-19
  -5.459000        1.2579347E-19
  -5.452500        1.2903211E-19
  -5.446000        1.3157265E-19
  -5.439500        1.3332677E-19
  -5.433000        1.3420417E-19
  -5.426500        1.3411326E-19
  -5.420000        1.3296170E-19
  -5.413500        1.3065707E-19
  -5.407000        1.2710773E-19
  -5.400500        1.2222346E-19
  -5.394000        1.1591645E-19
  -5.387500        1.0810219E-19
  -5.381000        9.8700347E-20
  -5.374500        8.7635876E-20
  -5.368000        7.4840019E-20
  -5.361500        6.0251422E-20
  -5.355000        4.3817237E-20
  -5.348500        2.5494249E-20
  -5.342000        5.2500737E-21
  -5.335500       -1.6935709E-20
  -5.329000       -4.1070370E-20
  -5.322500       -6.7146877E-20
  -5.316000       -9.5142786E-20
  -5.309500       -1.2501907E-19
  -5.303000       -1.5671916E-19
  -5.296500       -1.9016784E-19
  -5.290000       -2.2527039E-19
  -5.283500       -2.6191162E-19
  -5.277000       -2.9995528E-19
  -5.270500       -3.3924318E-19
  -5.264000       -3.7959484E-19
  -5.257500       -4.2080697E-19
  -5.251000       -4.6265323E-19
  -5.244500       -5.0488416E-19
  -5.238000       -5.4722723E-19
  -5.231500       -5.8938707E-19
  -5.225000       -6.3104601E-19
  -5.218500       -6.7186437E-19
  -5.212000       -7.1148198E-19
  -5.205500       -7.4951864E-19
  -5.199000       -7.8557570E-19
  -5.192500       -8.1923766E-19
  -5.186000       -8.5007387E-19
  -5.179500       -8.7764070E-19
  -5.173000       -9.0148346E-19
  -5.166500       -9.2113944E-19
  -5.160000       -9.3614036E-19
  -5.153500       -9.4601534E-19
  -5.147000       -9.5029425E-19
  -5.140500       -9.4851115E-19
  -5.134000       -9.4020802E-19
  -5.127500       -9.2493816E-19
  -5.121000       -9.0227114E-19
  -5.114500       -8.7179584E-19
  -5.108000       -8.3312566E-19
  -5.101500       -7.8590244E-19
  -5.095000       -7.2980124E-19
  -5.088500       -6.6453462E-19
  -5.082000       -5.8985753E-19
  -5.075500       -5.0557170E-19
  -5.069000       -4.1153014E-19
  -5.062500       -3.0764150E-19
  -5.056000       -1.9387473E-19
  -5.049500       -7.0262628E-20
  -5.043000        6.3093583E-20
  -5.036500        2.0602102E-19
  -5.030000        3.5827165E-19
  -5.023500        5.1951916E-19
  -5.017000        6.8935640E-19
  -5.010500        8.6729298E-19
  -5.004000        1.0527535E-18
  -4.997500        1.2450768E-18
  -4.991000        1.4435142E-18
  -4.984500        1.6472306E-18
  -4.978000        1.8553035E-18
  -4.971500        2.0667256E-18
  -4.965000        2.2804054E-18
  -4.958500        2.4951705E-18
  -4.952000        2.7097701E-18
  -4.945500        2.9228797E-18
  -4.939000        3.1331052E-18
  -4.932500        3.3389880E-18
  -4.926000        3.5390124E-18
  -4.919500        3.7316115E-18
  -4.913000        3.9151749E-18
  -4.906500        4.0880569E-18
  -4.900000        4.2485857E-18
  -4.893500        4.3950741E-18
  -4.887000        4.5258265E-18
  -4.880500        4.6391535E-18
  -4.874000        4.7333810E-18
  -4.867500        4.8068619E-18
  -4.861000        4.8579879E-18
  -4.854500        4.8852030E-18
  -4.848000        4.8870145E-18
  -4.841500        4.8620072E-18
  -4.835000        4.8088538E-18
  -4.828500        4.7263285E-18
  -4.822000        4.6133203E-18
  -4.815500        4.4688424E-18
  -4.809000        4.2920458E-18
  -4.802500        4.0822294E-18
  -4.796000        3.8388505E-18
  -4.789500        3.5615349E-18
  -4.783000        3.2500838E-18
  -4.776500        2.9044836E-18
  -4.770000        2.5249115E-18
  -4.763500        2.1117416E-18
  -4.757000        1.6655477E-18
  -4.750500        1.1871078E-18
  -4.744000        6.7740400E-19
  -4.737500        1.3762389E-19
  -4.731000       -4.3084299E-19
  -4.724500       -1.0264068E-18
  -4.718000       -1.6472830E-18
  -4.711500       -2.2914996E-18
  -4.705000       -2.9569052E-18
  -4.698500       -3.6411779E-18
  -4.692000       -4.3418379E-18
  -4.685500       -5.0562614E-18
  -4.679000       -5.7816935E-18
  -4.672500       -6.5152649E-18
  -4.666000       -7.2540100E-18
  -4.659500       -7.9948851E-18
  -4.653000       -8.7347882E-18
  -4.646500       -9.4705778E-18
  -4.640000       -1.0199097E-17
  -4.633500       -1.0917195E-17
  -4.627000       -1.1621745E-17
  -4.620500       -1.2309669E-17
  -4.614000       -1.2977963E-17
  -4.607500       -1.3623710E-17
  -4.601000       -1.4244110E-17
  -4.594500       -1.4836490E-17
  -4.588000       -1.5398333E-17
  -4.581500       -1.5927283E-17
  -4.575000       -1.6421168E-17
  -4.568500       -1.6878013E-17
  -4.562000       -1.7296041E-17
  -4.555500       -1.7673687E-17
  -4.549000       -1.8009608E-17
  -4.542500       -1.8302671E-17
  -4.536000       -1.8551959E-17
  -4.529500       -1.8756760E-17
  -4.523000       -1.8916568E-17
  -4.516500       -1.9031050E-17
  -4.510000       -1.9100045E-17
  -4.503500       -1.9123532E-17
  -4.497000       -1.9101610E-17
  -4.490500       -1.9034458E-17
  -4.484000       -1.8922309E-17
  -4.477500       -1.8765408E-17
  -4.471000       -1.8563963E-17
  -4.464500       -1.8318110E-17
  -4.458000       -1.8027856E-17
  -4.451500       -1.7693023E-17
  -4.445000       -1.7313203E-17
  -4.438500       -1.6887693E-17
  -4.432000       -1.6415436E-17
  -4.425500       -1.5894969E-17
  -4.419000       -1.5324356E-17
  -4.412500       -1.4701129E-17
  -4.406000       -1.4022238E-17
  -4.399500       -1.3283986E-17
  -4.393000       -1.2481988E-17
  -4.386500       -1.1611109E-17
  -4.380000       -1.0665436E-17
  -4.373500       -9.6382324E-18
  -4.367000       -8.5219133E-18
  -4.360500       -7.3080199E-18
  -4.354000       -5.9872131E-18
  -4.347500       -4.5492750E-18
  -4.341000       -2.9831150E-18
  -4.334500       -1.2767925E-18
  -4.328000        5.8243731E-19
  -4.321500        2.6080763E-18
  -4.315000        4.8143194E-18
  -4.308500        7.2159572E-18
  -4.302000        9.8282821E-18
  -4.295500        1.2666967E-17
  -4.289000        1.5747924E-17
  -4.282500        1.9087151E-17
  -4.276000        2.2700546E-17
  -4.269500        2.6603712E-17
  -4.263000        3.0811747E-17
  -4.256500        3.5338999E-17
  -4.250000        4.0198820E-17
  -4.243500        4.5403289E-17
  -4.237000        5.0962912E-17
  -4.230500        5.6886349E-17
  -4.224000        6.3180042E-17
  -4.217500        6.9847938E-17
  -4.211000        7.6891083E-17
  -4.204500        8.4307333E-17
  -4.198000        9.2090937E-17
  -4.191500        1.0023221E-16
  -4.185000        1.0871714E-16
  -4.178500        1.1752704E-16
  -4.172000        1.2663818E-16
  -4.165500        1.3602142E-16
  -4.159000        1.4564196E-16
  -4.152500        1.5545888E-16
  -4.146000        1.6542495E-16
  -4.139500        1.7548633E-16
  -4.133000        1.8558232E-16
  -4.126500        1.9564517E-16
  -4.120000        2.0559986E-16
  -4.113500        2.1536406E-16
  -4.107000        2.2484799E-16
  -4.100500        2.3395452E-16
  -4.094000        2.4257901E-16
  -4.087500        2.5060968E-16
  -4.081000        2.5792754E-16
  -4.074500        2.6440679E-16
  -4.068000        2.6991520E-16
  -4.061500        2.7431440E-16
  -4.055000        2.7746039E-16
  -4.048500        2.7920427E-16
  -4.042000        2.7939276E-16
  -4.035500        2.7786908E-16
  -4.029000        2.7447383E-16
  -4.022500        2.6904583E-16
  -4.016000        2.6142338E-16
  -4.009500        2.5144530E-16
  -4.003000        2.3895220E-16
  -3.996500        2.2378796E-16
  -3.990000        2.0580093E-16
  -3.983500        1.8484575E-16
  -3.977000        1.6078480E-16
  -3.970500        1.3348990E-16
  -3.964000        1.0284417E-16
  -3.957500        6.8743725E-17
  -3.951000        3.1099698E-17
  -3.944500       -1.0159952E-17
  -3.938000       -5.5088389E-17
  -3.931500       -1.0371799E-16
  -3.925000       -1.5605834E-16
  -3.918500       -2.1209418E-16
  -3.912000       -2.7178357E-16
  -3.905500       -3.3505587E-16
  -3.899000       -4.0180996E-16
  -3.892500       -4.7191228E-16
  -3.886000       -5.4519540E-16
  -3.879500       -6.2145611E-16
  -3.873000       -7.0045421E-16
  -3.866500       -7.8191104E-16
  -3.860000       -8.6550843E-16
  -3.853500       -9.5088776E-16
  -3.847000       -1.0376489E-15
  -3.840500       -1.1253505E-15
  -3.834000       -1.2135087E-15
  -3.827500       -1.3015980E-15
  -3.821000       -1.3890511E-15
  -3.814500       -1.4752596E-15
  -3.808000       -1.5595752E-15
  -3.801500       -1.6413108E-15
  -3.795000       -1.7197420E-15
  -3.788500       -1.7941098E-15
  -3.782000       -1.8636224E-15
  -3.775500       -1.9274580E-15
  -3.769000       -1.9847689E-15
  -3.762500       -2.0346839E-15
  -3.756000       -2.0763137E-15
  -3.749500       -2.1087542E-15
  -3.743000       -2.1310925E-15
  -3.736500       -2.1424119E-15
  -3.730000       -2.1417965E-15
  -3.723500       -2.1283397E-15
  -3.717000       -2.1011484E-15
  -3.710500       -2.0593518E-15
  -3.704000       -2.0021068E-15
  -3.697500       -1.9286070E-15
  -3.691000       -1.8380899E-15
  -3.684500       -1.7298451E-15
  -3.678000       -1.6032227E-15
  -3.671500       -1.4576415E-15
  -3.665000       -1.2925979E-15
  -3.658500       -1.1076742E-15
  -3.652000       -9.0254770E-16
  -3.645500       -6.7699929E-16
  -3.639000       -4.3092158E-16
  -3.632500       -1.6432824E-16
  -3.626000        1.2263913E-16
  -3.619500        4.2970148E-16
  -3.613000        7.5643616E-16
  -3.606500        1.1022689E-15
  -3.600000        1.4664676E-15
  -3.593500        1.8481363E-15
  -3.587000        2.2462098E-15
  -3.580500        2.6594482E-15
  -3.574000        3.0864345E-15
  -3.567500        3.5255714E-15
  -3.561000        3.9750773E-15
  -3.554500        4.4329880E-15
  -3.548000        4.8971566E-15
  -3.541500        5.3652524E-15
  -3.535000        5.8347657E-15
  -3.528500        6.3030114E-15
  -3.522000        6.7671347E-15
  -3.515500        7.2241162E-15
  -3.509000        7.6707795E-15
  -3.502500        8.1038048E-15
  -3.496000        8.5197369E-15
  -3.489500        8.9149972E-15
  -3.483000        9.2859002E-15
  -3.476500        9.6286682E-15
  -3.470000        9.9394471E-15
  -3.463500        1.0214329E-14
  -3.457000        1.0449369E-14
  -3.450500        1.0640608E-14
  -3.444000        1.0784100E-14
  -3.437500        1.0875927E-14
  -3.431000        1.0912236E-14
  -3.424500        1.0889259E-14
  -3.418000        1.0803345E-14
  -3.411500        1.0650984E-14
  -3.405000        1.0428844E-14
  -3.398500        1.0133798E-14
  -3.392000        9.7629534E-15
  -3.385500        9.3136854E-15
  -3.379000        8.7836741E-15
  -3.372500        8.1709262E-15
  -3.366000        7.4738155E-15
  -3.359500        6.6911105E-15
  -3.353000        5.8220068E-15
  -3.346500        4.8661560E-15
  -3.340000        3.8236935E-15
  -3.333500        2.6952709E-15
  -3.327000        1.4820777E-15
  -3.320500        1.8586907E-16
  -3.314000       -1.1910139E-15
  -3.307500       -2.6456250E-15
  -3.301000       -4.1743889E-15
  -3.294500       -5.7730941E-15
  -3.288000       -7.4368764E-15
  -3.281500       -9.1602082E-15
  -3.275000       -1.0936900E-14
  -3.268500       -1.2760094E-14
  -3.262000       -1.4622264E-14
  -3.255500       -1.6515230E-14
  -3.249000       -1.8430160E-14
  -3.242500       -2.0357590E-14
  -3.236000       -2.2287443E-14
  -3.229500       -2.4209050E-14
  -3.223000       -2.6111190E-14
  -3.216500       -2.7982111E-14
  -3.210000       -2.9809580E-14
  -3.203500       -3.1580912E-14
  -3.197000       -3.3283042E-14
  -3.190500       -3.4902562E-14
  -3.184000       -3.6425785E-14
  -3.177500       -3.7838812E-14
  -3.171000       -3.9127589E-14
  -3.164500       -4.0277999E-14
  -3.158000       -4.1275926E-14
  -3.151500       -4.2107339E-14
  -3.145000       -4.2758382E-14
  -3.138500       -4.3215458E-14
  -3.132000       -4.3465320E-14
  -3.125500       -4.3495172E-14
  -3.119000       -4.3292759E-14
  -3.112500       -4.2846477E-14
  -3.106000       -4.2145463E-14
  -3.099500       -4.1179699E-14
  -3.093000       -3.9940111E-14
  -3.086500       -3.8418680E-14
  -3.080000       -3.6608534E-14
  -3.073500       -3.4504046E-14
  -3.067000       -3.2100939E-14
  -3.060500       -2.9396373E-14
  -3.054000       -2.6389037E-14
  -3.047500       -2.3079232E-14
  -3.041000       -1.9468964E-14
  -3.034500       -1.5562003E-14
  -3.028000       -1.1363956E-14
  -3.021500       -6.8823409E-15
  -3.015000       -2.1266297E-15
  -3.008500        2.8917044E-15
  -3.002000        8.1591516E-15
  -2.995500        1.3660138E-14
  -2.989000        1.9377010E-14
  -2.982500        2.5290032E-14
  -2.976000        3.1377387E-14
  -2.969500        3.7615209E-14
  -2.963000        4.3977598E-14
  -2.956500        5.0436682E-14
  -2.950000        5.6962668E-14
  -2.943500        6.3523914E-14
  -2.937000        7.0087016E-14
  -2.930500        7.6616895E-14
  -2.924000        8.3076958E-14
  -2.917500        8.9429156E-14
  -2.911000        9.5634201E-14
  -2.904500        1.0165167E-13
  -2.898000        1.0744020E-13
  -2.891500        1.1295769E-13
  -2.885000        1.1816143E-13
  -2.878500        1.2300840E-13
  -2.872000        1.2745545E-13
  -2.865500        1.3145946E-13
  -2.859000        1.3497776E-13
  -2.852500        1.3796821E-13
  -2.846000        1.4038956E-13
  -2.839500        1.4220167E-13
  -2.833000        1.4336579E-13
  -2.826500        1.4384486E-13
  -2.820000        1.4360380E-13
  -2.813500        1.4260972E-13
  -2.807000        1.4083232E-13
  -2.800500        1.3824407E-13
  -2.794000        1.3482051E-13
  -2.787500        1.3054061E-13
  -2.781000        1.2538690E-13
  -2.774500        1.1934583E-13
  -2.768000        1.1240800E-13
  -2.761500        1.0456837E-13
  -2.755000        9.5826484E-14
  -2.748500        8.6186741E-14
  -2.742000        7.5658514E-14
  -2.735500        6.4256333E-14
  -2.729000        5.2000064E-14
  -2.722500        3.8915011E-14
  -2.716000        2.5032026E-14
  -2.709500        1.0387598E-14
  -2.703000       -4.9761297E-15
  -2.696500       -2.1011337E-14
  -2.690000       -3.7664506E-14
  -2.683500       -5.4876483E-14
  -2.677000       -7.2582599E-14
  -2.670500       -9.0712695E-14
  -2.664000       -1.0919134E-13
  -2.657500       -1.2793800E-13
  -2.651000       -1.4686721E-13
  -2.644500       -1.6588891E-13
  -2.638000       -1.8490863E-13
  -2.631500       -2.0382793E-13
  -2.625000       -2.2254464E-13
  -2.618500       -2.4095336E-13
  -2.612000       -2.5894589E-13
  -2.605500       -2.7641154E-13
  -2.599000       -2.9323785E-13
  -2.592500       -3.0931095E-13
  -2.586000       -3.2451618E-13
  -2.579500       -3.3873872E-13
  -2.573000       -3.5186405E-13
  -2.566500       -3.6377875E-13
  -2.560000       -3.7437108E-13
  -2.553500       -3.8353156E-13
  -2.547000       -3.9115377E-13
  -2.540500       -3.9713507E-13
  -2.534000       -4.0137715E-13
  -2.527500       -4.0378679E-13
  -2.521000       -4.0427663E-13
  -2.514500       -4.0276587E-13
  -2.508000       -3.9918088E-13
  -2.501500       -3.9345583E-13
  -2.495000       -3.8553354E-13
  -2.488500       -3.7536594E-13
  -2.482000       -3.6291486E-13
  -2.475500       -3.4815239E-13
  -2.469000       -3.3106165E-13
  -2.462500       -3.1163716E-13
  -2.456000       -2.8988541E-13
  -2.449500       -2.6582523E-13
  -2.443000       -2.3948812E-13
  -2.436500       -2.1091871E-13
  -2.430000       -1.8017491E-13
  -2.423500       -1.4732815E-13
  -2.417000       -1.1246344E-13
  -2.410500       -7.5679595E-14
  -2.404000       -3.7089086E-14
  -2.397500        3.1819790E-15
  -2.391000        4.4994092E-14
  -2.384500        8.8194385E-14
  -2.378000        1.3261716E-13
  -2.371500        1.7808416E-13
  -2.365000        2.2440512E-13
  -2.358500        2.7137824E-13
  -2.352000        3.1879095E-13
  -2.345500        3.6642052E-13
  -2.339000        4.1403485E-13
  -2.332500        4.6139351E-13
  -2.326000        5.0824850E-13
  -2.319500        5.5434552E-13
  -2.313000        5.9942486E-13
  -2.306500        6.4322256E-13
  -2.300000        6.8547192E-13
  -2.293500        7.2590458E-13
  -2.287000        7.6425189E-13
  -2.280500        8.0024626E-13
  -2.274000        8.3362283E-13
  -2.267500        8.6412068E-13
  -2.261000        8.9148453E-13
  -2.254500        9.1546605E-13
  -2.248000        9.3582596E-13
  -2.241500        9.5233457E-13
  -2.235000        9.6477459E-13
  -2.228500        9.7294167E-13
  -2.222000        9.7664617E-13
  -2.215500        9.7571517E-13
  -2.209000        9.6999318E-13
  -2.202500        9.5934415E-13
  -2.196000        9.4365249E-13
  -2.189500        9.2282432E-13
  -2.183000        8.9678904E-13
  -2.176500        8.6550022E-13
  -2.170000        8.2893664E-13
  -2.163500        7.8710340E-13
  -2.157000        7.4003249E-13
  -2.150500        6.8778376E-13
  -2.144000        6.3044557E-13
  -2.137500        5.6813495E-13
  -2.131000        5.0099817E-13
  -2.124500        4.2921081E-13
  -2.118000        3.5297793E-13
  -2.111500        2.7253381E-13
  -2.105000        1.8814168E-13
  -2.098500        1.0009346E-13
  -2.092000        8.7089115E-15
  -2.085500       -8.5665131E-14
  -2.079000       -1.8265538E-13
  -2.072500       -2.8186356E-13
  -2.066000       -3.8286767E-13
  -2.059500       -4.8522324E-13
  -2.053000       -5.8846499E-13
  -2.046500       -6.9210870E-13
  -2.040000       -7.9565320E-13
  -2.033500       -8.9858221E-13
  -2.027000       -1.0003666E-12
  -2.020500       -1.1004669E-12
  -2.014000       -1.1983361E-12
  -2.007500       -1.2934214E-12
  -2.001000       -1.3851674E-12
  -1.994500       -1.4730191E-12
  -1.988000       -1.5564246E-12
  -1.981500       -1.6348379E-12
  -1.975000       -1.7077221E-12
  -1.968500       -1.7745522E-12
  -1.962000       -1.8348190E-12
  -1.955500       -1.8880305E-12
  -1.949000       -1.9337173E-12
  -1.942500       -1.9714337E-12
  -1.936000       -2.0007611E-12
  -1.929500       -2.0213119E-12
  -1.923000       -2.0327321E-12
  -1.916500       -2.0347025E-12
  -1.910000       -2.0269442E-12
  -1.903500       -2.0092181E-12
  -1.897000       -1.9813302E-12
  -1.890500       -1.9431312E-12
  -1.884000       -1.8945210E-12
  -1.877500       -1.8354485E-12
  -1.871000       -1.7659145E-12
  -1.864500       -1.6859727E-12
  -1.858000       -1.5957310E-12
  -1.851500       -1.4953527E-12
  -1.845000       -1.3850562E-12
  -1.838500       -1.2651167E-12
  -1.832000       -1.1358653E-12
  -1.825500       -9.9768913E-13
  -1.819000       -8.5103127E-13
  -1.812500       -6.9638929E-13
  -1.806000       -5.3431440E-13
  -1.799500       -3.6541018E-13
  -1.793000       -1.9033065E-13
  -1.786500       -9.7782991E-15
  -1.780000        1.7549831E-13
  -1.773500        3.6470699E-13
  -1.767000        5.5701548E-13
  -1.760500        7.5155426E-13
  -1.754000        9.4741977E-13
  -1.747500        1.1436794E-12
  -1.741000        1.3393740E-12
  -1.734500        1.5335237E-12
  -1.728000        1.7251314E-12
  -1.721500        1.9131875E-12
  -1.715000        2.0966763E-12
  -1.708500        2.2745790E-12
  -1.702000        2.4458801E-12
  -1.695500        2.6095727E-12
  -1.689000        2.7646644E-12
  -1.682500        2.9101808E-12
  -1.676000        3.0451737E-12
  -1.669500        3.1687250E-12
  -1.663000        3.2799525E-12
  -1.656500        3.3780155E-12
  -1.650000        3.4621206E-12
  -1.643500        3.5315258E-12
  -1.637000        3.5855464E-12
  -1.630500        3.6235598E-12
  -1.624000        3.6450109E-12
  -1.617500        3.6494154E-12
  -1.611000        3.6363640E-12
  -1.604500        3.6055276E-12
  -1.598000        3.5566593E-12