  -7.500000        1.0000000E-24
  -7.493500        1.0000000E-24
  -7.487000        1.0000000E-24
  -7.480500        1.0000000E-24
  -7.474000        1.0000000E-24
  -7.467500        1.0000000E-24
  -7.461000        1.0000000E-24
  -7.454500        1.0000000E-24
  -7.448000        1.0000000E-24
  -7.441500        1.0000000E-24
  -7.435000        1.0000000E-24
  -7.428500        1.0000000E-24
  -7.422000        1.0000000E-24
  -7.415500        1.0000000E-24
  -7.409000        1.0000000E-24
  -7.402500        1.0000000E-24
  -7.396000        1.0000000E-24
  -7.389500        1.0000000E-24
  -7.383000        9.9999992E-25
  -7.376500        9.9999982E-25
  -7.370000        9.9999972E-25
  -7.363500        9.9999933E-25
  -7.357000        9.9999874E-25
  -7.350500        9.9999775E-25
  -7.344000        9.9999588E-25
  -7.337500        9.9999272E-25
  -7.331000        9.9998750E-25
  -7.324500        9.9997911E-25
  -7.318000        9.9996570E-25
  -7.311500        9.9994470E-25
  -7.305000        9.9991265E-25
  -7.298500        9.9986434E-25
  -7.292000        9.9979245E-25
  -7.285500        9.9968733E-25
  -7.279000        9.9953538E-25
  -7.272500        9.9931884E-25
  -7.266000        9.9901394E-25
  -7.259500        9.9858954E-25
  -7.253000        9.9800538E-25
  -7.246500        9.9720992E-25
  -7.240000        9.9613756E-25
  -7.233500        9.9470647E-25
  -7.227000        9.9281438E-25
  -7.220500        9.9033588E-25
  -7.214000        9.8711802E-25
  -7.207500        9.8297640E-25
  -7.201000        9.7769044E-25
  -7.194500        9.7099942E-25
  -7.188000        9.6259805E-25
  -7.181500        9.5213214E-25
  -7.175000        9.3919610E-25
  -7.168500        9.2332954E-25
  -7.162000        9.0401675E-25
  -7.155500        8.8068688E-25
  -7.149000        8.5271722E-25
  -7.142500        8.1943834E-25
  -7.136000        7.8014355E-25
  -7.129500        7.3410163E-25
  -7.123000        6.8057412E-25
  -7.116500        6.1883845E-25
  -7.110000        5.4821627E-25
  -7.103500        4.6810760E-25
  -7.097000        3.7803183E-25
  -7.090500        2.7767431E-25
  -7.084000        1.6694011E-25
  -7.077500        4.6010312E-26
  -7.071000       -8.4595699E-26
  -7.064500       -2.2395690E-25
  -7.058000       -3.7069065E-25
  -7.051500       -5.2289369E-25
  -7.045000       -6.7809714E-25
  -7.038500       -8.3323956E-25
  -7.032000       -9.8466092E-25
  -7.025500       -1.1281276E-24
  -7.019000       -1.2589194E-24
  -7.012500       -1.3719559E-24
  -7.006000       -1.4620173E-24
  -6.999500       -1.5240460E-24
  -6.993000       -1.5535850E-24
  -6.986500       -1.5473497E-24
  -6.980000       -1.5039455E-24
  -6.973500       -1.4248410E-24
  -6.967000       -1.3155367E-24
  -6.960500       -1.1870032E-24
  -6.954000       -1.0574948E-24
  -6.947500       -9.5464091E-25
  -6.941000       -9.1796351E-25
  -6.934500       -1.0019243E-24
  -6.928000       -1.2793611E-24
  -6.921500       -1.8455943E-24
  -6.915000       -2.8229439E-24
  -6.908500       -4.3661720E-24
  -6.902000       -6.6683793E-24
  -6.895500       -9.9677979E-24
  -6.889000       -1.4555284E-23
  -6.882500       -2.0782580E-23
  -6.876000       -2.9071437E-23
  -6.869500       -3.9923654E-23
  -6.863000       -5.3931814E-23
  -6.856500       -7.1790615E-23
  -6.850000       -9.4309451E-23
  -6.843500       -1.2242508E-22
  -6.837000       -1.5721519E-22
  -6.830500       -1.9991227E-22
  -6.824000       -2.5191772E-22
  -6.817500       -3.1481583E-22
  -6.811000       -3.9038800E-22
  -6.804500       -4.8062576E-22
  -6.798000       -5.8774348E-22
  -6.791500       -7.1418953E-22
  -6.785000       -8.6265578E-22
  -6.778500       -1.0360848E-21
  -6.772000       -1.2376740E-21
  -6.765500       -1.4708775E-21
  -6.759000       -1.7394015E-21
  -6.752500       -2.0471971E-21
  -6.746000       -2.3984471E-21
  -6.739500       -2.7975442E-21
  -6.733000       -3.2490647E-21
  -6.726500       -3.7577313E-21
  -6.720000       -4.3283688E-21
  -6.713500       -4.9658479E-21
  -6.707000       -5.6750176E-21
  -6.700500       -6.4606275E-21
  -6.694000       -7.3272337E-21
  -6.687500       -8.2790940E-21
  -6.681000       -9.3200459E-21
  -6.674500       -1.0453367E-20
  -6.668000       -1.1681629E-20
  -6.661500       -1.3006516E-20
  -6.655000       -1.4428650E-20
  -6.648500       -1.5947377E-20
  -6.642000       -1.7560550E-20
  -6.635500       -1.9264292E-20
  -6.629000       -2.1052740E-20
  -6.622500       -2.2917776E-20
  -6.616000       -2.4848748E-20
  -6.609500       -2.6832180E-20
  -6.603000       -2.8851465E-20
  -6.596500       -3.0886556E-20
  -6.590000       -3.2913665E-20
  -6.583500       -3.4904947E-20
  -6.577000       -3.6828201E-20
  -6.570500       -3.8646576E-20
  -6.564000       -4.0318308E-20
  -6.557500       -4.1796451E-20
  -6.551000       -4.3028679E-20
  -6.544500       -4.3957092E-20
  -6.538000       -4.4518092E-20
  -6.531500       -4.4642301E-20
  -6.525000       -4.4254551E-20
  -6.518500       -4.3273957E-20
  -6.512000       -4.1614061E-20
  -6.505500       -3.9183087E-20
  -6.499000       -3.5884303E-20
  -6.492500       -3.1616497E-20
  -6.486000       -2.6274588E-20
  -6.479500       -1.9750381E-20
  -6.473000       -1.1933497E-20
  -6.466500       -2.7124195E-21
  -6.460000        8.0242255E-21
  -6.453500        2.0386257E-20
  -6.447000        3.4480290E-20
  -6.440500        5.0407902E-20
  -6.434000        6.8263597E-20
  -6.427500        8.8132579E-20
  -6.421000        1.1008823E-19
  -6.414500        1.3418952E-19
  -6.408000        1.6047807E-19
  -6.401500        1.8897507E-19
  -6.395000        2.1967808E-19
  -6.388500        2.5255750E-19
  -6.382000        2.8755295E-19
  -6.375500        3.2456957E-19
  -6.369000        3.6347417E-19
  -6.362500        4.0409125E-19
  -6.356000        4.4619890E-19
  -6.349500        4.8952502E-19
  -6.343000        5.3374310E-19
  -6.336500        5.7846844E-19
  -6.330000        6.2325454E-19
  -6.323500        6.6758919E-19
  -6.317000        7.1089163E-19
  -6.310500        7.5250926E-19
  -6.304000        7.9171530E-19
  -6.297500        8.2770660E-19
  -6.291000        8.5960247E-19
  -6.284500        8.8644366E-19
  -6.278000        9.0719235E-19
  -6.271500        9.2073288E-19
  -6.265000        9.2587401E-19
  -6.258500        9.2135120E-19
  -6.252000        9.0583070E-19
  -6.245500        8.7791491E-19
  -6.239000        8.3614875E-19
  -6.232500        7.7902774E-19
  -6.226000        7.0500733E-19
  -6.219500        6.1251416E-19
  -6.213000        4.9995804E-19
  -6.206500        3.6574724E-19
  -6.200000        2.0830424E-19
  -6.193500        2.6083313E-20
  -6.187000       -1.8240925E-19
  -6.180500       -4.1859351E-19
  -6.174000       -6.8379278E-19
  -6.167500       -9.7920845E-19
  -6.161000       -1.3058932E-18
  -6.154500       -1.6647223E-18
  -6.148000       -2.0563629E-18
  -6.141500       -2.4812445E-18
  -6.135000       -2.9395238E-18
  -6.128500       -3.4310530E-18
  -6.122000       -3.9553440E-18
  -6.115500       -4.5115332E-18
  -6.109000       -5.0983471E-18
  -6.102500       -5.7140665E-18
  -6.096000       -6.3564897E-18
  -6.089500       -7.0228999E-18
  -6.083000       -7.7100330E-18
  -6.076500       -8.4140415E-18
  -6.070000       -9.1304717E-18
  -6.063500       -9.8542299E-18
  -6.057000       -1.0579563E-17
  -6.050500       -1.1300036E-17
  -6.044000       -1.2008518E-17
  -6.037500       -1.2697169E-17
  -6.031000       -1.3357435E-17
  -6.024500       -1.3980047E-17
  -6.018000       -1.4555032E-17
  -6.011500       -1.5071720E-17
  -6.005000       -1.5518774E-17
  -5.998500       -1.5884210E-17
  -5.992000       -1.6155446E-17
  -5.985500       -1.6319345E-17
  -5.979000       -1.6362278E-17
  -5.972500       -1.6270184E-17
  -5.966000       -1.6028661E-17
  -5.959500       -1.5623050E-17
  -5.953000       -1.5038537E-17
  -5.946500       -1.4260270E-17
  -5.940000       -1.3273483E-17
  -5.933500       -1.2063630E-17
  -5.927000       -1.0616540E-17
  -5.920500       -8.9185679E-18
  -5.914000       -6.9567709E-18
  -5.907500       -4.7190869E-18
  -5.901000       -2.1945282E-18
  -5.894500        6.2662550E-19
  -5.888000        3.7526107E-18
  -5.881500        7.1899747E-18
  -5.875000        1.0943351E-17
  -5.868500        1.5015234E-17
  -5.862000        1.9405756E-17
  -5.855500        2.4112454E-17
  -5.849000        2.9130045E-17
  -5.842500        3.4450203E-17
  -5.836000        4.0061336E-17
  -5.829500        4.5948378E-17
  -5.823000        5.2092579E-17
  -5.816500        5.8471326E-17
  -5.810000        6.5057960E-17
  -5.803500        7.1821638E-17
  -5.797000        7.8727146E-17
  -5.790500        8.5734849E-17
  -5.784000        9.2800579E-17
  -5.777500        9.9875567E-17
  -5.771000        1.0690643E-16
  -5.764500        1.1383521E-16
  -5.758000        1.2059933E-16
  -5.751500        1.2713185E-16
  -5.745000        1.3336143E-16
  -5.738500        1.3921260E-16
  -5.732000        1.4460603E-16
  -5.725500        1.4945870E-16
  -5.719000        1.5368432E-16
  -5.712500        1.5719370E-16
  -5.706000        1.5989515E-16
  -5.699500        1.6169504E-16
  -5.693000        1.6249836E-16
  -5.686500        1.6220923E-16
  -5.680000        1.6073171E-16
  -5.673500        1.5797044E-16
  -5.667000        1.5383141E-16
  -5.660500        1.4822284E-16
  -5.654000        1.4105601E-16
  -5.647500        1.3224623E-16
  -5.641000        1.2171374E-16
  -5.634500        1.0938478E-16
  -5.628000        9.5192613E-17
  -5.621500        7.9078546E-17
  -5.615000        6.0993049E-17
  -5.608500        4.0896845E-17
  -5.602000        1.8761973E-17
  -5.595500       -5.4270609E-18
  -5.589000       -3.1672233E-17
  -5.582500       -5.9960926E-17
  -5.576000       -9.0264906E-17
  -5.569500       -1.2253930E-16
  -5.563000       -1.5672172E-16
  -5.556500       -1.9273127E-16
  -5.550000       -2.3046792E-16
  -5.543500       -2.6981163E-16
  -5.537000       -3.1062178E-16
  -5.530500       -3.5273668E-16
  -5.524000       -3.9597324E-16
  -5.517500       -4.4012650E-16
  -5.511000       -4.8496977E-16
  -5.504500       -5.3025454E-16
  -5.498000       -5.7571067E-16
  -5.491500       -6.2104683E-16
  -5.485000       -6.6595107E-16
  -5.478500       -7.1009144E-16
  -5.472000       -7.5311711E-16
  -5.465500       -7.9465942E-16
  -5.459000       -8.3433317E-16
  -5.452500       -8.7173852E-16
  -5.446000       -9.0646237E-16
  -5.439500       -9.3808062E-16
  -5.433000       -9.6616019E-16
  -5.426500       -9.9026177E-16
  -5.420000       -1.0099423E-15
  -5.413500       -1.0247573E-15
  -5.407000       -1.0342649E-15
  -5.400500       -1.0380280E-15
  -5.394000       -1.0356185E-15
  -5.387500       -1.0266203E-15
  -5.381000       -1.0106330E-15
  -5.374500       -9.8727587E-16
  -5.368000       -9.5619146E-16
  -5.361500       -9.1704996E-16
  -5.355000       -8.6955264E-16
  -5.348500       -8.1343618E-16
  -5.342000       -7.4847659E-16
  -5.335500       -6.7449313E-16
  -5.329000       -5.9135235E-16
  -5.322500       -4.9897144E-16
  -5.316000       -3.9732240E-16
  -5.309500       -2.8643504E-16
  -5.303000       -1.6640052E-16
  -5.296500       -3.7374068E-17
  -5.290000        1.0042185E-16
  -5.283500        2.4669565E-16
  -5.277000        4.0108439E-16
  -5.270500        5.6315208E-16
  -5.264000        7.3238831E-16
  -5.257500        9.0820810E-16
  -5.251000        1.0899511E-15
  -5.244500        1.2768817E-15
  -5.238000        1.4681905E-15
  -5.231500        1.6629951E-15
  -5.225000        1.8603425E-15
  -5.218500        2.0592110E-15
  -5.212000        2.2585140E-15
  -5.205500        2.4571043E-15
  -5.199000        2.6537769E-15
  -5.192500        2.8472758E-15
  -5.186000        3.0362982E-15
  -5.179500        3.2195028E-15
  -5.173000        3.3955145E-15
  -5.166500        3.5629336E-15
  -5.160000        3.7203423E-15
  -5.153500        3.8663158E-15
  -5.147000        3.9994274E-15
  -5.140500        4.1182623E-15
  -5.134000        4.2214250E-15
  -5.127500        4.3075488E-15
  -5.121000        4.3753089E-15
  -5.114500        4.4234297E-15
  -5.108000        4.4506986E-15
  -5.101500        4.4559756E-15
  -5.095000        4.4382028E-15
  -5.088500        4.3964169E-15
  -5.082000        4.3297588E-15
  -5.075500        4.2374831E-15
  -5.069000        4.1189683E-15
  -5.062500        3.9737272E-15
  -5.056000        3.8014123E-15
  -5.049500        3.6018268E-15
  -5.043000        3.3749304E-15
  -5.036500        3.1208448E-15
  -5.030000        2.8398607E-15
  -5.023500        2.5324394E-15
  -5.017000        2.1992186E-15
  -5.010500        1.8410117E-15
  -5.004000        1.4588096E-15
  -4.997500        1.0537794E-15
  -4.991000        6.2726188E-16
  -4.984500        1.8076874E-16
  -4.978000       -2.8402476E-16
  -4.971500       -7.6528479E-16
  -4.965000       -1.2610281E-15
  -4.958500       -1.7691321E-15
  -4.952000       -2.2873453E-15
  -4.945500       -2.8133026E-15
  -4.939000       -3.3445363E-15
  -4.932500       -3.8784953E-15
  -4.926000       -4.4125588E-15
  -4.919500       -4.9440589E-15
  -4.913000       -5.4702951E-15
  -4.906500       -5.9885594E-15
  -4.900000       -6.4961544E-15
  -4.893500       -6.9904168E-15
  -4.887000       -7.4687393E-15
  -4.880500       -7.9285943E-15
  -4.874000       -8.3675573E-15
  -4.867500       -8.7833293E-15
  -4.861000       -9.1737573E-15
  -4.854500       -9.5368617E-15
  -4.848000       -9.8708527E-15
  -4.841500       -1.0174156E-14
  -4.835000       -1.0445426E-14
  -4.828500       -1.0683570E-14
  -4.822000       -1.0887760E-14
  -4.815500       -1.1057447E-14
  -4.809000       -1.1192377E-14
  -4.802500       -1.1292593E-14
  -4.796000       -1.1358451E-14
  -4.789500       -1.1390614E-14
  -4.783000       -1.1390057E-14
  -4.776500       -1.1358069E-14
  -4.770000       -1.1296235E-14
  -4.763500       -1.1206436E-14
  -4.757000       -1.1090832E-14
  -4.750500       -1.0951840E-14
  -4.744000       -1.0792117E-14
  -4.737500       -1.0614534E-14
  -4.731000       -1.0422142E-14
  -4.724500       -1.0218139E-14
  -4.718000       -1.0005834E-14
  -4.711500       -9.7886041E-15
  -4.705000       -9.5698502E-15
  -4.698500       -9.3529437E-15
  -4.692000       -9.1411770E-15
  -4.685500       -8.9377121E-15
  -4.679000       -8.7455152E-15
  -4.672500       -8.5673012E-15
  -4.666000       -8.4054747E-15
  -4.659500       -8.2620602E-15
  -4.653000       -8.1386441E-15
  -4.646500       -8.0363089E-15
  -4.640000       -7.9555689E-15
  -4.633500       -7.8963105E-15
  -4.627000       -7.8577298E-15
  -4.620500       -7.8382752E-15
  -4.614000       -7.8355935E-15
  -4.607500       -7.8464787E-15
  -4.601000       -7.8668278E-15
  -4.594500       -7.8915984E-15
  -4.588000       -7.9147775E-15
  -4.581500       -7.9293549E-15
  -4.575000       -7.9273043E-15
  -4.568500       -7.8995750E-15
  -4.562000       -7.8360924E-15
  -4.555500       -7.7257672E-15
  -4.549000       -7.5565198E-15
  -4.542500       -7.3153137E-15
  -4.536000       -6.9881997E-15
  -4.529500       -6.5603777E-15
  -4.523000       -6.0162658E-15
  -4.516500       -5.3395902E-15
  -4.510000       -4.5134828E-15
  -4.503500       -3.5205967E-15
  -4.497000       -2.3432351E-15
  -4.490500       -9.6349405E-16
  -4.484000        6.3657951E-16
  -4.477500        2.4748166E-15
  -4.471000        4.5687411E-15
  -4.464500        6.9353728E-15
  -4.458000        9.5910159E-15
  -4.451500        1.2551036E-14
  -4.445000        1.5829633E-14
  -4.438500        1.9439594E-14
  -4.432000        2.3392046E-14
  -4.425500        2.7696200E-14
  -4.419000        3.2359091E-14
  -4.412500        3.7385307E-14
  -4.406000        4.2776729E-14
  -4.399500        4.8532274E-14
  -4.393000        5.4647611E-14
  -4.386500        6.1114925E-14
  -4.380000        6.7922644E-14
  -4.373500        7.5055244E-14
  -4.367000        8.2492966E-14
  -4.360500        9.0211638E-14
  -4.354000        9.8182489E-14
  -4.347500        1.0637196E-13
  -4.341000        1.1474155E-13
  -4.334500        1.2324773E-13
  -4.328000        1.3184179E-13
  -4.321500        1.4046988E-13
  -4.315000        1.4907288E-13
  -4.308500        1.5758648E-13
  -4.302000        1.6594122E-13
  -4.295500        1.7406259E-13
  -4.289000        1.8187112E-13
  -4.282500        1.8928273E-13
  -4.276000        1.9620876E-13
  -4.269500        2.0255644E-13
  -4.263000        2.0822910E-13
  -4.256500        2.1312672E-13
  -4.250000        2.1714619E-13
  -4.243500        2.2018199E-13
  -4.237000        2.2212665E-13
  -4.230500        2.2287144E-13
  -4.224000        2.2230700E-13
  -4.217500        2.2032402E-13
  -4.211000        2.1681412E-13
  -4.204500        2.1167061E-13
  -4.198000        2.0478936E-13
  -4.191500        1.9606976E-13
  -4.185000        1.8541559E-13
  -4.178500        1.7273615E-13
  -4.172000        1.5794707E-13
  -4.165500        1.4097164E-13
  -4.159000        1.2174163E-13
  -4.152500        1.0019852E-13
  -4.146000        7.6294514E-14
  -4.139500        4.9993724E-14
  -4.133000        2.1273163E-14
  -4.126500       -9.8761119E-15
  -4.120000       -4.3447976E-14
  -4.113500       -7.9420215E-14
  -4.107000       -1.1775352E-13
  -4.100500       -1.5839057E-13
  -4.094000       -2.0125516E-13
  -4.087500       -2.4625137E-13
  -4.081000       -2.9326289E-13
  -4.074500       -3.4215225E-13
  -4.068000       -3.9276048E-13
  -4.061500       -4.4490640E-13
  -4.055000       -4.9838660E-13
  -4.048500       -5.5297488E-13
  -4.042000       -6.0842260E-13
  -4.035500       -6.6445834E-13
  -4.029000       -7.2078850E-13
  -4.022500       -7.7709741E-13
  -4.016000       -8.3304804E-13
  -4.009500       -8.8828267E-13
  -4.003000       -9.4242366E-13
  -3.996500       -9.9507479E-13
  -3.990000       -1.0458225E-12
  -3.983500       -1.0942370E-12
  -3.977000       -1.1398745E-12
  -3.970500       -1.1822786E-12
  -3.964000       -1.2209823E-12
  -3.957500       -1.2555105E-12
  -3.951000       -1.2853822E-12
  -3.944500       -1.3101135E-12
  -3.938000       -1.3292198E-12
  -3.931500       -1.3422190E-12
  -3.925000       -1.3486346E-12
  -3.918500       -1.3479990E-12
  -3.912000       -1.3398566E-12
  -3.905500       -1.3237679E-12
  -3.899000       -1.2993122E-12
  -3.892500       -1.2660924E-12
  -3.886000       -1.2237377E-12
  -3.879500       -1.1719084E-12
  -3.873000       -1.1102989E-12
  -3.866500       -1.0386425E-12
  -3.860000       -9.5671420E-13
  -3.853500       -8.6433551E-13
  -3.847000       -7.6137767E-13
  -3.840500       -6.4776548E-13
  -3.834000       -5.2348073E-13
  -3.827500       -3.8856605E-13
  -3.821000       -2.4312754E-13
  -3.814500       -8.7338272E-14
  -3.808000        7.8559019E-14
  -3.801500        2.5424948E-13
  -3.795000        4.3934377E-13
  -3.788500        6.3337611E-13
  -3.782000        8.3580278E-13
  -3.775500        1.0460009E-12
  -3.769000        1.2632675E-12
  -3.762500        1.4868193E-12
  -3.756000        1.7157929E-12
  -3.749500        1.9492446E-12
  -3.743000        2.1861525E-12
  -3.736500        2.4254177E-12
  -3.730000        2.6658660E-12
  -3.723500        2.9062510E-12
  -3.717000        3.1452571E-12
  -3.710500        3.3815034E-12
  -3.704000        3.6135489E-12
  -3.697500        3.8398958E-12
  -3.691000        4.0589962E-12
  -3.684500        4.2692577E-12
  -3.678000        4.4690514E-12
  -3.671500        4.6567177E-12
  -3.665000        4.8305743E-12
  -3.658500        4.9889251E-12
  -3.652000        5.1300700E-12
  -3.645500        5.2523107E-12
  -3.639000        5.3539660E-12
  -3.632500        5.4333760E-12
  -3.626000        5.4889179E-12
  -3.619500        5.5190132E-12
  -3.613000        5.5221409E-12
  -3.606500        5.4968486E-12
  -3.600000        5.4417638E-12
  -3.593500        5.3556048E-12
  -3.587000        5.2371944E-12
  -3.580500        5.0854707E-12
  -3.574000        4.8994970E-12
  -3.567500        4.6784777E-12
  -3.561000        4.4217650E-12
  -3.554500        4.1288722E-12
  -3.548000        3.7994837E-12
  -3.541500        3.4334666E-12
  -3.535000        3.0308772E-12
  -3.528500        2.5919733E-12
  -3.522000        2.1172202E-12
  -3.515500        1.6072997E-12
  -3.509000        1.0631162E-12
  -3.502500        4.8580167E-13
  -3.496000       -1.2327827E-13
  -3.489500       -7.6252199E-13
  -3.483000       -1.4300884E-12
  -3.476500       -2.1238961E-12
  -3.470000       -2.8416243E-12
  -3.463500       -3.5807119E-12
  -3.457000       -4.3383630E-12
  -3.450500       -5.1115492E-12
  -3.444000       -5.8970159E-12
  -3.437500       -6.6912903E-12
  -3.431000       -7.4906886E-12
  -3.424500       -8.2913277E-12
  -3.418000       -9.0891366E-12
  -3.411500       -9.8798686E-12
  -3.405000       -1.0659119E-11
  -3.398500       -1.1422339E-11
  -3.392000       -1.2164856E-11
  -3.385500       -1.2881891E-11
  -3.379000       -1.3568583E-11
  -3.372500       -1.4220005E-11
  -3.366000       -1.4831197E-11
  -3.359500       -1.5397182E-11
  -3.353000       -1.5912997E-11
  -3.346500       -1.6373718E-11
  -3.340000       -1.6774492E-11
  -3.333500       -1.7110559E-11
  -3.327000       -1.7377296E-11
  -3.320500       -1.7570221E-11
  -3.314000       -1.7685053E-11
  -3.307500       -1.7717725E-11
  -3.301000       -1.7664417E-11
  -3.294500       -1.7521594E-11
  -3.288000       -1.7286032E-11
  -3.281500       -1.6954847E-11
  -3.275000       -1.6525526E-11
  -3.268500       -1.5995961E-11
  -3.262000       -1.5364467E-11
  -3.255500       -1.4629818E-11
  -3.249000       -1.3791271E-11
  -3.242500       -1.2848583E-11
  -3.236000       -1.1802043E-11
  -3.229500       -1.0652483E-11
  -3.223000       -9.4013035E-12
  -3.216500       -8.0504839E-12
  -3.210000       -6.6026017E-12
  -3.203500       -5.0608376E-12
  -3.197000       -3.4289852E-12
  -3.190500       -1.7114568E-12
  -3.184000        8.6715709E-14
  -3.177500        1.9598828E-12
  -3.171000        3.9017804E-12
  -3.164500        5.9055408E-12
  -3.158000        7.9637026E-12
  -3.151500        1.0068228E-11
  -3.145000        1.2210518E-11
  -3.138500        1.4381444E-11
  -3.132000        1.6571366E-11
  -3.125500        1.8770163E-11
  -3.119000        2.0967273E-11
  -3.112500        2.3151732E-11
  -3.106000        2.5312205E-11
  -3.099500        2.7437040E-11
  -3.093000        2.9514318E-11
  -3.086500        3.1531888E-11
  -3.080000        3.3477457E-11
  -3.073500        3.5338597E-11
  -3.067000        3.7102852E-11
  -3.060500        3.8757778E-11
  -3.054000        4.0291007E-11
  -3.047500        4.1690325E-11
  -3.041000        4.2943732E-11
  -3.034500        4.4039515E-11
  -3.028000        4.4966322E-11
  -3.021500        4.5713221E-11
  -3.015000        4.6269794E-11
  -3.008500        4.6626192E-11
  -3.002000        4.6773210E-11
  -2.995500        4.6702361E-11
  -2.989000        4.6405949E-11
  -2.982500        4.5877118E-11
  -2.976000        4.5109947E-11
  -2.969500        4.4099491E-11
  -2.963000        4.2841848E-11
  -2.956500        4.1334221E-11
  -2.950000        3.9574968E-11
  -2.943500        3.7563636E-11
  -2.937000        3.5301043E-11
  -2.930500        3.2789275E-11
  -2.924000        3.0031744E-11
  -2.917500        2.7033216E-11
  -2.911000        2.3799823E-11
  -2.904500        2.0339092E-11
  -2.898000        1.6659936E-11
  -2.891500        1.2772678E-11
  -2.885000        8.6890243E-12
  -2.878500        4.4220708E-12
  -2.872000       -1.3729139E-14
  -2.865500       -4.6025874E-12
  -2.859000       -9.3274208E-12
  -2.852500       -1.4169891E-11
  -2.846000       -1.9110460E-11
  -2.839500       -2.4128444E-11
  -2.833000       -2.9202089E-11
  -2.826500       -3.4308639E-11
  -2.820000       -3.9424426E-11
  -2.813500       -4.4524950E-11
  -2.807000       -4.9584989E-11
  -2.800500       -5.4578696E-11
  -2.794000       -5.9479713E-11
  -2.787500       -6.4261291E-11
  -2.781000       -6.8896396E-11
  -2.774500       -7.3357875E-11
  -2.768000       -7.7618550E-11
  -2.761500       -8.1651366E-11
  -2.755000       -8.5429559E-11
  -2.748500       -8.8926776E-11
  -2.742000       -9.2117189E-11
  -2.735500       -9.4975743E-11
  -2.729000       -9.7478185E-11
  -2.722500       -9.9601299E-11
  -2.716000       -1.0132303E-10
  -2.709500       -1.0262260E-10
  -2.703000       -1.0348072E-10
  -2.696500       -1.0387965E-10
  -2.690000       -1.0380344E-10
  -2.683500       -1.0323794E-10
  -2.677000       -1.0217102E-10
  -2.670500       -1.0059267E-10
  -2.664000       -9.8495101E-11
  -2.657500       -9.5872851E-11
  -2.651000       -9.2722892E-11
  -2.644500       -8.9044716E-11
  -2.638000       -8.4840419E-11
  -2.631500       -8.0114727E-11
  -2.625000       -7.4875120E-11
  -2.618500       -6.9131791E-11
  -2.612000       -6.2897770E-11
  -2.605500       -5.6188838E-11
  -2.599000       -4.9023601E-11
  -2.592500       -4.1423451E-11
  -2.586000       -3.3412537E-11
  -2.579500       -2.5017724E-11
  -2.573000       -1.6268535E-11
  -2.566500       -7.1970802E-12
  -2.560000        2.1620366E-12
  -2.553500        1.1771818E-11
  -2.547000        2.1592998E-11
  -2.540500        3.1584173E-11
  -2.534000        4.1701951E-11
  -2.527500        5.1901115E-11
  -2.521000        6.2134811E-11
  -2.514500        7.2354712E-11
  -2.508000        8.2511262E-11
  -2.501500        9.2553853E-11
  -2.495000        1.0243108E-10
  -2.488500        1.1209096E-10
  -2.482000        1.2148119E-10
  -2.475500        1.3054939E-10
  -2.469000        1.3924339E-10
  -2.462500        1.4751148E-10
  -2.456000        1.5530265E-10
  -2.449500        1.6256695E-10
  -2.443000        1.6925569E-10
  -2.436500        1.7532177E-10
  -2.430000        1.8071991E-10
  -2.423500        1.8540700E-10
  -2.417000        1.8934226E-10
  -2.410500        1.9248765E-10
  -2.404000        1.9480799E-10
  -2.397500        1.9627132E-10
  -2.391000        1.9684909E-10
  -2.384500        1.9651641E-10
  -2.378000        1.9525224E-10
  -2.371500        1.9303964E-10
  -2.365000        1.8986593E-10
  -2.358500        1.8572283E-10
  -2.352000        1.8060668E-10
  -2.345500        1.7451855E-10
  -2.339000        1.6746431E-10
  -2.332500        1.5945475E-10
  -2.326000        1.5050572E-10
  -2.319500        1.4063800E-10
  -2.313000        1.2987748E-10
  -2.306500        1.1825509E-10
  -2.300000        1.0580674E-10
  -2.293500        9.2573317E-11
  -2.287000        7.8600564E-11
  -2.280500        6.3938951E-11
  -2.274000        4.8643568E-11
  -2.267500        3.2773947E-11
  -2.261000        1.6393860E-11
  -2.254500       -4.2891507E-13
  -2.248000       -1.7622813E-11
  -2.241500       -3.5112784E-11
  -2.235000       -5.2820567E-11
  -2.228500       -7.0665036E-11
  -2.222000       -8.8562518E-11
  -2.215500       -1.0642717E-10
  -2.209000       -1.2417135E-10
  -2.202500       -1.4170609E-10
  -2.196000       -1.5894137E-10
  -2.189500       -1.7578672E-10
  -2.183000       -1.9215153E-10
  -2.176500       -2.0794561E-10
  -2.170000       -2.2307955E-10
  -2.163500       -2.3746533E-10
  -2.157000       -2.5101662E-10
  -2.150500       -2.6364946E-10
  -2.144000       -2.7528255E-10
  -2.137500       -2.8583783E-10
  -2.131000       -2.9524094E-10
  -2.124500       -3.0342162E-10
  -2.118000       -3.1031430E-10
  -2.111500       -3.1585828E-10
  -2.105000       -3.1999844E-10
  -2.098500       -3.2268538E-10
  -2.092000       -3.2387604E-10
  -2.085500       -3.2353384E-10
  -2.079000       -3.2162911E-10
  -2.072500       -3.1813940E-10
  -2.066000       -3.1304973E-10
  -2.059500       -3.0635278E-10
  -2.053000       -2.9804917E-10
  -2.046500       -2.8814759E-10
  -2.040000       -2.7666486E-10
  -2.033500       -2.6362615E-10
  -2.027000       -2.4906488E-10
  -2.020500       -2.3302288E-10
  -2.014000       -2.1555020E-10
  -2.007500       -1.9670514E-10
  -2.001000       -1.7655401E-10
  -1.994500       -1.5517107E-10
  -1.988000       -1.3263828E-10
  -1.981500       -1.0904495E-10
  -1.975000       -8.4487604E-11
  -1.968500       -5.9069478E-11
  -1.962000       -3.2900193E-11
  -1.955500       -6.0953352E-12
  -1.949000        2.1224047E-11
  -1.942500        4.8931924E-11
  -1.936000        7.6897856E-11
  -1.929500        1.0498754E-10
  -1.923000        1.3306348E-10
  -1.916500        1.6098553E-10
  -1.910000        1.8861165E-10
  -1.903500        2.1579862E-10
  -1.897000        2.4240260E-10
  -1.890500        2.6827995E-10
  -1.884000        2.9328814E-10
  -1.877500        3.1728611E-10
  -1.871000        3.4013539E-10
  -1.864500        3.6170067E-10
  -1.858000        3.8185063E-10
  -1.851500        4.0045864E-10
  -1.845000        4.1740353E-10
  -1.838500        4.3257037E-10
  -1.832000        4.4585100E-10
  -1.825500        4.5714502E-10
  -1.819000        4.6636012E-10
  -1.812500        4.7341286E-10
  -1.806000        4.7822940E-10
  -1.799500        4.8074583E-10
  -1.793000        4.8090881E-10
  -1.786500        4.7867599E-10
  -1.780000        4.7401644E-10
  -1.773500        4.6691118E-10
  -1.767000        4.5735313E-10
  -1.760500        4.4534779E-10
  -1.754000        4.3091314E-10
  -1.747500        4.1408002E-10
  -1.741000        3.9489187E-10
  -1.734500        3.7340508E-10
  -1.728000        3.4968872E-10
  -1.721500        3.2382455E-10
  -1.715000        2.9590672E-10
  -1.708500        2.6604152E-10
  -1.702000        2.3434721E-10
  -1.695500        2.0095328E-10
  -1.689000        1.6600038E-10
  -1.682500        1.2963947E-10
  -1.676000        9.2031431E-11
  -1.669500        5.3346313E-11
  -1.663000        1.3762632E-11
  -1.656500       -2.6533399E-11
  -1.650000       -6.7348710E-11
  -1.643500       -1.0848424E-10
  -1.637000       -1.4973586E-10
  -1.630500       -1.9089537E-10
  -1.624000       -2.3175149E-10
  -1.617500       -2.7209088E-10
  -1.611000       -3.1169925E-10
  -1.604500       -3.5036243E-10
  -1.598000       -3.8786752E-10