  -7.500000        1.0000000E-24
  -7.493500        1.0000000E-24
  -7.487000        1.0000000E-24
  -7.480500        1.0000000E-24
  -7.474000        1.0000000E-24
  -7.467500        1.0000000E-24
  -7.461000        1.0000000E-24
  -7.454500        1.0000000E-24
  -7.448000        1.0000000E-24
  -7.441500        1.0000001E-24
  -7.435000        1.0000007E-24
  -7.428500        1.0000033E-24
  -7.422000        1.0000123E-24
  -7.415500        1.0000408E-24
  -7.409000        1.0001218E-24
  -7.402500        1.0003329E-24
  -7.396000        1.0008451E-24
  -7.389500        1.0020138E-24
  -7.383000        1.0045417E-24
  -7.376500        1.0097604E-24
  -7.370000        1.0200970E-24
  -7.363500        1.0398284E-24
  -7.357000        1.0762631E-24
  -7.350500        1.1415520E-24
  -7.344000        1.2553948E-24
  -7.337500        1.4490081E-24
  -7.331000        1.7708306E-24
  -7.324500        2.2945848E-24
  -7.318000        3.1304833E-24
  -7.311500        4.4405757E-24
  -7.305000        6.4594692E-24
  -7.298500        9.5219385E-24
  -7.292000        1.4099251E-23
  -7.285500        2.0846421E-23
  -7.279000        3.0662957E-23
  -7.272500        4.4770195E-23
  -7.266000        6.4808647E-23
  -7.259500        9.2959514E-23
  -7.253000        1.3209476E-22
  -7.246500        1.8596101E-22
  -7.240000        2.5940266E-22
  -7.233500        3.5863061E-22
  -7.227000        4.9154309E-22
  -7.220500        6.6810551E-22
  -7.214000        9.0079686E-22
  -7.207500        1.2051297E-21
  -7.201000        1.6002523E-21
  -7.194500        2.1096391E-21
  -7.188000        2.7618771E-21
  -7.181500        3.5915544E-21
  -7.175000        4.6402546E-21
  -7.168500        5.9576666E-21
  -7.162000        7.6027996E-21
  -7.155500        9.6453193E-21
  -7.149000        1.2166988E-20
  -7.142500        1.5263206E-20
  -7.136000        1.9044654E-20
  -7.129500        2.3638996E-20
  -7.123000        2.9192658E-20
  -7.116500        3.5872620E-20
  -7.110000        4.3868209E-20
  -7.103500        5.3392848E-20
  -7.097000        6.4685724E-20
  -7.090500        7.8013271E-20
  -7.084000        9.3670488E-20
  -7.077500        1.1198190E-19
  -7.071000        1.3330221E-19
  -7.064500        1.5801643E-19
  -7.058000        1.8653945E-19
  -7.051500        2.1931492E-19
  -7.045000        2.5681332E-19
  -7.038500        2.9952908E-19
  -7.032000        3.4797648E-19
  -7.025500        4.0268465E-19
  -7.019000        4.6419086E-19
  -7.012500        5.3303229E-19
  -7.006000        6.0973644E-19
  -6.999500        6.9480917E-19
  -6.993000        7.8872142E-19
  -6.986500        8.9189302E-19
  -6.980000        1.0046751E-18
  -6.973500        1.1273293E-18
  -6.967000        1.2600057E-18
  -6.960500        1.4027169E-18
  -6.954000        1.5553107E-18
  -6.947500        1.7174401E-18
  -6.941000        1.8885305E-18
  -6.934500        2.0677456E-18
  -6.928000        2.2539499E-18
  -6.921500        2.4456709E-18
  -6.915000        2.6410593E-18
  -6.908500        2.8378472E-18
  -6.902000        3.0333077E-18
  -6.895500        3.2242131E-18
  -6.889000        3.4067951E-18
  -6.882500        3.5767046E-18
  -6.876000        3.7289778E-18
  -6.869500        3.8580014E-18
  -6.863000        3.9574848E-18
  -6.856500        4.0204398E-18
  -6.850000        4.0391630E-18
  -6.843500        4.0052329E-18
  -6.837000        3.9095124E-18
  -6.830500        3.7421651E-18
  -6.824000        3.4926854E-18
  -6.817500        3.1499433E-18
  -6.811000        2.7022481E-18
  -6.804500        2.1374283E-18
  -6.798000        1.4429350E-18
  -6.791500        6.0596677E-19
  -6.785000       -3.8638224E-19
  -6.778500       -1.5469451E-18
  -6.772000       -2.8882810E-18
  -6.765500       -4.4224430E-18
  -6.759000       -6.1607146E-18
  -6.752500       -8.1133200E-18
  -6.746000       -1.0289100E-17
  -6.739500       -1.2695155E-17
  -6.733000       -1.5336461E-17
  -6.726500       -1.8215447E-17
  -6.720000       -2.1331559E-17
  -6.713500       -2.4680777E-17
  -6.707000       -2.8255120E-17
  -6.700500       -3.2042125E-17
  -6.694000       -3.6024311E-17
  -6.687500       -4.0178621E-17
  -6.681000       -4.4475867E-17
  -6.674500       -4.8880177E-17
  -6.668000       -5.3348431E-17
  -6.661500       -5.7829725E-17
  -6.655000       -6.2264829E-17
  -6.648500       -6.6585770E-17
  -6.642000       -7.0715320E-17
  -6.635500       -7.4566660E-17
  -6.629000       -7.8043061E-17
  -6.622500       -8.1037627E-17
  -6.616000       -8.3433215E-17
  -6.609500       -8.5102373E-17
  -6.603000       -8.5907484E-17
  -6.596500       -8.5701007E-17
  -6.590000       -8.4325895E-17
  -6.583500       -8.1616197E-17
  -6.577000       -7.7397867E-17
  -6.570500       -7.1489759E-17
  -6.564000       -6.3704891E-17
  -6.557500       -5.3851877E-17
  -6.551000       -4.1736715E-17
  -6.544500       -2.7164780E-17
  -6.538000       -9.9431196E-18
  -6.531500        1.0116918E-17
  -6.525000        3.3196796E-17
  -6.518500        5.9467563E-17
  -6.512000        8.9086366E-17
  -6.505500        1.2219268E-16
  -6.499000        1.5890400E-16
  -6.492500        1.9931147E-16
  -6.486000        2.4347525E-16
  -6.479500        2.9141936E-16
  -6.473000        3.4312651E-16
  -6.466500        3.9853258E-16
  -6.460000        4.5752109E-16
  -6.453500        5.1991729E-16
  -6.447000        5.8548214E-16
  -6.440500        6.5390658E-16
  -6.434000        7.2480546E-16
  -6.427500        7.9771138E-16
  -6.421000        8.7206944E-16
  -6.414500        9.4723133E-16
  -6.408000        1.0224502E-15
  -6.401500        1.0968759E-15
  -6.395000        1.1695503E-15
  -6.388500        1.2394041E-15
  -6.382000        1.3052534E-15
  -6.375500        1.3657972E-15
  -6.369000        1.4196167E-15
  -6.362500        1.4651745E-15
  -6.356000        1.5008158E-15
  -6.349500        1.5247703E-15
  -6.343000        1.5351561E-15
  -6.336500        1.5299849E-15
  -6.330000        1.5071684E-15
  -6.323500        1.4645273E-15
  -6.317000        1.3998014E-15
  -6.310500        1.3106627E-15
  -6.304000        1.1947291E-15
  -6.297500        1.0495816E-15
  -6.291000        8.7278360E-16
  -6.284500        6.6190167E-16
  -6.278000        4.1452980E-16
  -6.271500        1.2831451E-16
  -6.265000       -1.9901613E-16
  -6.258500       -5.6962156E-16
  -6.252000       -9.8551510E-16
  -6.245500       -1.4485296E-15
  -6.239000       -1.9602803E-15
  -6.232500       -2.5221234E-15
  -6.226000       -3.1351156E-15
  -6.219500       -3.7999719E-15
  -6.213000       -4.5170188E-15
  -6.206500       -5.2861501E-15
  -6.200000       -6.1067802E-15
  -6.193500       -6.9777939E-15
  -6.187000       -7.8975031E-15
  -6.180500       -8.8635976E-15
  -6.174000       -9.8730948E-15
  -6.167500       -1.0922300E-14
  -6.161000       -1.2006761E-14
  -6.154500       -1.3121220E-14
  -6.148000       -1.4259583E-14
  -6.141500       -1.5414882E-14
  -6.135000       -1.6579237E-14
  -6.128500       -1.7743838E-14
  -6.122000       -1.8898918E-14
  -6.115500       -2.0033739E-14
  -6.109000       -2.1136582E-14
  -6.102500       -2.2194750E-14
  -6.096000       -2.3194567E-14
  -6.089500       -2.4121403E-14
  -6.083000       -2.4959691E-14
  -6.076500       -2.5692971E-14
  -6.070000       -2.6303929E-14
  -6.063500       -2.6774464E-14
  -6.057000       -2.7085747E-14
  -6.050500       -2.7218316E-14
  -6.044000       -2.7152165E-14
  -6.037500       -2.6866852E-14
  -6.031000       -2.6341630E-14
  -6.024500       -2.5555579E-14
  -6.018000       -2.4487755E-14
  -6.011500       -2.3117367E-14
  -6.005000       -2.1423938E-14
  -5.998500       -1.9387515E-14
  -5.992000       -1.6988865E-14
  -5.985500       -1.4209701E-14
  -5.979000       -1.1032910E-14
  -5.972500       -7.4427989E-15
  -5.966000       -3.4253430E-15
  -5.959500        1.0315500E-15
  -5.953000        5.9377658E-15
  -5.946500        1.1300712E-14
  -5.940000        1.7125031E-14
  -5.933500        2.3412326E-14
  -5.927000        3.0160861E-14
  -5.920500        3.7365290E-14
  -5.914000        4.5016369E-14
  -5.907500        5.3100692E-14
  -5.901000        6.1600410E-14
  -5.894500        7.0492982E-14
  -5.888000        7.9750944E-14
  -5.881500        8.9341688E-14
  -5.875000        9.9227260E-14
  -5.868500        1.0936418E-13
  -5.862000        1.1970328E-13
  -5.855500        1.3018960E-13
  -5.849000        1.4076231E-13
  -5.842500        1.5135466E-13
  -5.836000        1.6189395E-13
  -5.829500        1.7230160E-13
  -5.823000        1.8249318E-13
  -5.816500        1.9237864E-13
  -5.810000        2.0186240E-13
  -5.803500        2.1084366E-13
  -5.797000        2.1921661E-13
  -5.790500        2.2687094E-13
  -5.784000        2.3369211E-13
  -5.777500        2.3956195E-13
  -5.771000        2.4435911E-13
  -5.764500        2.4795977E-13
  -5.758000        2.5023833E-13
  -5.751500        2.5106799E-13
  -5.745000        2.5032184E-13
  -5.738500        2.4787350E-13
  -5.732000        2.4359814E-13
  -5.725500        2.3737360E-13
  -5.719000        2.2908119E-13
  -5.712500        2.1860711E-13
  -5.706000        2.0584337E-13
  -5.699500        1.9068909E-13
  -5.693000        1.7305177E-13
  -5.686500        1.5284853E-13
  -5.680000        1.3000741E-13
  -5.673500        1.0446873E-13
  -5.667000        7.6186412E-14
  -5.660500        4.5129228E-14
  -5.654000        1.1282287E-14
  -5.647500       -2.5351774E-14
  -5.641000       -6.4751495E-14
  -5.634500       -1.0687538E-13
  -5.628000       -1.5166059E-13
  -5.621500       -1.9902199E-13
  -5.615000       -2.4885099E-13
  -5.608500       -3.0101461E-13
  -5.602000       -3.5535463E-13
  -5.595500       -4.1168693E-13
  -5.589000       -4.6980074E-13
  -5.582500       -5.2945810E-13
  -5.576000       -5.9039400E-13
  -5.569500       -6.5231577E-13
  -5.563000       -7.1490307E-13
  -5.556500       -7.7780854E-13
  -5.550000       -8.4065768E-13
  -5.543500       -9.0305010E-13
  -5.537000       -9.6455981E-13
  -5.530500       -1.0247365E-12
  -5.524000       -1.0831070E-12
  -5.517500       -1.1391769E-12
  -5.511000       -1.1924315E-12
  -5.504500       -1.2423393E-12
  -5.498000       -1.2883533E-12
  -5.491500       -1.3299137E-12
  -5.485000       -1.3664511E-12
  -5.478500       -1.3973893E-12
  -5.472000       -1.4221482E-12
  -5.465500       -1.4401486E-12
  -5.459000       -1.4508145E-12
  -5.452500       -1.4535781E-12
  -5.446000       -1.4478838E-12
  -5.439500       -1.4331924E-12
  -5.433000       -1.4089855E-12
  -5.426500       -1.3747707E-12
  -5.420000       -1.3300862E-12
  -5.413500       -1.2745058E-12
  -5.407000       -1.2076434E-12
  -5.400500       -1.1291589E-12
  -5.394000       -1.0387629E-12
  -5.387500       -9.3622159E-13
  -5.381000       -8.2136164E-13
  -5.374500       -6.9407566E-13
  -5.368000       -5.5432666E-13
  -5.361500       -4.0215222E-13
  -5.355000       -2.3766969E-13
  -5.348500       -6.1079898E-14
  -5.342000        1.2732903E-13
  -5.335500        3.2717774E-13
  -5.329000        5.3799337E-13
  -5.322500        7.5920585E-13
  -5.316000        9.9014644E-13
  -5.309500        1.2300453E-12
  -5.303000        1.4780306E-12
  -5.296500        1.7331282E-12
  -5.290000        1.9942611E-12
  -5.283500        2.2602506E-12
  -5.277000        2.5298175E-12
  -5.270500        2.8015838E-12
  -5.264000        3.0740759E-12
  -5.257500        3.3457284E-12
  -5.251000        3.6148879E-12
  -5.244500        3.8798188E-12
  -5.238000        4.1387085E-12
  -5.231500        4.3896757E-12
  -5.225000        4.6307767E-12
  -5.218500        4.8600134E-12
  -5.212000        5.0753455E-12
  -5.205500        5.2746969E-12
  -5.199000        5.4559699E-12
  -5.192500        5.6170541E-12
  -5.186000        5.7558402E-12
  -5.179500        5.8702331E-12
  -5.173000        5.9581641E-12
  -5.166500        6.0176083E-12
  -5.160000        6.0465951E-12
  -5.153500        6.0432262E-12
  -5.147000        6.0056907E-12
  -5.140500        5.9322803E-12
  -5.134000        5.8214059E-12
  -5.127500        5.6716134E-12
  -5.121000        5.4815995E-12
  -5.114500        5.2502295E-12
  -5.108000        4.9765509E-12
  -5.101500        4.6598099E-12
  -5.095000        4.2994675E-12
  -5.088500        3.8952131E-12
  -5.082000        3.4469784E-12
  -5.075500        2.9549507E-12
  -5.069000        2.4195867E-12
  -5.062500        1.8416210E-12
  -5.056000        1.2220795E-12
  -5.049500        5.6228519E-13
  -5.043000       -1.3613224E-13
  -5.036500       -8.7123077E-13
  -5.030000       -1.6407527E-12
  -5.023500       -2.4421207E-12
  -5.017000       -3.2724374E-12
  -5.010500       -4.1284862E-12
  -5.004000       -5.0067342E-12
  -4.997500       -5.9033386E-12
  -4.991000       -6.8141530E-12
  -4.984500       -7.7347356E-12
  -4.978000       -8.6603641E-12
  -4.971500       -9.5860455E-12
  -4.965000       -1.0506537E-11
  -4.958500       -1.1416362E-11
  -4.952000       -1.2309830E-11
  -4.945500       -1.3181062E-11
  -4.939000       -1.4024017E-11
  -4.932500       -1.4832517E-11
  -4.926000       -1.5600278E-11
  -4.919500       -1.6320943E-11
  -4.913000       -1.6988114E-11
  -4.906500       -1.7595392E-11
  -4.900000       -1.8136406E-11
  -4.893500       -1.8604862E-11
  -4.887000       -1.8994580E-11
  -4.880500       -1.9299532E-11
  -4.874000       -1.9513889E-11
  -4.867500       -1.9632060E-11
  -4.861000       -1.9648746E-11
  -4.854500       -1.9558971E-11
  -4.848000       -1.9358138E-11
  -4.841500       -1.9042068E-11
  -4.835000       -1.8607043E-11
  -4.828500       -1.8049850E-11
  -4.822000       -1.7367829E-11
  -4.815500       -1.6558904E-11
  -4.809000       -1.5621627E-11
  -4.802500       -1.4555218E-11
  -4.796000       -1.3359595E-11
  -4.789500       -1.2035407E-11
  -4.783000       -1.0584068E-11
  -4.776500       -9.0077780E-12
  -4.770000       -7.3095471E-12
  -4.763500       -5.4932140E-12
  -4.757000       -3.5634648E-12
  -4.750500       -1.5258370E-12
  -4.744000        6.1326779E-13
  -4.737500        2.8465854E-12
  -4.731000        5.1659965E-12
  -4.724500        7.5625279E-12
  -4.718000        1.0026377E-11
  -4.711500        1.2546920E-11
  -4.705000        1.5112746E-11
  -4.698500        1.7711688E-11
  -4.692000        2.0330852E-11
  -4.685500        2.2956670E-11
  -4.679000        2.5574938E-11
  -4.672500        2.8170881E-11
  -4.666000        3.0729204E-11
  -4.659500        3.3234162E-11
  -4.653000        3.5669634E-11
  -4.646500        3.8019185E-11
  -4.640000        4.0266165E-11
  -4.633500        4.2393779E-11
  -4.627000        4.4385190E-11
  -4.620500        4.6223598E-11
  -4.614000        4.7892353E-11
  -4.607500        4.9375046E-11
  -4.601000        5.0655605E-11
  -4.594500        5.1718421E-11
  -4.588000        5.2548434E-11
  -4.581500        5.3131263E-11
  -4.575000        5.3453287E-11
  -4.568500        5.3501772E-11
  -4.562000        5.3264986E-11
  -4.555500        5.2732280E-11
  -4.549000        5.1894215E-11
  -4.542500        5.0742657E-11
  -4.536000        4.9270869E-11
  -4.529500        4.7473605E-11
  -4.523000        4.5347219E-11
  -4.516500        4.2889720E-11
  -4.510000        4.0100871E-11
  -4.503500        3.6982251E-11
  -4.497000        3.3537315E-11
  -4.490500        2.9771460E-11
  -4.484000        2.5692049E-11
  -4.477500        2.1308479E-11
  -4.471000        1.6632183E-11
  -4.464500        1.1676652E-11
  -4.458000        6.4574396E-12
  -4.451500        9.9216544E-13
  -4.445000       -4.6995142E-12
  -4.438500       -1.0595942E-11
  -4.432000       -1.6673484E-11
  -4.425500       -2.2906593E-11
  -4.419000       -2.9267894E-11
  -4.412500       -3.5728243E-11
  -4.406000       -4.2256827E-11
  -4.399500       -4.8821273E-11
  -4.393000       -5.5387767E-11
  -4.386500       -6.1921183E-11
  -4.380000       -6.8385235E-11
  -4.373500       -7.4742629E-11
  -4.367000       -8.0955215E-11
  -4.360500       -8.6984191E-11
  -4.354000       -9.2790262E-11
  -4.347500       -9.8333876E-11
  -4.341000       -1.0357538E-10
  -4.334500       -1.0847527E-10
  -4.328000       -1.1299440E-10
  -4.321500       -1.1709421E-10
  -4.315000       -1.2073693E-10
  -4.308500       -1.2388590E-10
  -4.302000       -1.2650568E-10
  -4.295500       -1.2856238E-10
  -4.289000       -1.3002387E-10
  -4.282500       -1.3086002E-10
  -4.276000       -1.3104293E-10
  -4.269500       -1.3054716E-10
  -4.263000       -1.2934995E-10
  -4.256500       -1.2743144E-10
  -4.250000       -1.2477488E-10
  -4.243500       -1.2136689E-10
  -4.237000       -1.1719747E-10
  -4.230500       -1.1226039E-10
  -4.224000       -1.0655320E-10
  -4.217500       -1.0007746E-10
  -4.211000       -9.2838834E-11
  -4.204500       -8.4847185E-11
  -4.198000       -7.6116689E-11
  -4.191500       -6.6665930E-11
  -4.185000       -5.6517895E-11
  -4.178500       -4.5700048E-11
  -4.172000       -3.4244333E-11
  -4.165500       -2.2187118E-11
  -4.159000       -9.5691953E-12
  -4.152500        3.5643079E-12
  -4.146000        1.7164018E-11
  -4.139500        3.1176419E-11
  -4.133000        4.5544037E-11
  -4.126500        6.0205577E-11
  -4.120000        7.5096103E-11
  -4.113500        9.0147272E-11
  -4.107000        1.0528763E-10
  -4.100500        1.2044282E-10
  -4.094000        1.3553589E-10
  -4.087500        1.5048759E-10
  -4.081000        1.6521680E-10
  -4.074500        1.7964075E-10
  -4.068000        1.9367551E-10
  -4.061500        2.0723633E-10
  -4.055000        2.2023809E-10
  -4.048500        2.3259569E-10
  -4.042000        2.4422450E-10
  -4.035500        2.5504082E-10
  -4.029000        2.6496233E-10
  -4.022500        2.7390856E-10
  -4.016000        2.8180142E-10
  -4.009500        2.8856545E-10
  -4.003000        2.9412864E-10
  -3.996500        2.9842256E-10
  -3.990000        3.0138311E-10
  -3.983500        3.0295069E-10
  -3.977000        3.0307093E-10
  -3.970500        3.0169486E-10
  -3.964000        2.9877956E-10
  -3.957500        2.9428834E-10
  -3.951000        2.8819130E-10
  -3.944500        2.8046557E-10
  -3.938000        2.7109567E-10
  -3.931500        2.6007382E-10
  -3.925000        2.4740018E-10
  -3.918500        2.3308308E-10
  -3.912000        2.1713931E-10
  -3.905500        1.9959412E-10
  -3.899000        1.8048150E-10
  -3.892500        1.5984421E-10
  -3.886000        1.3773374E-10
  -3.879500        1.1421048E-10
  -3.873000        8.9343519E-11
  -3.866500        6.3210624E-11
  -3.860000        3.5898135E-11
  -3.853500        7.5007119E-12
  -3.847000       -2.1878872E-11
  -3.840500       -5.2129925E-11
  -3.834000       -8.3134284E-11
  -3.827500       -1.1476656E-10
  -3.821000       -1.4689465E-10
  -3.814500       -1.7938015E-10
  -3.808000       -2.1207879E-10
  -3.801500       -2.4484106E-10
  -3.795000       -2.7751282E-10
  -3.788500       -3.0993577E-10
  -3.782000       -3.4194822E-10
  -3.775500       -3.7338577E-10
  -3.769000       -4.0408193E-10
  -3.762500       -4.3386905E-10
  -3.756000       -4.6257884E-10
  -3.749500       -4.9004339E-10
  -3.743000       -5.1609589E-10
  -3.736500       -5.4057137E-10
  -3.730000       -5.6330773E-10
  -3.723500       -5.8414634E-10
  -3.717000       -6.0293315E-10
  -3.710500       -6.1951938E-10
  -3.704000       -6.3376226E-10
  -3.697500       -6.4552619E-10
  -3.691000       -6.5468320E-10
  -3.684500       -6.6111405E-10
  -3.678000       -6.6470879E-10
  -3.671500       -6.6536759E-10
  -3.665000       -6.6300160E-10
  -3.658500       -6.5753347E-10
  -3.652000       -6.4889810E-10
  -3.645500       -6.3704314E-10
  -3.639000       -6.2192973E-10
  -3.632500       -6.0353295E-10
  -3.626000       -5.8184224E-10
  -3.619500       -5.5686178E-10
  -3.613000       -5.2861104E-10
  -3.606500       -4.9712495E-10
  -3.600000       -4.6245396E-10
  -3.593500       -4.2466453E-10
  -3.587000       -3.8383891E-10
  -3.580500       -3.4007544E-10
  -3.574000       -2.9348832E-10
  -3.567500       -2.4420752E-10
  -3.561000       -1.9237857E-10
  -3.554500       -1.3816231E-10
  -3.548000       -8.1734605E-11
  -3.541500       -2.3285726E-11
  -3.535000        3.6979968E-11
  -3.528500        9.8844648E-11
  -3.522000        1.6207770E-10
  -3.515500        2.2643634E-10
  -3.509000        2.9166664E-10
  -3.502500        3.5750417E-10
  -3.496000        4.2367493E-10
  -3.489500        4.8989646E-10
  -3.483000        5.5587884E-10
  -3.476500        6.2132566E-10
  -3.470000        6.8593531E-10
  -3.463500        7.4940226E-10
  -3.457000        8.1141815E-10
  -3.450500        8.7167307E-10
  -3.444000        9.2985697E-10
  -3.437500        9.8566100E-10
  -3.431000        1.0387787E-09
  -3.424500        1.0889077E-09
  -3.418000        1.1357512E-09
  -3.411500        1.1790187E-09
  -3.405000        1.2184279E-09
  -3.398500        1.2537067E-09
  -3.392000        1.2845932E-09
  -3.385500        1.3108383E-09
  -3.379000        1.3322067E-09
  -3.372500        1.3484778E-09
  -3.366000        1.3594478E-09
  -3.359500        1.3649299E-09
  -3.353000        1.3647570E-09
  -3.346500        1.3587812E-09
  -3.340000        1.3468761E-09
  -3.333500        1.3289371E-09
  -3.327000        1.3048829E-09
  -3.320500        1.2746563E-09
  -3.314000        1.2382244E-09
  -3.307500        1.1955804E-09
  -3.301000        1.1467430E-09
  -3.294500        1.0917581E-09
  -3.288000        1.0306983E-09
  -3.281500        9.6366382E-10
  -3.275000        8.9078261E-10
  -3.268500        8.1221019E-10
  -3.262000        7.2813017E-10
  -3.255500        6.3875355E-10
  -3.249000        5.4431909E-10
  -3.242500        4.4509252E-10
  -3.236000        3.4136641E-10
  -3.229500        2.3345934E-10
  -3.223000        1.2171536E-10
  -3.216500        6.5030884E-12
  -3.210000       -1.1178507E-10
  -3.203500       -2.3273414E-10
  -3.197000       -3.5590750E-10
  -3.190500       -4.8084847E-10
  -3.184000       -6.0708161E-10
  -3.177500       -7.3411388E-10
  -3.171000       -8.6143670E-10
  -3.164500       -9.8852737E-10
  -3.158000       -1.1148511E-09
  -3.151500       -1.2398624E-09
  -3.145000       -1.3630078E-09
  -3.138500       -1.4837273E-09
  -3.132000       -1.6014565E-09
  -3.125500       -1.7156296E-09
  -3.119000       -1.8256804E-09
  -3.112500       -1.9310455E-09
  -3.106000       -2.0311668E-09
  -3.099500       -2.1254931E-09
  -3.093000       -2.2134830E-09
  -3.086500       -2.2946076E-09
  -3.080000       -2.3683524E-09
  -3.073500       -2.4342204E-09
  -3.067000       -2.4917339E-09
  -3.060500       -2.5404374E-09
  -3.054000       -2.5799001E-09
  -3.047500       -2.6097176E-09
  -3.041000       -2.6295153E-09
  -3.034500       -2.6389499E-09
  -3.028000       -2.6377118E-09
  -3.021500       -2.6255276E-09
  -3.015000       -2.6021614E-09
  -3.008500       -2.5674178E-09
  -3.002000       -2.5211429E-09
  -2.995500       -2.4632265E-09
  -2.989000       -2.3936033E-09
  -2.982500       -2.3122551E-09
  -2.976000       -2.2192115E-09
  -2.969500       -2.1145510E-09
  -2.963000       -1.9984030E-09
  -2.956500       -1.8709472E-09
  -2.950000       -1.7324154E-09
  -2.943500       -1.5830917E-09
  -2.937000       -1.4233122E-09
  -2.930500       -1.2534662E-09
  -2.924000       -1.0739946E-09
  -2.917500       -8.8539087E-10
  -2.911000       -6.8819989E-10
  -2.904500       -4.8301679E-10
  -2.898000       -2.7048686E-10
  -2.891500       -5.1303375E-11
  -2.885000        1.7379341E-10
  -2.878500        4.0401818E-10
  -2.872000        6.3854244E-10
  -2.865500        8.7649682E-10
  -2.859000        1.1169734E-09
  -2.852500        1.3590286E-09
  -2.846000        1.6016858E-09
  -2.839500        1.8439384E-09
  -2.833000        2.0847541E-09
  -2.826500        2.3230768E-09
  -2.820000        2.5578322E-09
  -2.813500        2.7879299E-09
  -2.807000        3.0122693E-09
  -2.800500        3.2297429E-09
  -2.794000        3.4392407E-09
  -2.787500        3.6396552E-09
  -2.781000        3.8298866E-09
  -2.774500        4.0088461E-09
  -2.768000        4.1754635E-09
  -2.761500        4.3286885E-09
  -2.755000        4.4675006E-09
  -2.748500        4.5909094E-09
  -2.742000        4.6979634E-09
  -2.735500        4.7877529E-09
  -2.729000        4.8594173E-09
  -2.722500        4.9121485E-09
  -2.716000        4.9451963E-09
  -2.709500        4.9578741E-09
  -2.703000        4.9495630E-09
  -2.696500        4.9197171E-09
  -2.690000        4.8678670E-09
  -2.683500        4.7936259E-09
  -2.677000        4.6966924E-09
  -2.670500        4.5768553E-09
  -2.664000        4.4339958E-09
  -2.657500        4.2680925E-09
  -2.651000        4.0792236E-09
  -2.644500        3.8675694E-09
  -2.638000        3.6334156E-09
  -2.631500        3.3771539E-09
  -2.625000        3.0992846E-09
  -2.618500        2.8004175E-09
  -2.612000        2.4812719E-09
  -2.605500        2.1426774E-09
  -2.599000        1.7855737E-09
  -2.592500        1.4110093E-09
  -2.586000        1.0201404E-09
  -2.579500        6.1422911E-10
  -2.573000        1.9464097E-10
  -2.566500       -2.3715788E-10
  -2.560000       -6.7960426E-10
  -2.553500       -1.1310418E-09
  -2.547000       -1.5897258E-09
  -2.540500       -2.0538282E-09
  -2.534000       -2.5214428E-09
  -2.527500       -2.9905920E-09
  -2.521000       -3.4592338E-09
  -2.514500       -3.9252681E-09
  -2.508000       -4.3865445E-09
  -2.501500       -4.8408717E-09
  -2.495000       -5.2860245E-09
  -2.488500       -5.7197544E-09
  -2.482000       -6.1397976E-09
  -2.475500       -6.5438850E-09
  -2.469000       -6.9297541E-09
  -2.462500       -7.2951578E-09
  -2.456000       -7.6378752E-09
  -2.449500       -7.9557214E-09
  -2.443000       -8.2465634E-09
  -2.436500       -8.5083256E-09
  -2.430000       -8.7390015E-09
  -2.423500       -8.9366701E-09
  -2.417000       -9.0995025E-09
  -2.410500       -9.2257748E-09
  -2.404000       -9.3138786E-09
  -2.397500       -9.3623314E-09
  -2.391000       -9.3697885E-09
  -2.384500       -9.3350527E-09
  -2.378000       -9.2570849E-09
  -2.371500       -9.1350101E-09
  -2.365000       -8.9681329E-09
  -2.358500       -8.7559382E-09
  -2.352000       -8.4981062E-09
  -2.345500       -8.1945153E-09
  -2.339000       -7.8452480E-09
  -2.332500       -7.4505992E-09
  -2.326000       -7.0110815E-09
  -2.319500       -6.5274257E-09
  -2.313000       -6.0005863E-09
  -2.306500       -5.4317435E-09
  -2.300000       -4.8223039E-09
  -2.293500       -4.1739008E-09
  -2.287000       -3.4883927E-09
  -2.280500       -2.7678615E-09
  -2.274000       -2.0146098E-09
  -2.267500       -1.2311558E-09
  -2.261000       -4.2022866E-10
  -2.254500        4.1523956E-10
  -2.248000        1.2721204E-09
  -2.241500        2.1470981E-09
  -2.235000        3.0366807E-09
  -2.228500        3.9372106E-09
  -2.222000        4.8448756E-09
  -2.215500        5.7557257E-09
  -2.209000        6.6656836E-09
  -2.202500        7.5705637E-09
  -2.196000        8.4660865E-09
  -2.189500        9.3478976E-09
  -2.183000        1.0211582E-08
  -2.176500        1.1052689E-08
  -2.170000        1.1866748E-08
  -2.163500        1.2649291E-08
  -2.157000        1.3395868E-08
  -2.150500        1.4102080E-08
  -2.144000        1.4763588E-08
  -2.137500        1.5376143E-08
  -2.131000        1.5935610E-08
  -2.124500        1.6437978E-08
  -2.118000        1.6879399E-08
  -2.111500        1.7256200E-08
  -2.105000        1.7564906E-08
  -2.098500        1.7802263E-08
  -2.092000        1.7965260E-08
  -2.085500        1.8051152E-08
  -2.079000        1.8057470E-08
  -2.072500        1.7982057E-08
  -2.066000        1.7823064E-08
  -2.059500        1.7578989E-08
  -2.053000        1.7248681E-08
  -2.046500        1.6831351E-08
  -2.040000        1.6326601E-08
  -2.033500        1.5734418E-08
  -2.027000        1.5055198E-08
  -2.020500        1.4289746E-08
  -2.014000        1.3439287E-08
  -2.007500        1.2505470E-08
  -2.001000        1.1490371E-08
  -1.994500        1.0396494E-08
  -1.988000        9.2267722E-09
  -1.981500        7.9845606E-09
  -1.975000        6.6736354E-09
  -1.968500        5.2981863E-09
  -1.962000        3.8628047E-09
  -1.955500        2.3724740E-09
  -1.949000        8.3255602E-10
  -1.942500       -7.5122580E-10
  -1.936000       -2.3728026E-09
  -1.929500       -4.0257828E-09
  -1.923000       -5.7034701E-09
  -1.916500       -7.3988917E-09
  -1.910000       -9.1048218E-09
  -1.903500       -1.0813809E-08
  -1.897000       -1.2518209E-08
  -1.890500       -1.4210211E-08
  -1.884000       -1.5881874E-08
  -1.877500       -1.7525160E-08
  -1.871000       -1.9131969E-08
  -1.864500       -2.0694172E-08
  -1.858000       -2.2203661E-08
  -1.851500       -2.3652369E-08
  -1.845000       -2.5032321E-08
  -1.838500       -2.6335675E-08
  -1.832000       -2.7554750E-08
  -1.825500       -2.8682079E-08
  -1.819000       -2.9710440E-08
  -1.812500       -3.0632897E-08
  -1.806000       -3.1442845E-08
  -1.799500       -3.2134039E-08
  -1.793000       -3.2700637E-08
  -1.786500       -3.3137230E-08
  -1.780000       -3.3438891E-08
  -1.773500       -3.3601196E-08
  -1.767000       -3.3620253E-08
  -1.760500       -3.3492746E-08
  -1.754000       -3.3215951E-08
  -1.747500       -3.2787767E-08
  -1.741000       -3.2206735E-08
  -1.734500       -3.1472066E-08
  -1.728000       -3.0583646E-08
  -1.721500       -2.9542067E-08
  -1.715000       -2.8348627E-08
  -1.708500       -2.7005344E-08
  -1.702000       -2.5514959E-08
  -1.695500       -2.3880940E-08
  -1.689000       -2.2107482E-08
  -1.682500       -2.0199499E-08
  -1.676000       -1.8162615E-08
  -1.669500       -1.6003160E-08
  -1.663000       -1.3728147E-08
  -1.656500       -1.1345251E-08
  -1.650000       -8.8627976E-09
  -1.643500       -6.2897261E-09
  -1.637000       -3.6355652E-09
  -1.630500       -9.1039826E-10
  -1.624000        1.8751691E-09
  -1.617500        4.7100550E-09
  -1.611000        7.5827353E-09
  -1.604500        1.0481295E-08
  -1.598000        1.3393476E-08