  0.0000000E+00  0.0000000E+00
  6.9999998E-04  0.0000000E+00
  1.4000000E-03  0.0000000E+00
  2.0999999E-03  0.0000000E+00
  2.7999999E-03  0.0000000E+00
  3.5000001E-03  0.0000000E+00
  4.1999999E-03  0.0000000E+00
  4.9000001E-03  0.0000000E+00
  5.5999998E-03  0.0000000E+00
  6.3000000E-03  0.0000000E+00
  7.0000002E-03  0.0000000E+00
  7.7000000E-03  0.0000000E+00
  8.3999997E-03  0.0000000E+00
  9.1000004E-03  0.0000000E+00
  9.8000001E-03  0.0000000E+00
  1.0500000E-02  0.0000000E+00
  1.1200000E-02  0.0000000E+00
  1.1900000E-02  0.0000000E+00
  1.2600000E-02  0.0000000E+00
  1.3300000E-02  0.0000000E+00
  1.4000000E-02  0.0000000E+00
  1.4700000E-02  0.0000000E+00
  1.5400000E-02  0.0000000E+00
  1.6100001E-02  0.0000000E+00
  1.6799999E-02  0.0000000E+00
  1.7500000E-02  0.0000000E+00
  1.8200001E-02  0.0000000E+00
  1.8900000E-02  0.0000000E+00
  1.9600000E-02  0.0000000E+00
  2.0300001E-02  0.0000000E+00
  2.1000000E-02  0.0000000E+00
  2.1700000E-02  0.0000000E+00
  2.2399999E-02  0.0000000E+00
  2.3100000E-02  0.0000000E+00
  2.3800001E-02  0.0000000E+00
  2.4499999E-02  0.0000000E+00
  2.5200000E-02  0.0000000E+00
  2.5900001E-02  0.0000000E+00
  2.6600000E-02  0.0000000E+00
  2.7300000E-02  0.0000000E+00
  2.8000001E-02  0.0000000E+00
  2.8700000E-02  0.0000000E+00
  2.9400000E-02  0.0000000E+00
  3.0099999E-02  0.0000000E+00
  3.0800000E-02  0.0000000E+00
  3.1500001E-02  0.0000000E+00
  3.2200001E-02  0.0000000E+00
  3.2900002E-02  0.0000000E+00
  3.3599999E-02  0.0000000E+00
  3.4299999E-02  0.0000000E+00
  3.5000000E-02  0.0000000E+00
  3.5700001E-02  0.0000000E+00
  3.6400001E-02  0.0000000E+00
  3.7099998E-02  0.0000000E+00
  3.7799999E-02  0.0000000E+00
  3.8500000E-02  0.0000000E+00
  3.9200000E-02  0.0000000E+00
  3.9900001E-02  0.0000000E+00
  4.0600002E-02  0.0000000E+00
  4.1299999E-02  0.0000000E+00
  4.1999999E-02  0.0000000E+00
  4.2700000E-02  0.0000000E+00
  4.3400001E-02  0.0000000E+00
  4.4100001E-02  0.0000000E+00
  4.4799998E-02  0.0000000E+00
  4.5499999E-02  0.0000000E+00
  4.6200000E-02  0.0000000E+00
  4.6900000E-02  0.0000000E+00
  4.7600001E-02  0.0000000E+00
  4.8300002E-02  0.0000000E+00
  4.8999999E-02  0.0000000E+00
  4.9699999E-02  0.0000000E+00
  5.0400000E-02  0.0000000E+00
  5.1100001E-02  0.0000000E+00
  5.1800001E-02  0.0000000E+00
  5.2499998E-02  0.0000000E+00
  5.3199999E-02  0.0000000E+00
  5.3900000E-02  0.0000000E+00
  5.4600000E-02  0.0000000E+00
  5.5300001E-02  0.0000000E+00
  5.6000002E-02  0.0000000E+00
  5.6699999E-02  0.0000000E+00
  5.7399999E-02  0.0000000E+00
  5.8100000E-02  0.0000000E+00
  5.8800001E-02  0.0000000E+00
  5.9500001E-02  0.0000000E+00
  6.0199998E-02  0.0000000E+00
  6.0899999E-02  0.0000000E+00
  6.1600000E-02  0.0000000E+00
  6.2300000E-02  0.0000000E+00
  6.3000001E-02  0.0000000E+00
  6.3699998E-02  0.0000000E+00
  6.4400002E-02  0.0000000E+00
  6.5099999E-02  0.0000000E+00
  6.5800004E-02  0.0000000E+00
  6.6500001E-02  0.0000000E+00
  6.7199998E-02  0.0000000E+00
  6.7900002E-02  0.0000000E+00
  6.8599999E-02  0.0000000E+00
  6.9300003E-02  0.0000000E+00
  7.0000000E-02  0.0000000E+00
  7.0699997E-02  0.0000000E+00
  7.1400002E-02  0.0000000E+00
  7.2099999E-02  0.0000000E+00
  7.2800003E-02  0.0000000E+00
  7.3500000E-02  0.0000000E+00
  7.4199997E-02  0.0000000E+00
  7.4900001E-02  0.0000000E+00
  7.5599998E-02  0.0000000E+00
  7.6300003E-02  0.0000000E+00
  7.7000000E-02  0.0000000E+00
  7.7699997E-02  0.0000000E+00
  7.8400001E-02  0.0000000E+00
  7.9099998E-02  0.0000000E+00
  7.9800002E-02  0.0000000E+00
  8.0499999E-02  0.0000000E+00
  8.1200004E-02  0.0000000E+00
  8.1900001E-02  0.0000000E+00
  8.2599998E-02  0.0000000E+00
  8.3300002E-02  0.0000000E+00
  8.3999999E-02  0.0000000E+00
  8.4700003E-02  0.0000000E+00
  8.5400000E-02  0.0000000E+00
  8.6099997E-02  0.0000000E+00
  8.6800002E-02  0.0000000E+00
  8.7499999E-02  0.0000000E+00
  8.8200003E-02  0.0000000E+00
  8.8900000E-02  0.0000000E+00
  8.9599997E-02  0.0000000E+00
  9.0300001E-02  0.0000000E+00
  9.0999998E-02  0.0000000E+00
  9.1700003E-02  0.0000000E+00
  9.2399999E-02  0.0000000E+00
  9.3099996E-02  0.0000000E+00
  9.3800001E-02  0.0000000E+00
  9.4499998E-02  0.0000000E+00
  9.5200002E-02  0.0000000E+00
  9.5899999E-02  0.0000000E+00
  9.6600004E-02  0.0000000E+00
  9.7300000E-02  0.0000000E+00
  9.7999997E-02  0.0000000E+00
  9.8700002E-02  0.0000000E+00
  9.9399999E-02  0.0000000E+00
  0.1001000      0.0000000E+00
  0.1008000      0.0000000E+00
  0.1015000      0.0000000E+00
  0.1022000      0.0000000E+00
  0.1029000      0.0000000E+00
  0.1036000      0.0000000E+00
  0.1043000      0.0000000E+00
  0.1050000      0.0000000E+00
  0.1057000      0.0000000E+00
  0.1064000      0.0000000E+00
  0.1071000      0.0000000E+00
  0.1078000      0.0000000E+00
  0.1085000      0.0000000E+00
  0.1092000      0.0000000E+00
  0.1099000      0.0000000E+00
  0.1106000      0.0000000E+00
  0.1113000      0.0000000E+00
  0.1120000      0.0000000E+00
  0.1127000      0.0000000E+00
  0.1134000      0.0000000E+00
  0.1141000      0.0000000E+00
  0.1148000      0.0000000E+00
  0.1155000      0.0000000E+00
  0.1162000      0.0000000E+00
  0.1169000      0.0000000E+00
  0.1176000      0.0000000E+00
  0.1183000      0.0000000E+00
  0.1190000      0.0000000E+00
  0.1197000      0.0000000E+00
  0.1204000      0.0000000E+00
  0.1211000      0.0000000E+00
  0.1218000      0.0000000E+00
  0.1225000      0.0000000E+00
  0.1232000      0.0000000E+00
  0.1239000      0.0000000E+00
  0.1246000      0.0000000E+00
  0.1253000      0.0000000E+00
  0.1260000      0.0000000E+00
  0.1267000      0.0000000E+00
  0.1274000      0.0000000E+00
  0.1281000      0.0000000E+00
  0.1288000      0.0000000E+00
  0.1295000      0.0000000E+00
  0.1302000      0.0000000E+00
  0.1309000      0.0000000E+00
  0.1316000      0.0000000E+00
  0.1323000      0.0000000E+00
  0.1330000      0.0000000E+00
  0.1337000      0.0000000E+00
  0.1344000      0.0000000E+00
  0.1351000      0.0000000E+00
  0.1358000      0.0000000E+00
  0.1365000      0.0000000E+00
  0.1372000      0.0000000E+00
  0.1379000      0.0000000E+00
  0.1386000      0.0000000E+00
  0.1393000      0.0000000E+00
  0.1400000      0.0000000E+00
  0.1407000      0.0000000E+00
  0.1414000      0.0000000E+00
  0.1421000      0.0000000E+00
  0.1428000      0.0000000E+00
  0.1435000      0.0000000E+00
  0.1442000      0.0000000E+00
  0.1449000      0.0000000E+00
  0.1456000      0.0000000E+00
  0.1463000      0.0000000E+00
  0.1470000      0.0000000E+00
  0.1477000      0.0000000E+00
  0.1484000      0.0000000E+00
  0.1491000      0.0000000E+00
  0.1498000      0.0000000E+00
  0.1505000      0.0000000E+00
  0.1512000      0.0000000E+00
  0.1519000      0.0000000E+00
  0.1526000      0.0000000E+00
  0.1533000      0.0000000E+00
  0.1540000      0.0000000E+00
  0.1547000      0.0000000E+00
  0.1554000      0.0000000E+00
  0.1561000      0.0000000E+00
  0.1568000      0.0000000E+00
  0.1575000      0.0000000E+00
  0.1582000      0.0000000E+00
  0.1589000      0.0000000E+00
  0.1596000      0.0000000E+00
  0.1603000      0.0000000E+00
  0.1610000      0.0000000E+00
  0.1617000      0.0000000E+00
  0.1624000      0.0000000E+00
  0.1631000      0.0000000E+00
  0.1638000      0.0000000E+00
  0.1645000      0.0000000E+00
  0.1652000      0.0000000E+00
  0.1659000      0.0000000E+00
  0.1666000      0.0000000E+00
  0.1673000      0.0000000E+00
  0.1680000      0.0000000E+00
  0.1687000      0.0000000E+00
  0.1694000      0.0000000E+00
  0.1701000      0.0000000E+00
  0.1708000      0.0000000E+00
  0.1715000      0.0000000E+00
  0.1722000      0.0000000E+00
  0.1729000      0.0000000E+00
  0.1736000      0.0000000E+00
  0.1743000      0.0000000E+00
  0.1750000      0.0000000E+00
  0.1757000      0.0000000E+00
  0.1764000      0.0000000E+00
  0.1771000      0.0000000E+00
  0.1778000      0.0000000E+00
  0.1785000      0.0000000E+00
  0.1792000      0.0000000E+00
  0.1799000      0.0000000E+00
  0.1806000      0.0000000E+00
  0.1813000      0.0000000E+00
  0.1820000      0.0000000E+00
  0.1827000      0.0000000E+00
  0.1834000      0.0000000E+00
  0.1841000      0.0000000E+00
  0.1848000      0.0000000E+00
  0.1855000      0.0000000E+00
  0.1862000      0.0000000E+00
  0.1869000      0.0000000E+00
  0.1876000      0.0000000E+00
  0.1883000      0.0000000E+00
  0.1890000      0.0000000E+00
  0.1897000      0.0000000E+00
  0.1904000      0.0000000E+00
  0.1911000      0.0000000E+00
  0.1918000      0.0000000E+00
  0.1925000      0.0000000E+00
  0.1932000      0.0000000E+00
  0.1939000      0.0000000E+00
  0.1946000      0.0000000E+00
  0.1953000      0.0000000E+00
  0.1960000      0.0000000E+00
  0.1967000      0.0000000E+00
  0.1974000      0.0000000E+00
  0.1981000      0.0000000E+00
  0.1988000      0.0000000E+00
  0.1995000      0.0000000E+00
  0.2002000      0.0000000E+00
  0.2009000      0.0000000E+00
  0.2016000      0.0000000E+00
  0.2023000      0.0000000E+00
  0.2030000      0.0000000E+00
  0.2037000      0.0000000E+00
  0.2044000      0.0000000E+00
  0.2051000      0.0000000E+00
  0.2058000      0.0000000E+00
  0.2065000      0.0000000E+00
  0.2072000      0.0000000E+00
  0.2079000      0.0000000E+00
  0.2086000      0.0000000E+00
  0.2093000      0.0000000E+00
  0.2100000      0.0000000E+00
  0.2107000      0.0000000E+00
  0.2114000      0.0000000E+00
  0.2121000      0.0000000E+00
  0.2128000      0.0000000E+00
  0.2135000      0.0000000E+00
  0.2142000      0.0000000E+00
  0.2149000      0.0000000E+00
  0.2156000      0.0000000E+00
  0.2163000      0.0000000E+00
  0.2170000      0.0000000E+00
  0.2177000      0.0000000E+00
  0.2184000      0.0000000E+00
  0.2191000      0.0000000E+00
  0.2198000      0.0000000E+00
  0.2205000      0.0000000E+00
  0.2212000      0.0000000E+00
  0.2219000      0.0000000E+00
  0.2226000      0.0000000E+00
  0.2233000      0.0000000E+00
  0.2240000      0.0000000E+00
  0.2247000      0.0000000E+00
  0.2254000     -1.4747366E-38
  0.2261000     -2.0481506E-38
  0.2268000     -2.8155673E-38
  0.2275000     -3.6902814E-38
  0.2282000     -4.6740916E-38
  0.2289000     -5.7667664E-38
  0.2296000     -6.9747692E-38
  0.2303000     -8.2981723E-38
  0.2310000     -9.7288924E-38
  0.2317000     -1.1204462E-37
  0.2324000     -1.2731181E-37
  0.2331000     -1.4375149E-37
  0.2338000     -1.6171250E-37
  0.2345000     -1.8077672E-37
  0.2352000     -1.9957656E-37
  0.2359000     -2.1888807E-37
  0.2366000     -2.3855947E-37
  0.2373000     -2.5969231E-37
  0.2380000     -2.8299413E-37
  0.2387000     -3.0665906E-37
  0.2394000     -3.3038120E-37
  0.2401000     -3.5357561E-37
  0.2408000     -3.7552519E-37
  0.2415000     -3.9576942E-37
  0.2422000     -4.1282055E-37
  0.2429000     -4.2512234E-37
  0.2436000     -4.3211879E-37
  0.2443000     -4.2607576E-37
  0.2450000     -4.0396556E-37
  0.2457000     -3.6849300E-37
  0.2464000     -3.1741027E-37
  0.2471000     -2.5107517E-37
  0.2478000     -1.6811649E-37
  0.2485000     -6.5348584E-38
  0.2492000      5.0227739E-38
  0.2499000      1.8317763E-37
  0.2506000      3.4168461E-37
  0.2513000      5.2418217E-37
  0.2520000      7.3512001E-37
  0.2527000      9.7706878E-37
  0.2534000      1.2504737E-36
  0.2541000      1.5566515E-36
  0.2548000      1.8967825E-36
  0.2555000      2.2709611E-36
  0.2562000      2.6651610E-36
  0.2569000      3.0718392E-36
  0.2576000      3.4984269E-36
  0.2583000      3.9412832E-36
  0.2590000      4.3795441E-36
  0.2597000      4.7963003E-36
  0.2604000      5.1818326E-36
  0.2611000      5.5282935E-36
  0.2618000      5.8322851E-36
  0.2625000      6.0784301E-36
  0.2632000      6.2260147E-36
  0.2639000      6.2558161E-36
  0.2646000      6.1828097E-36
  0.2653000      5.9975998E-36
  0.2660000      5.6724666E-36
  0.2667000      5.1876849E-36
  0.2674000      4.5240454E-36
  0.2681000      3.6623569E-36
  0.2688000      2.5915887E-36
  0.2695000      1.2882982E-36
  0.2702000     -2.5652822E-37
  0.2709000     -2.0499033E-36
  0.2716000     -4.1094196E-36
  0.2723000     -6.4464787E-36
  0.2730000     -9.0660906E-36
  0.2737000     -1.1991652E-35
  0.2744000     -1.5227389E-35
  0.2751000     -1.8753243E-35
  0.2758000     -2.2523100E-35
  0.2765000     -2.6488161E-35
  0.2772000     -3.0652048E-35
  0.2779000     -3.4989333E-35
  0.2786000     -3.9462973E-35
  0.2793000     -4.4085690E-35
  0.2800000     -4.8824497E-35
  0.2807000     -5.3598536E-35
  0.2814000     -5.8309169E-35
  0.2821000     -6.2876475E-35
  0.2828000     -6.7264318E-35
  0.2835000     -7.1425907E-35
  0.2842000     -7.5246022E-35
  0.2849000     -7.8653957E-35
  0.2856000     -8.1558301E-35
  0.2863000     -8.3821862E-35
  0.2870000     -8.5305269E-35
  0.2877000     -8.5823026E-35
  0.2884000     -8.5211264E-35
  0.2891000     -8.3315188E-35
  0.2898000     -7.9979241E-35
  0.2905000     -7.4981599E-35
  0.2912000     -6.8147362E-35
  0.2919000     -5.9338496E-35
  0.2926000     -4.8423175E-35
  0.2933000     -3.5159811E-35
  0.2940000     -1.9274513E-35
  0.2947000     -6.5078449E-37
  0.2954000      2.0815957E-35
  0.2961000      4.5329085E-35
  0.2968000      7.3056101E-35
  0.2975000      1.0402132E-34
  0.2982000      1.3830058E-34
  0.2989000      1.7613054E-34
  0.2996000      2.1749017E-34
  0.3003000      2.6222159E-34
  0.3010000      3.1032071E-34
  0.3017000      3.6164355E-34
  0.3024000      4.1593701E-34
  0.3031000      4.7295294E-34
  0.3038000      5.3231077E-34
  0.3045000      5.9353662E-34
  0.3052000      6.5609533E-34
  0.3059000      7.1936246E-34
  0.3066000      7.8266012E-34
  0.3073000      8.4520422E-34
  0.3080000      9.0606939E-34
  0.3087000      9.6420659E-34
  0.3094000      1.0184611E-33
  0.3101000      1.0675649E-33
  0.3108000      1.1101687E-33
  0.3115000      1.1448066E-33
  0.3122000      1.1699371E-33
  0.3129000      1.1839336E-33
  0.3136000      1.1850541E-33
  0.3143000      1.1714802E-33
  0.3150000      1.1413398E-33
  0.3157000      1.0927365E-33
  0.3164000      1.0237367E-33
  0.3171000      9.3240901E-34
  0.3178000      8.1684864E-34
  0.3185000      6.7518912E-34
  0.3192000      5.0566103E-34
  0.3199000      3.0659710E-34
  0.3206000      7.6483155E-35
  0.3213000     -1.8601532E-34
  0.3220000     -4.8199084E-34
  0.3227000     -8.1227431E-34
  0.3234000     -1.1773981E-33
  0.3241000     -1.5774816E-33
  0.3248000     -2.0122415E-33
  0.3255000     -2.4810109E-33
  0.3262000     -2.9825680E-33
  0.3269000     -3.5150778E-33
  0.3276000     -4.0761339E-33
  0.3283000     -4.6626795E-33
  0.3290000     -5.2709560E-33
  0.3297000     -5.8964240E-33
  0.3304000     -6.5337605E-33
  0.3311000     -7.1768324E-33
  0.3318000     -7.8186486E-33
  0.3325000     -8.4513518E-33
  0.3332000     -9.0661780E-33
  0.3339000     -9.6534741E-33
  0.3346000     -1.0202701E-32
  0.3353000     -1.0702441E-32
  0.3360000     -1.1140438E-32
  0.3367000     -1.1503631E-32
  0.3374000     -1.1778214E-32
  0.3381000     -1.1949713E-32
  0.3388000     -1.2003075E-32
  0.3395000     -1.1922784E-32
  0.3402000     -1.1692980E-32
  0.3409000     -1.1297617E-32
  0.3416000     -1.0720630E-32
  0.3423000     -9.9461237E-33
  0.3430000     -8.9585835E-33
  0.3437000     -7.7431128E-33
  0.3444000     -6.2856864E-33
  0.3451000     -4.5734195E-33
  0.3458000     -2.5948700E-33
  0.3465000     -3.4033757E-34
  0.3472000      2.1977939E-33
  0.3479000      5.0247108E-33
  0.3486000      8.1428316E-33
  0.3493000      1.1551425E-32
  0.3500000      1.5246243E-32
  0.3507000      1.9219149E-32
  0.3514000      2.3457752E-32
  0.3521000      2.7945021E-32
  0.3528000      3.2658951E-32
  0.3535000      3.7572217E-32
  0.3542000      4.2651875E-32
  0.3549000      4.7859056E-32
  0.3556000      5.3148755E-32
  0.3563000      5.8469600E-32
  0.3570000      6.3763745E-32
  0.3577000      6.8966736E-32
  0.3584000      7.4007532E-32
  0.3591000      7.8808568E-32
  0.3598000      8.3285885E-32
  0.3605000      8.7349369E-32
  0.3612000      9.0903147E-32
  0.3619000      9.3845962E-32
  0.3626000      9.6071813E-32
  0.3633000      9.7470634E-32
  0.3640000      9.7929124E-32
  0.3647000      9.7331714E-32
  0.3654000      9.5561660E-32
  0.3661000      9.2502331E-32
  0.3668000      8.8038567E-32
  0.3675000      8.2058240E-32
  0.3682000      7.4453926E-32
  0.3689000      6.5124726E-32
  0.3696000      5.3978230E-32
  0.3703000      4.0932612E-32
  0.3710000      2.5918757E-32
  0.3717000      8.8826150E-33
  0.3724000     -1.0212461E-32
  0.3731000     -3.1383281E-32
  0.3738000     -5.4624341E-32
  0.3745000     -7.9905328E-32
  0.3752000     -1.0716863E-31
  0.3759000     -1.3632698E-31
  0.3766000     -1.6726103E-31
  0.3773000     -1.9981718E-31
  0.3780000     -2.3380550E-31
  0.3787000     -2.6899782E-31
  0.3794000     -3.0512624E-31
  0.3801000     -3.4188169E-31
  0.3808000     -3.7891306E-31
  0.3815000     -4.1582657E-31
  0.3822000     -4.5218573E-31
  0.3829000     -4.8751160E-31
  0.3836000     -5.2128388E-31
  0.3843000     -5.5294225E-31
  0.3850000     -5.8188875E-31
  0.3857000     -6.0749073E-31
  0.3864000     -6.2908419E-31
  0.3871000     -6.4597849E-31
  0.3878000     -6.5746123E-31
  0.3885000     -6.6280475E-31
  0.3892000     -6.6127247E-31
  0.3899000     -6.5212712E-31
  0.3906000     -6.3463896E-31
  0.3913000     -6.0809569E-31
  0.3920000     -5.7181227E-31
  0.3927000     -5.2514218E-31
  0.3934000     -4.6748926E-31
  0.3941000     -3.9832002E-31
  0.3948000     -3.1717689E-31
  0.3955000     -2.2369171E-31
  0.3962000     -1.1759952E-31
  0.3969000      1.2471448E-33
  0.3976000      1.3286389E-31
  0.3983000      2.7712025E-31
  0.3990000      4.3372568E-31
  0.3997000      6.0221605E-31
  0.4004000      7.8194030E-31
  0.4011000      9.7204882E-31
  0.4018000      1.1714822E-30
  0.4025000      1.3789617E-30
  0.4032000      1.5929809E-30
  0.4039000      1.8117996E-30
  0.4046000      2.0334397E-30
  0.4053000      2.2556836E-30
  0.4060000      2.4760750E-30
  0.4067000      2.6919234E-30
  0.4074000      2.9003096E-30
  0.4081000      3.0980976E-30
  0.4088000      3.2819479E-30
  0.4095000      3.4483358E-30
  0.4102000      3.5935731E-30
  0.4109000      3.7138354E-30
  0.4116000      3.8051888E-30
  0.4123000      3.8636276E-30
  0.4130000      3.8851138E-30
  0.4137000      3.8656167E-30
  0.4144000      3.8011635E-30
  0.4151000      3.6878880E-30
  0.4158000      3.5220880E-30
  0.4165000      3.3002830E-30
  0.4172000      3.0192753E-30
  0.4179000      2.6762166E-30
  0.4186000      2.2686725E-30
  0.4193000      1.7946923E-30
  0.4200000      1.2528790E-30
  0.4207000      6.4245760E-31
  0.4214000     -3.6654359E-32
  0.4221000     -7.8377849E-31
  0.4228000     -1.5974111E-30
  0.4235000     -2.4751589E-30
  0.4242000     -3.4136826E-30
  0.4249000     -4.4086436E-30
  0.4256000     -5.4546568E-30
  0.4263000     -6.5452511E-30
  0.4270000     -7.6728425E-30
  0.4277000     -8.8287089E-30
  0.4284000     -1.0002987E-29
  0.4291000     -1.1184675E-29
  0.4298000     -1.2361644E-29
  0.4305000     -1.3520668E-29
  0.4312000     -1.4647477E-29
  0.4319000     -1.5726811E-29
  0.4326000     -1.6742509E-29
  0.4333000     -1.7677589E-29
  0.4340000     -1.8514377E-29
  0.4347000     -1.9234623E-29
  0.4354000     -1.9819668E-29
  0.4361000     -2.0250589E-29
  0.4368000     -2.0508400E-29
  0.4375000     -2.0574254E-29
  0.4382000     -2.0429639E-29
  0.4389000     -2.0056639E-29
  0.4396000     -1.9438152E-29
  0.4403000     -1.8558166E-29
  0.4410000     -1.7402017E-29
  0.4417000     -1.5956665E-29
  0.4424000     -1.4210972E-29
  0.4431000     -1.2155982E-29
  0.4438000     -9.7852099E-30
  0.4445000     -7.0949092E-30
  0.4452000     -4.0843490E-30
  0.4459000     -7.5607232E-31
  0.4466000      2.8838621E-30
  0.4473000      6.8256515E-30
  0.4480000      1.1055542E-29
  0.4487000      1.5555662E-29
  0.4494000      2.0303861E-29
  0.4501000      2.5273606E-29
  0.4508000      3.0433900E-29
  0.4515000      3.5749262E-29
  0.4522000      4.1179713E-29
  0.4529000      4.6680880E-29
  0.4536000      5.2204077E-29
  0.4543000      5.7696480E-29
  0.4550000      6.3101349E-29
  0.4557000      6.8358326E-29
  0.4564000      7.3403756E-29
  0.4571000      7.8171083E-29
  0.4578000      8.2591327E-29
  0.4585000      8.6593608E-29
  0.4592000      9.0105680E-29
  0.4599000      9.3054591E-29
  0.4606000      9.5367374E-29
  0.4613000      9.6971740E-29
  0.4620000      9.7796851E-29
  0.4627000      9.7774161E-29
  0.4634000      9.6838207E-29
  0.4641000      9.4927480E-29
  0.4648000      9.1985309E-29
  0.4655000      8.7960729E-29
  0.4662000      8.2809354E-29
  0.4669000      7.6494266E-29
  0.4676000      6.8986835E-29
  0.4683000      6.0267554E-29
  0.4690000      5.0326767E-29
  0.4697000      3.9165398E-29
  0.4704000      2.6795632E-29
  0.4711000      1.3241451E-29
  0.4718000     -1.4608739E-30
  0.4725000     -1.7262400E-29
  0.4732000     -3.4101220E-29
  0.4739000     -5.1902283E-29
  0.4746000     -7.0577370E-29
  0.4753000     -9.0025158E-29
  0.4760000     -1.1013144E-28
  0.4767000     -1.3076949E-28
  0.4774000     -1.5180055E-28
  0.4781000     -1.7307448E-28
  0.4788000     -1.9443057E-28
  0.4795000     -2.1569840E-28
  0.4802000     -2.3669896E-28
  0.4809000     -2.5724581E-28
  0.4816000     -2.7714637E-28
  0.4823000     -2.9620345E-28
  0.4830000     -3.1421670E-28
  0.4837000     -3.3098423E-28
  0.4844000     -3.4630430E-28
  0.4851000     -3.5997718E-28
  0.4858000     -3.7180675E-28
  0.4865000     -3.8160244E-28
  0.4872000     -3.8918102E-28
  0.4879000     -3.9436837E-28
  0.4886000     -3.9700123E-28
  0.4893000     -3.9692889E-28
  0.4900000     -3.9401472E-28
  0.4907000     -3.8813765E-28
  0.4914000     -3.7919348E-28
  0.4921000     -3.6709623E-28
  0.4928000     -3.5177895E-28
  0.4935000     -3.3319464E-28
  0.4942000     -3.1131678E-28
  0.4949000     -2.8613989E-28
  0.4956000     -2.5767951E-28
  0.4963000     -2.2597223E-28
  0.4970000     -1.9107543E-28
  0.4977000     -1.5306674E-28
  0.4984000     -1.1204308E-28
  0.4991000     -6.8119871E-29
  0.4998000     -2.1429737E-29
  0.5005000      2.7878955E-29
  0.5012000      7.9643481E-29
  0.5019000      1.3368876E-28
  0.5026000      1.8982883E-28
  0.5033000      2.4786916E-28
  0.5040000      3.0760866E-28
  0.5047000      3.6884101E-28
  0.5054000      4.3135746E-28
  0.5061000      4.9494830E-28
  0.5068000      5.5940431E-28
  0.5075000      6.2451904E-28
  0.5082000      6.9008940E-28
  0.5089000      7.5591730E-28
  0.5096000      8.2180981E-28
  0.5103000      8.8758022E-28
  0.5110000      9.5304740E-28
  0.5117000      1.0180358E-27
  0.5124000      1.0823742E-27
  0.5131000      1.1458942E-27
  0.5138000      1.2084288E-27
  0.5145000      1.2698092E-27
  0.5152000      1.3298622E-27
  0.5159000      1.3884067E-27
  0.5166000      1.4452491E-27
  0.5173000      1.5001797E-27
  0.5180000      1.5529669E-27
  0.5187000      1.6033523E-27
  0.5194000      1.6510450E-27
  0.5201000      1.6957158E-27
  0.5208000      1.7369906E-27
  0.5215000      1.7744455E-27
  0.5222000      1.8075997E-27
  0.5229000      1.8359099E-27
  0.5236000      1.8587658E-27
  0.5243000      1.8754835E-27
  0.5250000      1.8853026E-27
  0.5257000      1.8873815E-27
  0.5264000      1.8807956E-27
  0.5271000      1.8645351E-27
  0.5278000      1.8375049E-27
  0.5285000      1.7985260E-27
  0.5292000      1.7463372E-27
  0.5299000      1.6796006E-27
  0.5306000      1.5969072E-27
  0.5313000      1.4967846E-27
  0.5320000      1.3777086E-27
  0.5327000      1.2381141E-27
  0.5334000      1.0764104E-27
  0.5341000      8.9099788E-28
  0.5348000      6.8028660E-28
  0.5355000      4.4271862E-28
  0.5362000      1.7679072E-28
  0.5369000     -1.1892022E-28
  0.5376000     -4.4572875E-28
  0.5383000     -8.0481247E-28
  0.5390000     -1.1971806E-27
  0.5397000     -1.6236414E-27
  0.5404000     -2.0847685E-27
  0.5411000     -2.5808669E-27
  0.5418000     -3.1119380E-27
  0.5425000     -3.6776457E-27
  0.5432000     -4.2772782E-27
  0.5439000     -4.9097193E-27
  0.5446000     -5.5734109E-27
  0.5453000     -6.2663255E-27
  0.5460000     -6.9859342E-27
  0.5467000     -7.7291837E-27
  0.5474000     -8.4924697E-27
  0.5481000     -9.2716217E-27
  0.5488000     -1.0061885E-26
  0.5495000     -1.0857912E-26
  0.5502000     -1.1653757E-26
  0.5509000     -1.2442876E-26
  0.5516000     -1.3218136E-26
  0.5523000     -1.3971822E-26
  0.5530000     -1.4695671E-26
  0.5537000     -1.5380882E-26
  0.5544000     -1.6018163E-26
  0.5551000     -1.6597767E-26
  0.5558000     -1.7109549E-26
  0.5565000     -1.7543015E-26
  0.5572000     -1.7887395E-26
  0.5579000     -1.8131708E-26
  0.5586000     -1.8264849E-26
  0.5593000     -1.8275670E-26
  0.5600000     -1.8153075E-26
  0.5607000     -1.7886116E-26
  0.5614000     -1.7464100E-26
  0.5621000     -1.6876702E-26
  0.5628000     -1.6114069E-26
  0.5635000     -1.5166937E-26
  0.5642000     -1.4026750E-26
  0.5649000     -1.2685780E-26
  0.5656000     -1.1137245E-26
  0.5663000     -9.3754193E-27
  0.5670000     -7.3957613E-27
  0.5677000     -5.1950165E-27
  0.5684000     -2.7713313E-27
  0.5691000     -1.2434847E-28
  0.5698000      2.7446905E-27
  0.5705000      5.8328564E-27
  0.5712000      9.1354569E-27
  0.5719000      1.2645960E-26
  0.5726000      1.6355937E-26
  0.5733000      2.0255018E-26
  0.5740000      2.4330832E-26
  0.5747000      2.8569011E-26
  0.5754000      3.2953151E-26
  0.5761000      3.7464832E-26
  0.5768000      4.2083606E-26
  0.5775000      4.6787041E-26
  0.5782000      5.1550751E-26
  0.5789000      5.6348458E-26
  0.5796000      6.1152023E-26
  0.5803000      6.5931552E-26
  0.5810000      7.0655467E-26
  0.5817000      7.5290604E-26
  0.5824000      7.9802303E-26
  0.5831000      8.4154554E-26
  0.5838000      8.8310069E-26
  0.5845000      9.2230455E-26
  0.5852000      9.5876306E-26
  0.5859000      9.9207369E-26
  0.5866000      1.0218267E-25
  0.5873000      1.0476065E-25
  0.5880000      1.0689933E-25
  0.5887000      1.0855644E-25
  0.5894000      1.0968958E-25
  0.5901000      1.1025633E-25
  0.5908000      1.1021444E-25
  0.5915000      1.0952200E-25
  0.5922000      1.0813751E-25
  0.5929000      1.0602012E-25
  0.5936000      1.0312972E-25
  0.5943000      9.9427153E-26
  0.5950000      9.4874378E-26
  0.5957000      8.9434615E-26
  0.5964000      8.3072557E-26
  0.5971000      7.5754572E-26
  0.5978000      6.7448926E-26
  0.5985000      5.8125989E-26
  0.5992000      4.7758579E-26
  0.5999000      3.6322145E-26
  0.6006000      2.3795136E-26
  0.6013000      1.0159344E-26
  0.6020000     -4.5997170E-27
  0.6027000     -2.0492397E-26
  0.6034000     -3.7524440E-26
  0.6041000     -5.5696501E-26
  0.6048000     -7.5003570E-26
  0.6055000     -9.5434371E-26
  0.6062000     -1.1697075E-25
  0.6069000     -1.3958700E-25
  0.6076000     -1.6324908E-25
  0.6083000     -1.8791388E-25
  0.6090000     -2.1352840E-25
  0.6097000     -2.4002895E-25
  0.6104000     -2.6734015E-25
  0.6111000     -2.9537417E-25
  0.6118000     -3.2402974E-25
  0.6125000     -3.5319134E-25
  0.6132000     -3.8272822E-25
  0.6139000     -4.1249349E-25
  0.6146000     -4.4232343E-25
  0.6153000     -4.7203667E-25
  0.6160000     -5.0143337E-25
  0.6167000     -5.3029483E-25
  0.6174000     -5.5838282E-25
  0.6181000     -5.8543927E-25
  0.6188000     -6.1118621E-25
  0.6195000     -6.3532560E-25
  0.6202000     -6.5753962E-25
  0.6209000     -6.7749105E-25
  0.6216000     -6.9482415E-25
  0.6223000     -7.0916539E-25
  0.6230000     -7.2012484E-25
  0.6237000     -7.2729776E-25
  0.6244000     -7.3026668E-25
  0.6251000     -7.2860352E-25
  0.6258000     -7.2187246E-25
  0.6265000     -7.0963304E-25
  0.6272000     -6.9144349E-25
  0.6279000     -6.6686475E-25
  0.6286000     -6.3546493E-25
  0.6293000     -5.9682381E-25
  0.6300000     -5.5053819E-25
  0.6307000     -4.9622723E-25
  0.6314000     -4.3353853E-25
  0.6321000     -3.6215421E-25
  0.6328000     -2.8179756E-25
  0.6335000     -1.9223973E-25
  0.6342000     -9.3306795E-26
  0.6349000      1.5112939E-26
  0.6356000      1.3306185E-25
  0.6363000      2.6050549E-25
  0.6370000      3.9732537E-25
  0.6377000      5.4331188E-25
  0.6384000      6.9815714E-25
  0.6391000      8.6144853E-25
  0.6398000      1.0326623E-24
  0.6405000      1.2111583E-24
  0.6412000      1.3961739E-24
  0.6419000      1.5868205E-24
  0.6426000      1.7820804E-24
  0.6433000      1.9808025E-24
  0.6440000      2.1817031E-24
  0.6447000      2.3833632E-24
  0.6454000      2.5842316E-24
  0.6461000      2.7826260E-24
  0.6468000      2.9767378E-24
  0.6475000      3.1646370E-24
  0.6482000      3.3442796E-24
  0.6489000      3.5135159E-24
  0.6496000      3.6701032E-24
  0.6503000      3.8117163E-24
  0.6510000      3.9359627E-24
  0.6517000      4.0403988E-24
  0.6524000      4.1225492E-24
  0.6531000      4.1799254E-24
  0.6538000      4.2100481E-24
  0.6545000      4.2104713E-24
  0.6552000      4.1788061E-24
  0.6559000      4.1127500E-24
  0.6566000      4.0101113E-24
  0.6573000      3.8688417E-24
  0.6580000      3.6870633E-24
  0.6587000      3.4631029E-24
  0.6594000      3.1955207E-24
  0.6601000      2.8831422E-24
  0.6608000      2.5250903E-24
  0.6615000      2.1208153E-24
  0.6622000      1.6701264E-24
  0.6629000      1.1732188E-24
  0.6636000      6.3070341E-25
  0.6643000      4.3630723E-26
  0.6650000     -5.8648535E-25
  0.6657000     -1.2576471E-24
  0.6664000     -1.9673558E-24
  0.6671000     -2.7125972E-24
  0.6678000     -3.4898323E-24
  0.6685000     -4.2949919E-24
  0.6692000     -5.1234733E-24
  0.6699000     -5.9701486E-24
  0.6706000     -6.8293708E-24
  0.6713000     -7.6949895E-24
  0.6720000     -8.5603714E-24
  0.6727000     -9.4184289E-24
  0.6734000     -1.0261652E-23
  0.6741000     -1.1082148E-23
  0.6748000     -1.1871687E-23
  0.6755000     -1.2621757E-23
  0.6762000     -1.3323615E-23