 -0.622799993       0.00000000    
 -0.610800028       0.00000000    
 -0.598800004       0.00000000    
 -0.586799979       1.32557546E-16
 -0.574800014       9.02743998E-16
 -0.562799990       3.34787740E-15
 -0.550800025       8.71680674E-15
 -0.538800001       1.72023244E-14
 -0.526799977       2.55873153E-14
 -0.514800012       2.44610122E-14
 -0.502799988      -3.36099391E-15
 -0.490799993      -8.10617713E-14
 -0.478799999      -2.31194323E-13
 -0.466800004      -4.64831949E-13
 -0.454800010      -7.70244654E-13
 -0.442799985      -1.10758321E-12
 -0.430799991      -1.41663558E-12
 -0.418799996      -1.64181646E-12
 -0.406800002      -1.77218309E-12
 -0.394800007      -1.88626762E-12
 -0.382800013      -2.18518498E-12
 -0.370799989      -2.99640152E-12
 -0.358799994      -4.73692353E-12
 -0.346799999      -7.83793083E-12
 -0.334800005      -1.26492115E-11
 -0.322800010      -1.93550991E-11
 -0.310799986      -2.79377754E-11
 -0.298799992      -3.82150943E-11
 -0.286799997      -4.99593526E-11
 -0.274800003      -6.30763081E-11
 -0.262800008      -7.77993503E-11
 -0.250800014      -9.48413431E-11
 -0.238800004      -1.15451926E-10
 -0.226799995      -1.41351542E-10
 -0.214800000      -1.74547904E-10
 -0.202800006      -2.17075802E-10
 -0.190799996      -2.70725303E-10
 -0.178800002      -3.36828010E-10
 -0.166800007      -4.16154777E-10
 -0.154799998      -5.08946829E-10
 -0.142800003      -6.15063833E-10
 -0.130799994      -7.34204197E-10
 -0.118799999      -8.66134164E-10
 -0.106799997      -1.01086850E-09
  -9.48000029E-02  -1.16876131E-09
  -8.28000009E-02  -1.34049105E-09
  -7.07999989E-02  -1.52694746E-09
  -5.88000007E-02  -1.72903958E-09
  -4.67999987E-02  -1.94744931E-09
  -3.48000005E-02  -2.18234852E-09
  -2.28000004E-02  -2.43308618E-09
  -1.08000003E-02  -2.69785927E-09
   1.20000006E-03  -2.97337621E-09
   1.31999999E-02  -3.25455596E-09
   2.52000000E-02  -3.53431706E-09
   3.72000001E-02  -3.80354281E-09
   4.91999984E-02  -4.05131795E-09
   6.12000003E-02  -4.26551772E-09
   7.32000023E-02  -4.43380221E-09
   8.51999968E-02  -4.54501015E-09
   9.71999988E-02  -4.59086991E-09
  0.109200001      -4.56788740E-09
  0.121200003      -4.47919923E-09
  0.133200005      -4.33615188E-09
  0.145199999      -4.15937329E-09
  0.157199994      -3.97911126E-09
  0.169200003      -3.83466325E-09
  0.181199998      -3.77274834E-09
  0.193200007      -3.84470455E-09
  0.205200002      -4.10241840E-09
  0.217199996      -4.59292426E-09
  0.229200006      -5.35172617E-09
  0.241200000      -6.39505160E-09
  0.253199995      -7.71153807E-09
  0.265199989      -9.25421428E-09
  0.277200013      -1.09340101E-08
  0.289200008      -1.26163311E-08
  0.301200002      -1.41223326E-08
  0.313199997      -1.52363473E-08
  0.325199991      -1.57203761E-08
  0.337199986      -1.53357576E-08
  0.349200010      -1.38710821E-08
  0.361200005      -1.11744036E-08
  0.373199999      -7.18686177E-09
  0.385199994      -1.97422012E-09
  0.397199988       4.24751034E-09
  0.409200013       1.10961382E-08
  0.421200007       1.80205628E-08
  0.433200002       2.43142377E-08
  0.445199996       2.91471256E-08
  0.457199991       3.16174749E-08
  0.469199985       3.08233972E-08
  0.481200010       2.59524136E-08
  0.493200004       1.63848757E-08
  0.505200028       1.80441628E-09
  0.517199993      -1.76940294E-08
  0.529200017      -4.15104395E-08
  0.541199982      -6.84730637E-08
  0.553200006      -9.68117888E-08
  0.565199971      -1.24182364E-07
  0.577199996      -1.47748509E-07
  0.589200020      -1.64324163E-07
  0.601199985      -1.70571880E-07
  0.613200009      -1.63247577E-07
  0.625199974      -1.39476285E-07
  0.637199998      -9.70386012E-08
  0.649200022      -3.46448275E-08
  0.661199987       4.78285394E-08
  0.673200011       1.49164634E-07
  0.685199976       2.66718104E-07
  0.697200000       3.96432625E-07
  0.709200025       5.32977879E-07
  0.721199989       6.70012128E-07
  0.733200014       8.00566568E-07
  0.745199978       9.17535829E-07
  0.757200003       1.01424837E-06
  0.769200027       1.08507766E-06
  0.781199992       1.12604687E-06
  0.793200016       1.13537374E-06
  0.805199981       1.11389897E-06
  0.817200005       1.06534526E-06
  0.829200029       9.96361450E-07
  0.841199994       9.16317163E-07
  0.853200018       8.36829088E-07
  0.865199983       7.71019302E-07
  0.877200007       7.32527951E-07
  0.889199972       7.34320963E-07
  0.901199996       7.87355020E-07
  0.913200021       8.99185693E-07
  0.925199986       1.07261394E-06
  0.937200010       1.30447177E-06
  0.949199975       1.58466048E-06
  0.961199999       1.89553896E-06
  0.973200023       2.21174832E-06
  0.985199988       2.50053267E-06
  0.997200012       2.72259899E-06
   1.00919998       2.83350437E-06
   1.02119994       2.78554489E-06
   1.03320003       2.53006283E-06
   1.04519999       2.02007095E-06
   1.05719995       1.21305072E-06
   1.06920004       7.37706927E-08
   1.08120000      -1.42306521E-06
   1.09319997      -3.29048498E-06
   1.10520005      -5.52743904E-06
   1.11720002      -8.11760401E-06
   1.12919998      -1.10289702E-05
   1.14119995      -1.42142344E-05
   1.15320003      -1.76120320E-05
   1.16520000      -2.11490169E-05
   1.17719996      -2.47426506E-05
   1.18920004      -2.83046429E-05
   1.20120001      -3.17448321E-05
   1.21319997      -3.49753645E-05
   1.22520006      -3.79149169E-05
   1.23720002      -4.04927996E-05
   1.24919999      -4.26526822E-05
   1.26119995      -4.43557365E-05
   1.27320004      -4.55830595E-05
   1.28520000      -4.63372344E-05
   1.29719996      -4.66428792E-05
   1.30920005      -4.65462217E-05
   1.32120001      -4.61136551E-05
   1.33319998      -4.54293368E-05
   1.34519994      -4.45919322E-05
   1.35720003      -4.37106428E-05
   1.36919999      -4.29006541E-05
   1.38119996      -4.22781995E-05
   1.39320004      -4.19554017E-05
   1.40520000      -4.20351025E-05
   1.41719997      -4.26059014E-05
   1.42920005      -4.37375274E-05
   1.44120002      -4.54768124E-05
   1.45319998      -4.78443399E-05
   1.46519995      -5.08319754E-05
   1.47720003      -5.44013637E-05
   1.48920000      -5.84834597E-05
   1.50119996      -6.29791393E-05
   1.51320004      -6.77608987E-05
   1.52520001      -7.26756116E-05
   1.53719997      -7.75482622E-05
   1.54920006      -8.21865688E-05
   1.56120002      -8.63863534E-05
   1.57319999      -8.99375518E-05
   1.58519995      -9.26305729E-05
   1.59720004      -9.42629486E-05
   1.60920000      -9.46459186E-05
   1.62119997      -9.36108190E-05
   1.63320005      -9.10149975E-05
   1.64520001      -8.67470735E-05
   1.65719998      -8.07312608E-05
   1.66919994      -7.29307867E-05
   1.68120003      -6.33499803E-05
   1.69319999      -5.20352114E-05
   1.70519996      -3.90744899E-05
   1.71720004      -2.45957453E-05
   1.72920001      -8.76387367E-06
   1.74119997       8.22336915E-06
   1.75320005       2.61404712E-05
   1.76520002       4.47400780E-05
   1.77719998       6.37594858E-05
   1.78919995       8.29274795E-05
   1.80120003       1.01971251E-04
   1.81320000       1.20623132E-04
   1.82519996       1.38626958E-04
   1.83720005       1.55743750E-04
   1.84920001       1.71756663E-04
   1.86119998       1.86474863E-04
   1.87320006       1.99736518E-04
   1.88520002       2.11410676E-04
   1.89719999       2.21397859E-04
   1.90919995       2.29630008E-04
   1.92120004       2.36069260E-04
   1.93320000       2.40706111E-04
   1.94519997       2.43556962E-04
   1.95720005       2.44661205E-04
   1.96920002       2.44078474E-04
   1.98119998       2.41885296E-04
   1.99319994       2.38172477E-04
   2.00519991       2.33042258E-04
   2.01719999       2.26606164E-04
   2.02920008       2.18983143E-04
   2.04119992       2.10297978E-04
   2.05320001       2.00680253E-04
   2.06520009       1.90263556E-04
   2.07719994       1.79184819E-04
   2.08920002       1.67583916E-04
   2.10120010       1.55603091E-04
   2.11319995       1.43386322E-04
   2.12520003       1.31078414E-04
   2.13720012       1.18823875E-04
   2.14919996       1.06765270E-04
   2.16120005       9.50413960E-05
   2.17319989       8.37850312E-05
   2.18519998       7.31205437E-05
   2.19720006       6.31613002E-05
   2.20919991       5.40070214E-05
   2.22119999       4.57413480E-05
   2.23320007       3.84295854E-05
   2.24519992       3.21168627E-05
   2.25720000       2.68267686E-05
   2.26920009       2.25606564E-05
   2.28119993       1.92975695E-05
   2.29320002       1.69949326E-05
   2.30520010       1.55899543E-05
   2.31719995       1.50017158E-05
   2.32920003       1.51338782E-05
   2.34120011       1.58779112E-05
   2.35319996       1.71166976E-05
   2.36520004       1.87283986E-05
   2.37719989       2.05904089E-05
   2.38919997       2.25832773E-05
   2.40120006       2.45944466E-05
   2.41319990       2.65216422E-05
   2.42519999       2.82758429E-05
   2.43720007       2.97836741E-05
   2.44919991       3.09891875E-05
   2.46120000       3.18549355E-05
   2.47320008       3.23623208E-05
   2.48519993       3.25112487E-05
   2.49720001       3.23190689E-05
   2.50920010       3.18188904E-05
   2.52119994       3.10573450E-05
   2.53320003       3.00918673E-05
   2.54520011       2.89876334E-05
   2.55719995       2.78142270E-05
   2.56920004       2.66422285E-05
   2.58119988       2.55397845E-05
   2.59319997       2.45693755E-05
   2.60520005       2.37848508E-05
   2.61719990       2.32289131E-05
   2.62919998       2.29311136E-05
   2.64120007       2.29064990E-05
   2.65319991       2.31549275E-05
   2.66520000       2.36611049E-05
   2.67720008       2.43953418E-05
   2.68919992       2.53149919E-05
   2.70120001       2.63665224E-05
   2.71320009       2.74880986E-05
   2.72519994       2.86126142E-05
   2.73720002       2.96709895E-05
   2.74920011       3.05956019E-05
   2.76119995       3.13236706E-05
   2.77320004       3.18004713E-05
   2.78520012       3.19821338E-05
   2.79719996       3.18380116E-05
   2.80920005       3.13523633E-05
   2.82119989       3.05253925E-05
   2.83319998       2.93735266E-05
   2.84520006       2.79289579E-05
   2.85719991       2.62384510E-05
   2.86919999       2.43615013E-05
   2.88120008       2.23679090E-05
   2.89319992       2.03349027E-05
   2.90520000       1.83439297E-05
   2.91720009       1.64772555E-05
   2.92919993       1.48145455E-05
   2.94120002       1.34295678E-05
   2.95320010       1.23871287E-05
   2.96519995       1.17404352E-05
   2.97720003       1.15289104E-05
   2.98920012       1.17765821E-05
   3.00119996       1.24910985E-05
   3.01320004       1.36633635E-05
   3.02519989       1.52678185E-05
   3.03719997       1.72633409E-05
   3.04920006       1.95946977E-05
   3.06119990       2.21945029E-05
   3.07319999       2.49855839E-05
   3.08520007       2.78836724E-05
   3.09719992       3.08002636E-05
   3.10920000       3.36455960E-05
   3.12120008       3.63315885E-05
   3.13319993       3.87746441E-05
   3.14520001       4.08982596E-05
   3.15720010       4.26353035E-05
   3.16919994       4.39299911E-05
   3.18120003       4.47394086E-05
   3.19320011       4.50346524E-05
   3.20519996       4.48014907E-05
   3.21720004       4.40405784E-05
   3.22919989       4.27672639E-05
   3.24119997       4.10109533E-05
   3.25320005       3.88141343E-05
   3.26519990       3.62311039E-05
   3.27719998       3.33264179E-05
   3.28920007       3.01731452E-05
   3.30119991       2.68510030E-05
   3.31320000       2.34443560E-05
   3.32520008       2.00401355E-05
   3.33719993       1.67257313E-05
   3.34920001       1.35868431E-05
   3.36120009       1.07053329E-05
   3.37319994       8.15713065E-06
   3.38520002       6.01019156E-06
   3.39720011       4.32260504E-06
   3.40919995       3.14083582E-06
   3.42120004       2.49820118E-06
   3.43319988       2.41360704E-06
   3.44519997       2.89058198E-06
   3.45720005       3.91669573E-06
   3.46919990       5.46338060E-06
   3.48119998       7.48623324E-06
   3.49320006       9.92583318E-06
   3.50519991       1.27090989E-05
   3.51719999       1.57512241E-05
   3.52920008       1.89581315E-05
   3.54119992       2.22294402E-05
   3.55320001       2.54618026E-05
   3.56520009       2.85525439E-05
   3.57719994       3.14034442E-05
   3.58920002       3.39244725E-05
   3.60120010       3.60373524E-05
   3.61319995       3.76787393E-05
   3.62520003       3.88028966E-05
   3.63720012       3.93836890E-05
   3.64919996       3.94158233E-05
   3.66120005       3.89151974E-05
   3.67319989       3.79183875E-05
   3.68519998       3.64812258E-05
   3.69720006       3.46765155E-05
   3.70919991       3.25910478E-05
   3.72119999       3.03219604E-05
   3.73320007       2.79727010E-05
   3.74519992       2.56487056E-05
   3.75720000       2.34530598E-05
   3.76920009       2.14823012E-05
   3.78119993       1.98225571E-05
   3.79320002       1.85461922E-05
   3.80520010       1.77090751E-05
   3.81719995       1.73485696E-05
   3.82920003       1.74823090E-05
   3.84120011       1.81077739E-05
   3.85319996       1.92026328E-05
   3.86520004       2.07258472E-05
   3.87719989       2.26194006E-05
   3.88919997       2.48106426E-05
   3.90120006       2.72150810E-05
   3.91319990       2.97395345E-05
   3.92519999       3.22855631E-05
   3.93720007       3.47529967E-05
   3.94919991       3.70435118E-05
   3.96120000       3.90641071E-05
   3.97320008       4.07303451E-05
   3.98519993       4.19693351E-05
   3.99720001       4.27222476E-05
   4.00920010       4.29464089E-05
   4.02120018       4.26167753E-05
   4.03319979       4.17268857E-05
   4.04519987       4.02891383E-05
   4.05719995       3.83344486E-05
   4.06920004       3.59113001E-05
   4.08120012       3.30841867E-05
   4.09320021       2.99314743E-05
   4.10519981       2.65428098E-05
   4.11719990       2.30161222E-05
   4.12919998       1.94543118E-05
   4.14120007       1.59617903E-05
   4.15320015       1.26409914E-05
   4.16520023       9.58897272E-06
   4.17719984       6.89424860E-06
   4.18919992       4.63397600E-06
   4.20120001       2.87156308E-06
   4.21320009       1.65477582E-06
   4.22520018       1.01438548E-06
   4.23719978       9.63374646E-07
   4.24919987       1.49671143E-06
   4.26119995       2.59169155E-06
   4.27320004       4.20881179E-06
   4.28520012       6.29315582E-06
   4.29720020       8.77623734E-06
   4.30919981       1.15782514E-05
   4.32119989       1.46106349E-05
   4.33319998       1.77788770E-05
   4.34520006       2.09854534E-05
   4.35720015       2.41328307E-05
   4.36920023       2.71263852E-05
   4.38119984       2.98771956E-05
   4.39319992       3.23045970E-05
   4.40520000       3.43384236E-05
   4.41720009       3.59208789E-05
   4.42920017       3.70079288E-05
   4.44119978       3.75702766E-05
   4.45319986       3.75937634E-05
   4.46519995       3.70792804E-05
   4.47720003       3.60421873E-05
   4.48920012       3.45112494E-05
   4.50120020       3.25272485E-05
   4.51319981       3.01412310E-05
   4.52519989       2.74126451E-05
   4.53719997       2.44073417E-05
   4.54920006       2.11956485E-05
   4.56120014       1.78505270E-05
   4.57320023       1.44459673E-05
   4.58519983       1.10556066E-05
   4.59719992       7.75163426E-06
   4.60920000       4.60397086E-06
   4.62120008       1.67968130E-06
   4.63320017      -9.57415295E-07
   4.64519978      -3.24702410E-06
   4.65719986      -5.13262330E-06
   4.66919994      -6.56175962E-06
   4.68120003      -7.48649200E-06
   4.69320011      -7.86402052E-06
   4.70520020      -7.65756249E-06
   4.71719980      -6.83749204E-06
   4.72919989      -5.38271206E-06
   4.74119997      -3.28222745E-06
   4.75320005      -5.36836410E-07
   4.76520014       2.83916597E-06
   4.77720022       6.81639222E-06
   4.78919983       1.13490332E-05
   4.80119991       1.63739205E-05
   4.81320000       2.18101304E-05
   4.82520008       2.75592683E-05
   4.83720016       3.35065015E-05
   4.84919977       3.95223979E-05
   4.86119986       4.54655965E-05
   4.87319994       5.11862163E-05
   4.88520002       5.65299561E-05
   4.89720011       6.13427255E-05
   4.90920019       6.54756223E-05
   4.92119980       6.87900611E-05
   4.93319988       7.11629327E-05
   4.94519997       7.24913771E-05
   4.95720005       7.26971994E-05
   4.96920013       7.17305666E-05
   4.98120022       6.95728158E-05
   4.99319983       6.62383463E-05
   5.00519991       6.17753685E-05
   5.01719999       5.62655041E-05
   5.02920008       4.98222398E-05
   5.04120016       4.25882354E-05
   5.05319977       3.47316600E-05
   5.06519985       2.64415849E-05
   5.07719994       1.79226954E-05
   5.08920002       9.38941685E-06
   5.10120010       1.05971856E-06
   5.11320019      -6.85125724E-06
   5.12519979      -1.41375103E-05
   5.13719988      -2.06082714E-05
   5.14919996      -2.60936540E-05
   5.16120005      -3.04497262E-05
   5.17320013      -3.35628247E-05
   5.18520021      -3.53529758E-05
   5.19719982      -3.57763711E-05
   5.20919991      -3.48267349E-05
   5.22119999      -3.25356450E-05
   5.23320007      -2.89717063E-05
   5.24520016      -2.42386868E-05
   5.25719976      -1.84726014E-05
   5.26919985      -1.18378439E-05
   5.28119993      -4.52249196E-06
   5.29320002       3.26711165E-06
   5.30520010       1.13123333E-05
   5.31720018       1.93886044E-05
   5.32919979       2.72719681E-05
   5.34119987       3.47456044E-05
   5.35319996       4.16061775E-05
   5.36520004       4.76697169E-05
   5.37720013       5.27769589E-05
   5.38920021       5.67978968E-05
   5.40119982       5.96354876E-05
   5.41319990       6.12283038E-05
   5.42519999       6.15521712E-05
   5.43720007       6.06206377E-05
   5.44920015       5.84843328E-05
   5.46120024       5.52292113E-05
   5.47319984       5.09737474E-05
   5.48519993       4.58651593E-05
   5.49720001       4.00748104E-05
   5.50920010       3.37929123E-05
   5.52120018       2.72227226E-05
   5.53319979       2.05744127E-05
   5.54519987       1.40588099E-05
   5.55719995       7.88117541E-06
   5.56920004       2.23523784E-06
   5.58120012      -2.70236501E-06
   5.59320021      -6.77706475E-06
   5.60519981      -9.86063151E-06
   5.61719990      -1.18546204E-05
   5.62919998      -1.26929117E-05
   5.64120007      -1.23432937E-05
   5.65320015      -1.08080703E-05
   5.66520023      -8.12369399E-06
   5.67719984      -4.35946913E-06
   5.68919992       3.84627782E-07
   5.70120001       5.98092629E-06
   5.71320009       1.22777446E-05
   5.72520018       1.91036870E-05
   5.73719978       2.62724243E-05
   5.74919987       3.35878467E-05
   5.76119995       4.08494343E-05
   5.77320004       4.78577676E-05
   5.78520012       5.44199684E-05
   5.79720020       6.03550034E-05
   5.80919981       6.54986434E-05
   5.82119989       6.97080905E-05
   5.83319998       7.28659143E-05
   5.84520006       7.48835082E-05
   5.85720015       7.57035887E-05
   5.86920023       7.53019995E-05
   5.88119984       7.36885049E-05
   5.89319992       7.09066080E-05
   5.90520000       6.70324371E-05
   5.91720009       6.21726649E-05
   5.92920017       5.64614747E-05
   5.94119978       5.00567949E-05
   5.95319986       4.31357403E-05
   5.96519995       3.58895741E-05
   5.97720003       2.85182196E-05
   5.98920012       2.12245832E-05
   6.00120020       1.42087856E-05
   6.01319981       7.66254379E-06
   6.02519989       1.76383958E-06
   6.03719997      -3.32796048E-06
   6.04920006      -7.47639615E-06
   6.06120014      -1.05715044E-05
   6.07320023      -1.25326287E-05
   6.08519983      -1.33103922E-05
   6.09719992      -1.28878128E-05
   6.10920000      -1.12805528E-05
   6.12120008      -8.53634083E-06
   6.13320017      -4.73356886E-06
   6.14519978       2.08536370E-08
   6.15719986       5.59437376E-06
   6.16919994       1.18322987E-05
   6.18120003       1.85618883E-05
   6.19320011       2.55969153E-05
   6.20520020       3.27426242E-05
   6.21719980       3.98009470E-05
   6.22919989       4.65758530E-05
   6.24119997       5.28787023E-05
   6.25320005       5.85334456E-05
   6.26520014       6.33815216E-05
   6.27720022       6.72863025E-05
   6.28919983       7.01369499E-05
   6.30119991       7.18515657E-05
   6.31320000       7.23795019E-05
   6.32520008       7.17027287E-05
   6.33720016       6.98362273E-05
   6.34919977       6.68274151E-05
   6.36119986       6.27544650E-05
   6.37319994       5.77238025E-05
   6.38520002       5.18666056E-05
   6.39720011       4.53346984E-05
   6.40920019       3.82958096E-05
   6.42119980       3.09284806E-05
   6.43319988       2.34167546E-05
   6.44519997       1.59448955E-05
   6.45720005       8.69227188E-06
   6.46920013       1.82860526E-06
   6.48120022      -4.49029631E-06
   6.49319983      -1.01262012E-05
   6.50519991      -1.49614298E-05
   6.51719999      -1.89010952E-05
   6.52920008      -2.18746118E-05
   6.54120016      -2.38364555E-05
   6.55319977      -2.47662319E-05
   6.56519985      -2.46681193E-05
   6.57719994      -2.35697298E-05
   6.58920002      -2.15205237E-05
   6.60120010      -1.85898007E-05
   6.61320019      -1.48644003E-05
   6.62519979      -1.04461742E-05
   6.63719988      -5.44927525E-06
   6.64919996       2.65762834E-09
   6.66120005       5.77939682E-06
   6.67320013       1.17470645E-05
   6.68520021       1.77710863E-05
   6.69719982       2.37191271E-05
   6.70919991       2.94639940E-05
   6.72119999       3.48864378E-05
   6.73320007       3.98778247E-05
   6.74520016       4.43426034E-05
   6.75719976       4.82005344E-05
   6.76919985       5.13885316E-05
   6.78119993       5.38621316E-05
   6.79320002       5.55964652E-05
   6.80520010       5.65867049E-05
   6.81720018       5.68479300E-05
   6.82919979       5.64143375E-05
   6.84119987       5.53378886E-05
   6.85319996       5.36863372E-05
   6.86520004       5.15407082E-05
   6.87720013       4.89923368E-05
   6.88920021       4.61395030E-05
   6.90119982       4.30838663E-05
   6.91319990       3.99268029E-05
   6.92519999       3.67657631E-05
   6.93720007       3.36909106E-05
   6.94920015       3.07820737E-05
   6.96120024       2.81061839E-05
   6.97319984       2.57153461E-05
   6.98519993       2.36455489E-05
   6.99720001       2.19161047E-05
   7.00920010       2.05298020E-05
   7.02120018       1.94737659E-05
   7.03319979       1.87209371E-05
   7.04519987       1.82321201E-05
   7.05719995       1.79584549E-05
   7.06920004       1.78442442E-05
   7.08120012       1.78299379E-05
   7.09320021       1.78552000E-05
   7.10519981       1.78618957E-05
   7.11719990       1.77968795E-05
   7.12919998       1.76144877E-05
   7.14120007       1.72786131E-05
   7.15320015       1.67643084E-05
   7.16520023       1.60588661E-05
   7.17719984       1.51623217E-05
   7.18919992       1.40874226E-05
   7.20120001       1.28590191E-05
   7.21320009       1.15129706E-05
   7.22520018       1.00945917E-05
   7.23719978       8.65671518E-06
   7.24919987       7.25745485E-06
   7.26119995       5.95776055E-06
   7.27320004       4.81886173E-06
   7.28520012       3.89971228E-06
   7.29720020       3.25454153E-06
   7.30919981       2.93061498E-06
   7.32119989       2.96629605E-06
   7.33319998       3.38949985E-06
   7.34520006       4.21658569E-06
   7.35720015       5.45171997E-06
   7.36920023       7.08672815E-06
   7.38119984       9.10140079E-06
   7.39319992       1.14642316E-05
   7.40520000       1.41335149E-05
   7.41720009       1.70587391E-05
   7.42920017       2.01822004E-05
   7.44119978       2.34407635E-05
   7.45319986       2.67676769E-05
   7.46519995       3.00944030E-05
   7.47720003       3.33523567E-05
   7.48920012       3.64745320E-05
   7.50120020       3.93969858E-05
   7.51319981       4.20601245E-05
   7.52519989       4.44098259E-05
   7.53719997       4.63983561E-05
   7.54920006       4.79851769E-05
   7.56120014       4.91375358E-05
   7.57320023       4.98310183E-05
   7.58519983       5.00499300E-05
   7.59719992       4.97875953E-05
   7.60920000       4.90465573E-05
   7.62120008       4.78386355E-05
   7.63320017       4.61848540E-05
   7.64519978       4.41151715E-05
   7.65719986       4.16680487E-05
   7.66919994       3.88897424E-05
   7.68120003       3.58333964E-05
   7.69320011       3.25578949E-05
   7.70520020       2.91264678E-05
   7.71719980       2.56051153E-05
   7.72919989       2.20609036E-05
   7.74119997       1.85601330E-05
   7.75320005       1.51665226E-05
   7.76520014       1.19394472E-05
   7.77720022       8.93230572E-06
   7.78919983       6.19113462E-06
   7.80119991       3.75349305E-06
   7.81320000       1.64769767E-06
   7.82520008      -1.07561064E-07
   7.83720016      -1.50319852E-06
   7.84919977      -2.53933672E-06
   7.86119986      -3.22453934E-06
   7.87319994      -3.57474255E-06
   7.88520002      -3.61195180E-06
   7.89720011      -3.36278072E-06
   7.90920019      -2.85691317E-06
   7.92119980      -2.12557165E-06
   7.93319988      -1.20007007E-06
   7.94519997      -1.10498334E-07
   7.95720005       1.11538975E-06
   7.96920013       2.45306251E-06
   7.98120022       3.88182798E-06
   7.99319983       5.38517179E-06
   8.00520039       6.95081508E-06
   8.01720047       8.57048144E-06
   8.02919960       1.02394097E-05
   8.04119968       1.19556389E-05
   8.05319977       1.37191018E-05
   8.06519985       1.55305843E-05
   8.07719994       1.73906101E-05
   8.08920002       1.92983007E-05
   8.10120010       2.12502891E-05
   8.11320019       2.32397233E-05
   8.12520027       2.52554328E-05
   8.13720036       2.72813159E-05
   8.14920044       2.92959812E-05
   8.16119957       3.12727425E-05
   8.17319965       3.31798838E-05
   8.18519974       3.49813927E-05
   8.19719982       3.66379463E-05
   8.20919991       3.81083410E-05
   8.22119999       3.93511036E-05
   8.23320007       4.03263875E-05
   8.24520016       4.09979220E-05
   8.25720024       4.13349917E-05
   8.26920033       4.13143025E-05
   8.28120041       4.09216118E-05
   8.29319954       4.01530342E-05
   8.30519962       3.90159112E-05
   8.31719971       3.75292184E-05
   8.32919979       3.57234094E-05
   8.34119987       3.36397170E-05
   8.35319996       3.13289202E-05
   8.36520004       2.88496667E-05
   8.37720013       2.62663889E-05
   8.38920021       2.36469532E-05
   8.40120029       2.10601866E-05
   8.41320038       1.85733734E-05
   8.42520046       1.62498691E-05
   8.43719959       1.41469436E-05
   8.44919968       1.23139289E-05
   8.46119976       1.07907490E-05
   8.47319984       9.60686521E-06
   8.48519993       8.78067112E-06
   8.49720001       8.31930720E-06
   8.50920010       8.21892263E-06
   8.52120018       8.46528110E-06
   8.53320026       9.03471482E-06
   8.54520035       9.89532873E-06
   8.55720043       1.10083893E-05
   8.56919956       1.23298378E-05
   8.58119965       1.38118703E-05
   8.59319973       1.54045174E-05
   8.60519981       1.70572075E-05
   8.61719990       1.87202731E-05
   8.62919998       2.03463769E-05
   8.64120007       2.18918467E-05
   8.65320015       2.33178926E-05
   8.66520023       2.45916635E-05
   8.67720032       2.56871317E-05
   8.68920040       2.65857743E-05
   8.70119953       2.72769794E-05
   8.71319962       2.77582021E-05
   8.72519970       2.80348013E-05
   8.73719978       2.81195735E-05
   8.74919987       2.80319728E-05
   8.76119995       2.77970557E-05
   8.77320004       2.74441627E-05
   8.78520012       2.70053915E-05
   8.79720020       2.65139624E-05
   8.80920029       2.60025208E-05
   8.82120037       2.55014947E-05
   8.83320045       2.50375870E-05
   8.84519958       2.46324907E-05
   8.85719967       2.43019076E-05
   8.86919975       2.40548998E-05
   8.88119984       2.38936555E-05
   8.89319992       2.38136254E-05
   8.90520000       2.38040557E-05
   8.91720009       2.38488738E-05
   8.92920017       2.39278688E-05
   8.94120026       2.40181034E-05
   8.95320034       2.40954541E-05
   8.96520042       2.41361977E-05
   8.97719955       2.41185280E-05
   8.98919964       2.40239297E-05
   9.00119972       2.38383054E-05
   9.01319981       2.35528350E-05
   9.02519989       2.31645263E-05
   9.03719997       2.26764387E-05
   9.04920006       2.20976599E-05
   9.06120014       2.14430111E-05
   9.07320023       2.07325538E-05
   9.08520031       1.99909373E-05
   9.09720039       1.92466123E-05
   9.10919952       1.85309455E-05
   9.12119961       1.78772680E-05
   9.13319969       1.73198732E-05
   9.14519978       1.68929801E-05
   9.15719986       1.66296941E-05
   9.16919994       1.65609727E-05
   9.18120003       1.67145972E-05
   9.19320011       1.71141473E-05
   9.20520020       1.77779857E-05
   9.21720028       1.87182432E-05
   9.22920036       1.99398401E-05
   9.24120045       2.14395332E-05
   9.25319958       2.32050861E-05
   9.26519966       2.52146128E-05
   9.27719975       2.74361828E-05
   9.28919983       2.98277682E-05
   9.30119991       3.23376189E-05
   9.31320000       3.49051006E-05
   9.32520008       3.74620504E-05
   9.33720016       3.99346427E-05
   9.34920025       4.22456833E-05
   9.36120033       4.43173085E-05
   9.37320042       4.60740121E-05
   9.38519955       4.74457884E-05
   9.39719963       4.83713266E-05
   9.40919971       4.88010737E-05
   9.42119980       4.86999597E-05
   9.43319988       4.80496819E-05
   9.44519997       4.68502913E-05
