 -0.622799993       0.00000000    
 -0.610800028       0.00000000    
 -0.598800004       0.00000000    
 -0.586799979       0.00000000    
 -0.574800014      -2.87703217E-25
 -0.562799990       2.03135911E-25
 -0.550800025       8.86678632E-24
 -0.538800001       3.83921942E-23
 -0.526799977       8.32108911E-23
 -0.514800012       8.41268974E-23
 -0.502799988      -4.41628001E-23
 -0.490799993      -2.21179685E-22
 -0.478799999       1.27465180E-22
 -0.466800004       2.19983817E-21
 -0.454800010       7.16508532E-21
 -0.442799985       1.44024100E-20
 -0.430799991       1.93728931E-20
 -0.418799996       1.33554627E-20
 -0.406800002      -1.21209659E-20
 -0.394800007      -5.52568281E-20
 -0.382800013      -9.24882857E-20
 -0.370799989      -7.55741741E-20
 -0.358799994       5.07995622E-20
 -0.346799999       3.06587334E-19
 -0.334800005       6.23270976E-19
 -0.322800010       8.16336688E-19
 -0.310799986       6.29505332E-19
 -0.298799992      -1.23222692E-19
 -0.286799997      -1.34841452E-18
 -0.274800003      -2.50382753E-18
 -0.262800008      -2.62729375E-18
 -0.250800014      -6.94016166E-19
 -0.238800004       3.70952082E-18
 -0.226799995       9.63723399E-18
 -0.214800000       1.44193744E-17
 -0.202800006       1.41889831E-17
 -0.190799996       5.54869033E-18
 -0.178800002      -1.19479804E-17
 -0.166800007      -3.35412474E-17
 -0.154799998      -4.87620887E-17
 -0.142800003      -4.40393771E-17
 -0.130799994      -8.69736325E-18
 -0.118799999       5.72062362E-17
 -0.106799997       1.36654155E-16
  -9.48000029E-02   1.95423709E-16
  -8.28000009E-02   1.91107362E-16
  -7.07999989E-02   9.12422567E-17
  -5.88000007E-02  -1.04631664E-16
  -4.67999987E-02  -3.48751840E-16
  -3.48000005E-02  -5.45990926E-16
  -2.28000004E-02  -5.79211717E-16
  -1.08000003E-02  -3.57145063E-16
   1.20000006E-03   1.29601772E-16
   1.31999999E-02   7.69034448E-16
   2.52000000E-02   1.33125595E-15
   3.72000001E-02   1.53060548E-15
   4.91999984E-02   1.13906810E-15
   6.12000003E-02   1.15272198E-16
   7.32000023E-02  -1.30790516E-15
   8.51999968E-02  -2.63503331E-15
   9.71999988E-02  -3.24956990E-15
  0.109200001      -2.66291785E-15
  0.121200003      -7.88295765E-16
  0.133200005       1.88495282E-15
  0.145199999       4.33616664E-15
  0.157199994       5.33168277E-15
  0.169200003       3.95642186E-15
  0.181199998       1.73434813E-16
  0.193200007      -4.85208128E-15
  0.205200002      -8.90511148E-15
  0.217199996      -9.44348817E-15
  0.229200006      -4.74282038E-15
  0.241200000       4.93783447E-15
  0.253199995       1.67193089E-14
  0.265199989       2.54829032E-14
  0.277200013       2.54464842E-14
  0.289200008       1.26206740E-14
  0.301200002      -1.26775743E-14
  0.313199997      -4.43699981E-14
  0.325199991      -7.12173986E-14
  0.337199986      -7.98714393E-14
  0.349200010      -5.98198452E-14
  0.361200005      -8.68057321E-15
  0.373199999       6.42927958E-14
  0.385199994       1.38467254E-13
  0.397199988       1.86767214E-13
  0.409200013       1.84492829E-13
  0.421200007       1.19405557E-13
  0.433200002      -6.92974542E-16
  0.445199996      -1.46520667E-13
  0.457199991      -2.73951733E-13
  0.469199985      -3.37784786E-13
  0.481200010      -3.08566622E-13
  0.493200004      -1.86280028E-13
  0.505200028      -4.71320811E-15
  0.517199993       1.77083879E-13
  0.529200017       2.95215295E-13
  0.541199982       3.07005994E-13
  0.553200006       2.12817462E-13
  0.565199971       6.33806972E-14
  0.577199996      -5.37216383E-14
  0.589200020      -4.74313243E-14
  0.601199985       1.33112786E-13
  0.613200009       4.60729003E-13
  0.625199974       8.15773068E-13
  0.637199998       1.00748988E-12
  0.649200022       8.32171409E-13
  0.661199987       1.54938589E-13
  0.673200011      -1.01029276E-12
  0.685199976      -2.45341204E-12
  0.697200000      -3.77913499E-12
  0.709200025      -4.48708518E-12
  0.721199989      -4.10970693E-12
  0.733200014      -2.37477355E-12
  0.745199978       6.55348497E-13
  0.757200003       4.51671122E-12
  0.769200027       8.38365488E-12
  0.781199992       1.12226886E-11
  0.793200016       1.20342998E-11
  0.805199981       1.01273295E-11
  0.817200005       5.35434154E-12
  0.829200029      -1.76055459E-12
  0.841199994      -1.00474897E-11
  0.853200018      -1.78794202E-11
  0.865199983      -2.34911552E-11
  0.877200007      -2.53613224E-11
  0.889199972      -2.25707196E-11
  0.901199996      -1.50524281E-11
  0.913200021      -3.67187660E-12
  0.925199986       9.88743809E-12
  0.937200010       2.34135628E-11
  0.949199975       3.45735281E-11
  0.961199999       4.13554399E-11
  0.973200023       4.24543560E-11
  0.985199988       3.75211320E-11
  0.997200012       2.72186353E-11
   1.00919998       1.30625051E-11
   1.02119994      -2.94334544E-12
   1.03320003      -1.88394526E-11
   1.04519999      -3.33599745E-11
   1.05719995      -4.66452155E-11
   1.06920004      -6.09756343E-11
   1.08120000      -8.15092369E-11
   1.09319997      -1.17020532E-10
   1.10520005      -1.80670950E-10
   1.11720002      -2.90836522E-10
   1.12919998      -4.72034467E-10
   1.14119995      -7.55979057E-10
   1.15320003      -1.18279364E-09
   1.16520000      -1.80243676E-09
   1.17719996      -2.67645195E-09
   1.18920004      -3.88024990E-09
   1.20120001      -5.50632206E-09
   1.21319997      -7.66900410E-09
   1.22520006      -1.05117026E-08
   1.23720002      -1.42177274E-08
   1.24919999      -1.90263325E-08
   1.26119995      -2.52553978E-08
   1.27320004      -3.33327819E-08
   1.28520000      -4.38377441E-08
   1.29719996      -5.75537200E-08
   1.30920005      -7.55334142E-08
   1.32120001      -9.91757503E-08
   1.33319998      -1.30313978E-07
   1.34519994      -1.71312308E-07
   1.35720003      -2.25167270E-07
   1.36919999      -2.95609709E-07
   1.38119996      -3.87200458E-07
   1.39320004      -5.05412970E-07
   1.40520000      -6.56695875E-07
   1.41719997      -8.48505920E-07
   1.42920005      -1.08930658E-06
   1.44120002      -1.38852090E-06
   1.45319998      -1.75643697E-06
   1.46519995      -2.20405900E-06
   1.47720003      -2.74290119E-06
   1.48920000      -3.38472751E-06
   1.50119996      -4.14123588E-06
   1.51320004      -5.02369630E-06
   1.52520001      -6.04254956E-06
   1.53719997      -7.20698017E-06
   1.54920006      -8.52447920E-06
   1.56120002      -1.00004072E-05
   1.57319999      -1.16375913E-05
   1.58519995      -1.34359498E-05
   1.59720004      -1.53921956E-05
   1.60920000      -1.74996021E-05
   1.62119997      -1.97478748E-05
   1.63320005      -2.21231076E-05
   1.64520001      -2.46078780E-05
   1.65719998      -2.71814424E-05
   1.66919994      -2.98200575E-05
   1.68120003      -3.24974171E-05
   1.69319999      -3.51851959E-05
   1.70519996      -3.78537006E-05
   1.71720004      -4.04725906E-05
   1.72920001      -4.30116670E-05
   1.74119997      -4.54417168E-05
   1.75320005      -4.77353424E-05
   1.76520002      -4.98677764E-05
   1.77719998      -5.18176639E-05
   1.78919995      -5.35677536E-05
   1.80120003      -5.51054545E-05
   1.81320000      -5.64232978E-05
   1.82519996      -5.75192025E-05
   1.83720005      -5.83965593E-05
   1.84920001      -5.90641466E-05
   1.86119998      -5.95358470E-05
   1.87320006      -5.98301667E-05
   1.88520002      -5.99696068E-05
   1.89719999      -5.99798659E-05
   1.90919995      -5.98889528E-05
   1.92120004      -5.97262297E-05
   1.93320000      -5.95213787E-05
   1.94519997      -5.93034347E-05
   1.95720005      -5.90998461E-05
   1.96920002      -5.89356277E-05
   1.98119998      -5.88326584E-05
   1.99319994      -5.88091352E-05
   2.00519991      -5.88791736E-05
   2.01719999      -5.90526288E-05
   2.02920008      -5.93351033E-05
   2.04119992      -5.97280996E-05
   2.05320001      -6.02293694E-05
   2.06520009      -6.08333830E-05
   2.07719994      -6.15319004E-05
   2.08920002      -6.23146334E-05
   2.10120010      -6.31699295E-05
   2.11319995      -6.40854632E-05
   2.12520003      -6.50488946E-05
   2.13720012      -6.60484657E-05
   2.14919996      -6.70735753E-05
   2.16120005      -6.81151796E-05
   2.17319989      -6.91661407E-05
   2.18519998      -7.02214675E-05
   2.19720006      -7.12784167E-05
   2.20919991      -7.23365665E-05
   2.22119999      -7.33976412E-05
   2.23320007      -7.44654026E-05
   2.24519992      -7.55453002E-05
   2.25720000      -7.66441735E-05
   2.26920009      -7.77697496E-05
   2.28119993      -7.89302285E-05
   2.29320002      -8.01337665E-05
   2.30520010      -8.13879451E-05
   2.31719995      -8.26993564E-05
   2.32920003      -8.40731154E-05
   2.34120011      -8.55125691E-05
   2.35319996      -8.70189833E-05
   2.36520004      -8.85914342E-05
   2.37719989      -9.02268002E-05
   2.38919997      -9.19199301E-05
   2.40120006      -9.36638535E-05
   2.41319990      -9.54502466E-05
   2.42519999      -9.72699127E-05
   2.43720007      -9.91133638E-05
   2.44919991      -1.00971403E-04
   2.46120000      -1.02835802E-04
   2.47320008      -1.04699786E-04
   2.48519993      -1.06558560E-04
   2.49720001      -1.08409586E-04
   2.50920010      -1.10252804E-04
   2.52119994      -1.12090660E-04
   2.53320003      -1.13927897E-04
   2.54520011      -1.15771320E-04
   2.55719995      -1.17629286E-04
   2.56920004      -1.19511147E-04
   2.58119988      -1.21426696E-04
   2.59319997      -1.23385544E-04
   2.60520005      -1.25396560E-04
   2.61719990      -1.27467458E-04
   2.62919998      -1.29604494E-04
   2.64120007      -1.31812310E-04
   2.65319991      -1.34093949E-04
   2.66520000      -1.36451054E-04
   2.67720008      -1.38884148E-04
   2.68919992      -1.41392957E-04
   2.70120001      -1.43976664E-04
   2.71320009      -1.46634164E-04
   2.72519994      -1.49363987E-04
   2.73720002      -1.52164052E-04
   2.74920011      -1.55031215E-04
   2.76119995      -1.57960400E-04
   2.77320004      -1.60943353E-04
   2.78520012      -1.63967270E-04
   2.79719996      -1.67013015E-04
   2.80920005      -1.70053463E-04
   2.82119989      -1.73051623E-04
   2.83319998      -1.75958994E-04
   2.84520006      -1.78714210E-04
   2.85719991      -1.81242271E-04
   2.86919999      -1.83454060E-04
   2.88120008      -1.85246914E-04
   2.89319992      -1.86505713E-04
   2.90520000      -1.87104844E-04
   2.91720009      -1.86911100E-04
   2.92919993      -1.85787139E-04
   2.94120002      -1.83595635E-04
   2.95320010      -1.80204021E-04
   2.96519995      -1.75489375E-04
   2.97720003      -1.69343606E-04
   2.98920012      -1.61678341E-04
   3.00119996      -1.52429639E-04
   3.01320004      -1.41562137E-04
   3.02519989      -1.29072389E-04
   3.03719997      -1.14991424E-04
   3.04920006      -9.93862850E-05
   3.06119990      -8.23604278E-05
   3.07319999      -6.40530998E-05
   3.08520007      -4.46375561E-05
   3.09719992      -2.43182076E-05
   3.10920000      -3.32680543E-06
   3.12120008       1.80822954E-05
   3.13319993       3.96375399E-05
   3.14520001       6.10562638E-05
   3.15720010       8.20510832E-05
   3.16919994       1.02336599E-04
   3.18120003       1.21636032E-04
   3.19320011       1.39687778E-04
   3.20519996       1.56251495E-04
   3.21720004       1.71113832E-04
   3.22919989       1.84093326E-04
   3.24119997       1.95044602E-04
   3.25320005       2.03861637E-04
   3.26519990       2.10479964E-04
   3.27719998       2.14877946E-04
   3.28920007       2.17076726E-04
   3.30119991       2.17139255E-04
   3.31320000       2.15168082E-04
   3.32520008       2.11302264E-04
   3.33719993       2.05713208E-04
   3.34920001       1.98599839E-04
   3.36120009       1.90183011E-04
   3.37319994       1.80699601E-04
   3.38520002       1.70396175E-04
   3.39720011       1.59522795E-04
   3.40919995       1.48326624E-04
   3.42120004       1.37046212E-04
   3.43319988       1.25905804E-04
   3.44519997       1.15110655E-04
   3.45720005       1.04842780E-04
   3.46919990       9.52576884E-05
   3.48119998       8.64819231E-05
   3.49320006       7.86115197E-05
   3.50519991       7.17113508E-05
   3.51719999       6.58154167E-05
   3.52920008       6.09279195E-05
   3.54119992       5.70250522E-05
   3.55320001       5.40575129E-05
   3.56520009       5.19535388E-05
   3.57719994       5.06224351E-05
   3.58920002       4.99584494E-05
   3.60120010       4.98448717E-05
   3.61319995       5.01583054E-05
   3.62520003       5.07729310E-05
   3.63720012       5.15646825E-05
   3.64919996       5.24152711E-05
   3.66120005       5.32158374E-05
   3.67319989       5.38702770E-05
   3.68519998       5.42980051E-05
   3.69720006       5.44361865E-05
   3.70919991       5.42412272E-05
   3.72119999       5.36895677E-05
   3.73320007       5.27776683E-05
   3.74519992       5.15211650E-05
   3.75720000       4.99532180E-05
   3.76920009       4.81221359E-05
   3.78119993       4.60883130E-05
   3.79320002       4.39206633E-05
   3.80520010       4.16926814E-05
   3.81719995       3.94783747E-05
   3.82920003       3.73482108E-05
   3.84120011       3.53653413E-05
   3.85319996       3.35822770E-05
   3.86520004       3.20381987E-05
   3.87719989       3.07570590E-05
   3.88919997       2.97465958E-05
   3.90120006       2.89982745E-05
   3.91319990       2.84882226E-05
   3.92519999       2.81790581E-05
   3.93720007       2.80225067E-05
   3.94919991       2.79626565E-05
   3.96120000       2.79396299E-05
   3.97320008       2.78934222E-05
   3.98519993       2.77676936E-05
   3.99720001       2.75132697E-05
   4.00920010       2.70911187E-05
   4.02120018       2.64746777E-05
   4.03319979       2.56513686E-05
   4.04519987       2.46232394E-05
   4.05719995       2.34067465E-05
   4.06920004       2.20316524E-05
   4.08120012       2.05391898E-05
   4.09320021       1.89795555E-05
   4.10519981       1.74089528E-05
   4.11719990       1.58863368E-05
   4.12919998       1.44700634E-05
   4.14120007       1.32146788E-05
   4.15320015       1.21679905E-05
   4.16520023       1.13686292E-05
   4.17719984       1.08441827E-05
   4.18919992       1.06100115E-05
   4.20120001       1.06687621E-05
   4.21320009       1.10105675E-05
   4.22520018       1.16138972E-05
   4.23719978       1.24469670E-05
   4.24919987       1.34695892E-05
   4.26119995       1.46353841E-05
   4.27320004       1.58941675E-05
   4.28520012       1.71944321E-05
   4.29720020       1.84857690E-05
   4.30919981       1.97211048E-05
   4.32119989       2.08586662E-05
   4.33319998       2.18635741E-05
   4.34520006       2.27089968E-05
   4.35720015       2.33768533E-05
   4.36920023       2.38580378E-05
   4.38119984       2.41521720E-05
   4.39319992       2.42669594E-05
   4.40520000       2.42171827E-05
   4.41720009       2.40234003E-05
   4.42920017       2.37104596E-05
   4.44119978       2.33058781E-05
   4.45319986       2.28382087E-05
   4.46519995       2.23354346E-05
   4.47720003       2.18235200E-05
   4.48920012       2.13251406E-05
   4.50120020       2.08586880E-05
   4.51319981       2.04375883E-05
   4.52519989       2.00699487E-05
   4.53719997       1.97585887E-05
   4.54920006       1.95014036E-05
   4.56120014       1.92920706E-05
   4.57320023       1.91210256E-05
   4.58519983       1.89766615E-05
   4.59719992       1.88466456E-05
   4.60920000       1.87192800E-05
   4.62120008       1.85847712E-05
   4.63320017       1.84363398E-05
   4.64519978       1.82710610E-05
   4.65719986       1.80903626E-05
   4.66919994       1.79001345E-05
   4.68120003       1.77104157E-05
   4.69320011       1.75346813E-05
   4.70520020       1.73887765E-05
   4.71719980       1.72895343E-05
   4.72919989       1.72532018E-05
   4.74119997       1.72937816E-05
   4.75320005       1.74214183E-05
   4.76520014       1.76409339E-05
   4.77720022       1.79506897E-05
   4.78919983       1.83418288E-05
   4.80119991       1.87980095E-05
   4.81320000       1.92957050E-05
   4.82520008       1.98050293E-05
   4.83720016       2.02911051E-05
   4.84919977       2.07158591E-05
   4.86119986       2.10401595E-05
   4.87319994       2.12261220E-05
   4.88520002       2.12394571E-05
   4.89720011       2.10516573E-05
   4.90920019       2.06418918E-05
   4.92119980       1.99984661E-05
   4.93319988       1.91197378E-05
   4.94519997       1.80144416E-05
   4.95720005       1.67013677E-05
   4.96920013       1.52084358E-05
   4.98120022       1.35711916E-05
   4.99319983       1.18308517E-05
   5.00519991       1.00319749E-05
   5.01719999       8.21994399E-06
   5.02920008       6.43839940E-06
   5.04120016       4.72679949E-06
   5.05319977       3.11826011E-06
   5.06519985       1.63781851E-06
   5.07719994       3.01218506E-07
   5.08920002      -8.85705219E-07
   5.10120010      -1.92702942E-06
   5.11320019      -2.83614281E-06
   5.12519979      -3.63460526E-06
   5.13719988      -4.35055017E-06
   5.14919996      -5.01674322E-06
   5.16120005      -5.66841982E-06
   5.17320013      -6.34103571E-06
   5.18520021      -7.06805804E-06
   5.19719982      -7.87891531E-06
   5.20919991      -8.79722575E-06
   5.22119999      -9.83938298E-06
   5.23320007      -1.10135888E-05
   5.24520016      -1.23193477E-05
   5.25719976      -1.37474572E-05
   5.26919985      -1.52804860E-05
   5.28119993      -1.68936658E-05
   5.29320002      -1.85561730E-05
   5.30520010      -2.02326719E-05
   5.31720018      -2.18850528E-05
   5.32919979      -2.34742529E-05
   5.34119987      -2.49620516E-05
   5.35319996      -2.63127695E-05
   5.36520004      -2.74947652E-05
   5.37720013      -2.84817179E-05
   5.38920021      -2.92535733E-05
   5.40119982      -2.97972110E-05
   5.41319990      -3.01067594E-05
   5.42519999      -3.01835753E-05
   5.43720007      -3.00359261E-05
   5.44920015      -2.96783801E-05
   5.46120024      -2.91309771E-05
   5.47319984      -2.84182006E-05
   5.48519993      -2.75678467E-05
   5.49720001      -2.66098377E-05
   5.50920010      -2.55750583E-05
   5.52120018      -2.44942585E-05
   5.53319979      -2.33970750E-05
   5.54519987      -2.23112092E-05
   5.55719995      -2.12617906E-05
   5.56920004      -2.02708961E-05
   5.58120012      -1.93572650E-05
   5.59320021      -1.85361496E-05
   5.60519981      -1.78193186E-05
   5.61719990      -1.72151649E-05
   5.62919998      -1.67288745E-05
   5.64120007      -1.63626719E-05
   5.65320015      -1.61160697E-05
   5.66520023      -1.59861229E-05
   5.67719984      -1.59676347E-05
   5.68919992      -1.60533255E-05
   5.70120001      -1.62339493E-05
   5.71320009      -1.64983339E-05
   5.72520018      -1.68334118E-05
   5.73719978      -1.72242417E-05
   5.74919987      -1.76540361E-05
   5.76119995      -1.81043124E-05
   5.77320004      -1.85551089E-05
   5.78520012      -1.89853763E-05
   5.79720020      -1.93735068E-05
   5.80919981      -1.96980363E-05
   5.82119989      -1.99384594E-05
   5.83319998      -2.00761606E-05
   5.84520006      -2.00954000E-05
   5.85720015      -1.99842798E-05
   5.86920023      -1.97356585E-05
   5.88119984      -1.93479264E-05
   5.89319992      -1.88255617E-05
   5.90520000      -1.81794203E-05
   5.91720009      -1.74266970E-05
   5.92920017      -1.65905058E-05
   5.94119978      -1.56990609E-05
   5.95319986      -1.47844648E-05
   5.96519995      -1.38811374E-05
   5.97720003      -1.30239459E-05
   5.98920012      -1.22461606E-05
   6.00120020      -1.15773282E-05
   6.01319981      -1.10412257E-05
   6.02519989      -1.06540401E-05
   6.03719997      -1.04229021E-05
   6.04920006      -1.03449011E-05
   6.06120014      -1.04066839E-05
   6.07320023      -1.05846912E-05
   6.08519983      -1.08460590E-05
   6.09719992      -1.11501649E-05
   6.10920000      -1.14507520E-05
   6.12120008      -1.16985466E-05
   6.13320017      -1.18442185E-05
   6.14519978      -1.18415173E-05
   6.15719986      -1.16504089E-05
   6.16919994      -1.12400194E-05
   6.18120003      -1.05911677E-05
   6.19320011      -9.69834855E-06
   6.20520020      -8.57096984E-06
   6.21719980      -7.23377570E-06
   6.22919989      -5.72635690E-06
   6.24119997      -4.10175971E-06
   6.25320005      -2.42422288E-06
   6.26520014      -7.66156631E-07
   6.27720022       7.95497726E-07
   6.28919983       2.18333253E-06
   6.30119991       3.32373975E-06
   6.31320000       4.15114528E-06
   6.32520008       4.61197033E-06
   6.33720016       4.66808388E-06
   6.34919977       4.29955617E-06
   6.36119986       3.50651976E-06
   6.37319994       2.31003651E-06
   6.38520002       7.51879497E-07
   6.39720011      -1.10678184E-06
   6.40920019      -3.18775210E-06
   6.42119980      -5.39913617E-06
   6.43319988      -7.63946809E-06
   6.44519997      -9.80243294E-06
   6.45720005      -1.17819509E-05
   6.46920013      -1.34773518E-05
   6.48120022      -1.47983628E-05
   6.49319983      -1.56696642E-05
   6.50519991      -1.60347590E-05
   6.51719999      -1.58589555E-05
   6.52920008      -1.51313352E-05
   6.54120016      -1.38656033E-05
   6.55319977      -1.20997611E-05
   6.56519985      -9.89467480E-06
   6.57719994      -7.33156185E-06
   6.58920002      -4.50856578E-06
   6.60120010      -1.53655435E-06
   6.61320019       1.46563650E-06
   6.62519979       4.37629660E-06
   6.63719988       7.07602339E-06
   6.64919996       9.45276770E-06
   6.66120005       1.14064978E-05
   6.67320013       1.28532947E-05
   6.68520021       1.37287134E-05
   6.69719982       1.39902913E-05
   6.70919991       1.36191147E-05
   6.72119999       1.26204322E-05
   6.73320007       1.10233150E-05
   6.74520016       8.87940678E-06
   6.75719976       6.26084284E-06
   6.76919985       3.25742440E-06
   6.78119993      -2.68170588E-08
   6.79320002      -3.47754485E-06
   6.80520010      -6.97437736E-06
   6.81720018      -1.03953316E-05
   6.82919979      -1.36212902E-05
   6.84119987      -1.65403471E-05
   6.85319996      -1.90518676E-05
   6.86520004      -2.10701419E-05
   6.87720013      -2.25275217E-05
   6.88920021      -2.33768933E-05
   6.90119982      -2.35934695E-05
   6.91319990      -2.31757494E-05
   6.92519999      -2.21456594E-05
   6.93720007      -2.05478027E-05
   6.94920015      -1.84478413E-05
   6.96120024      -1.59300325E-05
   6.97319984      -1.30939943E-05
   6.98519993      -1.00508041E-05
   6.99720001      -6.91856440E-06
   7.00920010      -3.81762220E-06
   7.02120018      -8.65625850E-07
   7.03319979       1.82736835E-06
   7.04519987       4.16352441E-06
   7.05719995       6.06138428E-06
   7.06920004       7.45935449E-06
   7.08120012       8.31835223E-06
   7.09320021       8.62346678E-06
   7.10519981       8.38454525E-06
   7.11719990       7.63564549E-06
   7.12919998       6.43336580E-06
   7.14120007       4.85413693E-06
   7.15320015       2.99056796E-06
   7.16520023       9.47054389E-07
   7.17719984      -1.16515321E-06
   7.18919992      -3.23316840E-06
   7.20120001      -5.14771727E-06
   7.21320009      -6.80815947E-06
   7.22520018      -8.12702729E-06
   7.23719978      -9.03387900E-06
   7.24919987      -9.47827266E-06
   7.26119995      -9.43174200E-06
   7.27320004      -8.88869454E-06
   7.28520012      -7.86619239E-06
   7.29720020      -6.40269309E-06
   7.30919981      -4.55580221E-06
   7.32119989      -2.39920610E-06
   7.33319998      -1.89531377E-08
   7.34520006       2.49071445E-06
   7.35720015       5.03176398E-06
   7.36920023       7.50678691E-06
   7.38119984       9.82323036E-06
   7.39319992       1.18972530E-05
   7.40520000       1.36570497E-05
   7.41720009       1.50455162E-05
   7.42920017       1.60221698E-05
   7.44119978       1.65642814E-05
   7.45319986       1.66671871E-05
   7.46519995       1.63438399E-05
   7.47720003       1.56236129E-05
   7.48920012       1.45504864E-05
   7.50120020       1.31807037E-05
   7.51319981       1.15800194E-05
   7.52519989       9.82068286E-06
   7.53719997       7.97829125E-06
   7.54920006       6.12865324E-06
   7.56120014       4.34478761E-06
   7.57320023       2.69418092E-06
   7.58519983       1.23640120E-06
   7.59719992       2.11545892E-08
   7.60920000      -9.13166787E-07
   7.62120008      -1.54040538E-06
   7.63320017      -1.84703094E-06
   7.64519978      -1.83201382E-06
   7.65719986      -1.50621827E-06
   7.66919994      -8.91375862E-07
   7.68120003      -1.86981381E-08
   7.69320011       1.07279050E-06
   7.70520020       2.33811966E-06
   7.71719980       3.72835052E-06
   7.72919989       5.19258356E-06
   7.74119997       6.67991617E-06
   7.75320005       8.14127361E-06
   7.76520014       9.53106792E-06
   7.77720022       1.08086224E-05
   7.78919983       1.19393471E-05
   7.80119991       1.28956426E-05
   7.81320000       1.36575236E-05
   7.82520008       1.42129757E-05
   7.83720016       1.45580298E-05
   7.84919977       1.46965913E-05
   7.86119986       1.46400043E-05
   7.87319994       1.44063852E-05
   7.88520002       1.40197362E-05
   7.89720011       1.35088576E-05
   7.90920019       1.29061027E-05
   7.92119980       1.22459924E-05
   7.93319988       1.15637549E-05
   7.94519997       1.08938220E-05
   7.95720005       1.02683271E-05
   7.96920013       9.71568534E-06
   7.98120022       9.25928725E-06
   7.99319983       8.91637956E-06
   8.00520039       8.69719315E-06
   8.01720047       8.60436376E-06
   8.02919960       8.63271725E-06
   8.04119968       8.76942249E-06
   8.05319977       8.99455335E-06
   8.06519985       9.28203735E-06
   8.07719994       9.60096622E-06
   8.08920002       9.91719662E-06
   8.10120010       1.01951900E-05
   8.11320019       1.03999628E-05
   8.12520027       1.04990659E-05
   8.13720036       1.04644660E-05
   8.14920044       1.02742370E-05
   8.16119957       9.91393244E-06
   8.17319965       9.37760069E-06
   8.18519974       8.66833670E-06
   8.19719982       7.79835955E-06
   8.20919991       6.78860533E-06
   8.22119999       5.66785502E-06
   8.23320007       4.47144066E-06
   8.24520016       3.23961285E-06
   8.25720024       2.01566195E-06
   8.26920033       8.43892906E-07
   8.28120041      -2.32419836E-07
   8.29319954      -1.17298657E-06
   8.30519962      -1.94226186E-06
   8.31719971      -2.51091137E-06
   8.32919979      -2.85692477E-06
   8.34119987      -2.96632970E-06
   8.35319996      -2.83350073E-06
   8.36520004      -2.46108789E-06
   8.37720013      -1.85960130E-06
   8.38920021      -1.04672472E-06
   8.40120029      -4.64186733E-08
   8.41320038       1.11210579E-06
   8.42520046       2.39548012E-06
   8.43719959       3.76728713E-06
   8.44919968       5.18914294E-06
   8.46119976       6.62172033E-06
   8.47319984       8.02570412E-06
   8.48519993       9.36265678E-06
   8.49720001       1.05958161E-05
   8.50920010       1.16908150E-05
   8.52120018       1.26163504E-05
   8.53320026       1.33448166E-05
   8.54520035       1.38529276E-05
   8.55720043       1.41223345E-05
   8.56919956       1.41402497E-05
   8.58119965       1.39000522E-05
   8.59319973       1.34018555E-05
   8.60519981       1.26529667E-05
   8.61719990       1.16682040E-05
   8.62919998       1.04699720E-05
   8.64120007       9.08807851E-06
   8.65320015       7.55921383E-06
   8.66520023       5.92609922E-06
   8.67720032       4.23630809E-06
   8.68920040       2.54079077E-06
   8.70119953       8.92165588E-07
   8.71319962      -6.57156136E-07
   8.72519970      -2.05692118E-06
   8.73719978      -3.26097643E-06
   8.74919987      -4.22911171E-06
   8.76119995      -4.92871277E-06
   8.77320004      -5.33614639E-06
   8.78520012      -5.43779379E-06
   8.79720020      -5.23068320E-06
   8.80920029      -4.72267038E-06
   8.82120037      -3.93215078E-06
   8.83320045      -2.88731667E-06
   8.84519958      -1.62499009E-06
   8.85719967      -1.89101030E-07
   8.86919975       1.37110578E-06
   8.88119984       3.00303327E-06
   8.89319992       4.65276253E-06
   8.90520000       6.26705287E-06
   8.91720009       7.79521815E-06
   8.92920017       9.19081867E-06
   8.94120026       1.04131168E-05
   8.95320034       1.14282475E-05
   8.96520042       1.22101001E-05
   8.97719955       1.27408875E-05
   8.98919964       1.30113976E-05
   9.00119972       1.30209382E-05
   9.01319981       1.27769736E-05
   9.02519989       1.22944857E-05
   9.03719997       1.15950943E-05
   9.04920006       1.07059705E-05
   9.06120014       9.65862273E-06
   9.07320023       8.48759555E-06
   9.08520031       7.22916275E-06
   9.09720039       5.92006018E-06
   9.10919952       4.59630655E-06
   9.12119961       3.29214208E-06
   9.13319969       2.03912123E-06
   9.14519978       8.65362040E-07
   9.15719986      -2.05021593E-07
   9.16919994      -1.15230262E-06
   9.18120003      -1.96131919E-06
   9.19320011      -2.62144954E-06
   9.20520020      -3.12638645E-06
   9.21720028      -3.47372657E-06
   9.22920036      -3.66441782E-06
   9.24120045      -3.70209864E-06
   9.25319958      -3.59239925E-06
   9.26519966      -3.34225251E-06
   9.27719975      -2.95927930E-06
   9.28919983      -2.45128695E-06
   9.30119991      -1.82591339E-06
   9.31320000      -1.09043128E-06
   9.32520008      -2.51711270E-07
   9.33720016       6.83665235E-07
   9.34920025       1.70916621E-06
   9.36120033       2.81797384E-06
   9.37320042       4.00258705E-06
   9.38519955       5.25441101E-06
   9.39719963       6.56337170E-06
   9.40919971       7.91761613E-06
   9.42119980       9.30333135E-06
   9.43319988       1.07047226E-05
   9.44519997       1.21041758E-05
