 -0.622799993       0.00000000    
 -0.610800028       0.00000000    
 -0.598800004       0.00000000    
 -0.586799979       0.00000000    
 -0.574800014       0.00000000    
 -0.562799990       2.94023934E-22
 -0.550800025       1.50865425E-21
 -0.538800001       7.46172499E-22
 -0.526799977      -2.09480227E-20
 -0.514800012      -1.14052141E-19
 -0.502799988      -3.47108275E-19
 -0.490799993      -7.10136727E-19
 -0.478799999      -9.08739897E-19
 -0.466800004      -1.44121061E-19
 -0.454800010       2.83433913E-18
 -0.442799985       8.99834202E-18
 -0.430799991       1.74148419E-17
 -0.418799996       2.31809955E-17
 -0.406800002       1.64123800E-17
 -0.394800007      -1.54138870E-17
 -0.382800013      -7.98421793E-17
 -0.370799989      -1.67039146E-16
 -0.358799994      -2.37453405E-16
 -0.346799999      -2.18975024E-16
 -0.334800005      -2.46446866E-17
 -0.322800010       4.02982066E-16
 -0.310799986       1.02780026E-15
 -0.298799992       1.66185175E-15
 -0.286799997       1.95365333E-15
 -0.274800003       1.46487201E-15
 -0.262800008      -1.46802152E-16
 -0.250800014      -2.87039751E-15
 -0.238800004      -6.10380243E-15
 -0.226799995      -8.57530481E-15
 -0.214800000      -8.56072822E-15
 -0.202800006      -4.45412064E-15
 -0.190799996       4.39917530E-15
 -0.178800002       1.68756881E-14
 -0.166800007       2.96508118E-14
 -0.154799998       3.75717151E-14
 -0.142800003       3.50224983E-14
 -0.130799994       1.81069420E-14
 -0.118799999      -1.29674527E-14
 -0.106799997      -5.22551329E-14
  -9.48000029E-02  -8.81744561E-14
  -8.28000009E-02  -1.05948250E-13
  -7.07999989E-02  -9.22088062E-14
  -5.88000007E-02  -4.06367580E-14
  -4.67999987E-02   4.32789282E-14
  -3.48000005E-02   1.40497558E-13
  -2.28000004E-02   2.21256756E-13
  -1.08000003E-02   2.52669305E-13
   1.20000006E-03   2.09491739E-13
   1.31999999E-02   8.48705668E-14
   2.52000000E-02  -1.02858118E-13
   3.72000001E-02  -3.10633219E-13
   4.91999984E-02  -4.79733440E-13
   6.12000003E-02  -5.51925096E-13
   7.32000023E-02  -4.88376538E-13
   8.51999968E-02  -2.85332711E-13
   9.71999988E-02   1.92390490E-14
  0.109200001       3.51516071E-13
  0.121200003       6.19860771E-13
  0.133200005       7.40552639E-13
  0.145199999       6.63710081E-13
  0.157199994       3.91165697E-13
  0.169200003      -1.99584645E-14
  0.181199998      -4.70026470E-13
  0.193200007      -8.42961334E-13
  0.205200002      -1.03823688E-12
  0.217199996      -9.99325839E-13
  0.229200006      -7.30032517E-13
  0.241200000      -2.93728420E-13
  0.253199995       2.04353624E-13
  0.265199989       6.46564887E-13
  0.277200013       9.35415048E-13
  0.289200008       1.01985879E-12
  0.301200002       9.07796841E-13
  0.313199997       6.61247207E-13
  0.325199991       3.75464877E-13
  0.337199986       1.47666452E-13
  0.349200010       4.39309877E-14
  0.361200005       7.36629453E-14
  0.373199999       1.79575660E-13
  0.385199994       2.47755375E-13
  0.397199988       1.37557649E-13
  0.409200013      -2.74227852E-13
  0.421200007      -1.04521556E-12
  0.433200002      -2.12835652E-12
  0.445199996      -3.35484635E-12
  0.457199991      -4.44803916E-12
  0.469199985      -5.07024501E-12
  0.481200010      -4.89529771E-12
  0.493200004      -3.69143128E-12
  0.505200028      -1.39402660E-12
  0.517199993       1.85161803E-12
  0.529200017       5.69070789E-12
  0.541199982       9.60448995E-12
  0.553200006       1.29903926E-11
  0.565199971       1.52566484E-11
  0.577199996       1.59081706E-11
  0.589200020       1.46051522E-11
  0.601199985       1.11869984E-11
  0.613200009       5.66785377E-12
  0.625199974      -1.77907179E-12
  0.637199998      -1.08273277E-11
  0.649200022      -2.09776762E-11
  0.661199987      -3.15111305E-11
  0.673200011      -4.14298977E-11
  0.685199976      -4.94166721E-11
  0.697200000      -5.38504658E-11
  0.709200025      -5.29135104E-11
  0.721199989      -4.48089621E-11
  0.733200014      -2.80852598E-11
  0.745199978      -2.03489764E-12
  0.757200003       3.28912939E-11
  0.769200027       7.47339274E-11
  0.781199992       1.19827925E-10
  0.793200016       1.62843058E-10
  0.805199981       1.97125677E-10
  0.817200005       2.15367418E-10
  0.829200029       2.10573642E-10
  0.841199994       1.77244108E-10
  0.853200018       1.12619220E-10
  0.865199983       1.78025528E-11
  0.877200007      -1.01444034E-10
  0.889199972      -2.34412878E-10
  0.901199996      -3.65789593E-10
  0.913200021      -4.76650774E-10
  0.925199986      -5.46054757E-10
  0.937200010      -5.53077695E-10
  0.949199975      -4.79099871E-10
  0.961199999      -3.10139053E-10
  0.973200023      -3.90574934E-11
  0.985199988       3.32477795E-10
  0.997200012       7.92356181E-10
   1.00919998       1.31675137E-09
   1.02119994       1.86925364E-09
   1.03320003       2.40044695E-09
   1.04519999       2.84794299E-09
   1.05719995       3.13680393E-09
   1.06920004       3.18011106E-09
   1.08120000       2.87915558E-09
   1.09319997       2.12238982E-09
   1.10520005       7.81822218E-10
   1.11720002      -1.29481981E-09
   1.12919998      -4.29826308E-09
   1.14119995      -8.48053716E-09
   1.15320003      -1.41889940E-08
   1.16520000      -2.19139835E-08
   1.17719996      -3.23525384E-08
   1.18920004      -4.64900367E-08
   1.20120001      -6.57011512E-08
   1.21319997      -9.18706320E-08
   1.22520006      -1.27533212E-07
   1.23720002      -1.76030369E-07
   1.24919999      -2.41680226E-07
   1.26119995      -3.29954560E-07
   1.27320004      -4.47655083E-07
   1.28520000      -6.03079570E-07
   1.29719996      -8.06166668E-07
   1.30920005      -1.06860625E-06
   1.32120001      -1.40390352E-06
   1.33319998      -1.82738188E-06
   1.34519994      -2.35611196E-06
   1.35720003      -3.00875467E-06
   1.36919999      -3.80530923E-06
   1.38119996      -4.76675359E-06
   1.39320004      -5.91457865E-06
   1.40520000      -7.27021188E-06
   1.41719997      -8.85433928E-06
   1.42920005      -1.06861307E-05
   1.44120002      -1.27824005E-05
   1.45319998      -1.51567110E-05
   1.46519995      -1.78184600E-05
   1.47720003      -2.07719913E-05
   1.48920000      -2.40157642E-05
   1.50119996      -2.75416151E-05
   1.51320004      -3.13341734E-05
   1.52520001      -3.53704745E-05
   1.53719997      -3.96197793E-05
   1.54920006      -4.40436525E-05
   1.56120002      -4.85963537E-05
   1.57319999      -5.32254671E-05
   1.58519995      -5.78729014E-05
   1.59720004      -6.24761087E-05
   1.60920000      -6.69695728E-05
   1.62119997      -7.12865440E-05
   1.63320005      -7.53609056E-05
   1.64520001      -7.91291895E-05
   1.65719998      -8.25324969E-05
   1.66919994      -8.55185353E-05
   1.68120003      -8.80433145E-05
   1.69319999      -9.00728191E-05
   1.70519996      -9.15841883E-05
   1.71720004      -9.25666536E-05
   1.72920001      -9.30220267E-05
   1.74119997      -9.29646994E-05
   1.75320005      -9.24212145E-05
   1.76520002      -9.14293269E-05
   1.77719998      -9.00366795E-05
   1.78919995      -8.82990207E-05
   1.80120003      -8.62782035E-05
   1.81320000      -8.40398498E-05
   1.82519996      -8.16509782E-05
   1.83720005      -7.91775747E-05
   1.84920001      -7.66822850E-05
   1.86119998      -7.42222983E-05
   1.87320006      -7.18475421E-05
   1.88520002      -6.95993440E-05
   1.89719999      -6.75094489E-05
   1.90919995      -6.55996482E-05
   1.92120004      -6.38818383E-05
   1.93320000      -6.23586384E-05
   1.94519997      -6.10244824E-05
   1.95720005      -5.98670231E-05
   1.96920002      -5.88688781E-05
   1.98119998      -5.80095439E-05
   1.99319994      -5.72673307E-05
   2.00519991      -5.66212402E-05
   2.01719999      -5.60526969E-05
   2.02920008      -5.55468869E-05
   2.04119992      -5.50938094E-05
   2.05320001      -5.46888259E-05
   2.06520009      -5.43327806E-05
   2.07719994      -5.40316214E-05
   2.08920002      -5.37956112E-05
   2.10120010      -5.36381667E-05
   2.11319995      -5.35744402E-05
   2.12520003      -5.36196894E-05
   2.13720012      -5.37876622E-05
   2.14919996      -5.40889923E-05
   2.16120005      -5.45298390E-05
   2.17319989      -5.51107769E-05
   2.18519998      -5.58260981E-05
   2.19720006      -5.66635208E-05
   2.20919991      -5.76043421E-05
   2.22119999      -5.86240894E-05
   2.23320007      -5.96935024E-05
   2.24519992      -6.07799666E-05
   2.25720000      -6.18491395E-05
   2.26920009      -6.28668131E-05
   2.28119993      -6.38008205E-05
   2.29320002      -6.46228582E-05
   2.30520010      -6.53102470E-05
   2.31719995      -6.58473728E-05
   2.32920003      -6.62268212E-05
   2.34120011      -6.64501276E-05
   2.35319996      -6.65280386E-05
   2.36520004      -6.64803738E-05
   2.37719989      -6.63353858E-05
   2.38919997      -6.61287195E-05
   2.40120006      -6.59019715E-05
   2.41319990      -6.57009514E-05
   2.42519999      -6.55737094E-05
   2.43720007      -6.55684489E-05
   2.44919991      -6.57313503E-05
   2.46120000      -6.61045415E-05
   2.47320008      -6.67241329E-05
   2.48519993      -6.76186028E-05
   2.49720001      -6.88074288E-05
   2.50920010      -7.03001715E-05
   2.52119994      -7.20959943E-05
   2.53320003      -7.41836411E-05
   2.54520011      -7.65418881E-05
   2.55719995      -7.91404673E-05
   2.56920004      -8.19413908E-05
   2.58119988      -8.49006246E-05
   2.59319997      -8.79700456E-05
   2.60520005      -9.10995295E-05
   2.61719990      -9.42391998E-05
   2.62919998      -9.73415008E-05
   2.64120007      -1.00363235E-04
   2.65319991      -1.03267295E-04
   2.66520000      -1.06024090E-04
   2.67720008      -1.08612592E-04
   2.68919992      -1.11020898E-04
   2.70120001      -1.13246380E-04
   2.71320009      -1.15295377E-04
   2.72519994      -1.17182470E-04
   2.73720002      -1.18929434E-04
   2.74920011      -1.20563855E-04
   2.76119995      -1.22117592E-04
   2.77320004      -1.23625083E-04
   2.78520012      -1.25121704E-04
   2.79719996      -1.26642131E-04
   2.80920005      -1.28218831E-04
   2.82119989      -1.29880849E-04
   2.83319998      -1.31652720E-04
   2.84520006      -1.33553651E-04
   2.85719991      -1.35597060E-04
   2.86919999      -1.37790164E-04
   2.88120008      -1.40134056E-04
   2.89319992      -1.42623670E-04
   2.90520000      -1.45248021E-04
   2.91720009      -1.47990679E-04
   2.92919993      -1.50830107E-04
   2.94120002      -1.53740228E-04
   2.95320010      -1.56690963E-04
   2.96519995      -1.59648931E-04
   2.97720003      -1.62578115E-04
   2.98920012      -1.65440637E-04
   3.00119996      -1.68197672E-04
   3.01320004      -1.70810250E-04
   3.02519989      -1.73240434E-04
   3.03719997      -1.75452253E-04
   3.04920006      -1.77412890E-04
   3.06119990      -1.79093739E-04
   3.07319999      -1.80471397E-04
   3.08520007      -1.81528667E-04
   3.09719992      -1.82255171E-04
   3.10920000      -1.82647884E-04
   3.12120008      -1.82711243E-04
   3.13319993      -1.82457021E-04
   3.14520001      -1.81903728E-04
   3.15720010      -1.81075680E-04
   3.16919994      -1.80001793E-04
   3.18120003      -1.78714094E-04
   3.19320011      -1.77245965E-04
   3.20519996      -1.75630441E-04
   3.21720004      -1.73898443E-04
   3.22919989      -1.72077169E-04
   3.24119997      -1.70188738E-04
   3.25320005      -1.68249157E-04
   3.26519990      -1.66267680E-04
   3.27719998      -1.64246740E-04
   3.28920007      -1.62182172E-04
   3.30119991      -1.60064083E-04
   3.31320000      -1.57877963E-04
   3.32520008      -1.55606293E-04
   3.33719993      -1.53230285E-04
   3.34920001      -1.50731677E-04
   3.36120009      -1.48094652E-04
   3.37319994      -1.45307524E-04
   3.38520002      -1.42364166E-04
   3.39720011      -1.39265190E-04
   3.40919995      -1.36018614E-04
   3.42120004      -1.32640242E-04
   3.43319988      -1.29153414E-04
   3.44519997      -1.25588558E-04
   3.45720005      -1.21982230E-04
   3.46919990      -1.18375800E-04
   3.48119998      -1.14814036E-04
   3.49320006      -1.11343434E-04
   3.50519991      -1.08010478E-04
   3.51719999      -1.04859988E-04
   3.52920008      -1.01933423E-04
   3.54119992      -9.92675268E-05
   3.55320001      -9.68929889E-05
   3.56520009      -9.48335437E-05
   3.57719994      -9.31051327E-05
   3.58920002      -9.17154612E-05
   3.60120010      -9.06637433E-05
   3.61319995      -8.99407023E-05
   3.62520003      -8.95287376E-05
   3.63720012      -8.94023833E-05
   3.64919996      -8.95287812E-05
   3.66120005      -8.98685103E-05
   3.67319989      -9.03763575E-05
   3.68519998      -9.10023518E-05
   3.69720006      -9.16929421E-05
   3.70919991      -9.23921980E-05
   3.72119999      -9.30431706E-05
   3.73320007      -9.35893477E-05
   3.74519992      -9.39761885E-05
   3.75720000      -9.41526596E-05
   3.76920009      -9.40727987E-05
   3.78119993      -9.36972792E-05
   3.79320002      -9.29947782E-05
   3.80520010      -9.19433442E-05
   3.81719995      -9.05313937E-05
   3.82920003      -8.87586211E-05
   3.84120011      -8.66364280E-05
   3.85319996      -8.41880683E-05
   3.86520004      -8.14483865E-05
   3.87719989      -7.84630756E-05
   3.88919997      -7.52875349E-05
   3.90120006      -7.19853633E-05
   3.91319990      -6.86264102E-05
   3.92519999      -6.52845920E-05
   3.93720007      -6.20354840E-05
   3.94919991      -5.89537340E-05
   3.96120000      -5.61105517E-05
   3.97320008      -5.35711988E-05
   3.98519993      -5.13926898E-05
   3.99720001      -4.96217799E-05
   4.00920010      -4.82932955E-05
   4.02120018      -4.74289227E-05
   4.03319979      -4.70364248E-05
   4.04519987      -4.71094172E-05
   4.05719995      -4.76276582E-05
   4.06920004      -4.85578130E-05
   4.08120012      -4.98547161E-05
   4.09320021      -5.14630447E-05
   4.10519981      -5.33193306E-05
   4.11719990      -5.53542450E-05
   4.12919998      -5.74949991E-05
   4.14120007      -5.96678547E-05
   4.15320015      -6.18005797E-05
   4.16520023      -6.38247730E-05
   4.17719984      -6.56779885E-05
   4.18919992      -6.73055692E-05
   4.20120001      -6.86621424E-05
   4.21320009      -6.97126743E-05
   4.22520018      -7.04331542E-05
   4.23719978      -7.08107618E-05
   4.24919987      -7.08436928E-05
   4.26119995      -7.05405546E-05
   4.27320004      -6.99193843E-05
   4.28520012      -6.90064771E-05
   4.29720020      -6.78349315E-05
   4.30919981      -6.64431209E-05
   4.32119989      -6.48730856E-05
   4.33319998      -6.31689691E-05
   4.34520006      -6.13754310E-05
   4.35720015      -5.95362981E-05
   4.36920023      -5.76932762E-05
   4.38119984      -5.58849242E-05
   4.39319992      -5.41457994E-05
   4.40520000      -5.25058713E-05
   4.41720009      -5.09901256E-05
   4.42920017      -4.96183929E-05
   4.44119978      -4.84053526E-05
   4.45319986      -4.73606851E-05
   4.46519995      -4.64893710E-05
   4.47720003      -4.57920250E-05
   4.48920012      -4.52653658E-05
   4.50120020      -4.49026811E-05
   4.51319981      -4.46943814E-05
   4.52519989      -4.46285267E-05
   4.53719997      -4.46914237E-05
   4.54920006      -4.48681712E-05
   4.56120014      -4.51432279E-05
   4.57320023      -4.55009103E-05
   4.58519983      -4.59258663E-05
   4.59719992      -4.64034601E-05
   4.60920000      -4.69201186E-05
   4.62120008      -4.74635635E-05
   4.63320017      -4.80230265E-05
   4.64519978      -4.85893506E-05
   4.65719986      -4.91550236E-05
   4.66919994      -4.97141591E-05
   4.68120003      -5.02623770E-05
   4.69320011      -5.07966543E-05
   4.70520020      -5.13150590E-05
   4.71719980      -5.18165252E-05
   4.72919989      -5.23005328E-05
   4.74119997      -5.27668417E-05
   4.75320005      -5.32151898E-05
   4.76520014      -5.36450389E-05
   4.77720022      -5.40553483E-05
   4.78919983      -5.44443246E-05
   4.80119991      -5.48092466E-05
   4.81320000      -5.51463127E-05
   4.82520008      -5.54504950E-05
   4.83720016      -5.57154672E-05
   4.84919977      -5.59336368E-05
   4.86119986      -5.60961889E-05
   4.87319994      -5.61933120E-05
   4.88520002      -5.62144742E-05
   4.89720011      -5.61488268E-05
   4.90920019      -5.59857181E-05
   4.92119980      -5.57152598E-05
   4.93319988      -5.53289792E-05
   4.94519997      -5.48205426E-05
   4.95720005      -5.41864574E-05
   4.96920013      -5.34268074E-05
   4.98120022      -5.25458672E-05
   4.99319983      -5.15526917E-05
   5.00519991      -5.04614545E-05
   5.01719999      -4.92916224E-05
   5.02920008      -4.80678209E-05
   5.04120016      -4.68194412E-05
   5.05319977      -4.55799382E-05
   5.06519985      -4.43858335E-05
   5.07719994      -4.32755041E-05
   5.08920002      -4.22877310E-05
   5.10120010      -4.14601927E-05
   5.11320019      -4.08278029E-05
   5.12519979      -4.04211387E-05
   5.13719988      -4.02649421E-05
   5.14919996      -4.03767554E-05
   5.16120005      -4.07658372E-05
   5.17320013      -4.14323549E-05
   5.18520021      -4.23669335E-05
   5.19719982      -4.35506408E-05
   5.20919991      -4.49552972E-05
   5.22119999      -4.65442827E-05
   5.23320007      -4.82736177E-05
   5.24520016      -5.00933857E-05
   5.25719976      -5.19493915E-05
   5.26919985      -5.37849955E-05
   5.28119993      -5.55430197E-05
   5.29320002      -5.71676828E-05
   5.30520010      -5.86064962E-05
   5.31720018      -5.98120532E-05
   5.32919979      -6.07436159E-05
   5.34119987      -6.13685334E-05
   5.35319996      -6.16633479E-05
   5.36520004      -6.16146062E-05
   5.37720013      -6.12193326E-05
   5.38920021      -6.04851921E-05
   5.40119982      -5.94302619E-05
   5.41319990      -5.80825363E-05
   5.42519999      -5.64791007E-05
   5.43720007      -5.46650845E-05
   5.44920015      -5.26923577E-05
   5.46120024      -5.06180586E-05
   5.47319984      -4.85029705E-05
   5.48519993      -4.64097611E-05
   5.49720001      -4.44011639E-05
   5.50920010      -4.25380967E-05
   5.52120018      -4.08778142E-05
   5.53319979      -3.94721428E-05
   5.54519987      -3.83658080E-05
   5.55719995      -3.75949858E-05
   5.56920004      -3.71860770E-05
   5.58120012      -3.71547867E-05
   5.59320021      -3.75055606E-05
   5.60519981      -3.82313629E-05
   5.61719990      -3.93138798E-05
   5.62919998      -4.07241059E-05
   5.64120007      -4.24233222E-05
   5.65320015      -4.43644603E-05
   5.66520023      -4.64937912E-05
   5.67719984      -4.87528341E-05
   5.68919992      -5.10805221E-05
   5.70120001      -5.34153733E-05
   5.71320009      -5.56977211E-05
   5.72520018      -5.78717518E-05
   5.73719978      -5.98873849E-05
   5.74919987      -6.17017795E-05
   5.76119995      -6.32804804E-05
   5.77320004      -6.45981272E-05
   5.78520012      -6.56386837E-05
   5.79720020      -6.63952524E-05
   5.80919981      -6.68694192E-05
   5.82119989      -6.70703230E-05
   5.83319998      -6.70133377E-05
   5.84520006      -6.67186760E-05
   5.85720015      -6.62098828E-05
   5.86920023      -6.55123440E-05
   5.88119984      -6.46519620E-05
   5.89319992      -6.36539626E-05
   5.90520000      -6.25420216E-05
   5.91720009      -6.13377269E-05
   5.92920017      -6.00602543E-05
   5.94119978      -5.87264331E-05
   5.95319986      -5.73510370E-05
   5.96519995      -5.59472646E-05
   5.97720003      -5.45273870E-05
   5.98920012      -5.31034166E-05
   6.00120020      -5.16877335E-05
   6.01319981      -5.02936200E-05
   6.02519989      -4.89356280E-05
   6.03719997      -4.76297027E-05
   6.04920006      -4.63931174E-05
   6.06120014      -4.52441382E-05
   6.07320023      -4.42015080E-05
   6.08519983      -4.32837842E-05
   6.09719992      -4.25085454E-05
   6.10920000      -4.18915806E-05
   6.12120008      -4.14460665E-05
   6.13320017      -4.11818473E-05
   6.14519978      -4.11048022E-05
   6.15719986      -4.12163899E-05
   6.16919994      -4.15133618E-05
   6.18120003      -4.19876706E-05
   6.19320011      -4.26265906E-05
   6.20520020      -4.34130270E-05
   6.21719980      -4.43259669E-05
   6.22919989      -4.53411158E-05
   6.24119997      -4.64316181E-05
   6.25320005      -4.75688539E-05
   6.26520014      -4.87232501E-05
   6.27720022      -4.98650952E-05
   6.28919983      -5.09653328E-05
   6.30119991      -5.19962923E-05
   6.31320000      -5.29323224E-05
   6.32520008      -5.37504093E-05
   6.33720016      -5.44306713E-05
   6.34919977      -5.49568140E-05
   6.36119986      -5.53164682E-05
   6.37319994      -5.55014594E-05
   6.38520002      -5.55079569E-05
   6.39720011      -5.53365280E-05
   6.40920019      -5.49920442E-05
   6.42119980      -5.44834875E-05
   6.43319988      -5.38236127E-05
   6.44519997      -5.30285433E-05
   6.45720005      -5.21172260E-05
   6.46920013      -5.11108556E-05
   6.48120022      -5.00322167E-05
   6.49319983      -4.89050290E-05
   6.50519991      -4.77532449E-05
   6.51719999      -4.66003985E-05
   6.52920008      -4.54689798E-05
   6.54120016      -4.43798745E-05
   6.55319977      -4.33519053E-05
   6.56519985      -4.24014906E-05
   6.57719994      -4.15424583E-05
   6.58920002      -4.07859443E-05
   6.60120010      -4.01404868E-05
   6.61320019      -3.96122014E-05
   6.62519979      -3.92050279E-05
   6.63719988      -3.89210509E-05
   6.64919996      -3.87608088E-05
   6.66120005      -3.87236214E-05
   6.67320013      -3.88078079E-05
   6.68520021      -3.90108835E-05
   6.69719982      -3.93296759E-05
   6.70919991      -3.97603580E-05
   6.72119999      -4.02984224E-05
   6.73320007      -4.09386121E-05
   6.74520016      -4.16747571E-05
   6.75719976      -4.24996761E-05
   6.76919985      -4.34049980E-05
   6.78119993      -4.43810713E-05
   6.79320002      -4.54168803E-05
   6.80520010      -4.65000448E-05
   6.81720018      -4.76168789E-05
   6.82919979      -4.87525576E-05
   6.84119987      -4.98913578E-05
   6.85319996      -5.10169448E-05
   6.86520004      -5.21127258E-05
   6.87720013      -5.31622281E-05
   6.88920021      -5.41494301E-05
   6.90119982      -5.50591176E-05
   6.91319990      -5.58771681E-05
   6.92519999      -5.65907249E-05
   6.93720007      -5.71884084E-05
   6.94920015      -5.76603816E-05
   6.96120024      -5.79984262E-05
   6.97319984      -5.81959612E-05
   6.98519993      -5.82480934E-05
   6.99720001      -5.81516360E-05
   7.00920010      -5.79051884E-05
   7.02120018      -5.75092236E-05
   7.03319979      -5.69662516E-05
   7.04519987      -5.62809510E-05
   7.05719995      -5.54603830E-05
   7.06920004      -5.45141920E-05
   7.08120012      -5.34547653E-05
   7.09320021      -5.22973787E-05
   7.10519981      -5.10602622E-05
   7.11719990      -4.97645560E-05
   7.12919998      -4.84341144E-05
   7.14120007      -4.70952000E-05
   7.15320015      -4.57759888E-05
   7.16520023      -4.45059013E-05
   7.17719984      -4.33148089E-05
   7.18919992      -4.22320991E-05
   7.20120001      -4.12856789E-05
   7.21320009      -4.05009523E-05
   7.22520018      -3.98998345E-05
   7.23719978      -3.94998533E-05
   7.24919987      -3.93134105E-05
   7.26119995      -3.93472146E-05
   7.27320004      -3.96020005E-05
   7.28520012      -4.00724311E-05
   7.29720020      -4.07473381E-05
   7.30919981      -4.16101502E-05
   7.32119989      -4.26396036E-05
   7.33319998      -4.38106181E-05
   7.34520006      -4.50953303E-05
   7.35720015      -4.64642144E-05
   7.36920023      -4.78871807E-05
   7.38119984      -4.93346524E-05
   7.39319992      -5.07785262E-05
   7.40520000      -5.21929178E-05
   7.41720009      -5.35547297E-05
   7.42920017      -5.48439966E-05
   7.44119978      -5.60439366E-05
   7.45319986      -5.71408636E-05
   7.46519995      -5.81238601E-05
   7.47720003      -5.89843185E-05
   7.48920012      -5.97154503E-05
   7.50120020      -6.03117223E-05
   7.51319981      -6.07683796E-05
   7.52519989      -6.10810603E-05
   7.53719997      -6.12455769E-05
   7.54920006      -6.12578733E-05
   7.56120014      -6.11141950E-05
   7.57320023      -6.08114533E-05
   7.58519983      -6.03477492E-05
   7.59719992      -5.97230501E-05
   7.60920000      -5.89399060E-05
   7.62120008      -5.80041378E-05
   7.63320017      -5.69254989E-05
   7.64519978      -5.57181120E-05
   7.65719986      -5.44007271E-05
   7.66919994      -5.29967147E-05
   7.68120003      -5.15337670E-05
   7.69320011      -5.00432870E-05
   7.70520020      -4.85595156E-05
   7.71719980      -4.71184176E-05
   7.72919989      -4.57563510E-05
   7.74119997      -4.45086662E-05
   7.75320005      -4.34082067E-05
   7.76520014      -4.24839018E-05
   7.77720022      -4.17594638E-05
   7.78919983      -4.12522968E-05
   7.80119991      -4.09726927E-05
   7.81320000      -4.09233471E-05
   7.82520008      -4.10992288E-05
   7.83720016      -4.14878377E-05
   7.84919977      -4.20697907E-05
   7.86119986      -4.28197345E-05
   7.87319994      -4.37075250E-05
   7.88520002      -4.46996019E-05
   7.89720011      -4.57604583E-05
   7.90920019      -4.68541875E-05
   7.92119980      -4.79459522E-05
   7.93319988      -4.90033635E-05
   7.94519997      -4.99976486E-05
   7.95720005      -5.09046404E-05
   7.96920013      -5.17054941E-05
   7.98120022      -5.23871022E-05
   7.99319983      -5.29422468E-05
   8.00520039      -5.33694802E-05
   8.01720047      -5.36727202E-05
   8.02919960      -5.38606655E-05
   8.04119968      -5.39459834E-05
   8.05319977      -5.39443899E-05
   8.06519985      -5.38736203E-05
   8.07719994      -5.37524138E-05
   8.08920002      -5.35994659E-05
   8.10120010      -5.34324754E-05
   8.11320019      -5.32673039E-05
   8.12520027      -5.31172373E-05
   8.13720036      -5.29924619E-05
   8.14920044      -5.28996861E-05
   8.16119957      -5.28419514E-05
   8.17319965      -5.28186720E-05
   8.18519974      -5.28258133E-05
   8.19719982      -5.28563251E-05
   8.20919991      -5.29006720E-05
   8.22119999      -5.29475437E-05
   8.23320007      -5.29846620E-05
   8.24520016      -5.29996214E-05
   8.25720024      -5.29807912E-05
   8.26920033      -5.29181088E-05
   8.28120041      -5.28038618E-05
   8.29319954      -5.26332769E-05
   8.30519962      -5.24049610E-05
   8.31719971      -5.21211587E-05
   8.32919979      -5.17877561E-05
   8.34119987      -5.14140993E-05
   8.35319996      -5.10125792E-05
   8.36520004      -5.05980242E-05
   8.37720013      -5.01869290E-05
   8.38920021      -4.97965630E-05
   8.40120029      -4.94440246E-05
   8.41320038      -4.91452593E-05
   8.42520046      -4.89141457E-05
   8.43719959      -4.87616344E-05
   8.44919968      -4.86950885E-05
   8.46119976      -4.87177640E-05
   8.47319984      -4.88285186E-05
   8.48519993      -4.90217499E-05
   8.49720001      -4.92875733E-05
   8.50920010      -4.96122266E-05
   8.52120018      -4.99786584E-05
   8.53320026      -5.03673473E-05
   8.54520035      -5.07572113E-05
   8.55720043      -5.11266480E-05
   8.56919956      -5.14545973E-05
   8.58119965      -5.17216213E-05
   8.59319973      -5.19108944E-05
   8.60519981      -5.20091235E-05
   8.61719990      -5.20072936E-05
   8.62919998      -5.19012756E-05
   8.64120007      -5.16921937E-05
   8.65320015      -5.13866107E-05
   8.66520023      -5.09964630E-05
   8.67720032      -5.05387397E-05
   8.68920040      -5.00349743E-05
   8.70119953      -4.95104396E-05
   8.71319962      -4.89932063E-05
   8.72519970      -4.85129858E-05
   8.73719978      -4.80998679E-05
   8.74919987      -4.77829999E-05
   8.76119995      -4.75892703E-05
   8.77320004      -4.75420675E-05
   8.78520012      -4.76601708E-05
   8.79720020      -4.79568444E-05
   8.80920029      -4.84391785E-05
   8.82120037      -4.91077117E-05
   8.83320045      -4.99563757E-05
   8.84519958      -5.09727215E-05
   8.85719967      -5.21384645E-05
   8.86919975      -5.34303435E-05
   8.88119984      -5.48211901E-05
   8.89319992      -5.62812093E-05
   8.90520000      -5.77793980E-05
   8.91720009      -5.92850192E-05
   8.92920017      -6.07690163E-05
   8.94120026      -6.22053631E-05
   8.95320034      -6.35721590E-05
   8.96520042      -6.48525311E-05
   8.97719955      -6.60351652E-05
   8.98919964      -6.71145535E-05
   9.00119972      -6.80908634E-05
   9.01319981      -6.89694789E-05
   9.02519989      -6.97602518E-05
   9.03719997      -7.04765262E-05
   9.04920006      -7.11339017E-05
   9.06120014      -7.17489529E-05
   9.07320023      -7.23378034E-05
   9.08520031      -7.29148524E-05
   9.09720039      -7.34915011E-05
   9.10919952      -7.40751420E-05
   9.12119961      -7.46683363E-05
   9.13319969      -7.52683409E-05
   9.14519978      -7.58669703E-05
   9.15719986      -7.64507713E-05
   9.16919994      -7.70015758E-05
   9.18120003      -7.74973087E-05
   9.19320011      -7.79131151E-05
   9.20520020      -7.82226780E-05
   9.21720028      -7.83996220E-05
   9.22920036      -7.84190270E-05
   9.24120045      -7.82588831E-05
   9.25319958      -7.79014736E-05
   9.26519966      -7.73345382E-05
   9.27719975      -7.65522200E-05
   9.28919983      -7.55557339E-05
   9.30119991      -7.43535857E-05
   9.31320000      -7.29615713E-05
   9.32520008      -7.14022754E-05
   9.33720016      -6.97042924E-05
   9.34920025      -6.79011500E-05
   9.36120033      -6.60299338E-05
   9.37320042      -6.41298248E-05
   9.38519955      -6.22404841E-05
   9.39719963      -6.04004781E-05
   9.40919971      -5.86457281E-05
   9.42119980      -5.70081393E-05
   9.43319988      -5.55144106E-05
   9.44519997      -5.41851077E-05
