 -0.622799993       0.00000000    
 -0.610800028       0.00000000    
 -0.598800004       0.00000000    
 -0.586799979       0.00000000    
 -0.574800014       0.00000000    
 -0.562799990      -7.32048868E-25
 -0.550800025      -6.37793569E-24
 -0.538800001      -3.50099625E-23
 -0.526799977      -1.68358758E-22
 -0.514800012      -7.34907414E-22
 -0.502799988      -2.78118519E-21
 -0.490799993      -8.91053900E-21
 -0.478799999      -2.41841358E-20
 -0.466800004      -5.61019676E-20
 -0.454800010      -1.12206326E-19
 -0.442799985      -1.94568881E-19
 -0.430799991      -2.93201303E-19
 -0.418799996      -3.84744890E-19
 -0.406800002      -4.45610571E-19
 -0.394800007      -4.84994450E-19
 -0.382800013      -5.89048911E-19
 -0.370799989      -9.45721902E-19
 -0.358799994      -1.80387123E-18
 -0.346799999      -3.33191804E-18
 -0.334800005      -5.39779190E-18
 -0.322800010      -7.38609339E-18
 -0.310799986      -8.25310357E-18
 -0.298799992      -7.01427818E-18
 -0.286799997      -3.68655787E-18
 -0.274800003      -3.65142803E-19
 -0.262800008      -1.72855860E-18
 -0.250800014      -1.40964596E-17
 -0.238800004      -4.25058537E-17
 -0.226799995      -8.62601347E-17
 -0.214800000      -1.34814889E-16
 -0.202800006      -1.67019134E-16
 -0.190799996      -1.56680078E-16
 -0.178800002      -8.53980338E-17
 -0.166800007       4.03343292E-17
 -0.154799998       1.75365929E-16
 -0.142800003       2.35835995E-16
 -0.130799994       1.21456398E-16
 -0.118799999      -2.39084023E-16
 -0.106799997      -8.31472211E-16
  -9.48000029E-02  -1.51260349E-15
  -8.28000009E-02  -2.01153617E-15
  -7.07999989E-02  -1.99751397E-15
  -5.88000007E-02  -1.21428981E-15
  -4.67999987E-02   3.54596341E-16
  -3.48000005E-02   2.35724716E-15
  -2.28000004E-02   4.06165978E-15
  -1.08000003E-02   4.51889494E-15
   1.20000006E-03   2.89967521E-15
   1.31999999E-02  -1.07974646E-15
   2.52000000E-02  -6.80134253E-15
   3.72000001E-02  -1.26459901E-14
   4.91999984E-02  -1.62910219E-14
   6.12000003E-02  -1.54177784E-14
   7.32000023E-02  -8.66783469E-15
   8.51999968E-02   3.47232962E-15
   9.71999988E-02   1.82472903E-14
  0.109200001       3.09818428E-14
  0.121200003       3.62878130E-14
  0.133200005       2.98904544E-14
  0.145199999       1.05304830E-14
  0.157199994      -1.87630469E-14
  0.169200003      -5.06540983E-14
  0.181199998      -7.50238562E-14
  0.193200007      -8.18167013E-14
  0.205200002      -6.44688160E-14
  0.217199996      -2.28456526E-14
  0.229200006       3.53892093E-14
  0.241200000       9.56848804E-14
  0.253199995       1.39857527E-13
  0.265199989       1.51019320E-13
  0.277200013       1.18925703E-13
  0.289200008       4.42292755E-14
  0.301200002      -5.97162836E-14
  0.313199997      -1.68337553E-13
  0.325199991      -2.50693834E-13
  0.337199986      -2.76976467E-13
  0.349200010      -2.27207738E-13
  0.361200005      -9.91604666E-14
  0.373199999       8.67328602E-14
  0.385199994       2.87580181E-13
  0.397199988       4.44779196E-13
  0.409200013       4.97455755E-13
  0.421200007       4.00808401E-13
  0.433200002       1.45336976E-13
  0.445199996      -2.28969269E-13
  0.457199991      -6.30070486E-13
  0.469199985      -9.28063832E-13
  0.481200010      -9.87251622E-13
  0.493200004      -7.11178512E-13
  0.505200028      -8.91820594E-14
  0.517199993       7.71660676E-13
  0.529200017       1.64555305E-12
  0.541199982       2.22850883E-12
  0.553200006       2.21925950E-12
  0.565199971       1.42445073E-12
  0.577199996      -1.41534964E-13
  0.589200020      -2.19851980E-12
  0.601199985      -4.21612224E-12
  0.613200009      -5.51782665E-12
  0.625199974      -5.46172829E-12
  0.637199998      -3.65718523E-12
  0.649200022      -1.54927273E-13
  0.661199987       4.45707403E-12
  0.673200011       9.10340466E-12
  0.685199976       1.24316070E-11
  0.697200000       1.31501572E-11
  0.709200025       1.04152555E-11
  0.721199989       4.15957720E-12
  0.733200014      -4.74279080E-12
  0.745199978      -1.45473173E-11
  0.757200003      -2.29583158E-11
  0.769200027      -2.76389779E-11
  0.781199992      -2.67947435E-11
  0.793200016      -1.96818065E-11
  0.805199981      -6.90178427E-12
  0.817200005       9.60731408E-12
  0.829200029       2.68977410E-11
  0.841199994       4.15880178E-11
  0.853200018       5.05552197E-11
  0.865199983       5.15807883E-11
  0.877200007       4.38007512E-11
  0.889199972       2.78626306E-11
  0.901199996       5.76577111E-12
  0.913200021      -1.95622251E-11
  0.925199986      -4.48420918E-11
  0.937200010      -6.70341213E-11
  0.949199975      -8.38113884E-11
  0.961199999      -9.38150946E-11
  0.973200023      -9.66393354E-11
  0.985199988      -9.25401838E-11
  0.997200012      -8.19018187E-11
   1.00919998      -6.45139012E-11
   1.02119994      -3.87201035E-11
   1.03320003      -4.87327301E-13
   1.04519999       5.75776336E-11
   1.05719995       1.47278134E-10
   1.06920004       2.86018598E-10
   1.08120000       4.98298069E-10
   1.09319997       8.17787615E-10
   1.10520005       1.29043010E-09
   1.11720002       1.97918060E-09
   1.12919998       2.97122549E-09
   1.14119995       4.38874048E-09
   1.15320003       6.40448983E-09
   1.16520000       9.26384125E-09
   1.17719996       1.33150078E-08
   1.18920004       1.90496383E-08
   1.20120001       2.71561458E-08
   1.21319997       3.85884924E-08
   1.22520006       5.46532704E-08
   1.23720002       7.71181448E-08
   1.24919999       1.08344629E-07
   1.26119995       1.51447594E-07
   1.27320004       2.10483222E-07
   1.28520000       2.90665923E-07
   1.29719996       3.98612116E-07
   1.30920005       5.42607381E-07
   1.32120001       7.32888338E-07
   1.33319998       9.81929475E-07
   1.34519994       1.30471960E-06
   1.35720003       1.71900842E-06
   1.36919999       2.24550331E-06
   1.38119996       2.90798835E-06
   1.39320004       3.73334456E-06
   1.40520000       4.75143952E-06
   1.41719997       5.99487203E-06
   1.42920005       7.49853825E-06
   1.44120002       9.29901944E-06
   1.45319998       1.14337727E-05
   1.46519995       1.39401282E-05
   1.47720003       1.68541137E-05
   1.48920000       2.02091105E-05
   1.50119996       2.40343943E-05
   1.51320004       2.83535919E-05
   1.52520001       3.31831397E-05
   1.53719997       3.85307540E-05
   1.54920006       4.43940589E-05
   1.56120002       5.07594268E-05
   1.57319999       5.76010752E-05
   1.58519995       6.48805290E-05
   1.59720004       7.25465434E-05
   1.60920000       8.05354648E-05
   1.62119997       8.87720962E-05
   1.63320005       9.71711415E-05
   1.64520001       1.05639017E-04
   1.65719998       1.14076298E-04
   1.66919994       1.22380341E-04
   1.68120003       1.30448345E-04
   1.69319999       1.38180549E-04
   1.70519996       1.45483355E-04
   1.71720004       1.52272478E-04
   1.72920001       1.58475770E-04
   1.74119997       1.64035664E-04
   1.75320005       1.68910934E-04
   1.76520002       1.73078122E-04
   1.77719998       1.76531903E-04
   1.78919995       1.79284980E-04
   1.80120003       1.81366995E-04
   1.81320000       1.82822958E-04
   1.82519996       1.83710916E-04
   1.83720005       1.84099190E-04
   1.84920001       1.84063232E-04
   1.86119998       1.83682394E-04
   1.87320006       1.83036667E-04
   1.88520002       1.82203672E-04
   1.89719999       1.81255935E-04
   1.90919995       1.80258750E-04
   1.92120004       1.79268638E-04
   1.93320000       1.78332397E-04
   1.94519997       1.77486843E-04
   1.95720005       1.76759335E-04
   1.96920002       1.76168527E-04
   1.98119998       1.75725960E-04
   1.99319994       1.75437628E-04
   2.00519991       1.75305875E-04
   2.01719999       1.75331254E-04
   2.02920008       1.75514113E-04
   2.04119992       1.75856039E-04
   2.05320001       1.76360889E-04
   2.06520009       1.77035268E-04
   2.07719994       1.77888724E-04
   2.08920002       1.78933275E-04
   2.10120010       1.80182746E-04
   2.11319995       1.81651601E-04
   2.12520003       1.83353666E-04
   2.13720012       1.85300654E-04
   2.14919996       1.87500875E-04
   2.16120005       1.89957762E-04
   2.17319989       1.92669031E-04
   2.18519998       1.95625791E-04
   2.19720006       1.98812209E-04
   2.20919991       2.02205600E-04
   2.22119999       2.05776771E-04
   2.23320007       2.09490841E-04
   2.24519992       2.13308420E-04
   2.25720000       2.17186898E-04
   2.26920009       2.21082053E-04
   2.28119993       2.24949763E-04
   2.29320002       2.28747682E-04
   2.30520010       2.32436840E-04
   2.31719995       2.35983185E-04
   2.32920003       2.39358807E-04
   2.34120011       2.42543116E-04
   2.35319996       2.45523523E-04
   2.36520004       2.48296070E-04
   2.37719989       2.50865502E-04
   2.38919997       2.53245322E-04
   2.40120006       2.55457475E-04
   2.41319990       2.57531792E-04
   2.42519999       2.59505410E-04
   2.43720007       2.61421665E-04
   2.44919991       2.63329246E-04
   2.46120000       2.65281124E-04
   2.47320008       2.67333293E-04
   2.48519993       2.69543758E-04
   2.49720001       2.71971076E-04
   2.50920010       2.74673395E-04
   2.52119994       2.77707150E-04
   2.53320003       2.81125976E-04
   2.54520011       2.84979440E-04
   2.55719995       2.89312127E-04
   2.56920004       2.94162222E-04
   2.58119988       2.99560605E-04
   2.59319997       3.05529829E-04
   2.60520005       3.12082993E-04
   2.61719990       3.19222745E-04
   2.62919998       3.26940441E-04
   2.64120007       3.35215183E-04
   2.65319991       3.44012980E-04
   2.66520000       3.53286130E-04
   2.67720008       3.62972525E-04
   2.68919992       3.72995011E-04
   2.70120001       3.83261096E-04
   2.71320009       3.93662485E-04
   2.72519994       4.04075166E-04
   2.73720002       4.14359441E-04
   2.74920011       4.24360187E-04
   2.76119995       4.33907640E-04
   2.77320004       4.42818564E-04
   2.78520012       4.50897496E-04
   2.79719996       4.57938964E-04
   2.80920005       4.63729986E-04
   2.82119989       4.68053127E-04
   2.83319998       4.70690371E-04
   2.84520006       4.71427687E-04
   2.85719991       4.70059749E-04
   2.86919999       4.66395752E-04
   2.88120008       4.60265233E-04
   2.89319992       4.51524160E-04
   2.90520000       4.40061238E-04
   2.91720009       4.25804028E-04
   2.92919993       4.08724329E-04
   2.94120002       3.88843095E-04
   2.95320010       3.66234599E-04
   2.96519995       3.41029110E-04
   2.97720003       3.13413999E-04
   2.98920012       2.83633708E-04
   3.00119996       2.51987658E-04
   3.01320004       2.18826317E-04
   3.02519989       1.84545570E-04
   3.03719997       1.49579413E-04
   3.04920006       1.14390903E-04
   3.06119990       7.94619627E-05
   3.07319999       4.52820059E-05
   3.08520007       1.23359168E-05
   3.09719992      -1.89082712E-05
   3.10920000      -4.80115850E-05
   3.12120008      -7.45758443E-05
   3.13319993      -9.82543133E-05
   3.14520001      -1.18761134E-04
   3.15720010      -1.35878916E-04
   3.16919994      -1.49464322E-04
   3.18120003      -1.59451505E-04
   3.19320011      -1.65853038E-04
   3.20519996      -1.68758517E-04
   3.21720004      -1.68330735E-04
   3.22919989      -1.64799683E-04
   3.24119997      -1.58454350E-04
   3.25320005      -1.49633095E-04
   3.26519990      -1.38712421E-04
   3.27719998      -1.26094907E-04
   3.28920007      -1.12196540E-04
   3.30119991      -9.74340292E-05
   3.31320000      -8.22124784E-05
   3.32520008      -6.69138390E-05
   3.33719993      -5.18865709E-05
   3.34920001      -3.74368428E-05
   3.36120009      -2.38215307E-05
   3.37319994      -1.12432317E-05
   3.38520002       1.52581762E-07
   3.39720011       1.02782260E-05
   3.40919995       1.91023155E-05
   3.42120004       2.66462430E-05
   3.43319988       3.29788054E-05
   3.44519997       3.82092439E-05
   3.45720005       4.24790414E-05
   3.46919990       4.59527655E-05
   3.48119998       4.88084806E-05
   3.49320006       5.12280640E-05
   3.50519991       5.33878701E-05
   3.51719999       5.54501603E-05
   3.52920008       5.75556587E-05
   3.54119992       5.98175066E-05
   3.55320001       6.23169180E-05
   3.56520009       6.51005976E-05
   3.57719994       6.81801102E-05
   3.58920002       7.15330752E-05
   3.60120010       7.51061234E-05
   3.61319995       7.88194520E-05
   3.62520003       8.25726092E-05
   3.63720012       8.62512534E-05
   3.64919996       8.97345017E-05
   3.66120005       9.29023590E-05
   3.67319989       9.56430013E-05
   3.68519998       9.78593162E-05
   3.69720006       9.94745860E-05
   3.70919991       1.00436839E-04
   3.72119999       1.00721853E-04
   3.73320007       1.00334531E-04
   3.74519992       9.93088033E-05
   3.75720000       9.77058662E-05
   3.76920009       9.56111398E-05
   3.78119993       9.31300165E-05
   3.79320002       9.03826149E-05
   3.80520010       8.74979378E-05
   3.81719995       8.46077164E-05
   3.82920003       8.18401822E-05
   3.84120011       7.93142754E-05
   3.85319996       7.71343766E-05
   3.86520004       7.53858403E-05
   3.87719989       7.41316690E-05
   3.88919997       7.34102650E-05
   3.90120006       7.32344488E-05
   3.91319990       7.35917056E-05
   3.92519999       7.44456338E-05
   3.93720007       7.57384405E-05
   3.94919991       7.73944339E-05
   3.96120000       7.93242289E-05
   3.97320008       8.14295199E-05
   3.98519993       8.36080872E-05
   3.99720001       8.57589039E-05
   4.00920010       8.77870407E-05
   4.02120018       8.96080965E-05
   4.03319979       9.11520328E-05
   4.04519987       9.23661646E-05
   4.05719995       9.32172479E-05
   4.06920004       9.36925207E-05
   4.08120012       9.37996738E-05
   4.09320021       9.35658391E-05
   4.10519981       9.30355673E-05
   4.11719990       9.22679683E-05
   4.12919998       9.13331605E-05
   4.14120007       9.03081818E-05
   4.15320015       8.92726457E-05
   4.16520023       8.83043249E-05
   4.17719984       8.74749021E-05
   4.18919992       8.68461648E-05
   4.20120001       8.64667527E-05
   4.21320009       8.63697132E-05
   4.22520018       8.65709517E-05
   4.23719978       8.70686563E-05
   4.24919987       8.78437277E-05
   4.26119995       8.88611394E-05
   4.27320004       9.00721861E-05
   4.28520012       9.14174889E-05
   4.29720020       9.28305235E-05
   4.30919981       9.42414772E-05
   4.32119989       9.55812866E-05
   4.33319998       9.67855303E-05
   4.34520006       9.77979580E-05
   4.35720015       9.85735605E-05
   4.36920023       9.90808840E-05
   4.38119984       9.93035865E-05
   4.39319992       9.92410933E-05
   4.40520000       9.89084219E-05
   4.41720009       9.83350983E-05
   4.42920017       9.75633375E-05
   4.44119978       9.66456282E-05
   4.45319986       9.56416916E-05
   4.46519995       9.46153014E-05
   4.47720003       9.36308206E-05
   4.48920012       9.27499132E-05
   4.50120020       9.20283856E-05
   4.51319981       9.15135024E-05
   4.52519989       9.12417891E-05
   4.53719997       9.12374380E-05
   4.54920006       9.15113196E-05
   4.56120014       9.20607199E-05
   4.57320023       9.28696463E-05
   4.58519983       9.39097954E-05
   4.59719992       9.51419424E-05
   4.60920000       9.65178260E-05
   4.62120008       9.79823599E-05
   4.63320017       9.94760194E-05
   4.64519978       1.00937410E-04
   4.65719986       1.02305821E-04
   4.66919994       1.03523707E-04
   4.68120003       1.04539002E-04
   4.69320011       1.05307088E-04
   4.70520020       1.05792562E-04
   4.71719980       1.05970481E-04
   4.72919989       1.05827305E-04
   4.74119997       1.05361243E-04
   4.75320005       1.04582316E-04
   4.76520014       1.03511811E-04
   4.77720022       1.02181395E-04
   4.78919983       1.00631834E-04
   4.80119991       9.89113105E-05
   4.81320000       9.70735127E-05
   4.82520008       9.51755937E-05
   4.83720016       9.32758849E-05
   4.84919977       9.14318298E-05
   4.86119986       8.96978381E-05
   4.87319994       8.81235101E-05
   4.88520002       8.67519993E-05
   4.89720011       8.56187908E-05
   4.90920019       8.47508709E-05
   4.92119980       8.41662186E-05
   4.93319988       8.38736960E-05
   4.94519997       8.38733104E-05
   4.95720005       8.41568035E-05
   4.96920013       8.47083866E-05
   4.98120022       8.55058315E-05
   4.99319983       8.65215115E-05
   5.00519991       8.77235943E-05
   5.01719999       8.90772135E-05
   5.02920008       9.05456036E-05
   5.04120016       9.20910607E-05
   5.05319977       9.36759752E-05
   5.06519985       9.52635892E-05
   5.07719994       9.68188033E-05
   5.08920002       9.83088539E-05
   5.10120010       9.97039242E-05
   5.11320019       1.00977726E-04
   5.12519979       1.02108024E-04
   5.13719988       1.03077145E-04
   5.14919996       1.03872415E-04
   5.16120005       1.04486528E-04
   5.17320013       1.04917803E-04
   5.18520021       1.05170329E-04
   5.19719982       1.05253930E-04
   5.20919991       1.05183892E-04
   5.22119999       1.04980456E-04
   5.23320007       1.04668063E-04
   5.24520016       1.04274368E-04
   5.25719976       1.03828992E-04
   5.26919985       1.03362137E-04
   5.28119993       1.02903112E-04
   5.29320002       1.02478851E-04
   5.30520010       1.02112492E-04
   5.31720018       1.01822196E-04
   5.32919979       1.01620062E-04
   5.34119987       1.01511519E-04
   5.35319996       1.01495010E-04
   5.36520004       1.01562007E-04
   5.37720013       1.01697507E-04
   5.38920021       1.01880898E-04
   5.40119982       1.02087062E-04
   5.41319990       1.02287879E-04
   5.42519999       1.02453814E-04
   5.43720007       1.02555714E-04
   5.44920015       1.02566410E-04
   5.46120024       1.02462385E-04
   5.47319984       1.02225094E-04
   5.48519993       1.01842110E-04
   5.49720001       1.01307844E-04
   5.50920010       1.00623991E-04
   5.52120018       9.97995448E-05
   5.53319979       9.88505417E-05
   5.54519987       9.77994059E-05
   5.55719995       9.66741209E-05
   5.56920004       9.55070573E-05
   5.58120012       9.43337218E-05
   5.59320021       9.31913164E-05
   5.60519981       9.21173123E-05
   5.61719990       9.11479146E-05
   5.62919998       9.03167238E-05
   5.64120007       8.96533165E-05
   5.65320015       8.91821328E-05
   5.66520023       8.89214352E-05
   5.67719984       8.88825380E-05
   5.68919992       8.90692609E-05
   5.70120001       8.94776022E-05
   5.71320009       9.00957602E-05
   5.72520018       9.09044102E-05
   5.73719978       9.18772930E-05
   5.74919987       9.29820962E-05
   5.76119995       9.41816397E-05
   5.77320004       9.54352727E-05
   5.78520012       9.67005180E-05
   5.79720020       9.79348260E-05
   5.80919981       9.90973858E-05
   5.82119989       1.00150944E-04
   5.83319998       1.01063473E-04
   5.84520006       1.01809688E-04
   5.85720015       1.02372214E-04
   5.86920023       1.02742473E-04
   5.88119984       1.02921120E-04
   5.89319992       1.02918006E-04
   5.90520000       1.02751757E-04
   5.91720009       1.02448794E-04
   5.92920017       1.02042039E-04
   5.94119978       1.01569145E-04
   5.95319986       1.01070524E-04
   5.96519995       1.00587153E-04
   5.97720003       1.00158322E-04
   5.98920012       9.98193646E-05
   6.00120020       9.95995943E-05
   6.01319981       9.95205410E-05
   6.02519989       9.95944647E-05
   6.03719997       9.98233882E-05
   6.04920006       1.00198631E-04
   6.06120014       1.00700876E-04
   6.07320023       1.01300815E-04
   6.08519983       1.01960351E-04
   6.09719992       1.02634192E-04
   6.10920000       1.03272025E-04
   6.12120008       1.03820872E-04
   6.13320017       1.04227722E-04
   6.14519978       1.04442275E-04
   6.15719986       1.04419523E-04
   6.16919994       1.04122257E-04
   6.18120003       1.03523169E-04
   6.19320011       1.02606500E-04
   6.20520020       1.01369274E-04
   6.21719980       9.98217074E-05
   6.22919989       9.79872129E-05
   6.24119997       9.59016106E-05
   6.25320005       9.36118013E-05
   6.26520014       9.11739116E-05
   6.27720022       8.86510170E-05
   6.28919983       8.61105436E-05
   6.30119991       8.36215622E-05
   6.31320000       8.12520593E-05
   6.32520008       7.90663398E-05
   6.33720016       7.71227133E-05
   6.34919977       7.54715729E-05
   6.36119986       7.41539479E-05
   6.37319994       7.32004992E-05
   6.38520002       7.26311700E-05
   6.39720011       7.24552010E-05
   6.40920019       7.26716316E-05
   6.42119980       7.32701665E-05
   6.43319988       7.42322736E-05
   6.44519997       7.55323563E-05
   6.45720005       7.71390478E-05
   6.46920013       7.90163758E-05
   6.48120022       8.11248465E-05
   6.49319983       8.34222592E-05
   6.50519991       8.58644271E-05
   6.51719999       8.84056426E-05
   6.52920008       9.09990122E-05
   6.54120016       9.35967255E-05
   6.55319977       9.61502519E-05
   6.56519985       9.86106461E-05
   6.57719994       1.00928984E-04
   6.58920002       1.03056940E-04
   6.60120010       1.04947678E-04
   6.61320019       1.06556909E-04
   6.62519979       1.07844258E-04
   6.63719988       1.08774722E-04
   6.64919996       1.09320237E-04
   6.66120005       1.09461289E-04
   6.67320013       1.09188237E-04
   6.68520021       1.08502449E-04
   6.69719982       1.07417007E-04
   6.70919991       1.05956919E-04
   6.72119999       1.04158738E-04
   6.73320007       1.02069622E-04
   6.74520016       9.97458774E-05
   6.75719976       9.72509151E-05
   6.76919985       9.46529035E-05
   6.78119993       9.20220846E-05
   6.79320002       8.94280674E-05
   6.80520010       8.69370924E-05
   6.81720018       8.46095718E-05
   6.82919979       8.24979652E-05
   6.84119987       8.06450989E-05
   6.85319996       7.90831837E-05
   6.86520004       7.78332615E-05
   6.87720013       7.69054313E-05
   6.88920021       7.62995187E-05
   6.90119982       7.60063122E-05
   6.91319990       7.60090843E-05
   6.92519999       7.62852942E-05
   6.93720007       7.68084283E-05
   6.94920015       7.75496956E-05
   6.96120024       7.84794538E-05
   6.97319984       7.95683882E-05
   6.98519993       8.07883407E-05
   6.99720001       8.21126378E-05
   7.00920010       8.35162136E-05
   7.02120018       8.49753051E-05
   7.03319979       8.64669855E-05
   7.04519987       8.79685758E-05
   7.05719995       8.94570694E-05
   7.06920004       9.09086666E-05
   7.08120012       9.22984837E-05
   7.09320021       9.36006181E-05
   7.10519981       9.47884400E-05
   7.11719990       9.58352466E-05
   7.12919998       9.67152082E-05
   7.14120007       9.74045251E-05
   7.15320015       9.78826283E-05
   7.16520023       9.81335106E-05
   7.17719984       9.81468402E-05
   7.18919992       9.79188699E-05
   7.20120001       9.74531067E-05
   7.21320009       9.67604574E-05
   7.22520018       9.58590535E-05
   7.23719978       9.47736407E-05
   7.24919987       9.35345088E-05
   7.26119995       9.21761821E-05
   7.27320004       9.07358408E-05
   7.28520012       8.92516255E-05
   7.29720020       8.77610364E-05
   7.30919981       8.62993547E-05
   7.32119989       8.48984491E-05
   7.33319998       8.35858227E-05
   7.34520006       8.23841037E-05
   7.35720015       8.13109218E-05
   7.36920023       8.03792063E-05
   7.38119984       7.95978267E-05
   7.39319992       7.89724436E-05
   7.40520000       7.85066150E-05
   7.41720009       7.82028510E-05
   7.42920017       7.80636474E-05
   7.44119978       7.80922928E-05
   7.45319986       7.82934221E-05
   7.46519995       7.86731762E-05
   7.47720003       7.92390201E-05
   7.48920012       7.99991903E-05
   7.50120020       8.09617923E-05
   7.51319981       8.21337380E-05
   7.52519989       8.35195242E-05
   7.53719997       8.51199948E-05
   7.54920006       8.69312644E-05
   7.56120014       8.89438670E-05
   7.57320023       9.11421521E-05
   7.58519983       9.35041680E-05
   7.59719992       9.60018078E-05
   7.60920000       9.86014638E-05
   7.62120008       1.01264937E-04
   7.63320017       1.03950690E-04
   7.64519978       1.06615276E-04
   7.65719986       1.09214823E-04
   7.66919994       1.11706533E-04
   7.68120003       1.14049959E-04
   7.69320011       1.16208139E-04
   7.70520020       1.18148346E-04
   7.71719980       1.19842523E-04
   7.72919989       1.21267498E-04
   7.74119997       1.22404759E-04
   7.75320005       1.23240185E-04
   7.76520014       1.23763632E-04
   7.77720022       1.23968479E-04
   7.78919983       1.23851249E-04
   7.80119991       1.23411504E-04
   7.81320000       1.22651749E-04
   7.82520008       1.21577730E-04
   7.83720016       1.20198805E-04
   7.84919977       1.18528536E-04
   7.86119986       1.16585266E-04
   7.87319994       1.14392715E-04
   7.88520002       1.11980451E-04
   7.89720011       1.09384069E-04
   7.90920019       1.06645057E-04
   7.92119980       1.03810278E-04
   7.93319988       1.00930964E-04
   7.94519997       9.80613258E-05
   7.95720005       9.52568589E-05
   7.96920013       9.25722852E-05
   7.98120022       9.00594750E-05
   7.99319983       8.77653874E-05
   8.00520039       8.57301275E-05
   8.01720047       8.39853892E-05
   8.02919960       8.25533061E-05
   8.04119968       8.14458763E-05
   8.05319977       8.06649114E-05
   8.06519985       8.02025752E-05
   8.07719994       8.00424241E-05
   8.08920002       8.01608985E-05
   8.10120010       8.05291274E-05
   8.11320019       8.11148420E-05
   8.12520027       8.18843982E-05
   8.13720036       8.28045522E-05
   8.14920044       8.38440392E-05
   8.16119957       8.49747885E-05
   8.17319965       8.61726658E-05
   8.18519974       8.74178440E-05
   8.19719982       8.86946873E-05
   8.20919991       8.99912993E-05
   8.22119999       9.12988180E-05
   8.23320007       9.26104622E-05
   8.24520016       9.39206366E-05
   8.25720024       9.52239570E-05
   8.26920033       9.65145155E-05
   8.28120041       9.77853560E-05
   8.29319954       9.90282133E-05
   8.30519962       1.00233563E-04
   8.31719971       1.01390891E-04
   8.32919979       1.02489270E-04
   8.34119987       1.03517974E-04
   8.35319996       1.04467217E-04
   8.36520004       1.05328814E-04
   8.37720013       1.06096733E-04
   8.38920021       1.06767409E-04
   8.40120029       1.07339896E-04
   8.41320038       1.07815686E-04
   8.42520046       1.08198321E-04
   8.43719959       1.08492750E-04
   8.44919968       1.08704531E-04
   8.46119976       1.08838896E-04
   8.47319984       1.08899796E-04
   8.48519993       1.08888999E-04
   8.49720001       1.08805296E-04
   8.50920010       1.08643952E-04
   8.52120018       1.08396423E-04
   8.53320026       1.08050408E-04
   8.54520035       1.07590240E-04
   8.55720043       1.06997664E-04
   8.56919956       1.06252912E-04
   8.58119965       1.05336061E-04
   8.59319973       1.04228588E-04
   8.60519981       1.02914972E-04
   8.61719990       1.01384321E-04
   8.62919998       9.96318122E-05
   8.64120007       9.76599404E-05
   8.65320015       9.54794305E-05
   8.66520023       9.31097020E-05
   8.67720032       9.05789275E-05
   8.68920040       8.79236104E-05
   8.70119953       8.51876684E-05
   8.71319962       8.24211529E-05
   8.72519970       7.96786117E-05
   8.73719978       7.70171027E-05
   8.74919987       7.44941863E-05
   8.76119995       7.21657852E-05
   8.77320004       7.00841993E-05
   8.78520012       6.82962491E-05
   8.79720020       6.68418652E-05
   8.80920029       6.57529454E-05
   8.82120037       6.50527363E-05
   8.83320045       6.47556226E-05
   8.84519958       6.48674031E-05
   8.85719967       6.53859388E-05
   8.86919975       6.63020401E-05
   8.88119984       6.76005948E-05
   8.89319992       6.92617541E-05
   8.90520000       7.12620458E-05
   8.91720009       7.35753856E-05
   8.92920017       7.61738556E-05
   8.94120026       7.90281774E-05
   8.95320034       8.21079666E-05
   8.96520042       8.53816091E-05
   8.97719955       8.88160139E-05
   8.98919964       9.23760745E-05
   9.00119972       9.60240795E-05
   9.01319981       9.97191455E-05
   9.02519989       1.03416780E-04
   9.03719997       1.07068627E-04
   9.04920006       1.10622663E-04
   9.06120014       1.14023715E-04
   9.07320023       1.17214462E-04
   9.08520031       1.20136887E-04
   9.09720039       1.22734098E-04
   9.10919952       1.24952421E-04
   9.12119961       1.26743704E-04
   9.13319969       1.28067608E-04
   9.14519978       1.28893720E-04
   9.15719986       1.29203385E-04
   9.16919994       1.28991072E-04
   9.18120003       1.28265252E-04
   9.19320011       1.27048537E-04
   9.20520020       1.25377250E-04
   9.21720028       1.23300255E-04
   9.22920036       1.20877157E-04
   9.24120045       1.18175907E-04
   9.25319958       1.15270115E-04
   9.26519966       1.12235961E-04
   9.27719975       1.09149092E-04
   9.28919983       1.06081614E-04
   9.30119991       1.03099395E-04
   9.31320000       1.00259756E-04
   9.32520008       9.76098381E-05
   9.33720016       9.51855473E-05
   9.34920025       9.30112437E-05
   9.36120033       9.11000607E-05
   9.37320042       8.94548066E-05
   9.38519955       8.80694060E-05
   9.39719963       8.69306532E-05
   9.40919971       8.60201180E-05
   9.42119980       8.53161546E-05
   9.43319988       8.47957708E-05
   9.44519997       8.44362585E-05
