 -0.622799993       0.00000000    
 -0.610800028       0.00000000    
 -0.598800004       0.00000000    
 -0.586799979       0.00000000    
 -0.574800014       0.00000000    
 -0.562799990       2.58241925E-25
 -0.550800025      -1.54693789E-24
 -0.538800001      -3.44215890E-23
 -0.526799977      -2.43024089E-22
 -0.514800012      -1.09927285E-21
 -0.502799988      -3.76023947E-21
 -0.490799993      -1.05021371E-20
 -0.478799999      -2.50709962E-20
 -0.466800004      -5.28317866E-20
 -0.454800010      -1.00819015E-19
 -0.442799985      -1.77972781E-19
 -0.430799991      -2.95480909E-19
 -0.418799996      -4.65875876E-19
 -0.406800002      -6.97942637E-19
 -0.394800007      -9.84674871E-19
 -0.382800013      -1.28636191E-18
 -0.370799989      -1.52145698E-18
 -0.358799994      -1.58983700E-18
 -0.346799999      -1.45500708E-18
 -0.334800005      -1.28924277E-18
 -0.322800010      -1.63204751E-18
 -0.310799986      -3.44323835E-18
 -0.298799992      -7.89248178E-18
 -0.286799997      -1.57794909E-17
 -0.274800003      -2.66662400E-17
 -0.262800008      -3.80969612E-17
 -0.250800014      -4.55505070E-17
 -0.238800004      -4.37932710E-17
 -0.226799995      -2.98700279E-17
 -0.214800000      -7.04228652E-18
 -0.202800006       1.21710057E-17
 -0.190799996       6.46972492E-18
 -0.178800002      -4.79838771E-17
 -0.166800007      -1.65334584E-16
 -0.154799998      -3.35089172E-16
 -0.142800003      -5.11462740E-16
 -0.130799994      -6.15917361E-16
 -0.118799999      -5.59669450E-16
 -0.106799997      -2.85743521E-16
  -9.48000029E-02   1.80868533E-16
  -8.28000009E-02   6.97172384E-16
  -7.07999989E-02   1.00707961E-15
  -5.88000007E-02   8.06886815E-16
  -4.67999987E-02  -1.30044915E-16
  -3.48000005E-02  -1.80135998E-15
  -2.28000004E-02  -3.85758709E-15
  -1.08000003E-02  -5.59131192E-15
   1.20000006E-03  -6.08940202E-15
   1.31999999E-02  -4.55176829E-15
   2.52000000E-02  -7.03845257E-16
   3.72000001E-02   4.84425342E-15
   4.91999984E-02   1.04757393E-14
   6.12000003E-02   1.38341148E-14
   7.32000023E-02   1.25184380E-14
   8.51999968E-02   5.07394674E-15
   9.71999988E-02  -8.03249899E-15
  0.109200001      -2.38696646E-14
  0.121200003      -3.73152098E-14
  0.133200005      -4.23198193E-14
  0.145199999      -3.39851641E-14
  0.157199994      -1.08847977E-14
  0.169200003       2.32276407E-14
  0.181199998       5.92025682E-14
  0.193200007       8.43240273E-14
  0.205200002       8.60885256E-14
  0.217199996       5.70322530E-14
  0.229200006      -9.74155546E-16
  0.241200000      -7.47919454E-14
  0.253199995      -1.41862975E-13
  0.265199989      -1.76178720E-13
  0.277200013      -1.57189528E-13
  0.289200008      -7.90025800E-14
  0.301200002       4.36143804E-14
  0.313199997       1.75598482E-13
  0.325199991       2.69868600E-13
  0.337199986       2.82384413E-13
  0.349200010       1.89920088E-13
  0.361200005       4.35535490E-15
  0.373199999      -2.22989352E-13
  0.385199994      -4.11278054E-13
  0.397199988      -4.74241198E-13
  0.409200013      -3.52793532E-13
  0.421200007      -4.57855935E-14
  0.433200002       3.73523993E-13
  0.445199996       7.65450257E-13
  0.457199991       9.59787480E-13
  0.469199985       8.13368578E-13
  0.481200010       2.73177368E-13
  0.493200004      -5.77326598E-13
  0.505200028      -1.51042991E-12
  0.517199993      -2.19788727E-12
  0.529200017      -2.30336366E-12
  0.541199982      -1.60236570E-12
  0.553200006      -9.33598630E-14
  0.565199971       1.94165474E-12
  0.577199996       3.96058793E-12
  0.589200020       5.28024803E-12
  0.601199985       5.27172490E-12
  0.613200009       3.58262118E-12
  0.625199974       3.17136887E-13
  0.637199998      -3.89464329E-12
  0.649200022      -7.98326336E-12
  0.661199987      -1.06841602E-11
  0.673200011      -1.08904162E-11
  0.685199976      -8.02118701E-12
  0.697200000      -2.29280722E-12
  0.709200025       5.20715242E-12
  0.721199989       1.26953968E-11
  0.733200014       1.81002748E-11
  0.745199978       1.96097305E-11
  0.757200003       1.62149009E-11
  0.769200027       8.08984910E-12
  0.781199992      -3.31898571E-12
  0.793200016      -1.55453844E-11
  0.805199981      -2.56535609E-11
  0.817200005      -3.09522165E-11
  0.829200029      -2.96845361E-11
  0.841199994      -2.15060157E-11
  0.853200018      -7.61800779E-12
  0.865199983       9.47805116E-12
  0.877200007       2.65326407E-11
  0.889199972       4.02474581E-11
  0.901199996       4.79276965E-11
  0.913200021       4.79191825E-11
  0.925199986       3.97417654E-11
  0.937200010       2.39358793E-11
  0.949199975       1.73539991E-12
  0.961199999      -2.52664382E-11
  0.973200023      -5.52977872E-11
  0.985199988      -8.63381450E-11
  0.997200012      -1.15793965E-10
   1.00919998      -1.40003203E-10
   1.02119994      -1.53694169E-10
   1.03320003      -1.49497872E-10
   1.04519999      -1.17521326E-10
   1.05719995      -4.48527743E-11
   1.06920004       8.52642401E-11
   1.08120000       2.94949648E-10
   1.09319997       6.14287177E-10
   1.10520005       1.08537335E-09
   1.11720002       1.76813253E-09
   1.12919998       2.74821454E-09
   1.14119995       4.14740553E-09
   1.15320003       6.13723916E-09
   1.16520000       8.95694097E-09
   1.17719996       1.29373454E-08
   1.18920004       1.85330222E-08
   1.20120001       2.63652549E-08
   1.21319997       3.72787525E-08
   1.22520006       5.24149364E-08
   1.23720002       7.33041432E-08
   1.24919999       1.01978578E-07
   1.26119995       1.41106710E-07
   1.27320004       1.94149138E-07
   1.28520000       2.65534425E-07
   1.29719996       3.60852908E-07
   1.30920005       4.87064199E-07
   1.32120001       6.52714107E-07
   1.33319998       8.68152199E-07
   1.34519994       1.14574129E-06
   1.35720003       1.50004553E-06
   1.36919999       1.94798031E-06
   1.38119996       2.50890389E-06
   1.39320004       3.20463005E-06
   1.40520000       4.05933406E-06
   1.41719997       5.09933352E-06
   1.42920005       6.35271499E-06
   1.44120002       7.84880103E-06
   1.45319998       9.61742444E-06
   1.46519995       1.16880437E-05
   1.47720003       1.40886759E-05
   1.48920000       1.68446841E-05
   1.50119996       1.99774586E-05
   1.51320004       2.35030111E-05
   1.52520001       2.74305712E-05
   1.53719997       3.17612248E-05
   1.54920006       3.64866901E-05
   1.56120002       4.15882678E-05
   1.57319999       4.70360937E-05
   1.58519995       5.27887496E-05
   1.59720004       5.87932627E-05
   1.60920000       6.49856083E-05
   1.62119997       7.12916735E-05
   1.63320005       7.76287416E-05
   1.64520001       8.39074928E-05
   1.65719998       9.00343584E-05
   1.66919994       9.59143363E-05
   1.68120003       1.01453945E-04
   1.69319999       1.06564374E-04
   1.70519996       1.11164562E-04
   1.71720004       1.15184157E-04
   1.72920001       1.18566117E-04
   1.74119997       1.21268873E-04
   1.75320005       1.23267906E-04
   1.76520002       1.24556653E-04
   1.77719998       1.25146747E-04
   1.78919995       1.25067338E-04
   1.80120003       1.24363854E-04
   1.81320000       1.23095946E-04
   1.82519996       1.21334968E-04
   1.83720005       1.19160861E-04
   1.84920001       1.16658797E-04
   1.86119998       1.13915739E-04
   1.87320006       1.11016976E-04
   1.88520002       1.08042979E-04
   1.89719999       1.05066560E-04
   1.90919995       1.02150705E-04
   1.92120004       9.93469148E-05
   1.93320000       9.66943990E-05
   1.94519997       9.42199331E-05
   1.95720005       9.19383820E-05
   1.96920002       8.98540166E-05
   1.98119998       8.79621948E-05
   1.99319994       8.62515590E-05
   2.00519991       8.47064221E-05
   2.01719999       8.33091981E-05
   2.02920008       8.20428177E-05
   2.04119992       8.08927798E-05
   2.05320001       7.98488836E-05
   2.06520009       7.89064434E-05
   2.07719994       7.80669216E-05
   2.08920002       7.73380161E-05
   2.10120010       7.67331294E-05
   2.11319995       7.62703348E-05
   2.12520003       7.59709146E-05
   2.13720012       7.58575625E-05
   2.14919996       7.59524337E-05
   2.16120005       7.62751079E-05
   2.17319989       7.68406389E-05
   2.18519998       7.76578963E-05
   2.19720006       7.87281460E-05
   2.20919991       8.00441558E-05
   2.22119999       8.15897147E-05
   2.23320007       8.33397353E-05
   2.24519992       8.52608355E-05
   2.25720000       8.73124372E-05
   2.26920009       8.94482655E-05
   2.28119993       9.16182253E-05
   2.29320002       9.37704681E-05
   2.30520010       9.58536184E-05
   2.31719995       9.78189928E-05
   2.32920003       9.96227027E-05
   2.34120011       1.01227532E-04
   2.35319996       1.02604565E-04
   2.36520004       1.03734455E-04
   2.37719989       1.04608291E-04
   2.38919997       1.05228064E-04
   2.40120006       1.05606778E-04
   2.41319990       1.05768166E-04
   2.42519999       1.05746083E-04
   2.43720007       1.05583611E-04
   2.44919991       1.05331928E-04
   2.46120000       1.05049017E-04
   2.47320008       1.04798186E-04
   2.48519993       1.04646453E-04
   2.49720001       1.04662926E-04
   2.50920010       1.04917017E-04
   2.52119994       1.05476698E-04
   2.53320003       1.06406689E-04
   2.54520011       1.07766638E-04
   2.55719995       1.09609318E-04
   2.56920004       1.11978887E-04
   2.58119988       1.14909293E-04
   2.59319997       1.18422802E-04
   2.60520005       1.22528756E-04
   2.61719990       1.27222680E-04
   2.62919998       1.32485846E-04
   2.64120007       1.38285293E-04
   2.65319991       1.44574384E-04
   2.66520000       1.51294065E-04
   2.67720008       1.58374765E-04
   2.68919992       1.65738893E-04
   2.70120001       1.73303895E-04
   2.71320009       1.80985851E-04
   2.72519994       1.88703300E-04
   2.73720002       1.96381297E-04
   2.74920011       2.03955249E-04
   2.76119995       2.11374601E-04
   2.77320004       2.18605885E-04
   2.78520012       2.25635129E-04
   2.79719996       2.32469218E-04
   2.80920005       2.39136367E-04
   2.82119989       2.45685223E-04
   2.83319998       2.52183178E-04
   2.84520006       2.58713233E-04
   2.85719991       2.65370065E-04
   2.86919999       2.72255216E-04
   2.88120008       2.79471802E-04
   2.89319992       2.87118601E-04
   2.90520000       2.95284204E-04
   2.91720009       3.04041605E-04
   2.92919993       3.13442928E-04
   2.94120002       3.23515007E-04
   2.95320010       3.34255834E-04
   2.96519995       3.45632172E-04
   2.97720003       3.57578305E-04
   2.98920012       3.69995832E-04
   3.00119996       3.82755097E-04
   3.01320004       3.95697250E-04
   3.02519989       4.08637716E-04
   3.03719997       4.21370525E-04
   3.04920006       4.33673355E-04
   3.06119990       4.45313199E-04
   3.07319999       4.56052425E-04
   3.08520007       4.65654972E-04
   3.09719992       4.73892898E-04
   3.10920000       4.80552349E-04
   3.12120008       4.85439727E-04
   3.13319993       4.88387013E-04
   3.14520001       4.89257160E-04
   3.15720010       4.87947720E-04
   3.16919994       4.84394957E-04
   3.18120003       4.78576170E-04
   3.19320011       4.70511353E-04
   3.20519996       4.60263662E-04
   3.21720004       4.47938917E-04
   3.22919989       4.33683861E-04
   3.24119997       4.17683215E-04
   3.25320005       4.00155695E-04
   3.26519990       3.81349004E-04
   3.27719998       3.61533632E-04
   3.28920007       3.40996194E-04
   3.30119991       3.20031977E-04
   3.31320000       2.98937113E-04
   3.32520008       2.78000662E-04
   3.33719993       2.57496897E-04
   3.34920001       2.37678134E-04
   3.36120009       2.18768182E-04
   3.37319994       2.00956987E-04
   3.38520002       1.84396355E-04
   3.39720011       1.69197199E-04
   3.40919995       1.55428366E-04
   3.42120004       1.43116937E-04
   3.43319988       1.32250178E-04
   3.44519997       1.22778889E-04
   3.45720005       1.14622053E-04
   3.46919990       1.07672553E-04
   3.48119998       1.01803620E-04
   3.49320006       9.68757377E-05
   3.50519991       9.27436777E-05
   3.51719999       8.92632088E-05
   3.52920008       8.62973538E-05
   3.54119992       8.37218249E-05
   3.55320001       8.14292725E-05
   3.56520009       7.93325089E-05
   3.57719994       7.73662832E-05
   3.58920002       7.54878565E-05
   3.60120010       7.36762595E-05
   3.61319995       7.19304444E-05
   3.62520003       7.02665347E-05
   3.63720012       6.87143329E-05
   3.64919996       6.73133327E-05
   3.66120005       6.61085360E-05
   3.67319989       6.51463051E-05
   3.68519998       6.44703978E-05
   3.69720006       6.41184961E-05
   3.70919991       6.41193110E-05
   3.72119999       6.44903121E-05
   3.73320007       6.52362432E-05
   3.74519992       6.63483443E-05
   3.75720000       6.78043070E-05
   3.76920009       6.95689523E-05
   3.78119993       7.15953647E-05
   3.79320002       7.38265808E-05
   3.80520010       7.61976844E-05
   3.81719995       7.86381061E-05
   3.82920003       8.10741476E-05
   3.84120011       8.34315797E-05
   3.85319996       8.56382539E-05
   3.86520004       8.76266204E-05
   3.87719989       8.93361284E-05
   3.88919997       9.07154099E-05
   3.90120006       9.17241705E-05
   3.91319990       9.23348052E-05
   3.92519999       9.25335917E-05
   3.93720007       9.23214538E-05
   3.94919991       9.17142606E-05
   3.96120000       9.07426365E-05
   3.97320008       8.94512414E-05
   3.98519993       8.78975407E-05
   3.99720001       8.61500885E-05
   4.00920010       8.42863083E-05
   4.02120018       8.23898808E-05
   4.03319979       8.05477466E-05
   4.04519987       7.88469697E-05
   4.05719995       7.73713255E-05
   4.06920004       7.61980118E-05
   4.08120012       7.53945060E-05
   4.09320021       7.50156469E-05
   4.10519981       7.51012412E-05
   4.11719990       7.56741283E-05
   4.12919998       7.67389647E-05
   4.14120007       7.82816642E-05
   4.15320015       8.02695722E-05
   4.16520023       8.26524411E-05
   4.17719984       8.53640449E-05
   4.18919992       8.83245084E-05
   4.20120001       9.14431803E-05
   4.21320009       9.46219225E-05
   4.22520018       9.77587915E-05
   4.23719978       1.00751859E-04
   4.24919987       1.03503044E-04
   4.26119995       1.05921798E-04
   4.27320004       1.07928572E-04
   4.28520012       1.09457746E-04
   4.29720020       1.10460132E-04
   4.30919981       1.10904781E-04
   4.32119989       1.10780071E-04
   4.33319998       1.10094064E-04
   4.34520006       1.08874090E-04
   4.35720015       1.07165521E-04
   4.36920023       1.05029903E-04
   4.38119984       1.02542377E-04
   4.39319992       9.97886673E-05
   4.40520000       9.68615568E-05
   4.41720009       9.38572339E-05
   4.42920017       9.08714501E-05
   4.44119978       8.79959189E-05
   4.45319986       8.53147649E-05
   4.46519995       8.29015989E-05
   4.47720003       8.08170007E-05
   4.48920012       7.91067578E-05
   4.50120020       7.78008180E-05
   4.51319981       7.69130638E-05
   4.52519989       7.64418655E-05
   4.53719997       7.63714124E-05
   4.54920006       7.66736703E-05
   4.56120014       7.73108404E-05
   4.57320023       7.82382485E-05
   4.58519983       7.94073130E-05
   4.59719992       8.07684846E-05
   4.60920000       8.22740330E-05
   4.62120008       8.38803608E-05
   4.63320017       8.55497783E-05
   4.64519978       8.72517339E-05
   4.65719986       8.89632356E-05
   4.66919994       9.06686182E-05
   4.68120003       9.23587140E-05
   4.69320011       9.40293830E-05
   4.70520020       9.56797594E-05
   4.71719980       9.73101705E-05
   4.72919989       9.89201217E-05
   4.74119997       1.00506426E-04
   4.75320005       1.02061640E-04
   4.76520014       1.03573067E-04
   4.77720022       1.05022315E-04
   4.78919983       1.06385502E-04
   4.80119991       1.07634150E-04
   4.81320000       1.08736545E-04
   4.82520008       1.09659697E-04
   4.83720016       1.10371504E-04
   4.84919977       1.10843117E-04
   4.86119986       1.11051202E-04
   4.87319994       1.10980021E-04
   4.88520002       1.10623027E-04
   4.89720011       1.09983957E-04
   4.90920019       1.09077286E-04
   4.92119980       1.07927997E-04
   4.93319988       1.06570660E-04
   4.94519997       1.05047962E-04
   4.95720005       1.03408769E-04
   4.96920013       1.01705809E-04
   4.98120022       9.99933691E-05
   4.99319983       9.83248028E-05
   5.00519991       9.67504529E-05
   5.01719999       9.53157360E-05
   5.02920008       9.40597165E-05
   5.04120016       9.30141687E-05
   5.05319977       9.22030667E-05
   5.06519985       9.16425852E-05
   5.07719994       9.13414115E-05
   5.08920002       9.13013719E-05
   5.10120010       9.15181954E-05
   5.11320019       9.19823287E-05
   5.12519979       9.26797220E-05
   5.13719988       9.35924909E-05
   5.14919996       9.46993459E-05
   5.16120005       9.59759855E-05
   5.17320013       9.73952483E-05
   5.18520021       9.89272157E-05
   5.19719982       1.00539386E-04
   5.20919991       1.02196864E-04
   5.22119999       1.03862767E-04
   5.23320007       1.05498912E-04
   5.24520016       1.07066728E-04
   5.25719976       1.08528453E-04
   5.26919985       1.09848639E-04
   5.28119993       1.10995781E-04
   5.29320002       1.11943998E-04
   5.30520010       1.12674657E-04
   5.31720018       1.13177717E-04
   5.32919979       1.13452719E-04
   5.34119987       1.13509210E-04
   5.35319996       1.13366616E-04
   5.36520004       1.13053320E-04
   5.37720013       1.12605245E-04
   5.38920021       1.12063673E-04
   5.40119982       1.11472720E-04
   5.41319990       1.10876477E-04
   5.42519999       1.10316032E-04
   5.43720007       1.09826680E-04
   5.44920015       1.09435437E-04
   5.46120024       1.09159191E-04
   5.47319984       1.09003522E-04
   5.48519993       1.08962420E-04
   5.49720001       1.09018838E-04
   5.50920010       1.09146145E-04
   5.52120018       1.09310291E-04
   5.53319979       1.09472639E-04
   5.54519987       1.09593093E-04
   5.55719995       1.09633424E-04
   5.56920004       1.09560424E-04
   5.58120012       1.09348752E-04
   5.59320021       1.08983149E-04
   5.60519981       1.08459913E-04
   5.61719990       1.07787506E-04
   5.62919998       1.06986256E-04
   5.64120007       1.06087202E-04
   5.65320015       1.05130159E-04
   5.66520023       1.04161096E-04
   5.67719984       1.03229206E-04
   5.68919992       1.02383739E-04
   5.70120001       1.01670856E-04
   5.71320009       1.01130834E-04
   5.72520018       1.00795645E-04
   5.73719978       1.00687292E-04
   5.74919987       1.00816666E-04
   5.76119995       1.01183286E-04
   5.77320004       1.01775644E-04
   5.78520012       1.02572201E-04
   5.79720020       1.03542880E-04
   5.80919981       1.04650819E-04
   5.82119989       1.05854459E-04
   5.83319998       1.07109525E-04
   5.84520006       1.08370972E-04
   5.85720015       1.09594701E-04
   5.86920023       1.10738976E-04
   5.88119984       1.11765534E-04
   5.89319992       1.12640359E-04
   5.90520000       1.13334194E-04
   5.91720009       1.13822818E-04
   5.92920017       1.14087263E-04
   5.94119978       1.14113864E-04
   5.95319986       1.13894508E-04
   5.96519995       1.13426868E-04
   5.97720003       1.12714806E-04
   5.98920012       1.11768917E-04
   6.00120020       1.10607049E-04
   6.01319981       1.09254928E-04
   6.02519989       1.07746564E-04
   6.03719997       1.06124469E-04
   6.04920006       1.04439518E-04
   6.06120014       1.02750324E-04
   6.07320023       1.01122110E-04
   6.08519983       9.96250019E-05
   6.09719992       9.83317586E-05
   6.10920000       9.73150163E-05
   6.12120008       9.66441148E-05
   6.13320017       9.63817511E-05
   6.14519978       9.65805229E-05
   6.15719986       9.72796843E-05
   6.16919994       9.85022270E-05
   6.18120003       1.00252633E-04
   6.19320011       1.02515318E-04
   6.20520020       1.05254112E-04
   6.21719980       1.08412554E-04
   6.22919989       1.11915397E-04
   6.24119997       1.15670940E-04
   6.25320005       1.19574244E-04
   6.26520014       1.23511039E-04
   6.27720022       1.27362087E-04
   6.28919983       1.31007691E-04
   6.30119991       1.34332353E-04
   6.31320000       1.37228955E-04
   6.32520008       1.39602605E-04
   6.33720016       1.41373806E-04
   6.34919977       1.42480931E-04
   6.36119986       1.42881749E-04
   6.37319994       1.42554243E-04
   6.38520002       1.41496610E-04
   6.39720011       1.39726413E-04
   6.40920019       1.37279363E-04
   6.42119980       1.34207381E-04
   6.43319988       1.30576547E-04
   6.44519997       1.26464700E-04
   6.45720005       1.21959114E-04
   6.46920013       1.17154064E-04
   6.48120022       1.12148591E-04
   6.49319983       1.07044303E-04
   6.50519991       1.01943297E-04
   6.51719999       9.69462562E-05
   6.52920008       9.21504907E-05
   6.54120016       8.76481718E-05
   6.55319977       8.35245592E-05
   6.56519985       7.98563051E-05
   6.57719994       7.67098827E-05
   6.58920002       7.41401163E-05
   6.60120010       7.21889373E-05
   6.61320019       7.08844309E-05
   6.62519979       7.02401740E-05
   6.63719988       7.02550969E-05
   6.64919996       7.09137312E-05
   6.66120005       7.21870456E-05
   6.67320013       7.40337346E-05
   6.68520021       7.64020733E-05
   6.69719982       7.92321080E-05
   6.70919991       8.24581512E-05
   6.72119999       8.60114524E-05
   6.73320007       8.98228172E-05
   6.74520016       9.38250596E-05
   6.75719976       9.79551551E-05
   6.76919985       1.02155813E-04
   6.78119993       1.06376603E-04
   6.79320002       1.10574416E-04
   6.80520010       1.14713199E-04
   6.81720018       1.18763266E-04
   6.82919979       1.22699988E-04
   6.84119987       1.26502127E-04
   6.85319996       1.30150031E-04
   6.86520004       1.33623762E-04
   6.87720013       1.36901319E-04
   6.88920021       1.39957367E-04
   6.90119982       1.42762321E-04
   6.91319990       1.45282000E-04
   6.92519999       1.47478087E-04
   6.93720007       1.49309068E-04
   6.94920015       1.50731736E-04
   6.96120024       1.51703352E-04
   6.97319984       1.52184002E-04
   6.98519993       1.52139124E-04
   6.99720001       1.51542015E-04
   7.00920010       1.50376160E-04
   7.02120018       1.48637017E-04
   7.03319979       1.46333463E-04
   7.04519987       1.43488403E-04
   7.05719995       1.40138902E-04
   7.06920004       1.36335409E-04
   7.08120012       1.32140543E-04
   7.09320021       1.27627354E-04
   7.10519981       1.22876998E-04
   7.11719990       1.17976495E-04
   7.12919998       1.13016067E-04
   7.14120007       1.08086766E-04
   7.15320015       1.03278100E-04
   7.16520023       9.86760497E-05
   7.17719984       9.43613413E-05
   7.18919992       9.04080807E-05
   7.20120001       8.68827192E-05
   7.21320009       8.38433625E-05
   7.22520018       8.13392544E-05
   7.23719978       7.94105072E-05
   7.24919987       7.80878545E-05
   7.26119995       7.73924403E-05
   7.27320004       7.73356587E-05
   7.28520012       7.79188995E-05
   7.29720020       7.91332277E-05
   7.30919981       8.09591729E-05
   7.32119989       8.33664817E-05
   7.33319998       8.63140594E-05
   7.34520006       8.97500940E-05
   7.35720015       9.36123906E-05
   7.36920023       9.78290846E-05
   7.38119984       1.02319616E-04
   7.39319992       1.06996158E-04
   7.40520000       1.11765286E-04
   7.41720009       1.16530027E-04
   7.42920017       1.21192039E-04
   7.44119978       1.25654056E-04
   7.45319986       1.29822321E-04
   7.46519995       1.33608875E-04
   7.47720003       1.36933755E-04
   7.48920012       1.39726893E-04
   7.50120020       1.41929690E-04
   7.51319981       1.43496116E-04
   7.52519989       1.44393518E-04
   7.53719997       1.44603066E-04
   7.54920006       1.44119695E-04
   7.56120014       1.42951962E-04
   7.57320023       1.41121578E-04
   7.58519983       1.38662755E-04
   7.59719992       1.35621478E-04
   7.60920000       1.32054687E-04
   7.62120008       1.28029351E-04
   7.63320017       1.23621532E-04
   7.64519978       1.18915304E-04
   7.65719986       1.14001748E-04
   7.66919994       1.08977649E-04
   7.68120003       1.03944090E-04
   7.69320011       9.90049011E-05
   7.70520020       9.42647894E-05
   7.71719980       8.98273720E-05
   7.72919989       8.57928608E-05
   7.74119997       8.22556976E-05
   7.75320005       7.93020226E-05
   7.76520014       7.70071565E-05
   7.77720022       7.54332214E-05
   7.78919983       7.46269943E-05
   7.80119991       7.46180813E-05
   7.81320000       7.54176144E-05
   7.82520008       7.70174447E-05
   7.83720016       7.93900617E-05
   7.84919977       8.24891249E-05
   7.86119986       8.62506859E-05
   7.87319994       9.05950510E-05
   7.88520002       9.54292045E-05
   7.89720011       1.00649668E-04
   7.90920019       1.06145701E-04
   7.92119980       1.11802634E-04
   7.93319988       1.17505282E-04
   7.94519997       1.23141144E-04
   7.95720005       1.28603395E-04
   7.96920013       1.33793466E-04
   7.98120022       1.38623232E-04
   7.99319983       1.43016572E-04
   8.00520039       1.46910534E-04
   8.01720047       1.50255873E-04
   8.02919960       1.53017172E-04
   8.04119968       1.55172456E-04
   8.05319977       1.56712602E-04
   8.06519985       1.57640345E-04
   8.07719994       1.57969102E-04
   8.08920002       1.57721821E-04
   8.10120010       1.56929600E-04
   8.11320019       1.55630507E-04
   8.12520027       1.53868285E-04
   8.13720036       1.51691143E-04
   8.14920044       1.49150845E-04
   8.16119957       1.46301507E-04
   8.17319965       1.43198835E-04
   8.18519974       1.39899159E-04
   8.19719982       1.36458664E-04
   8.20919991       1.32932662E-04
   8.22119999       1.29374806E-04
   8.23320007       1.25836421E-04
   8.24520016       1.22365804E-04
   8.25720024       1.19007600E-04
   8.26920033       1.15802170E-04
   8.28120041       1.12785157E-04
   8.29319954       1.09986984E-04
   8.30519962       1.07432512E-04
   8.31719971       1.05140833E-04
   8.32919979       1.03125130E-04
   8.34119987       1.01392696E-04
   8.35319996       9.99451004E-05
   8.36520004       9.87784442E-05
   8.37720013       9.78838143E-05
   8.38920021       9.72478229E-05
   8.40120029       9.68532768E-05
   8.41320038       9.66799926E-05
   8.42520046       9.67056621E-05
   8.43719959       9.69068278E-05
   8.44919968       9.72598355E-05
   8.46119976       9.77418604E-05
   8.47319984       9.83317659E-05
   8.48519993       9.90110275E-05
   8.49720001       9.97643147E-05
   8.50920010       1.00579964E-04
   8.52120018       1.01450183E-04
   8.53320026       1.02370890E-04
   8.54520035       1.03341321E-04
   8.55720043       1.04363236E-04
   8.56919956       1.05439904E-04
   8.58119965       1.06574793E-04
   8.59319973       1.07770204E-04
   8.60519981       1.09025787E-04
   8.61719990       1.10337147E-04
   8.62919998       1.11694659E-04
   8.64120007       1.13082533E-04
   8.65320015       1.14478360E-04
   8.66520023       1.15853050E-04
   8.67720032       1.17171352E-04
   8.68920040       1.18392927E-04
   8.70119953       1.19473829E-04
   8.71319962       1.20368582E-04
   8.72519970       1.21032361E-04
   8.73719978       1.21423596E-04
   8.74919987       1.21506397E-04
   8.76119995       1.21252931E-04
   8.77320004       1.20645505E-04
   8.78520012       1.19678138E-04
   8.79720020       1.18357559E-04
   8.80920029       1.16703530E-04
   8.82120037       1.14748516E-04
   8.83320045       1.12536589E-04
   8.84519958       1.10121699E-04
   8.85719967       1.07565465E-04
   8.86919975       1.04934508E-04
   8.88119984       1.02297585E-04
   8.89319992       9.97226380E-05
   8.90520000       9.72740818E-05
   8.91720009       9.50103204E-05
   8.92920017       9.29817033E-05
   8.94120026       9.12291289E-05
   8.95320034       8.97831269E-05
   8.96520042       8.86636917E-05
   8.97719955       8.78805949E-05
   8.98919964       8.74342077E-05
   9.00119972       8.73167519E-05
   9.01319981       8.75136830E-05
   9.02519989       8.80053194E-05
   9.03719997       8.87682399E-05
   9.04920006       8.97766076E-05
   9.06120014       9.10031886E-05
   9.07320023       9.24199485E-05
   9.08520031       9.39983438E-05
   9.09720039       9.57092561E-05
   9.10919952       9.75225776E-05
   9.12119961       9.94067232E-05
   9.13319969       1.01328042E-04
   9.14519978       1.03250291E-04
   9.15719986       1.05134430E-04
   9.16919994       1.06938678E-04
   9.18120003       1.08619068E-04
   9.19320011       1.10130517E-04
   9.20520020       1.11428286E-04
   9.21720028       1.12470021E-04
   9.22920036       1.13218055E-04
   9.24120045       1.13641923E-04
   9.25319958       1.13720882E-04
   9.26519966       1.13446178E-04
   9.27719975       1.12822971E-04
   9.28919983       1.11871501E-04
   9.30119991       1.10627545E-04
   9.31320000       1.09141867E-04
   9.32520008       1.07478809E-04
   9.33720016       1.05713807E-04
   9.34920025       1.03930157E-04
   9.36120033       1.02215083E-04
   9.37320042       1.00655277E-04
   9.38519955       9.93324065E-05
   9.39719963       9.83186255E-05
   9.40919971       9.76725350E-05
   9.42119980       9.74359064E-05
   9.43319988       9.76312513E-05
   9.44519997       9.82605561E-05
