 -0.622799993       0.00000000    
 -0.610800028       0.00000000    
 -0.598800004       0.00000000    
 -0.586799979       0.00000000    
 -0.574800014       0.00000000    
 -0.562799990       0.00000000    
 -0.550800025       0.00000000    
 -0.538800001       0.00000000    
 -0.526799977       0.00000000    
 -0.514800012       0.00000000    
 -0.502799988       0.00000000    
 -0.490799993       0.00000000    
 -0.478799999       0.00000000    
 -0.466800004       0.00000000    
 -0.454800010      -0.00000000    
 -0.442799985      -3.06673104E-38
 -0.430799991      -1.85739690E-37
 -0.418799996      -7.25091061E-37
 -0.406800002      -2.02185297E-36
 -0.394800007      -3.12831483E-36
 -0.382800013       5.66894240E-36
 -0.370799989       5.70852544E-35
 -0.358799994       2.31264509E-34
 -0.346799999       6.68342191E-34
 -0.334800005       1.54263705E-33
 -0.322800010       3.07084252E-33
 -0.310799986       6.06663120E-33
 -0.298799992       1.45906693E-32
 -0.286799997       4.36306064E-32
 -0.274800003       1.34551656E-31
 -0.262800008       3.74195587E-31
 -0.250800014       8.91720799E-31
 -0.238800004       1.76426392E-30
 -0.226799995       2.70842400E-30
 -0.214800000       2.42016382E-30
 -0.202800006      -2.43586692E-30
 -0.190799996      -1.81324845E-29
 -0.178800002      -5.33402909E-29
 -0.166800007      -1.14633060E-28
 -0.154799998      -1.94814422E-28
 -0.142800003      -2.52141545E-28
 -0.130799994      -1.84032067E-28
 -0.118799999       1.89703197E-28
 -0.106799997       1.10268031E-27
  -9.48000029E-02   2.73100930E-27
  -8.28000009E-02   4.95259742E-27
  -7.07999989E-02   6.97579761E-27
  -5.88000007E-02   6.93839682E-27
  -4.67999987E-02   1.74035157E-27
  -3.48000005E-02  -1.24473584E-26
  -2.28000004E-02  -3.84692550E-26
  -1.08000003E-02  -7.49187365E-26
   1.20000006E-03  -1.11603813E-25
   1.31999999E-02  -1.25210493E-25
   2.52000000E-02  -7.81885095E-26
   3.72000001E-02   7.47641505E-26
   4.91999984E-02   3.68154654E-25
   6.12000003E-02   7.93154922E-25
   7.32000023E-02   1.25538309E-24
   8.51999968E-02   1.53728076E-24
   9.71999988E-02   1.29086871E-24
  0.109200001       9.47196752E-26
  0.121200003      -2.39395441E-24
  0.133200005      -6.18342862E-24
  0.145199999      -1.06257103E-23
  0.157199994      -1.41343884E-23
  0.169200003      -1.41192455E-23
  0.181199998      -7.35774826E-24
  0.193200007       9.00705683E-24
  0.205200002       3.58004043E-23
  0.217199996       6.97251435E-23
  0.229200006       1.01483863E-22
  0.241200000       1.15148158E-22
  0.253199995       9.00285425E-23
  0.265199989       6.10504267E-24
  0.277200013      -1.46736320E-22
  0.289200008      -3.56928106E-22
  0.301200002      -5.80195811E-22
  0.313199997      -7.34552792E-22
  0.325199991      -7.07630547E-22
  0.337199986      -3.81679886E-22
  0.349200010       3.22329803E-22
  0.361200005       1.38713887E-21
  0.373199999       2.64295858E-21
  0.385199994       3.73613128E-21
  0.397199988       4.15064853E-21
  0.409200013       3.30609894E-21
  0.421200007       7.39042105E-22
  0.433200002      -3.65405541E-21
  0.445199996      -9.37072688E-21
  0.457199991      -1.51450825E-20
  0.469199985      -1.89865383E-20
  0.481200010      -1.85041595E-20
  0.493200004      -1.15444856E-20
  0.505200028       2.93226742E-21
  0.517199993       2.39373775E-20
  0.529200017       4.78088390E-20
  0.541199982       6.81894287E-20
  0.553200006       7.69147947E-20
  0.565199971       6.59000771E-20
  0.577199996       2.97998569E-20
  0.589200020      -3.11424356E-20
  0.601199985      -1.08931686E-19
  0.613200009      -1.87313046E-19
  0.625199974      -2.43676526E-19
  0.637199998      -2.53588709E-19
  0.649200022      -1.97374871E-19
  0.661199987      -6.73363146E-20
  0.673200011       1.26414006E-19
  0.685199976       3.53608855E-19
  0.697200000       5.66508291E-19
  0.709200025       7.07928000E-19
  0.721199989       7.23391831E-19
  0.733200014       5.74776375E-19
  0.745199978       2.52081818E-19
  0.757200003      -2.19744381E-19
  0.769200027      -7.80665558E-19
  0.781199992      -1.34187752E-18
  0.793200016      -1.79660424E-18
  0.805199981      -2.03262616E-18
  0.817200005      -1.94462655E-18
  0.829200029      -1.44661554E-18
  0.841199994      -4.87194905E-19
  0.853200018       9.28470533E-19
  0.865199983       2.70810992E-18
  0.877200007       4.63726426E-18
  0.889199972       6.35247041E-18
  0.901199996       7.34399155E-18
  0.913200021       7.01272060E-18
  0.925199986       4.79907609E-18
  0.937200010       3.82007982E-19
  0.949199975      -6.08480511E-18
  0.961199999      -1.37670672E-17
  0.973200023      -2.10672728E-17
  0.985199988      -2.57595110E-17
  0.997200012      -2.54005974E-17
   1.00919998      -1.80027142E-17
   1.02119994      -2.85137160E-18
   1.03320003       1.87485515E-17
   1.04519999       4.30799700E-17
   1.05719995       6.42433595E-17
   1.06920004       7.51671397E-17
   1.08120000       6.93492675E-17
   1.09319997       4.30170811E-17
   1.10520005      -2.85296868E-18
   1.11720002      -6.13501795E-17
   1.12919998      -1.19918253E-16
   1.14119995      -1.62468146E-16
   1.15320003      -1.73173914E-16
   1.16520000      -1.41221767E-16
   1.17719996      -6.52709494E-17
   1.18920004       4.38558885E-17
   1.20120001       1.63548933E-16
   1.21319997       2.63486857E-16
   1.22520006       3.13002338E-16
   1.23720002       2.90161671E-16
   1.24919999       1.90053123E-16
   1.26119995       2.94569108E-17
   1.27320004      -1.54387081E-16
   1.28520000      -3.11768502E-16
   1.29719996      -3.94064291E-16
   1.30920005      -3.69564525E-16
   1.32120001      -2.36787955E-16
   1.33319998      -3.03025541E-17
   1.34519994       1.84499102E-16
   1.35720003       3.28270663E-16
   1.36919999       3.33012750E-16
   1.38119996       1.69010496E-16
   1.39320004      -1.35465794E-16
   1.40520000      -4.90114280E-16
   1.41719997      -7.59232900E-16
   1.42920005      -7.98210286E-16
   1.44120002      -5.02202976E-16
   1.45319998       1.46477275E-16
   1.46519995       1.04832853E-15
   1.47720003       1.98788680E-15
   1.48920000       2.67294016E-15
   1.50119996       2.80757668E-15
   1.51320004       2.18316220E-15
   1.52520001       7.62368034E-16
   1.53719997      -1.27137168E-15
   1.54920006      -3.52102004E-15
   1.56120002      -5.44814260E-15
   1.57319999      -6.49982675E-15
   1.58519995      -6.26118411E-15
   1.59720004      -4.59153056E-15
   1.60920000      -1.70064702E-15
   1.62119997       1.86662048E-15
   1.63320005       5.34541910E-15
   1.64520001       7.94360966E-15
   1.65719998       9.06265453E-15
   1.66919994       8.48135107E-15
   1.68120003       6.43997244E-15
   1.69319999       3.58584622E-15
   1.70519996       7.81114302E-16
   1.71720004      -1.18118522E-15
   1.72920001      -1.86932040E-15
   1.74119997      -1.41446498E-15
   1.75320005      -5.37557972E-16
   1.76520002      -3.62313579E-16
   1.77719998      -2.04073382E-15
   1.78919995      -6.28528517E-15
   1.80120003      -1.29502605E-14
   1.81320000      -2.08149165E-14
   1.82519996      -2.76831001E-14
   1.83720005      -3.08326159E-14
   1.84920001      -2.77414742E-14
   1.86119998      -1.69172758E-14
   1.87320006       1.40704380E-15
   1.88520002       2.49471091E-14
   1.89719999       4.95726134E-14
   1.90919995       7.00710513E-14
   1.92120004       8.13324560E-14
   1.93320000       7.96722240E-14
   1.94519997       6.39292222E-14
   1.95720005       3.59956849E-14
   1.96920002       5.61896458E-16
   1.98119998      -3.59323472E-14
   1.99319994      -6.69093754E-14
   2.00519991      -8.74008439E-14
   2.01719999      -9.54123933E-14
   2.02920008      -9.24461720E-14
   2.04119992      -8.29310985E-14
   2.05320001      -7.26256755E-14
   2.06520009      -6.63954162E-14
   2.07719994      -6.60242125E-14
   2.08920002      -6.88052452E-14
   2.10120010      -6.75214008E-14
   2.11319995      -5.20783639E-14
   2.12520003      -1.25710082E-14
   2.13720012       5.69241309E-14
   2.14919996       1.54885206E-13
   2.16120005       2.70346191E-13
   2.17319989       3.83250506E-13
   2.18519998       4.67497568E-13
   2.19720006       4.96295008E-13
   2.20919991       4.48712492E-13
   2.22119999       3.15838230E-13
   2.23320007       1.04835255E-13
   2.24519992      -1.60437242E-13
   2.25720000      -4.42785674E-13
   2.26920009      -6.98546743E-13
   2.28119993      -8.86473458E-13
   2.29320002      -9.76475519E-13
   2.30520010      -9.55911457E-13
   2.31719995      -8.31627844E-13
   2.32920003      -6.27012331E-13
   2.34120011      -3.74693495E-13
   2.35319996      -1.06840501E-13
   2.36520004       1.54119054E-13
   2.37719989       4.01420162E-13
   2.38919997       6.44315384E-13
   2.40120006       9.02129120E-13
   2.41319990       1.19313880E-12
   2.42519999       1.52115950E-12
   2.43720007       1.86383114E-12
   2.44919991       2.16671559E-12
   2.46120000       2.34625210E-12
   2.47320008       2.30256916E-12
   2.48519993       1.94056706E-12
   2.49720001       1.19523824E-12
   2.50920010       5.55161318E-14
   2.52119994      -1.41937688E-12
   2.53320003      -3.09595166E-12
   2.54520011      -4.77720077E-12
   2.55719995      -6.22718587E-12
   2.56920004      -7.20535740E-12
   2.58119988      -7.50418130E-12
   2.59319997      -6.98281233E-12
   2.60520005      -5.59052370E-12
   2.61719990      -3.37605074E-12
   2.62919998      -4.82383122E-13
   2.64120007       2.87018044E-12
   2.65319991       6.40759668E-12
   2.66520000       9.82649725E-12
   2.67720008       1.28149201E-11
   2.68919992       1.50674959E-11
   2.70120001       1.62965162E-11
   2.71320009       1.62430937E-11
   2.72519994       1.46937705E-11
   2.73720002       1.15068276E-11
   2.74920011       6.64925797E-12
   2.76119995       2.40368760E-13
   2.77320004      -7.40698562E-12
   2.78520012      -1.57602872E-11
   2.79719996      -2.40698607E-11
   2.80920005      -3.14105721E-11
   2.82119989      -3.67668083E-11
   2.83319998      -3.91556544E-11
   2.84520006      -3.77736141E-11
   2.85719991      -3.21442907E-11
   2.86919999      -2.22403762E-11
   2.88120008      -8.55490331E-12
   2.89319992       7.89677351E-12
   2.90520000       2.56511444E-11
   2.91720009       4.29405331E-11
   2.92919993       5.78877848E-11
   2.94120002       6.87234436E-11
   2.95320010       7.39936584E-11
   2.96519995       7.27297458E-11
   2.97720003       6.45587611E-11
   2.98920012       4.97455931E-11
   3.00119996       2.91695001E-11
   3.01320004       4.24693050E-12
   3.02519989      -2.31822634E-11
   3.03719997      -5.09886612E-11
   3.04920006      -7.68953651E-11
   3.06119990      -9.86232762E-11
   3.07319999      -1.14040548E-10
   3.08520007      -1.21319885E-10
   3.09719992      -1.19104809E-10
   3.10920000      -1.06678659E-10
   3.12120008      -8.41199402E-11
   3.13319993      -5.24177056E-11
   3.14520001      -1.35148438E-11
   3.15720010       2.97509101E-11
   3.16919994       7.38278744E-11
   3.18120003       1.14754026E-10
   3.19320011       1.48560095E-10
   3.20519996       1.71725426E-10
   3.21720004       1.81622176E-10
   3.22919989       1.76876111E-10
   3.24119997       1.57580018E-10
   3.25320005       1.25315799E-10
   3.26519990       8.29727259E-11
   3.27719998       3.43847659E-11
   3.28920007      -1.61571711E-11
   3.30119991      -6.44402101E-11
   3.31320000      -1.06825174E-10
   3.32520008      -1.40625747E-10
   3.33719993      -1.64316852E-10
   3.34920001      -1.77551363E-10
   3.36120009      -1.80998841E-10
   3.37319994      -1.76051104E-10
   3.38520002      -1.64457892E-10
   3.39720011      -1.47961948E-10
   3.40919995      -1.27993838E-10
   3.42120004      -1.05468703E-10
   3.43319988      -8.07034994E-11
   3.44519997      -5.34513891E-11
   3.45720005      -2.30331604E-11
   3.46919990       1.14615695E-11
   3.48119998       5.09319358E-11
   3.49320006       9.60044752E-11
   3.50519991       1.46770929E-10
   3.51719999       2.02539943E-10
   3.52920008       2.61620892E-10
   3.54119992       3.21166510E-10
   3.55320001       3.77110648E-10
   3.56520009       4.24244612E-10
   3.57719994       4.56474136E-10
   3.58920002       4.67283046E-10
   3.60120010       4.50401161E-10
   3.61319995       4.00633249E-10
   3.62520003       3.14758192E-10
   3.63720012       1.92371105E-10
   3.64919996       3.65123973E-11
   3.66120005      -1.46070725E-10
   3.67319989      -3.45155182E-10
   3.68519998      -5.47832946E-10
   3.69720006      -7.39849793E-10
   3.70919991      -9.07388720E-10
   3.72119999      -1.03911357E-09
   3.73320007      -1.12821807E-09
   3.74519992      -1.17420718E-09
   3.75720000      -1.18413557E-09
   3.76920009      -1.17309351E-09
   3.78119993      -1.16381516E-09
   3.79320002      -1.18540111E-09
   3.80520010      -1.27127631E-09
   3.81719995      -1.45662471E-09
   3.82920003      -1.77564385E-09
   3.84120011      -2.25904095E-09
   3.85319996      -2.93222713E-09
   3.86520004      -3.81467657E-09
   3.87719989      -4.92087748E-09
   3.88919997      -6.26325614E-09
   3.90120006      -7.85733967E-09
   3.91319990      -9.72934266E-09
   3.92519999      -1.19261729E-08
   3.93720007      -1.45277568E-08
   3.94919991      -1.76613248E-08
   3.96120000      -2.15172182E-08
   3.97320008      -2.63654361E-08
   3.98519993      -3.25720606E-08
   3.99720001      -4.06145837E-08
   4.00920010      -5.10948439E-08
   4.02120018      -6.47486118E-08
   4.03319979      -8.24505548E-08
   4.04519987      -1.05213644E-07
   4.05719995      -1.34182258E-07
   4.06920004      -1.70618591E-07
   4.08120012      -2.15882395E-07
   4.09320021      -2.71404133E-07
   4.10519981      -3.38652598E-07
   4.11719990      -4.19097859E-07
   4.12919998      -5.14170836E-07
   4.14120007      -6.25221617E-07
   4.15320015      -7.53477536E-07
   4.16520023      -9.00003045E-07
   4.17719984      -1.06566290E-06
   4.18919992      -1.25109079E-06
   4.20120001      -1.45666297E-06
   4.21320009      -1.68248062E-06
   4.22520018      -1.92835796E-06
   4.23719978      -2.19381991E-06
   4.24919987      -2.47810704E-06
   4.26119995      -2.78018774E-06
   4.27320004      -3.09877828E-06
   4.28520012      -3.43236843E-06
   4.29720020      -3.77925153E-06
   4.30919981      -4.13755970E-06
   4.32119989      -4.50529888E-06
   4.33319998      -4.88038722E-06
   4.34520006      -5.26069425E-06
   4.35720015      -5.64407674E-06
   4.36920023      -6.02841419E-06
   4.38119984      -6.41164161E-06
   4.39319992      -6.79178083E-06
   4.40520000      -7.16696832E-06
   4.41720009      -7.53548147E-06
   4.42920017      -7.89576188E-06
   4.44119978      -8.24643485E-06
   4.45319986      -8.58632848E-06
   4.46519995      -8.91448599E-06
   4.47720003      -9.23018160E-06
   4.48920012      -9.53292147E-06
   4.50120020      -9.82244910E-06
   4.51319981      -1.00987454E-05
   4.52519989      -1.03620087E-05
   4.53719997      -1.06126536E-05
   4.54920006      -1.08512750E-05
   4.56120014      -1.10786332E-05
   4.57320023      -1.12956159E-05
   4.58519983      -1.15032008E-05
   4.59719992      -1.17024283E-05
   4.60920000      -1.18943562E-05
   4.62120008      -1.20800250E-05
   4.63320017      -1.22604297E-05
   4.64519978      -1.24364860E-05
   4.65719986      -1.26090108E-05
   4.66919994      -1.27787071E-05
   4.68120003      -1.29461459E-05
   4.69320011      -1.31117731E-05
   4.70520020      -1.32759023E-05
   4.71719980      -1.34387246E-05
   4.72919989      -1.36003191E-05
   4.74119997      -1.37606639E-05
   4.75320005      -1.39196527E-05
   4.76520014      -1.40771108E-05
   4.77720022      -1.42328045E-05
   4.78919983      -1.43864609E-05
   4.80119991      -1.45377790E-05
   4.81320000      -1.46864486E-05
   4.82520008      -1.48321542E-05
   4.83720016      -1.49746002E-05
   4.84919977      -1.51135146E-05
   4.86119986      -1.52486728E-05
   4.87319994      -1.53799156E-05
   4.88520002      -1.55071648E-05
   4.89720011      -1.56304504E-05
   4.90920019      -1.57499217E-05
   4.92119980      -1.58658677E-05
   4.93319988      -1.59787269E-05
   4.94519997      -1.60890959E-05
   4.95720005      -1.61977096E-05
   4.96920013      -1.63054392E-05
   4.98120022      -1.64132543E-05
   4.99319983      -1.65221772E-05
   5.00519991      -1.66332411E-05
   5.01719999      -1.67474154E-05
   5.02920008      -1.68655533E-05
   5.04120016      -1.69883042E-05
   5.05319977      -1.71160773E-05
   5.06519985      -1.72489672E-05
   5.07719994      -1.73867174E-05
   5.08920002      -1.75287059E-05
   5.10120010      -1.76739377E-05
   5.11320019      -1.78210739E-05
   5.12519979      -1.79684666E-05
   5.13719988      -1.81142404E-05
   5.14919996      -1.82563708E-05
   5.16120005      -1.83927914E-05
   5.17320013      -1.85214958E-05
   5.18520021      -1.86406633E-05
   5.19719982      -1.87487531E-05
   5.20919991      -1.88445956E-05
   5.22119999      -1.89274797E-05
   5.23320007      -1.89971979E-05
   5.24520016      -1.90540704E-05
   5.25719976      -1.90989485E-05
   5.26919985      -1.91331837E-05
   5.28119993      -1.91585623E-05
   5.29320002      -1.91772378E-05
   5.30520010      -1.91916388E-05
   5.31720018      -1.92043608E-05
   5.32919979      -1.92180687E-05
   5.34119987      -1.92353982E-05
   5.35319996      -1.92588741E-05
   5.36520004      -1.92908428E-05
   5.37720013      -1.93334326E-05
   5.38920021      -1.93885262E-05
   5.40119982      -1.94577642E-05
   5.41319990      -1.95425710E-05
   5.42519999      -1.96441852E-05
   5.43720007      -1.97637128E-05
   5.44920015      -1.99021724E-05
   5.46120024      -2.00605555E-05
   5.47319984      -2.02398533E-05
   5.48519993      -2.04410808E-05
   5.49720001      -2.06652876E-05
   5.50920010      -2.09135305E-05
   5.52120018      -2.11868301E-05
   5.53319979      -2.14861011E-05
   5.54519987      -2.18120804E-05
   5.55719995      -2.21652244E-05
   5.56920004      -2.25456097E-05
   5.58120012      -2.29528378E-05
   5.59320021      -2.33859464E-05
   5.60519981      -2.38433495E-05
   5.61719990      -2.43227987E-05
   5.62919998      -2.48213764E-05
   5.64120007      -2.53355374E-05
   5.65320015      -2.58611690E-05
   5.66520023      -2.63937145E-05
   5.67719984      -2.69283046E-05
   5.68919992      -2.74599370E-05
   5.70120001      -2.79836549E-05
   5.71320009      -2.84947419E-05
   5.72520018      -2.89889194E-05
   5.73719978      -2.94625170E-05
   5.74919987      -2.99126259E-05
   5.76119995      -3.03372108E-05
   5.77320004      -3.07351802E-05
   5.78520012      -3.11064250E-05
   5.79720020      -3.14517856E-05
   5.80919981      -3.17729937E-05
   5.82119989      -3.20725594E-05
   5.83319998      -3.23536224E-05
   5.84520006      -3.26197878E-05
   5.85720015      -3.28749411E-05
   5.86920023      -3.31230622E-05
   5.88119984      -3.33680146E-05
   5.89319992      -3.36133962E-05
   5.90520000      -3.38623868E-05
   5.91720009      -3.41176092E-05
   5.92920017      -3.43810643E-05
   5.94119978      -3.46540401E-05
   5.95319986      -3.49371221E-05
   5.96519995      -3.52301831E-05
   5.97720003      -3.55324191E-05
   5.98920012      -3.58424186E-05
   6.00120020      -3.61582388E-05
   6.01319981      -3.64774714E-05
   6.02519989      -3.67973807E-05
   6.03719997      -3.71149727E-05
   6.04920006      -3.74271185E-05
   6.06120014      -3.77306678E-05
   6.07320023      -3.80225283E-05
   6.08519983      -3.82998005E-05
   6.09719992      -3.85598541E-05
   6.10920000      -3.88004264E-05
   6.12120008      -3.90197274E-05
   6.13320017      -3.92164729E-05
   6.14519978      -3.93899863E-05
   6.15719986      -3.95402312E-05
   6.16919994      -3.96678261E-05
   6.18120003      -3.97740623E-05
   6.19320011      -3.98608972E-05
   6.20520020      -3.99308992E-05
   6.21719980      -3.99871860E-05
   6.22919989      -4.00333411E-05
   6.24119997      -4.00733079E-05
   6.25320005      -4.01112593E-05
   6.26520014      -4.01514590E-05
   6.27720022      -4.01981197E-05
   6.28919983      -4.02552505E-05
   6.30119991      -4.03265149E-05
   6.31320000      -4.04150851E-05
   6.32520008      -4.05235369E-05
   6.33720016      -4.06537511E-05
   6.34919977      -4.08068372E-05
   6.36119986      -4.09830864E-05
   6.37319994      -4.11819601E-05
   6.38520002      -4.14020978E-05
   6.39720011      -4.16413641E-05
   6.40920019      -4.18969248E-05
   6.42119980      -4.21653313E-05
   6.43319988      -4.24426544E-05
   6.44519997      -4.27245941E-05
   6.45720005      -4.30066721E-05
   6.46920013      -4.32843481E-05
   6.48120022      -4.35532020E-05
   6.49319983      -4.38090829E-05
   6.50519991      -4.40482618E-05
   6.51719999      -4.42675919E-05
   6.52920008      -4.44645957E-05
   6.54120016      -4.46375961E-05
   6.55319977      -4.47858001E-05
   6.56519985      -4.49093022E-05
   6.57719994      -4.50091575E-05
   6.58920002      -4.50873122E-05
   6.60120010      -4.51465821E-05
   6.61320019      -4.51905507E-05
   6.62519979      -4.52234453E-05
   6.63719988      -4.52499953E-05
   6.64919996      -4.52752502E-05
   6.66120005      -4.53043976E-05
   6.67320013      -4.53425382E-05
   6.68520021      -4.53944849E-05
   6.69719982      -4.54645378E-05
   6.70919991      -4.55562877E-05
   6.72119999      -4.56724338E-05
   6.73320007      -4.58146096E-05
   6.74520016      -4.59832663E-05
   6.75719976      -4.61775489E-05
   6.76919985      -4.63952820E-05
   6.78119993      -4.66329257E-05
   6.79320002      -4.68856560E-05
   6.80520010      -4.71474086E-05
   6.81720018      -4.74110566E-05
   6.82919979      -4.76685636E-05
   6.84119987      -4.79112095E-05
   6.85319996      -4.81298630E-05
   6.86520004      -4.83152653E-05
   6.87720013      -4.84583616E-05
   6.88920021      -4.85506134E-05
   6.90119982      -4.85843520E-05
   6.91319990      -4.85531164E-05
   6.92519999      -4.84519842E-05
   6.93720007      -4.82778814E-05
   6.94920015      -4.80298659E-05
   6.96120024      -4.77093490E-05
   6.97319984      -4.73203036E-05
   6.98519993      -4.68693725E-05
   6.99720001      -4.63659489E-05
   7.00920010      -4.58221257E-05
   7.02120018      -4.52526256E-05
   7.03319979      -4.46745835E-05
   7.04519987      -4.41072953E-05
   7.05719995      -4.35718430E-05
   7.06920004      -4.30906584E-05
   7.08120012      -4.26870065E-05
   7.09320021      -4.23844212E-05
   7.10519981      -4.22060839E-05
   7.11719990      -4.21741643E-05
   7.12919998      -4.23091769E-05
   7.14120007      -4.26293191E-05
   7.15320015      -4.31498593E-05
   7.16520023      -4.38825300E-05
   7.17719984      -4.48350256E-05
   7.18919992      -4.60105475E-05
   7.20120001      -4.74074441E-05
   7.21320009      -4.90189414E-05
   7.22520018      -5.08329795E-05
   7.23719978      -5.28321289E-05
   7.24919987      -5.49936303E-05
   7.26119995      -5.72895297E-05
   7.27320004      -5.96868631E-05
   7.28520012      -6.21479849E-05
   7.29720020      -6.46308763E-05
   7.30919981      -6.70896115E-05
   7.32119989      -6.94748087E-05
   7.33319998      -7.17341172E-05
   7.34520006      -7.38127928E-05
   7.35720015      -7.56542358E-05
   7.36920023      -7.72005806E-05
   7.38119984      -7.83933283E-05
   7.39319992      -7.91739440E-05
   7.40520000      -7.94845109E-05
   7.41720009      -7.92683786E-05
   7.42920017      -7.84707881E-05
   7.44119978      -7.70396291E-05
   7.45319986      -7.49260653E-05
   7.46519995      -7.20852549E-05
   7.47720003      -6.84770639E-05
   7.48920012      -6.40667786E-05
   7.50120020      -5.88257644E-05
   7.51319981      -5.27321608E-05
   7.52519989      -4.57714959E-05
   7.53719997      -3.79372359E-05
   7.54920006      -2.92313089E-05
   7.56120014      -1.96645105E-05
   7.57320023      -9.25681252E-06
   7.58519983       1.96244514E-06
   7.59719992       1.39544800E-05
   7.60920000       2.66711377E-05
   7.62120008       4.00551035E-05
   7.63320017       5.40402471E-05
   7.64519978       6.85521081E-05
   7.65719986       8.35085157E-05
   7.66919994       9.88203246E-05
   7.68120003       1.14392271E-04
   7.69320011       1.30123924E-04
   7.70520020       1.45910642E-04
   7.71719980       1.61644741E-04
   7.72919989       1.77216585E-04
   7.74119997       1.92515712E-04
   7.75320005       2.07432051E-04
   7.76520014       2.21857059E-04
   7.77720022       2.35684885E-04
   7.78919983       2.48813420E-04
   7.80119991       2.61145411E-04
   7.81320000       2.72589386E-04
   7.82520008       2.83060712E-04
   7.83720016       2.92482291E-04
   7.84919977       3.00785352E-04
   7.86119986       3.07910144E-04
   7.87319994       3.13806377E-04
   7.88520002       3.18433798E-04
   7.89720011       3.21762287E-04
   7.90920019       3.23772168E-04
   7.92119980       3.24454246E-04
   7.93319988       3.23809771E-04
   7.94519997       3.21850268E-04
   7.95720005       3.18597216E-04
   7.96920013       3.14081844E-04
   7.98120022       3.08344635E-04
   7.99319983       3.01434717E-04
   8.00520039       2.93409568E-04
   8.01720047       2.84334179E-04
   8.02919960       2.74280494E-04
   8.04119968       2.63326656E-04
   8.05319977       2.51556397E-04
   8.06519985       2.39058194E-04
   8.07719994       2.25924421E-04
   8.08920002       2.12250685E-04
   8.10120010       1.98134876E-04
   8.11320019       1.83676340E-04
   8.12520027       1.68975064E-04
   8.13720036       1.54130670E-04
   8.14920044       1.39241674E-04
   8.16119957       1.24404571E-04
   8.17319965       1.09712972E-04
   8.18519974       9.52568662E-05
   8.19719982       8.11217542E-05
   8.20919991       6.73880349E-05
   8.22119999       5.41303234E-05
   8.23320007       4.14169044E-05
   8.24520016       2.93092362E-05
   8.25720024       1.78615792E-05
   8.26920033       7.12068368E-06
   8.28120041      -2.87440025E-06
   8.29319954      -1.20924369E-05
   8.30519962      -2.05100132E-05
   8.31719971      -2.81114699E-05
   8.32919979      -3.48887479E-05
   8.34119987      -4.08411506E-05
   8.35319996      -4.59750299E-05
   8.36520004      -5.03034134E-05
   8.37720013      -5.38455715E-05
   8.38920021      -5.66265153E-05
   8.40120029      -5.86764327E-05
   8.41320038      -6.00301610E-05
   8.42520046      -6.07265210E-05
   8.43719959      -6.08077244E-05
   8.44919968      -6.03186854E-05
   8.46119976      -5.93064251E-05
   8.47319984      -5.78193903E-05
   8.48519993      -5.59068358E-05
   8.49720001      -5.36182561E-05
   8.50920010      -5.10028112E-05
   8.52120018      -4.81088427E-05
   8.53320026      -4.49834188E-05
   8.54520035      -4.16719959E-05
   8.55720043      -3.82181170E-05
   8.56919956      -3.46632114E-05
   8.58119965      -3.10464966E-05
   8.59319973      -2.74049344E-05
   8.60519981      -2.37732766E-05
   8.61719990      -2.01841722E-05
   8.62919998      -1.66683276E-05
   8.64120007      -1.32547066E-05
   8.65320015      -9.97073403E-06
   8.66520023      -6.84249972E-06
   8.67720032      -3.89492970E-06
   8.68920040      -1.15190312E-06
   8.70119953       1.36369681E-06
   8.71319962       3.63001755E-06
   8.72519970       5.62636114E-06
   8.73719978       7.33340539E-06
   8.74919987       8.73350746E-06
   8.76119995       9.81108496E-06
   8.77320004       1.05530562E-05
   8.78520012       1.09493103E-05
   8.79720020       1.09931843E-05
   8.80920029       1.06819161E-05
   8.82120037       1.00170409E-05
   8.83320045       9.00470332E-06
   8.84519958       7.65586083E-06
   8.85719967       5.98635779E-06
   8.86919975       4.01684838E-06
   8.88119984       1.77257311E-06
   8.89319992      -7.17008447E-07
   8.90520000      -3.41873238E-06
   8.91720009      -6.29636270E-06
   8.92920017      -9.31131581E-06
   8.94120026      -1.24234548E-05
   8.95320034      -1.55919188E-05
   8.96520042      -1.87759470E-05
   8.97719955      -2.19356734E-05
   8.98919964      -2.50328576E-05
   9.00119972      -2.80315107E-05
   9.01319981      -3.08984309E-05
   9.02519989      -3.36035955E-05
   9.03719997      -3.61204038E-05
   9.04920006      -3.84258165E-05
   9.06120014      -4.05003229E-05
   9.07320023      -4.23277961E-05
   9.08520031      -4.38952484E-05
   9.09720039      -4.51925116E-05
   9.10919952      -4.62118260E-05
   9.12119961      -4.69474617E-05
   9.13319969      -4.73952787E-05
   9.14519978      -4.75523739E-05
   9.15719986      -4.74167718E-05
   9.16919994      -4.69871993E-05
   9.18120003      -4.62629541E-05
   9.19320011      -4.52439308E-05
   9.20520020      -4.39307041E-05
   9.21720028      -4.23248202E-05
   9.22920036      -4.04291095E-05
   9.24120045      -3.82481885E-05
   9.25319958      -3.57889694E-05
   9.26519966      -3.30612711E-05
   9.27719975      -3.00784322E-05
   9.28919983      -2.68579133E-05
   9.30119991      -2.34218405E-05
   9.31320000      -1.97974368E-05
   9.32520008      -1.60173458E-05
   9.33720016      -1.21197681E-05
   9.34920025      -8.14840860E-06
   9.36120033      -4.15220165E-06
   9.37320042      -1.84795837E-07
   9.38519955       3.69619102E-06
   9.39719963       7.43016290E-06
   9.40919971       1.09547573E-05
   9.42119980       1.42072540E-05
   9.43319988       1.71261490E-05
   9.44519997       1.96528454E-05
