 -0.622799993       0.00000000    
 -0.610800028       0.00000000    
 -0.598800004       0.00000000    
 -0.586799979      -2.26289638E-15
 -0.574800014      -1.36881388E-14
 -0.562799990      -4.44511913E-14
 -0.550800025      -1.00279255E-13
 -0.538800001      -1.69746921E-13
 -0.526799977      -2.12746446E-13
 -0.514800012      -1.58808459E-13
 -0.502799988       7.81180811E-14
 -0.490799993       5.68688217E-13
 -0.478799999       1.33052098E-12
 -0.466800004       2.30092421E-12
 -0.454800010       3.33856857E-12
 -0.442799985       4.26621238E-12
 -0.430799991       4.95323617E-12
 -0.418799996       5.42088770E-12
 -0.406800002       5.94073575E-12
 -0.394800007       7.09330815E-12
 -0.382800013       9.76181028E-12
 -0.370799989       1.50539286E-11
 -0.358799994       2.41680304E-11
 -0.346799999       3.82414517E-11
 -0.334800005       5.82308715E-11
 -0.322800010       8.48732334E-11
 -0.310799986       1.18759100E-10
 -0.298799992       1.60522151E-10
 -0.286799997       2.11115819E-10
 -0.274800003       2.72120049E-10
 -0.262800008       3.46007584E-10
 -0.250800014       4.36303910E-10
 -0.238800004       5.47602907E-10
 -0.226799995       6.85439261E-10
 -0.214800000       8.56065663E-10
 -0.202800006       1.06621167E-09
 -0.190799996       1.32291444E-09
 -0.178800002       1.63348735E-09
 -0.166800007       2.00564587E-09
 -0.154799998       2.44775022E-09
 -0.142800003       2.96907521E-09
 -0.130799994       3.57998542E-09
 -0.118799999       4.29191394E-09
 -0.106799997       5.11707610E-09
  -9.48000029E-02   6.06792394E-09
  -8.28000009E-02   7.15639459E-09
  -7.07999989E-02   8.39304004E-09
  -5.88000007E-02   9.78610082E-09
  -4.67999987E-02   1.13405516E-08
  -3.48000005E-02   1.30570541E-08
  -2.28000004E-02   1.49306842E-08
  -1.08000003E-02   1.69492811E-08
   1.20000006E-03   1.90912832E-08
   1.31999999E-02   2.13229807E-08
   2.52000000E-02   2.35953070E-08
   3.72000001E-02   2.58404604E-08
   4.91999984E-02   2.79688948E-08
   6.12000003E-02   2.98674472E-08
   7.32000023E-02   3.13995479E-08
   8.51999968E-02   3.24086251E-08
   9.71999988E-02   3.27256764E-08
  0.109200001       3.21817524E-08
  0.121200003       3.06256354E-08
  0.133200005       2.79461148E-08
  0.145199999       2.40975169E-08
  0.157199994       1.91261531E-08
  0.169200003       1.31946409E-08
  0.181199998       6.60071287E-09
  0.193200007      -2.12875800E-10
  0.205200002      -6.66024613E-09
  0.217199996      -1.20282326E-08
  0.229200006      -1.55073288E-08
  0.241200000      -1.62380243E-08
  0.253199995      -1.33719134E-08
  0.265199989      -6.14611917E-09
  0.277200013       6.03139183E-09
  0.289200008       2.34893864E-08
  0.301200002       4.61993679E-08
  0.313199997       7.36877439E-08
  0.325199991       1.04964094E-07
  0.337199986       1.38477176E-07
  0.349200010       1.72111072E-07
  0.361200005       2.03232631E-07
  0.373199999       2.28798399E-07
  0.385199994       2.45524205E-07
  0.397199988       2.50114198E-07
  0.409200013       2.39538849E-07
  0.421200007       2.11344457E-07
  0.433200002       1.63971052E-07
  0.445199996       9.70516183E-08
  0.457199991       1.16627419E-08
  0.469199985      -8.95021373E-08
  0.481200010      -2.02063802E-07
  0.493200004      -3.20014919E-07
  0.505200028      -4.35919645E-07
  0.517199993      -5.41261500E-07
  0.529200017      -6.26934366E-07
  0.541199982      -6.83858730E-07
  0.553200006      -7.03691626E-07
  0.565199971      -6.79584332E-07
  0.577199996      -6.06932190E-07
  0.589200020      -4.84052123E-07
  0.601199985      -3.12721426E-07
  0.613200009      -9.85147892E-08
  0.625199974       1.49113276E-07
  0.637199998       4.17038336E-07
  0.649200022       6.88986347E-07
  0.661199987       9.46358909E-07
  0.673200011       1.16933484E-06
  0.685199976       1.33819481E-06
  0.697200000       1.43479440E-06
  0.709200025       1.44409535E-06
  0.721199989       1.35564869E-06
  0.733200014       1.16492140E-06
  0.745199978       8.74357738E-07
  0.757200003       4.94081178E-07
  0.769200027       4.21568487E-08
  0.781199992      -4.55636354E-07
  0.793200016      -9.66543894E-07
  0.805199981      -1.45207127E-06
  0.817200005      -1.86966781E-06
  0.829200029      -2.17478078E-06
  0.841199994      -2.32317007E-06
  0.853200018      -2.27336091E-06
  0.865199983      -1.98908720E-06
  0.877200007      -1.44158867E-06
  0.889199972      -6.11609153E-07
  0.901199996       5.09020310E-07
  0.913200021       1.91633649E-06
  0.925199986       3.59380738E-06
  0.937200010       5.51256153E-06
  0.949199975       7.63227945E-06
  0.961199999       9.90273929E-06
  0.973200023       1.22659230E-05
  0.985199988       1.46586026E-05
  0.997200012       1.70152725E-05
   1.00919998       1.92712869E-05
   1.02119994       2.13660351E-05
   1.03320003       2.32460152E-05
   1.04519999       2.48676370E-05
   1.05719995       2.61996120E-05
   1.06920004       2.72248144E-05
   1.08120000       2.79415126E-05
   1.09319997       2.83638765E-05
   1.10520005       2.85217302E-05
   1.11720002       2.84595590E-05
   1.12919998       2.82347683E-05
   1.14119995       2.79153046E-05
   1.15320003       2.75767034E-05
   1.16520000       2.72987090E-05
   1.17719996       2.71616263E-05
   1.18920004       2.72425204E-05
   1.20120001       2.76114824E-05
   1.21319997       2.83280515E-05
   1.22520006       2.94379934E-05
   1.23720002       3.09705574E-05
   1.24919999       3.29363138E-05
   1.26119995       3.53256728E-05
   1.27320004       3.81082064E-05
   1.28520000       4.12327208E-05
   1.29719996       4.46281920E-05
   1.30920005       4.82054202E-05
   1.32120001       5.18594752E-05
   1.33319998       5.54727085E-05
   1.34519994       5.89182600E-05
   1.35720003       6.20639694E-05
   1.36919999       6.47764464E-05
   1.38119996       6.69252258E-05
   1.39320004       6.83867765E-05
   1.40520000       6.90483139E-05
   1.41719997       6.88112050E-05
   1.42920005       6.75939009E-05
   1.44120002       6.53342795E-05
   1.45319998       6.19913844E-05
   1.46519995       5.75464546E-05
   1.47720003       5.20033391E-05
   1.48920000       4.53882458E-05
   1.50119996       3.77489050E-05
   1.51320004       2.91532633E-05
   1.52520001       1.96877081E-05
   1.53719997       9.45500142E-06
   1.54920006      -1.42808119E-06
   1.56120002      -1.28332522E-05
   1.57319999      -2.46233212E-05
   1.58519995      -3.66548775E-05
   1.59720004      -4.87809266E-05
   1.60920000      -6.08535229E-05
   1.62119997      -7.27263177E-05
   1.63320005      -8.42569934E-05
   1.64520001      -9.53096023E-05
   1.65719998      -1.05756750E-04
   1.66919994      -1.15481605E-04
   1.68120003      -1.24379803E-04
   1.69319999      -1.32360961E-04
   1.70519996      -1.39350086E-04
   1.71720004      -1.45288606E-04
   1.72920001      -1.50135107E-04
   1.74119997      -1.53865505E-04
   1.75320005      -1.56473005E-04
   1.76520002      -1.57967472E-04
   1.77719998      -1.58374460E-04
   1.78919995      -1.57733724E-04
   1.80120003      -1.56097522E-04
   1.81320000      -1.53528585E-04
   1.82519996      -1.50097912E-04
   1.83720005      -1.45882485E-04
   1.84920001      -1.40963035E-04
   1.86119998      -1.35421986E-04
   1.87320006      -1.29341526E-04
   1.88520002      -1.22802056E-04
   1.89719999      -1.15881092E-04
   1.90919995      -1.08652443E-04
   1.92120004      -1.01185957E-04
   1.93320000      -9.35475910E-05
   1.94519997      -8.57999257E-05
   1.95720005      -7.80028204E-05
   1.96920002      -7.02143952E-05
   1.98119998      -6.24919630E-05
   1.99319994      -5.48929202E-05
   2.00519991      -4.74755398E-05
   2.01719999      -4.02993828E-05
   2.02920008      -3.34254364E-05
   2.04119992      -2.69158627E-05
   2.05320001      -2.08332713E-05
   2.06520009      -1.52395969E-05
   2.07719994      -1.01945807E-05
   2.08920002      -5.75389777E-06
   2.10120010      -1.96705400E-06
   2.11319995       1.12486475E-06
   2.12520003       3.49145125E-06
   2.13720012       5.11509279E-06
   2.14919996       5.99281111E-06
   2.16120005       6.13768725E-06
   2.17319989       5.57975000E-06
   2.18519998       4.36623395E-06
   2.19720006       2.56115186E-06
   2.20919991       2.44149220E-07
   2.22119999      -2.49134655E-06
   2.23320007      -5.54062763E-06
   2.24519992      -8.79077834E-06
   2.25720000      -1.21241901E-05
   2.26920009      -1.54223944E-05
   2.28119993      -1.85700137E-05
   2.29320002      -2.14586926E-05
   2.30520010      -2.39908040E-05
   2.31719995      -2.60827983E-05
   2.32920003      -2.76680094E-05
   2.34120011      -2.86988416E-05
   2.35319996      -2.91482374E-05
   2.36520004      -2.90103762E-05
   2.37719989      -2.83005866E-05
   2.38919997      -2.70544951E-05
   2.40120006      -2.53264625E-05
   2.41319990      -2.31873655E-05
   2.42519999      -2.07218218E-05
   2.43720007      -1.80249990E-05
   2.44919991      -1.51990926E-05
   2.46120000      -1.23496284E-05
   2.47320008      -9.58172586E-06
   2.48519993      -6.99642624E-06
   2.49720001      -4.68723374E-06
   2.50920010      -2.73694923E-06
   2.52119994      -1.21490439E-06
   2.53320003      -1.74661167E-07
   2.54520011       3.47746749E-07
   2.55719995       3.34990801E-07
   2.56920004      -2.11007105E-07
   2.58119988      -1.26917723E-06
   2.59319997      -2.80005906E-06
   2.60520005      -4.74719900E-06
   2.61719990      -7.03914702E-06
   2.62919998      -9.59199951E-06
   2.64120007      -1.23123982E-05
   2.65319991      -1.51008981E-05
   2.66520000      -1.78555947E-05
   2.67720008      -2.04758799E-05
   2.68919992      -2.28662138E-05
   2.70120001      -2.49397708E-05
   2.71320009      -2.66218467E-05
   2.72519994      -2.78528587E-05
   2.73720002      -2.85908609E-05
   2.74920011      -2.88134215E-05
   2.76119995      -2.85187853E-05
   2.77320004      -2.77262334E-05
   2.78520012      -2.64756163E-05
   2.79719996      -2.48260694E-05
   2.80920005      -2.28538938E-05
   2.82119989      -2.06497189E-05
   2.83319998      -1.83150205E-05
   2.84520006      -1.59581396E-05
   2.85719991      -1.36899262E-05
   2.86919999      -1.16191823E-05
   2.88120008      -9.84809958E-06
   2.89319992      -8.46783678E-06
   2.90520000      -7.55445762E-06
   2.91720009      -7.16538079E-06
   2.92919993      -7.33650268E-06
   2.94120002      -8.08014647E-06
   2.95320010      -9.38392986E-06
   2.96519995      -1.12106381E-05
   2.97720003      -1.34991169E-05
   2.98920012      -1.61661810E-05
   3.00119996      -1.91095060E-05
   3.01320004      -2.22113558E-05
   3.02519989      -2.53430553E-05
   3.03719997      -2.83700138E-05
   3.04920006      -3.11571057E-05
   3.06119990      -3.35741934E-05
   3.07319999      -3.55015618E-05
   3.08520007      -3.68350011E-05
   3.09719992      -3.74903866E-05
   3.10920000      -3.74074916E-05
   3.12120008      -3.65528722E-05
   3.13319993      -3.49217044E-05
   3.14520001      -3.25384790E-05
   3.15720010      -2.94564579E-05
   3.16919994      -2.57559750E-05
   3.18120003      -2.15415603E-05
   3.19320011      -1.69380528E-05
   3.20519996      -1.20858385E-05
   3.21720004      -7.13539112E-06
   3.22919989      -2.24141331E-06
   3.24119997       2.44321495E-06
   3.25320005       6.77339040E-06
   3.26519990       1.06173820E-05
   3.27719998       1.38618252E-05
   3.28920007       1.64159064E-05
   3.30119991       1.82145523E-05
   3.31320000       1.92205152E-05
   3.32520008       1.94252589E-05
   3.33719993       1.88486192E-05
   3.34920001       1.75372898E-05
   3.36120009       1.55622092E-05
   3.37319994       1.30149665E-05
   3.38520002       1.00034640E-05
   3.39720011       6.64699019E-06
   3.40919995       3.07100527E-06
   3.42120004      -5.98135898E-07
   3.43319988      -4.23827669E-06
   3.44519997      -7.73612646E-06
   3.45720005      -1.09913135E-05
   3.46919990      -1.39196627E-05
   3.48119998      -1.64555931E-05
   3.49320006      -1.85535537E-05
   3.50519991      -2.01884686E-05
   3.51719999      -2.13552594E-05
   3.52920008      -2.20674683E-05
   3.54119992      -2.23551306E-05
   3.55320001      -2.22620474E-05
   3.56520009      -2.18426230E-05
   3.57719994      -2.11585157E-05
   3.58920002      -2.02752326E-05
   3.60120010      -1.92589196E-05
   3.61319995      -1.81735068E-05
   3.62520003      -1.70782914E-05
   3.63720012      -1.60261043E-05
   3.64919996      -1.50620808E-05
   3.66120005      -1.42230256E-05
   3.67319989      -1.35373475E-05
   3.68519998      -1.30254930E-05
   3.69720006      -1.27007697E-05
   3.70919991      -1.25704528E-05
   3.72119999      -1.26370269E-05
   3.73320007      -1.28994589E-05
   3.74519992      -1.33543626E-05
   3.75720000      -1.39969579E-05
   3.76920009      -1.48217487E-05
   3.78119993      -1.58228668E-05
   3.79320002      -1.69940777E-05
   3.80520010      -1.83284683E-05
   3.81719995      -1.98178441E-05
   3.82920003      -2.14519478E-05
   3.84120011      -2.32175535E-05
   3.85319996      -2.50975409E-05
   3.86520004      -2.70700421E-05
   3.87719989      -2.91077467E-05
   3.88919997      -3.11774638E-05
   3.90120006      -3.32399795E-05
   3.91319990      -3.52502648E-05
   3.92519999      -3.71580427E-05
   3.93720007      -3.89087545E-05
   3.94919991      -4.04448765E-05
   3.96120000      -4.17075644E-05
   3.97320008      -4.26385668E-05
   3.98519993      -4.31823610E-05
   3.99720001      -4.32884008E-05
   4.00920010      -4.29134088E-05
   4.02120018      -4.20236647E-05
   4.03319979      -4.05970859E-05
   4.04519987      -3.86251413E-05
   4.05719995      -3.61143830E-05
   4.06920004      -3.30875700E-05
   4.08120012      -2.95842947E-05
   4.09320021      -2.56610147E-05
   4.10519981      -2.13904568E-05
   4.11719990      -1.68603619E-05
   4.12919998      -1.21715784E-05
   4.14120007      -7.43550572E-06
   4.15320015      -2.77098934E-06
   4.16520023       1.69926147E-06
   4.17719984       5.85259113E-06
   4.18919992       9.57051816E-06
   4.20120001       1.27428711E-05
   4.21320009       1.52717766E-05
   4.22520018       1.70753156E-05
   4.23719978       1.80906973E-05
   4.24919987       1.82767744E-05
   4.26119995       1.76158301E-05
   4.27320004       1.61144944E-05
   4.28520012       1.38038113E-05
   4.29720020       1.07383848E-05
   4.30919981       6.99469638E-06
   4.32119989       2.66864254E-06
   4.33319998      -2.12759437E-06
   4.34520006      -7.26918734E-06
   4.35720015      -1.26226660E-05
   4.36920023      -1.80501156E-05
   4.38119984      -2.34133877E-05
   4.39319992      -2.85781844E-05
   4.40520000      -3.34178767E-05
   4.41720009      -3.78169207E-05
   4.42920017      -4.16738512E-05
   4.44119978      -4.49037252E-05
   4.45319986      -4.74400185E-05
   4.46519995      -4.92360086E-05
   4.47720003      -5.02655639E-05
   4.48920012      -5.05234239E-05
   4.50120020      -5.00249625E-05
   4.51319981      -4.88054466E-05
   4.52519989      -4.69189108E-05
   4.53719997      -4.44365396E-05
   4.54920006      -4.14447204E-05
   4.56120014      -3.80427336E-05
   4.57320023      -3.43401480E-05
   4.58519983      -3.04539299E-05
   4.59719992      -2.65053441E-05
   4.60920000      -2.26166521E-05
   4.62120008      -1.89077200E-05
   4.63320017      -1.54925601E-05
   4.64519978      -1.24759417E-05
   4.65719986      -9.95016399E-06
   4.66919994      -7.99211466E-06
   4.68120003      -6.66074629E-06
   4.69320011      -5.99509121E-06
   4.70520020      -6.01292504E-06
   4.71719980      -6.71016323E-06
   4.72919989      -8.06103890E-06
   4.74119997      -1.00190882E-05
   4.75320005      -1.25189026E-05
   4.76520014      -1.54786121E-05
   4.77720022      -1.88029771E-05
   4.78919983      -2.23869592E-05
   4.80119991      -2.61196474E-05
   4.81320000      -2.98883169E-05
   4.82520008      -3.35824734E-05
   4.83720016      -3.70976995E-05
   4.84919977      -4.03391350E-05
   4.86119986      -4.32244196E-05
   4.87319994      -4.56860507E-05
   4.88520002      -4.76730347E-05
   4.89720011      -4.91517785E-05
   4.90920019      -5.01063296E-05
   4.92119980      -5.05378994E-05
   4.93319988      -5.04638192E-05
   4.94519997      -4.99160087E-05
   4.95720005      -4.89390768E-05
   4.96920013      -4.75882007E-05
   4.98120022      -4.59268304E-05
   4.99319983      -4.40243821E-05
   5.00519991      -4.19539574E-05
   5.01719999      -3.97901713E-05
   5.02920008      -3.76070711E-05
   5.04120016      -3.54762051E-05
   5.05319977      -3.34648357E-05
   5.06519985      -3.16342703E-05
   5.07719994      -3.00383363E-05
   5.08920002      -2.87220100E-05
   5.10120010      -2.77201652E-05
   5.11320019      -2.70565488E-05
   5.12519979      -2.67429332E-05
   5.13719988      -2.67785472E-05
   5.14919996      -2.71498102E-05
   5.16120005      -2.78304069E-05
   5.17320013      -2.87817365E-05
   5.18520021      -2.99538078E-05
   5.19719982      -3.12865559E-05
   5.20919991      -3.27115958E-05
   5.22119999      -3.41544364E-05
   5.23320007      -3.55370030E-05
   5.24520016      -3.67805296E-05
   5.25719976      -3.78085861E-05
   5.26919985      -3.85501771E-05
   5.28119993      -3.89427914E-05
   5.29320002      -3.89351480E-05
   5.30520010      -3.84896230E-05
   5.31720018      -3.75841228E-05
   5.32919979      -3.62133542E-05
   5.34119987      -3.43894026E-05
   5.35319996      -3.21415719E-05
   5.36520004      -2.95155023E-05
   5.37720013      -2.65715971E-05
   5.38920021      -2.33827959E-05
   5.40119982      -2.00318318E-05
   5.41319990      -1.66080881E-05
   5.42519999      -1.32041941E-05
   5.43720007      -9.91251545E-06
   5.44920015      -6.82174095E-06
   5.46120024      -4.01369380E-06
   5.47319984      -1.56052818E-06
   5.48519993       4.77573394E-07
   5.49720001       2.05412175E-06
   5.50920010       3.13740156E-06
   5.52120018       3.71091573E-06
   5.53319979       3.77321226E-06
   5.54519987       3.33715252E-06
   5.55719995       2.42870306E-06
   5.56920004       1.08535437E-06
   5.58120012      -6.45737998E-07
   5.59320021      -2.70976329E-06
   5.60519981      -5.04632908E-06
   5.61719990      -7.59149907E-06
   5.62919998      -1.02797312E-05
   5.64120007      -1.30456629E-05
   5.65320015      -1.58256971E-05
   5.66520023      -1.85594126E-05
   5.67719984      -2.11907573E-05
   5.68919992      -2.36690630E-05
   5.70120001      -2.59498684E-05
   5.71320009      -2.79956057E-05
   5.72520018      -2.97761053E-05
   5.73719978      -3.12689699E-05
   5.74919987      -3.24597931E-05
   5.76119995      -3.33422431E-05
   5.77320004      -3.39179642E-05
   5.78520012      -3.41963569E-05
   5.79720020      -3.41941377E-05
   5.80919981      -3.39347571E-05
   5.82119989      -3.34475699E-05
   5.83319998      -3.27668713E-05
   5.84520006      -3.19307037E-05
   5.85720015      -3.09795178E-05
   5.86920023      -2.99547355E-05
   5.88119984      -2.88972788E-05
   5.89319992      -2.78460775E-05
   5.90520000      -2.68367039E-05
   5.91720009      -2.59001536E-05
   5.92920017      -2.50618323E-05
   5.94119978      -2.43407721E-05
   5.95319986      -2.37491658E-05
   5.96519995      -2.32921484E-05
   5.97720003      -2.29678644E-05
   5.98920012      -2.27678465E-05
   6.00120020      -2.26776319E-05
   6.01319981      -2.26776338E-05
   6.02519989      -2.27442306E-05
   6.03719997      -2.28510035E-05
   6.04920006      -2.29700872E-05
   6.06120014      -2.30735477E-05
   6.07320023      -2.31347531E-05
   6.08519983      -2.31296344E-05
   6.09719992      -2.30378355E-05
   6.10920000      -2.28436838E-05
   6.12120008      -2.25369731E-05
   6.13320017      -2.21135433E-05
   6.14519978      -2.15756627E-05
   6.15719986      -2.09321679E-05
   6.16919994      -2.01984076E-05
   6.18120003      -1.93959222E-05
   6.19320011      -1.85519220E-05
   6.20520020      -1.76985068E-05
   6.21719980      -1.68717033E-05
   6.22919989      -1.61103071E-05
   6.24119997      -1.54545960E-05
   6.25320005      -1.49449315E-05
   6.26520014      -1.46203274E-05
   6.27720022      -1.45169934E-05
   6.28919983      -1.46669099E-05
   6.30119991      -1.50964797E-05
   6.31320000      -1.58253115E-05
   6.32520008      -1.68651532E-05
   6.33720016      -1.82190761E-05
   6.34919977      -1.98809339E-05
   6.36119986      -2.18351488E-05
   6.37319994      -2.40568697E-05
   6.38520002      -2.65124891E-05
   6.39720011      -2.91605502E-05
   6.40920019      -3.19529427E-05
   6.42119980      -3.48363974E-05
   6.43319988      -3.77541764E-05
   6.44519997      -4.06478393E-05
   6.45720005      -4.34590947E-05
   6.46920013      -4.61315540E-05
   6.48120022      -4.86123463E-05
   6.49319983      -5.08535195E-05
   6.50519991      -5.28131823E-05
   6.51719999      -5.44562790E-05
   6.52920008      -5.57550629E-05
   6.54120016      -5.66892631E-05
   6.55319977      -5.72459285E-05
   6.56519985      -5.74190817E-05
   6.57719994      -5.72092613E-05
   6.58920002      -5.66229573E-05
   6.60120010      -5.56721243E-05
   6.61320019      -5.43737588E-05
   6.62519979      -5.27495722E-05
   6.63719988      -5.08258090E-05
   6.64919996      -4.86331737E-05
   6.66120005      -4.62068456E-05
   6.67320013      -4.35864786E-05
   6.68520021      -4.08161977E-05
   6.69719982      -3.79444900E-05
   6.70919991      -3.50238661E-05
   6.72119999      -3.21103289E-05
   6.73320007      -2.92624954E-05
   6.74520016      -2.65404105E-05
   6.75719976      -2.40040299E-05
   6.76919985      -2.17114175E-05
   6.78119993      -1.97167137E-05
   6.79320002      -1.80680308E-05
   6.80520010      -1.68053502E-05
   6.81720018      -1.59585998E-05
   6.82919979      -1.55460057E-05
   6.84119987      -1.55728940E-05
   6.85319996      -1.60309737E-05
   6.86520004      -1.68982351E-05
   6.87720013      -1.81394535E-05
   6.88920021      -1.97073005E-05
   6.90119982      -2.15440523E-05
   6.91319990      -2.35838161E-05
   6.92519999      -2.57551328E-05
   6.93720007      -2.79838860E-05
   6.94920015      -3.01962918E-05
   6.96120024      -3.23218628E-05
   6.97319984      -3.42961575E-05
   6.98519993      -3.60631566E-05
   6.99720001      -3.75772070E-05
   7.00920010      -3.88044064E-05
   7.02120018      -3.97234035E-05
   7.03319979      -4.03255726E-05
   7.04519987      -4.06146573E-05
   7.05719995      -4.06058643E-05
   7.06920004      -4.03245067E-05
   7.08120012      -3.98042648E-05
   7.09320021      -3.90852365E-05
   7.10519981      -3.82117942E-05
   7.11719990      -3.72304239E-05
   7.12919998      -3.61876846E-05
   7.14120007      -3.51283124E-05
   7.15320015      -3.40936203E-05
   7.16520023      -3.31201772E-05
   7.17719984      -3.22388551E-05
   7.18919992      -3.14741555E-05
   7.20120001      -3.08438830E-05
   7.21320009      -3.03590496E-05
   7.22520018      -3.00240172E-05
   7.23719978      -2.98368195E-05
   7.24919987      -2.97896568E-05
   7.26119995      -2.98694849E-05
   7.27320004      -3.00587435E-05
   7.28520012      -3.03361394E-05
   7.29720020      -3.06775037E-05
   7.30919981      -3.10566975E-05
   7.32119989      -3.14464996E-05
   7.33319998      -3.18195744E-05
   7.34520006      -3.21493717E-05
   7.35720015      -3.24110406E-05
   7.36920023      -3.25823312E-05
   7.38119984      -3.26444278E-05
   7.39319992      -3.25827459E-05
   7.40520000      -3.23876302E-05
   7.41720009      -3.20549007E-05
   7.42920017      -3.15862671E-05
   7.44119978      -3.09895222E-05
   7.45319986      -3.02784993E-05
   7.46519995      -2.94727633E-05
   7.47720003      -2.85970909E-05
   7.48920012      -2.76806659E-05
   7.50120020      -2.67560681E-05
   7.51319981      -2.58580931E-05
   7.52519989      -2.50224239E-05
   7.53719997      -2.42842234E-05
   7.54920006      -2.36767301E-05
   7.56120014      -2.32298644E-05
   7.57320023      -2.29689740E-05
   7.58519983      -2.29137040E-05
   7.59719992      -2.30771293E-05
   7.60920000      -2.34650925E-05
   7.62120008      -2.40758436E-05
   7.63320017      -2.48999841E-05
   7.64519978      -2.59206972E-05
   7.65719986      -2.71142562E-05
   7.66919994      -2.84508078E-05
   7.68120003      -2.98953491E-05
   7.69320011      -3.14089048E-05
   7.70520020      -3.29498034E-05
   7.71719980      -3.44750479E-05
   7.72919989      -3.59416808E-05
   7.74119997      -3.73081311E-05
   7.75320005      -3.85355015E-05
   7.76520014      -3.95887691E-05
   7.77720022      -4.04378188E-05
   7.78919983      -4.10583852E-05
   7.80119991      -4.14328060E-05
   7.81320000      -4.15505965E-05
   7.82520008      -4.14088536E-05
   7.83720016      -4.10124449E-05
   7.84919977      -4.03739832E-05
   7.86119986      -3.95135685E-05
   7.87319994      -3.84583291E-05
   7.88520002      -3.72417089E-05
   7.89720011      -3.59025507E-05
   7.90920019      -3.44839646E-05
   7.92119980      -3.30320217E-05
   7.93319988      -3.15942416E-05
   7.94519997      -3.02179724E-05
   7.95720005      -2.89486652E-05
   7.96920013      -2.78280768E-05
   7.98120022      -2.68925432E-05
   7.99319983      -2.61713230E-05
   8.00520039      -2.56851417E-05
   8.01720047      -2.54450424E-05
   8.02919960      -2.54515999E-05
   8.04119968      -2.56945605E-05
   8.05319977      -2.61530076E-05
   8.06519985      -2.67960222E-05
   8.07719994      -2.75838265E-05
   8.08920002      -2.84694215E-05
   8.10120010      -2.94006040E-05
   8.11320019      -3.03223060E-05
   8.12520027      -3.11791155E-05
   8.13720036      -3.19179017E-05
   8.14920044      -3.24903631E-05
   8.16119957      -3.28553688E-05
   8.17319965      -3.29810027E-05
   8.18519974      -3.28461101E-05
   8.19719982      -3.24413486E-05
   8.20919991      -3.17696213E-05
   8.22119999      -3.08458875E-05
   8.23320007      -2.96963972E-05
   8.24520016      -2.83573827E-05
   8.25720024      -2.68733165E-05
   8.26920033      -2.52948266E-05
   8.28120041      -2.36764208E-05
   8.29319954      -2.20741185E-05
   8.30519962      -2.05431097E-05
   8.31719971      -1.91355957E-05
   8.32919979      -1.78988521E-05
   8.34119987      -1.68736333E-05
   8.35319996      -1.60929303E-05
   8.36520004      -1.55811522E-05
   8.37720013      -1.53536985E-05
   8.38920021      -1.54168920E-05
   8.40120029      -1.57682589E-05
   8.41320038      -1.63970399E-05
   8.42520046      -1.72849213E-05
   8.43719959      -1.84068958E-05
   8.44919968      -1.97321970E-05
   8.46119976      -2.12253108E-05
   8.47319984      -2.28469944E-05
   8.48519993      -2.45553238E-05
   8.49720001      -2.63067668E-05
   8.50920010      -2.80572476E-05
   8.52120018      -2.97632487E-05
   8.53320026      -3.13829296E-05
   8.54520035      -3.28772221E-05
   8.55720043      -3.42109706E-05
   8.56919956      -3.53540127E-05
   8.58119965      -3.62822175E-05
   8.59319973      -3.69784502E-05
   8.60519981      -3.74333467E-05
   8.61719990      -3.76458920E-05
   8.62919998      -3.76236821E-05
   8.64120007      -3.73828661E-05
   8.65320015      -3.69476475E-05
   8.66520023      -3.63494328E-05
   8.67720032      -3.56255368E-05
   8.68920040      -3.48175672E-05
   8.70119953      -3.39695325E-05
   8.71319962      -3.31257579E-05
   8.72519970      -3.23287277E-05
   8.73719978      -3.16169790E-05
   8.74919987      -3.10231189E-05
   8.76119995      -3.05721333E-05
   8.77320004      -3.02800527E-05
   8.78520012      -3.01530563E-05
   8.79720020      -3.01871423E-05
   8.80920029      -3.03683391E-05
   8.82120037      -3.06734655E-05
   8.83320045      -3.10714458E-05
   8.84519958      -3.15250436E-05
   8.85719967      -3.19929277E-05
   8.86919975      -3.24319481E-05
   8.88119984      -3.27994385E-05
   8.89319992      -3.30554903E-05
   8.90520000      -3.31649971E-05
   8.91720009      -3.30994371E-05
   8.92920017      -3.28382739E-05
   8.94120026      -3.23699533E-05
   8.95320034      -3.16924197E-05
   8.96520042      -3.08131821E-05
   8.97719955      -2.97488987E-05
   8.98919964      -2.85245533E-05
   9.00119972      -2.71722602E-05
   9.01319981      -2.57297797E-05
   9.02519989      -2.42388523E-05
   9.03719997      -2.27434484E-05
   9.04920006      -2.12880186E-05
   9.06120014      -1.99158330E-05
   9.07320023      -1.86674515E-05
   9.08520031      -1.75793830E-05
   9.09720039      -1.66829504E-05
   9.10919952      -1.60033633E-05
   9.12119961      -1.55590460E-05
   9.13319969      -1.53611727E-05
   9.14519978      -1.54134632E-05
   9.15719986      -1.57121885E-05
   9.16919994      -1.62463966E-05
   9.18120003      -1.69983578E-05
   9.19320011      -1.79441558E-05
   9.20520020      -1.90544579E-05
   9.21720028      -2.02953979E-05
   9.22920036      -2.16295975E-05
   9.24120045      -2.30172864E-05
   9.25319958      -2.44175080E-05
   9.26519966      -2.57894280E-05
   9.27719975      -2.70936525E-05
   9.28919983      -2.82935762E-05
   9.30119991      -2.93566791E-05
   9.31320000      -3.02557073E-05
   9.32520008      -3.09697280E-05
   9.33720016      -3.14849494E-05
   9.34920025      -3.17953454E-05
   9.36120033      -3.19029859E-05
   9.37320042      -3.18181010E-05
   9.38519955      -3.15588404E-05
   9.39719963      -3.11507101E-05
   9.40919971      -3.06257461E-05
   9.42119980      -3.00213414E-05
   9.43319988      -2.93788435E-05
   9.44519997      -2.87419734E-05
