 -0.622799993       0.00000000    
 -0.610800028       0.00000000    
 -0.598800004       0.00000000    
 -0.586799979       0.00000000    
 -0.574800014       0.00000000    
 -0.562799990       0.00000000    
 -0.550800025       0.00000000    
 -0.538800001       0.00000000    
 -0.526799977       0.00000000    
 -0.514800012       1.10474922E-31
 -0.502799988       1.75843027E-30
 -0.490799993       1.37586585E-29
 -0.478799999       6.92598473E-29
 -0.466800004       2.44359006E-28
 -0.454800010       6.00903143E-28
 -0.442799985       8.45476890E-28
 -0.430799991      -5.47649735E-28
 -0.418799996      -7.52257836E-27
 -0.406800002      -2.61750828E-26
 -0.394800007      -5.89868770E-26
 -0.382800013      -8.91485731E-26
 -0.370799989      -5.76653316E-26
 -0.358799994       1.44561177E-25
 -0.346799999       6.20933767E-25
 -0.334800005       1.29482919E-24
 -0.322800010       1.62636652E-24
 -0.310799986       4.06209379E-25
 -0.298799992      -3.93819480E-24
 -0.286799997      -1.19654122E-23
 -0.274800003      -2.05807783E-23
 -0.262800008      -2.01438819E-23
 -0.250800014       5.74185308E-24
 -0.238800004       7.32300588E-23
 -0.226799995       1.80411164E-22
 -0.214800000       2.80978068E-22
 -0.202800006       2.63350194E-22
 -0.190799996      -3.72109728E-23
 -0.178800002      -7.60757717E-22
 -0.166800007      -1.86417329E-21
 -0.154799998      -2.91910079E-21
 -0.142800003      -2.98363946E-21
 -0.130799994      -7.38467612E-22
 -0.118799999       4.92188701E-21
 -0.106799997       1.38001983E-20
  -9.48000029E-02   2.30991204E-20
  -8.28000009E-02   2.66495541E-20
  -7.07999989E-02   1.57425912E-20
  -5.88000007E-02  -1.74530779E-20
  -4.67999987E-02  -7.37668232E-20
  -3.48000005E-02  -1.39778337E-19
  -2.28000004E-02  -1.83160975E-19
  -1.08000003E-02  -1.55851141E-19
   1.20000006E-03  -9.72545327E-21
   1.31999999E-02   2.74439709E-19
   2.52000000E-02   6.51380848E-19
   3.72000001E-02   9.84886112E-19
   4.91999984E-02   1.05280963E-18
   6.12000003E-02   6.04372690E-19
   7.32000023E-02  -5.23888844E-19
   8.51999968E-02  -2.25518242E-18
   9.71999988E-02  -4.13923495E-18
  0.109200001      -5.32308343E-18
  0.121200003      -4.71070053E-18
  0.133200005      -1.35269404E-18
  0.145199999       4.98446753E-18
  0.157199994       1.32417761E-17
  0.169200003       2.07627115E-17
  0.181199998       2.35702022E-17
  0.193200007       1.74333012E-17
  0.205200002      -3.27523689E-19
  0.217199996      -2.87221924E-17
  0.229200006      -6.14595791E-17
  0.241200000      -8.68013292E-17
  0.253199995      -8.97445172E-17
  0.265199989      -5.67660702E-17
  0.277200013       1.76479281E-17
  0.289200008       1.24614124E-16
  0.301200002       2.37380322E-16
  0.313199997       3.13595182E-16
  0.325199991       3.05023843E-16
  0.337199986       1.74094546E-16
  0.349200010      -8.63897836E-17
  0.361200005      -4.36870530E-16
  0.373199999      -7.85846040E-16
  0.385199994      -1.00252024E-15
  0.397199988      -9.49624096E-16
  0.409200013      -5.31885128E-16
  0.421200007       2.52052388E-16
  0.433200002       1.27228880E-15
  0.445199996       2.26405829E-15
  0.457199991       2.87136673E-15
  0.469199985       2.73886621E-15
  0.481200010       1.63587621E-15
  0.493200004      -4.20361514E-16
  0.505200028      -3.08552037E-15
  0.517199993      -5.69474692E-15
  0.529200017      -7.37974745E-15
  0.541199982      -7.29075986E-15
  0.553200006      -4.88042724E-15
  0.565199971      -1.73295662E-16
  0.577199996       6.07202260E-15
  0.589200020       1.23910078E-14
  0.601199985       1.68745226E-14
  0.613200009       1.76413602E-14
  0.625199974       1.34264565E-14
  0.637199998       4.12838310E-15
  0.649200022      -8.86504344E-15
  0.661199987      -2.27269223E-14
  0.673200011      -3.36887331E-14
  0.685199976      -3.79336048E-14
  0.697200000      -3.27009097E-14
  0.709200025      -1.73146172E-14
  0.721199989       6.18702257E-15
  0.733200014       3.30851239E-14
  0.745199978       5.67926443E-14
  0.757200003       7.03498945E-14
  0.769200027       6.82881553E-14
  0.781199992       4.83857712E-14
  0.793200016       1.27971466E-14
  0.805199981      -3.18612934E-14
  0.817200005      -7.56411670E-14
  0.829200029      -1.07454539E-13
  0.841199994      -1.17850513E-13
  0.853200018      -1.01673654E-13
  0.865199983      -5.98575483E-14
  0.877200007       2.25845559E-16
  0.889199972       6.60873537E-14
  0.901199996       1.22888909E-13
  0.913200021       1.57013427E-13
  0.925199986       1.59522759E-13
  0.937200010       1.28567553E-13
  0.949199975       7.00570583E-14
  0.961199999      -3.65009579E-15
  0.973200023      -7.67337853E-14
  0.985199988      -1.33808614E-13
  0.997200012      -1.63696205E-13
   1.00919998      -1.62066636E-13
   1.02119994      -1.32248948E-13
   1.03320003      -8.40101507E-14
   1.04519999      -3.06500193E-14
   1.05719995       1.47999831E-14
   1.06920004       4.32642000E-14
   1.08120000       5.22329609E-14
   1.09319997       4.66090552E-14
   1.10520005       3.75233597E-14
   1.11720002       3.93022881E-14
   1.12919998       6.51578536E-14
   1.14119995       1.22446351E-13
   1.15320003       2.08495927E-13
   1.16520000       3.08041895E-13
   1.17719996       3.93229367E-13
   1.18920004       4.26906286E-13
   1.20120001       3.69478780E-13
   1.21319997       1.88888374E-13
   1.22520006      -1.27664494E-13
   1.23720002      -5.62633490E-13
   1.24919999      -1.06083957E-12
   1.26119995      -1.52934078E-12
   1.27320004      -1.84708629E-12
   1.28520000      -1.88518797E-12
   1.29719996      -1.53595984E-12
   1.30920005      -7.45848099E-13
   1.32120001       4.55191115E-13
   1.33319998       1.93644319E-12
   1.34519994       3.46892610E-12
   1.35720003       4.75186687E-12
   1.36919999       5.46212988E-12
   1.38119996       5.31944150E-12
   1.39320004       4.15490125E-12
   1.40520000       1.96730848E-12
   1.41719997      -1.04755885E-12
   1.42920005      -4.50501875E-12
   1.44120002      -7.87950868E-12
   1.45319998      -1.05859783E-11
   1.46519995      -1.20798137E-11
   1.47720003      -1.19553620E-11
   1.48920000      -1.00227535E-11
   1.50119996      -6.34751062E-12
   1.51320004      -1.24610652E-12
   1.52520001       4.75890855E-12
   1.53719997       1.10113915E-11
   1.54920006       1.68035585E-11
   1.56120002       2.14494689E-11
   1.57319999       2.43377749E-11
   1.58519995       2.49611408E-11
   1.59720004       2.29299791E-11
   1.60920000       1.79859391E-11
   1.62119997       1.00323343E-11
   1.63320005      -8.06651620E-13
   1.64520001      -1.40982694E-11
   1.65719998      -2.90013499E-11
   1.66919994      -4.41859986E-11
   1.68120003      -5.78143089E-11
   1.69319999      -6.76231918E-11
   1.70519996      -7.11377485E-11
   1.71720004      -6.60190236E-11
   1.72920001      -5.05174305E-11
   1.74119997      -2.39692398E-11
   1.75320005       1.27541346E-11
   1.76520002       5.69477590E-11
   1.77719998       1.04022978E-10
   1.78919995       1.47774903E-10
   1.80120003       1.80989959E-10
   1.81320000       1.96357000E-10
   1.82519996       1.87583060E-10
   1.83720005       1.50563603E-10
   1.84920001       8.44235723E-11
   1.86119998      -7.75985786E-12
   1.87320006      -1.18716842E-10
   1.88520002      -2.37338649E-10
   1.89719999      -3.49662022E-10
   1.90919995      -4.40433939E-10
   1.92120004      -4.95120112E-10
   1.93320000      -5.02141662E-10
   1.94519997      -4.55069010E-10
   1.95720005      -3.54469398E-10
   1.96920002      -2.09108217E-10
   1.98119998      -3.62360593E-11
   1.99319994       1.39235873E-10
   2.00519991       2.86770774E-10
   2.01719999       3.73423209E-10
   2.02920008       3.68065078E-10
   2.04119992       2.46296983E-10
   2.05320001      -4.41789487E-12
   2.06520009      -3.79970277E-10
   2.07719994      -8.55797211E-10
   2.08920002      -1.38466094E-09
   2.10120010      -1.89651206E-09
   2.11319995      -2.30073605E-09
   2.12520003      -2.49078025E-09
   2.13720012      -2.35079134E-09
   2.14919996      -1.76347326E-09
   2.16120005      -6.17962292E-10
   2.17319989       1.18386789E-09
   2.18519998       3.72450648E-09
   2.19720006       7.07329129E-09
   2.20919991       1.12961578E-08
   2.22119999       1.64742389E-08
   2.23320007       2.27323547E-08
   2.24519992       3.02776861E-08
   2.25720000       3.94479791E-08
   2.26920009       5.07675608E-08
   2.28119993       6.50084644E-08
   2.29320002       8.32528144E-08
   2.30520010       1.06952029E-07
   2.31719995       1.37977665E-07
   2.32920003       1.78658681E-07
   2.34120011       2.31799987E-07
   2.35319996       3.00678010E-07
   2.36520004       3.89009585E-07
   2.37719989       5.00892043E-07
   2.38919997       6.40713893E-07
   2.40120006       8.13037161E-07
   2.41319990       1.02245315E-06
   2.42519999       1.27341707E-06
   2.43720007       1.57006502E-06
   2.44919991       1.91602203E-06
   2.46120000       2.31420586E-06
   2.47320008       2.76663536E-06
   2.48519993       3.27425164E-06
   2.49720001       3.83675615E-06
   2.50920010       4.45247679E-06
   2.52119994       5.11826056E-06
   2.53320003       5.82940629E-06
   2.54520011       6.57963392E-06
   2.55719995       7.36109359E-06
   2.56920004       8.16442025E-06
   2.58119988       8.97883001E-06
   2.59319997       9.79226206E-06
   2.60520005       1.05915606E-05
   2.61719990       1.13627029E-05
   2.62919998       1.20910681E-05
   2.64120007       1.27617350E-05
   2.65319991       1.33598296E-05
   2.66520000       1.38708856E-05
   2.67720008       1.42812387E-05
   2.68919992       1.45784234E-05
   2.70120001       1.47515766E-05
   2.71320009       1.47918227E-05
   2.72519994       1.46926322E-05
   2.73720002       1.44501328E-05
   2.74920011       1.40633556E-05
   2.76119995       1.35344026E-05
   2.77320004       1.28685133E-05
   2.78520012       1.20740315E-05
   2.79719996       1.11622530E-05
   2.80920005       1.01471560E-05
   2.82119989       9.04502031E-06
   2.83319998       7.87394401E-06
   2.84520006       6.65327116E-06
   2.85719991       5.40296332E-06
   2.86919999       4.14292754E-06
   2.88120008       2.89234117E-06
   2.89319992       1.66900782E-06
   2.90520000       4.88768308E-07
   2.91720009      -6.34993910E-07
   2.92919993      -1.69173234E-06
   2.94120002      -2.67398082E-06
   2.95320010      -3.57745034E-06
   2.96519995      -4.40097028E-06
   2.97720003      -5.14628709E-06
   2.98920012      -5.81772974E-06
   3.00119996      -6.42176519E-06
   3.01320004      -6.96647248E-06
   3.02519989      -7.46096703E-06
   3.03719997      -7.91481489E-06
   3.04920006      -8.33746435E-06
   3.06119990      -8.73773388E-06
   3.07319999      -9.12337964E-06
   3.08520007      -9.50076537E-06
   3.09719992      -9.87465137E-06
   3.10920000      -1.02480954E-05
   3.12120008      -1.06224788E-05
   3.13319993      -1.09976399E-05
   3.14520001      -1.13720907E-05
   3.15720010      -1.17433128E-05
   3.16919994      -1.21080802E-05
   3.18120003      -1.24628168E-05
   3.19320011      -1.28039328E-05
   3.20519996      -1.31281395E-05
   3.21720004      -1.34327092E-05
   3.22919989      -1.37156776E-05
   3.24119997      -1.39759759E-05
   3.25320005      -1.42134950E-05
   3.26519990      -1.44290771E-05
   3.27719998      -1.46244483E-05
   3.28920007      -1.48021136E-05
   3.30119991      -1.49651942E-05
   3.31320000      -1.51172626E-05
   3.32520008      -1.52621542E-05
   3.33719993      -1.54037880E-05
   3.34920001      -1.55459929E-05
   3.36120009      -1.56923543E-05
   3.37319994      -1.58460789E-05
   3.38520002      -1.60099025E-05
   3.39720011      -1.61859898E-05
   3.40919995      -1.63758978E-05
   3.42120004      -1.65805359E-05
   3.43319988      -1.68001607E-05
   3.44519997      -1.70343883E-05
   3.45720005      -1.72822274E-05
   3.46919990      -1.75421319E-05
   3.48119998      -1.78120717E-05
   3.49320006      -1.80896186E-05
   3.50519991      -1.83720513E-05
   3.51719999      -1.86564739E-05
   3.52920008      -1.89399343E-05
   3.54119992      -1.92195457E-05
   3.55320001      -1.94926106E-05
   3.56520009      -1.97567042E-05
   3.57719994      -2.00097566E-05
   3.58920002      -2.02500942E-05
   3.60120010      -2.04764383E-05
   3.61319995      -2.06878649E-05
   3.62520003      -2.08837246E-05
   3.63720012      -2.10635299E-05
   3.64919996      -2.12268078E-05
   3.66120005      -2.13729472E-05
   3.67319989      -2.15010277E-05
   3.68519998      -2.16096942E-05
   3.69720006      -2.16970311E-05
   3.70919991      -2.17605175E-05
   3.72119999      -2.17970246E-05
   3.73320007      -2.18028999E-05
   3.74519992      -2.17741253E-05
   3.75720000      -2.17065572E-05
   3.76920009      -2.15962264E-05
   3.78119993      -2.14397060E-05
   3.79320002      -2.12345003E-05
   3.80520010      -2.09794471E-05
   3.81719995      -2.06751010E-05
   3.82920003      -2.03240743E-05
   3.84120011      -1.99312890E-05
   3.85319996      -1.95041521E-05
   3.86520004      -1.90525971E-05
   3.87719989      -1.85890131E-05
   3.88919997      -1.81280375E-05
   3.90120006      -1.76862159E-05
   3.91319990      -1.72815708E-05
   3.92519999      -1.69330579E-05
   3.93720007      -1.66599439E-05
   3.94919991      -1.64811609E-05
   3.96120000      -1.64146186E-05
   3.97320008      -1.64765552E-05
   3.98519993      -1.66809041E-05
   3.99720001      -1.70387393E-05
   4.00920010      -1.75577970E-05
   4.02120018      -1.82421154E-05
   4.03319979      -1.90917763E-05
   4.04519987      -2.01027760E-05
   4.05719995      -2.12670129E-05
   4.06920004      -2.25724325E-05
   4.08120012      -2.40032514E-05
   4.09320021      -2.55403302E-05
   4.10519981      -2.71616373E-05
   4.11719990      -2.88428000E-05
   4.12919998      -3.05577560E-05
   4.14120007      -3.22794513E-05
   4.15320015      -3.39806065E-05
   4.16520023      -3.56344972E-05
   4.17719984      -3.72157701E-05
   4.18919992      -3.87012442E-05
   4.20120001      -4.00706522E-05
   4.21320009      -4.13073431E-05
   4.22520018      -4.23989113E-05
   4.23719978      -4.33376845E-05
   4.24919987      -4.41210868E-05
   4.26119995      -4.47518360E-05
   4.27320004      -4.52379718E-05
   4.28520012      -4.55926565E-05
   4.29720020      -4.58338327E-05
   4.30919981      -4.59836047E-05
   4.32119989      -4.60674710E-05
   4.33319998      -4.61133604E-05
   4.34520006      -4.61504751E-05
   4.35720015      -4.62080425E-05
   4.36920023      -4.63139113E-05
   4.38119984      -4.64931218E-05
   4.39319992      -4.67664067E-05
   4.40520000      -4.71487183E-05
   4.41720009      -4.76478162E-05
   4.42920017      -4.82629112E-05
   4.44119978      -4.89834820E-05
   4.45319986      -4.97882356E-05
   4.46519995      -5.06442848E-05
   4.47720003      -5.15065949E-05
   4.48920012      -5.23176786E-05
   4.50120020      -5.30076577E-05
   4.51319981      -5.34946230E-05
   4.52519989      -5.36854532E-05
   4.53719997      -5.34769642E-05
   4.54920006      -5.27575394E-05
   4.56120014      -5.14091516E-05
   4.57320023      -4.93098341E-05
   4.58519983      -4.63365141E-05
   4.59719992      -4.23682250E-05
   4.60920000      -3.72895738E-05
   4.62120008      -3.09944298E-05
   4.63320017      -2.33896790E-05
   4.64519978      -1.43989819E-05
   4.65719986      -3.96632322E-06
   4.66919994       7.94070638E-06
   4.68120003       2.13280910E-05
   4.69320011       3.61731509E-05
   4.70520020       5.24230054E-05
   4.71719980       6.99938173E-05
   4.72919989       8.87709539E-05
   4.74119997       1.08609958E-04
   4.75320005       1.29338528E-04
   4.76520014       1.50759268E-04
   4.77720022       1.72653192E-04
   4.78919983       1.94784021E-04
   4.80119991       2.16902758E-04
   4.81320000       2.38752866E-04
   4.82520008       2.60075409E-04
   4.83720016       2.80614244E-04
   4.84919977       3.00121086E-04
   4.86119986       3.18360282E-04
   4.87319994       3.35112883E-04
   4.88520002       3.50180548E-04
   4.89720011       3.63388477E-04
   4.90920019       3.74587864E-04
   4.92119980       3.83657753E-04
   4.93319988       3.90505971E-04
   4.94519997       3.95069976E-04
   4.95720005       3.97316646E-04
   4.96920013       3.97241995E-04
   4.98120022       3.94870585E-04
   4.99319983       3.90254165E-04
   5.00519991       3.83470528E-04
   5.01719999       3.74621974E-04
   5.02920008       3.63833737E-04
   5.04120016       3.51251831E-04
   5.05319977       3.37041245E-04
   5.06519985       3.21383588E-04
   5.07719994       3.04474641E-04
   5.08920002       2.86521856E-04
   5.10120010       2.67741416E-04
   5.11320019       2.48355209E-04
   5.12519979       2.28587669E-04
   5.13719988       2.08662401E-04
   5.14919996       1.88798906E-04
   5.16120005       1.69209103E-04
   5.17320013       1.50094158E-04
   5.18520021       1.31641340E-04
   5.19719982       1.14021204E-04
   5.20919991       9.73851929E-05
   5.22119999       8.18635817E-05
   5.23320007       6.75639167E-05
   5.24520016       5.45700095E-05
   5.25719976       4.29413958E-05
   5.26919985       3.27133275E-05
   5.28119993       2.38973535E-05
   5.29320002       1.64822250E-05
   5.30520010       1.04353203E-05
   5.31720018       5.70436623E-06
   5.32919979       2.21945652E-06
   5.34119987      -1.04665908E-07
   5.35319996      -1.36619622E-06
   5.36520004      -1.67368955E-06
   5.37720013      -1.14345028E-06
   5.38920021       1.03129807E-07
   5.40119982       1.94221548E-06
   5.41319990       4.25008921E-06
   5.42519999       6.90565275E-06
   5.43720007       9.79277502E-06
   5.44920015       1.28024321E-05
   5.46120024       1.58346393E-05
   5.47319984       1.88000868E-05
   5.48519993       2.16214576E-05
   5.49720001       2.42343776E-05
   5.50920010       2.65879444E-05
   5.52120018       2.86448503E-05
   5.53319979       3.03810612E-05
   5.54519987       3.17850754E-05
   5.55719995       3.28567912E-05
   5.56920004       3.36060402E-05
   5.58120012       3.40508304E-05
   5.59320021       3.42154199E-05
   5.60519981       3.41282903E-05
   5.61719990       3.38201353E-05
   5.62919998       3.33219359E-05
   5.64120007       3.26632799E-05
   5.65320015       3.18709281E-05
   5.66520023       3.09677525E-05
   5.67719984       2.99720705E-05
   5.68919992       2.88973642E-05
   5.70120001       2.77524123E-05
   5.71320009       2.65417930E-05
   5.72520018       2.52666723E-05
   5.73719978       2.39258297E-05
   5.74919987       2.25168351E-05
   5.76119995       2.10372527E-05
   5.77320004       1.94858294E-05
   5.78520012       1.78635546E-05
   5.79720020       1.61745411E-05
   5.80919981       1.44266678E-05
   5.82119989       1.26319865E-05
   5.83319998       1.08068489E-05
   5.84520006       8.97178961E-06
   5.85720015       7.15119040E-06
   5.86920023       5.37276264E-06
   5.88119984       3.66689505E-06
   5.89319992       2.06590471E-06
   5.90520000       6.03255444E-07
   5.91720009      -6.87250747E-07
   5.92920017      -1.77226286E-06
   5.94119978      -2.61965647E-06
   5.95319986      -3.19929200E-06
   5.96519995      -3.48376511E-06
   5.97720003      -3.44917521E-06
   5.98920012      -3.07591495E-06
   6.00120020      -2.34949744E-06
   6.01319981      -1.26142118E-06
   6.02519989       1.89944572E-07
   6.03719997       1.99848341E-06
   6.04920006       4.14951364E-06
   6.06120014       6.61908871E-06
   6.07320023       9.37348523E-06
   6.08519983       1.23689588E-05
   6.09719992       1.55518483E-05
   6.10920000       1.88590820E-05
   6.12120008       2.22191338E-05
   6.13320017       2.55534724E-05
   6.14519978       2.87784733E-05
   6.15719986       3.18077546E-05
   6.16919994       3.45548979E-05
   6.18120003       3.69363879E-05
   6.19320011       3.88747176E-05
   6.20520020       4.03014456E-05
   6.21719980       4.11600995E-05
   6.22919989       4.14087663E-05
   6.24119997       4.10221874E-05
   6.25320005       3.99933233E-05
   6.26520014       3.83342085E-05
   6.27720022       3.60760896E-05
   6.28919983       3.32688396E-05
   6.30119991       2.99796338E-05
   6.31320000       2.62909580E-05
   6.32520008       2.22980561E-05
   6.33720016       1.81058949E-05
   6.34919977       1.38258501E-05
   6.36119986       9.57217890E-06
   6.37319994       5.45847206E-06
   6.38520002       1.59422825E-06
   6.39720011      -1.91835989E-06
   6.40920019      -4.98727377E-06
   6.42119980      -7.53312406E-06
   6.43319988      -9.49113019E-06
   6.44519997      -1.08125932E-05
   6.45720005      -1.14658524E-05
   6.46920013      -1.14367340E-05
   6.48120022      -1.07285132E-05
   6.49319983      -9.36143715E-06
   6.50519991      -7.37183836E-06
   6.51719999      -4.81089319E-06
   6.52920008      -1.74308116E-06
   6.54120016       1.75562036E-06
   6.55319977       5.59976206E-06
   6.56519985       9.69661323E-06
   6.57719994       1.39484846E-05
   6.58920002       1.82551339E-05
   6.60120010       2.25162075E-05
   6.61320019       2.66336701E-05
   6.62519979       3.05141493E-05
   6.63719988       3.40711667E-05
   6.64919996       3.72271679E-05
   6.66120005       3.99152923E-05
   6.67320013       4.20808610E-05
   6.68520021       4.36825030E-05
   6.69719982       4.46928534E-05
   6.70919991       4.50988882E-05
   6.72119999       4.49017825E-05
   6.73320007       4.41163902E-05
   6.74520016       4.27702980E-05
   6.75719976       4.09025670E-05
   6.76919985       3.85621825E-05
   6.78119993       3.58063044E-05
   6.79320002       3.26984045E-05
   6.80520010       2.93063658E-05
   6.81720018       2.57006432E-05
   6.82919979       2.19525173E-05
   6.84119987       1.81325631E-05
   6.85319996       1.43093084E-05
   6.86520004       1.05481395E-05
   6.87720013       6.91045716E-06
   6.88920021       3.45305375E-06
   6.90119982       2.27702813E-07
   6.91319990      -2.71909857E-06
   6.92519999      -5.34626224E-06
   6.93720007      -7.61817773E-06
   6.94920015      -9.50475078E-06
   6.96120024      -1.09814537E-05
   6.97319984      -1.20294108E-05
   6.98519993      -1.26355235E-05
   6.99720001      -1.27926478E-05
   7.00920010      -1.24997923E-05
   7.02120018      -1.17623113E-05
   7.03319979      -1.05920717E-05
   7.04519987      -9.00753366E-06
   7.05719995      -7.03373053E-06
   7.06920004      -4.70209079E-06
   7.08120012      -2.05009292E-06
   7.09320021       8.79266622E-07
   7.10519981       4.03820195E-06
   7.11719990       7.37503751E-06
   7.12919998       1.08352697E-05
   7.14120007       1.43627458E-05
   7.15320015       1.79009185E-05
   7.16520023       2.13941257E-05
   7.17719984       2.47888438E-05
   7.18919992       2.80348613E-05
   7.20120001       3.10863288E-05
   7.21320009       3.39026155E-05
   7.22520018       3.64490188E-05
   7.23719978       3.86971915E-05
   7.24919987       4.06253748E-05
   7.26119995       4.22183839E-05
   7.27320004       4.34673966E-05
   7.28520012       4.43695280E-05
   7.29720020       4.49272338E-05
   7.30919981       4.51476335E-05
   7.32119989       4.50416956E-05
   7.33319998       4.46234189E-05
   7.34520006       4.39090072E-05
   7.35720015       4.29160718E-05
   7.36920023       4.16629227E-05
   7.38119984       4.01679827E-05
   7.39319992       3.84492851E-05
   7.40520000       3.65241613E-05
   7.41720009       3.44090877E-05
   7.42920017       3.21196458E-05
   7.44119978       2.96707240E-05
   7.45319986       2.70767814E-05
   7.46519995       2.43523355E-05
   7.47720003       2.15124801E-05
   7.48920012       1.85735407E-05
   7.50120020       1.55537273E-05
   7.51319981       1.24738108E-05
   7.52519989       9.35772732E-06
   7.53719997       6.23308460E-06
   7.54920006       3.13150326E-06
   7.56120014       8.87565932E-08
   7.57320023      -2.85533429E-06
   7.58519983      -5.65729579E-06
   7.59719992      -8.27068106E-06
   7.60920000      -1.06470479E-05
   7.62120008      -1.27372150E-05
   7.63320017      -1.44927426E-05
   7.64519978      -1.58676048E-05
   7.65719986      -1.68199531E-05
   7.66919994      -1.73138978E-05
   7.68120003      -1.73212047E-05
   7.69320011      -1.68228271E-05
   7.70520020      -1.58101575E-05
   7.71719980      -1.42859617E-05
   7.72919989      -1.22648780E-05
   7.74119997      -9.77350282E-06
   7.75320005      -6.85000850E-06
   7.76520014      -3.54331792E-06
   7.77720022       8.81286866E-08
   7.78919983       3.97797339E-06
   7.80119991       8.05381478E-06
   7.81320000       1.22392921E-05
   7.82520008       1.64562844E-05
   7.83720016       2.06271161E-05
   7.84919977       2.46767213E-05
   7.86119986       2.85346341E-05
   7.87319994       3.21367952E-05
   7.88520002       3.54270924E-05
   7.89720011       3.83585757E-05
   7.90920019       4.08944070E-05
   7.92119980       4.30084328E-05
   7.93319988       4.46854501E-05
   7.94519997       4.59211769E-05
   7.95720005       4.67219033E-05
   7.96920013       4.71038911E-05
   7.98120022       4.70925006E-05
   7.99319983       4.67210994E-05
   8.00520039       4.60298106E-05
   8.01720047       4.50640400E-05
   8.02919960       4.38729367E-05
   8.04119968       4.25077233E-05
   8.05319977       4.10200337E-05
   8.06519985       3.94602321E-05
   8.07719994       3.78758086E-05
   8.08920002       3.63098879E-05
   8.10120010       3.47999194E-05
   8.11320019       3.33765856E-05
   8.12520027       3.20629842E-05
   8.13720036       3.08741000E-05
   8.14920044       2.98166469E-05
   8.16119957       2.88892043E-05
   8.17319965       2.80827353E-05
   8.18519974       2.73814076E-05
   8.19719982       2.67637024E-05
   8.20919991       2.62037502E-05
   8.22119999       2.56728599E-05
   8.23320007       2.51411348E-05
   8.24520016       2.45791234E-05
   8.25720024       2.39594210E-05
   8.26920033       2.32581733E-05
   8.28120041       2.24563937E-05
   8.29319954       2.15410546E-05
   8.30519962       2.05059023E-05
   8.31719971       1.93519809E-05
   8.32919979       1.80878214E-05
   8.34119987       1.67293128E-05
   8.35319996       1.52992652E-05
   8.36520004       1.38266751E-05
   8.37720013       1.23457185E-05
   8.38920021       1.08945424E-05
   8.40120029       9.51386119E-06
   8.41320038       8.24544168E-06
   8.42520046       7.13050576E-06
   8.43719959       6.20812398E-06
   8.44919968       5.51364064E-06
   8.46119976       5.07719824E-06
   8.47319984       4.92240770E-06
   8.48519993       5.06522019E-06
   8.49720001       5.51304856E-06
   8.50920010       6.26417432E-06
   8.52120018       7.30748525E-06
   8.53320026       8.62255274E-06
   8.54520035       1.01800679E-05
   8.55720043       1.19426340E-05
   8.56919956       1.38658843E-05
   8.58119965       1.58998973E-05
   8.59319973       1.79908675E-05
   8.60519981       2.00829509E-05
   8.61719990       2.21202081E-05
   8.62919998       2.40485733E-05
   8.64120007       2.58177624E-05
   8.65320015       2.73829883E-05
   8.66520023       2.87064777E-05
   8.67720032       2.97586303E-05
   8.68920040       3.05188405E-05
   8.70119953       3.09759016E-05
   8.71319962       3.11279946E-05
   8.72519970       3.09822826E-05
   8.73719978       3.05541253E-05
   8.74919987       2.98659870E-05
   8.76119995       2.89461168E-05
   8.77320004       2.78270509E-05
   8.78520012       2.65440722E-05
   8.79720020       2.51336969E-05
   8.80920029       2.36322703E-05
   8.82120037       2.20747606E-05
   8.83320045       2.04937824E-05
   8.84519958       1.89189086E-05
   8.85719967       1.73762492E-05
   8.86919975       1.58883104E-05
   8.88119984       1.44740898E-05
   8.89319992       1.31493589E-05
   8.90520000       1.19270790E-05
   8.91720009       1.08178938E-05
   8.92920017       9.83062910E-06
   8.94120026       8.97275640E-06
   8.95320034       8.25077404E-06
   8.96520042       7.67046276E-06
   8.97719955       7.23701942E-06
   8.98919964       6.95504696E-06
   9.00119972       6.82841619E-06
   9.01319981       6.86002522E-06
   9.02519989       7.05147841E-06
   9.03719997       7.40271844E-06
   9.04920006       7.91164257E-06
   9.06120014       8.57373652E-06
   9.07320023       9.38173980E-06
   9.08520031       1.03253742E-05
   9.09720039       1.13911256E-05
   9.10919952       1.25621000E-05
   9.12119961       1.38179566E-05
   9.13319969       1.51349059E-05
   9.14519978       1.64857993E-05
   9.15719986       1.78403061E-05
   9.16919994       1.91652016E-05
   9.18120003       2.04247699E-05
   9.19320011       2.15813579E-05
   9.20520020       2.25960794E-05
   9.21720028       2.34297095E-05
   9.22920036       2.40437457E-05
   9.24120045       2.44016665E-05
   9.25319958       2.44703424E-05
   9.26519966       2.42215865E-05
   9.27719975       2.36337746E-05
   9.28919983       2.26934717E-05
   9.30119991       2.13969943E-05
   9.31320000       1.97517584E-05
   9.32520008       1.77773654E-05
   9.33720016       1.55062880E-05
   9.34920025       1.29840455E-05
   9.36120033       1.02688582E-05
   9.37320042       7.43065539E-06
   9.38519955       4.54947894E-06
   9.39719963       1.71327599E-06
   9.40919971      -9.84843496E-07
   9.42119980      -3.44980663E-06
   9.43319988      -5.58809325E-06
   9.44519997      -7.31141654E-06
