 -0.622799993       0.00000000    
 -0.610800028       0.00000000    
 -0.598800004       0.00000000    
 -0.586799979       0.00000000    
 -0.574800014       0.00000000    
 -0.562799990       0.00000000    
 -0.550800025       0.00000000    
 -0.538800001       0.00000000    
 -0.526799977       3.55346668E-37
 -0.514800012      -6.16545670E-32
 -0.502799988      -1.05588065E-30
 -0.490799993      -8.70703900E-30
 -0.478799999      -4.54615071E-29
 -0.466800004      -1.64042696E-28
 -0.454800010      -4.06028018E-28
 -0.442799985      -5.54336612E-28
 -0.430799991       4.77982253E-28
 -0.418799996       5.32375377E-27
 -0.406800002       1.72687723E-26
 -0.394800007       3.43906654E-26
 -0.382800013       3.58787221E-26
 -0.370799989      -3.40765324E-26
 -0.358799994      -2.59383900E-25
 -0.346799999      -6.72198928E-25
 -0.334800005      -1.05243718E-24
 -0.322800010      -6.42480665E-25
 -0.310799986       1.98051379E-24
 -0.298799992       8.35492209E-24
 -0.286799997       1.82794155E-23
 -0.274800003       2.65179538E-23
 -0.262800008       1.94361348E-23
 -0.250800014      -2.46678698E-23
 -0.238800004      -1.25787557E-22
 -0.226799995      -2.78358595E-22
 -0.214800000      -4.16163558E-22
 -0.202800006      -3.83835281E-22
 -0.190799996       4.90596731E-23
 -0.178800002       1.08688301E-21
 -0.166800007       2.69568327E-21
 -0.154799998       4.32137691E-21
 -0.142800003       4.68670316E-21
 -0.130799994       1.92140344E-21
 -0.118799999      -5.69971023E-21
 -0.106799997      -1.83061096E-20
  -9.48000029E-02  -3.25857721E-20
  -8.28000009E-02  -4.04695013E-20
  -7.07999989E-02  -2.98011429E-20
  -5.88000007E-02   1.15427634E-20
  -4.67999987E-02   8.76079976E-20
  -3.48000005E-02   1.84098687E-19
  -2.28000004E-02   2.60543747E-19
  -1.08000003E-02   2.51963221E-19
   1.20000006E-03   8.70382640E-20
   1.31999999E-02  -2.74675068E-19
   2.52000000E-02  -7.93433815E-19
   3.72000001E-02  -1.30737891E-18
   4.91999984E-02  -1.52784023E-18
   6.12000003E-02  -1.10235362E-18
   7.32000023E-02   2.40409938E-19
   8.51999968E-02   2.48503585E-18
   9.71999988E-02   5.13195963E-18
  0.109200001       7.11884208E-18
  0.121200003       6.98082369E-18
  0.133200005       3.32211678E-18
  0.145199999      -4.44303771E-18
  0.157199994      -1.52839684E-17
  0.169200003      -2.60400411E-17
  0.181199998      -3.16240545E-17
  0.193200007      -2.62614955E-17
  0.205200002      -5.76815913E-18
  0.217199996       2.96197297E-17
  0.229200006       7.28658372E-17
  0.241200000       1.09526614E-16
  0.253199995       1.20113653E-16
  0.265199989       8.58958708E-17
  0.277200013      -2.67621238E-18
  0.289200008      -1.37277478E-16
  0.301200002      -2.86324347E-16
  0.313199997      -3.96719766E-16
  0.325199991      -4.05276731E-16
  0.337199986      -2.59480285E-16
  0.349200010       5.67281324E-17
  0.361200005       5.00323621E-16
  0.373199999       9.60040907E-16
  0.385199994       1.26985623E-15
  0.397199988       1.24906559E-15
  0.409200013       7.64162420E-16
  0.421200007      -2.02471129E-16
  0.433200002      -1.50024083E-15
  0.445199996      -2.79994449E-15
  0.457199991      -3.64450113E-15
  0.469199985      -3.56429982E-15
  0.481200010      -2.23834513E-15
  0.493200004       3.40540941E-16
  0.505200028       3.75355790E-15
  0.517199993       7.15374212E-15
  0.529200017       9.41029295E-15
  0.541199982       9.39629657E-15
  0.553200006       6.36617131E-15
  0.565199971       3.22072949E-16
  0.577199996      -7.75759275E-15
  0.589200020      -1.59445143E-14
  0.601199985      -2.17060409E-14
  0.613200009      -2.25453201E-14
  0.625199974      -1.68064161E-14
  0.637199998      -4.42544434E-15
  0.649200022       1.26305047E-14
  0.661199987       3.04581901E-14
  0.673200011       4.39484942E-14
  0.685199976       4.80710510E-14
  0.697200000       3.94326092E-14
  0.709200025       1.76751958E-14
  0.721199989      -1.37645243E-14
  0.733200014      -4.79097319E-14
  0.745199978      -7.56378941E-14
  0.757200003      -8.79985510E-14
  0.769200027      -7.88984221E-14
  0.781199992      -4.73758775E-14
  0.793200016       1.31920564E-15
  0.805199981       5.63711336E-14
  0.817200005       1.03827605E-13
  0.829200029       1.30299376E-13
  0.841199994       1.26927806E-13
  0.853200018       9.23909048E-14
  0.865199983       3.38764051E-14
  0.877200007      -3.45040904E-14
  0.889199972      -9.55856555E-14
  0.901199996      -1.34222481E-13
  0.913200021      -1.41951243E-13
  0.925199986      -1.19615323E-13
  0.937200010      -7.68868882E-14
  0.949199975      -2.86465154E-14
  0.961199999       1.06596877E-14
  0.973200023       3.26861137E-14
  0.985199988       3.86504319E-14
  0.997200012       3.89693635E-14
   1.00919998       4.87595228E-14
   1.02119994       8.05160992E-14
   1.03320003       1.36619706E-13
   1.04519999       2.04811374E-13
   1.05719995       2.59097404E-13
   1.06920004       2.66788924E-13
   1.08120000       2.00066743E-13
   1.09319997       4.84098947E-14
   1.10520005      -1.72729859E-13
   1.11720002      -4.20950628E-13
   1.12919998      -6.35282788E-13
   1.14119995      -7.52355318E-13
   1.15320003      -7.25682481E-13
   1.16520000      -5.41671254E-13
   1.17719996      -2.26402894E-13
   1.18920004       1.60012601E-13
   1.20120001       5.40445130E-13
   1.21319997       8.43720276E-13
   1.22520006       1.02543755E-12
   1.23720002       1.07862157E-12
   1.24919999       1.02946883E-12
   1.26119995       9.18975941E-13
   1.27320004       7.77141589E-13
   1.28520000       6.00445583E-13
   1.29719996       3.43586650E-13
   1.30920005      -6.76178812E-14
   1.32120001      -7.02758056E-13
   1.33319998      -1.58189564E-12
   1.34519994      -2.63475266E-12
   1.35720003      -3.68132391E-12
   1.36919999      -4.44687473E-12
   1.38119996      -4.61460774E-12
   1.39320004      -3.90701707E-12
   1.40520000      -2.17600959E-12
   1.41719997       5.23884105E-13
   1.42920005       3.90303762E-12
   1.44120002       7.45934911E-12
   1.45319998       1.05557169E-11
   1.46519995       1.25367815E-11
   1.47720003       1.28580861E-11
   1.48920000       1.11971873E-11
   1.50119996       7.52161267E-12
   1.51320004       2.10101858E-12
   1.52520001      -4.53346475E-12
   1.53719997      -1.16662166E-11
   1.54920006      -1.84868475E-11
   1.56120002      -2.41707123E-11
   1.57319999      -2.79376765E-11
   1.58519995      -2.90901626E-11
   1.59720004      -2.70440961E-11
   1.60920000      -2.13727525E-11
   1.62119997      -1.18806761E-11
   1.63320005       1.28748108E-12
   1.64520001       1.75167918E-11
   1.65719998       3.56034646E-11
   1.66919994       5.36941637E-11
   1.68120003       6.93319430E-11
   1.69319999       7.96457345E-11
   1.70519996       8.16952825E-11
   1.71720004       7.29489386E-11
   1.72920001       5.18351334E-11
   1.74119997       1.82770101E-11
   1.75320005      -2.58974751E-11
   1.76520002      -7.67766892E-11
   1.77719998      -1.28500904E-10
   1.78919995      -1.73753123E-10
   1.80120003      -2.04588693E-10
   1.81320000      -2.13524212E-10
   1.82519996      -1.94749175E-10
   1.83720005      -1.45281426E-10
   1.84920001      -6.58698235E-11
   1.86119998       3.85402439E-11
   1.87320006       1.58921626E-10
   1.88520002       2.82935758E-10
   1.89719999       3.96349620E-10
   1.90919995       4.84999263E-10
   1.92120004       5.37112910E-10
   1.93320000       5.45734735E-10
   1.94519997       5.10940901E-10
   1.95720005       4.41514963E-10
   1.96920002       3.55759477E-10
   1.98119998       2.81159013E-10
   1.99319994       2.52687676E-10
   2.00519991       3.09663434E-10
   2.01719999       4.91199081E-10
   2.02920008       8.30471358E-10
   2.04119992       1.34821632E-09
   2.05320001       2.04603001E-09
   2.06520009       2.90019564E-09
   2.07719994       3.85681265E-09
   2.08920002       4.82895723E-09
   2.10120010       5.69642422E-09
   2.11319995       6.30828279E-09
   2.12520003       6.48800569E-09
   2.13720012       6.04037487E-09
   2.14919996       4.75873208E-09
   2.16120005       2.43052334E-09
   2.17319989      -1.16148968E-09
   2.18519998      -6.24535357E-09
   2.19720006      -1.30766562E-08
   2.20919991      -2.19689351E-08
   2.22119999      -3.33405410E-08
   2.23320007      -4.77798991E-08
   2.24519992      -6.61300135E-08
   2.25720000      -8.95916443E-08
   2.26920009      -1.19842881E-07
   2.28119993      -1.59171051E-07
   2.29320002      -2.10610835E-07
   2.30520010      -2.78081188E-07
   2.31719995      -3.66511216E-07
   2.32920003      -4.81945222E-07
   2.34120011      -6.31615478E-07
   2.35319996      -8.23971959E-07
   2.36520004      -1.06865934E-06
   2.37719989      -1.37643144E-06
   2.38919997      -1.75899777E-06
   2.40120006      -2.22879748E-06
   2.41319990      -2.79870187E-06
   2.42519999      -3.48164485E-06
   2.43720007      -4.29019383E-06
   2.44919991      -5.23606877E-06
   2.46120000      -6.32962383E-06
   2.47320008      -7.57930866E-06
   2.48519993      -8.99113456E-06
   2.49720001      -1.05681638E-05
   2.50920010      -1.23100399E-05
   2.52119994      -1.42125955E-05
   2.53320003      -1.62675442E-05
   2.54520011      -1.84622822E-05
   2.55719995      -2.07798221E-05
   2.56920004      -2.31988543E-05
   2.58119988      -2.56939584E-05
   2.59319997      -2.82359579E-05
   2.60520005      -3.07924311E-05
   2.61719990      -3.33283351E-05
   2.62919998      -3.58067737E-05
   2.64120007      -3.81898535E-05
   2.65319991      -4.04396269E-05
   2.66520000      -4.25190810E-05
   2.67720008      -4.43931312E-05
   2.68919992      -4.60296251E-05
   2.70120001      -4.74002991E-05
   2.71320009      -4.84816010E-05
   2.72519994      -4.92554645E-05
   2.73720002      -4.97098918E-05
   2.74920011      -4.98393638E-05
   2.76119995      -4.96450702E-05
   2.77320004      -4.91349456E-05
   2.78520012      -4.83234544E-05
   2.79719996      -4.72311913E-05
   2.80920005      -4.58842769E-05
   2.82119989      -4.43135687E-05
   2.83319998      -4.25537110E-05
   2.84520006      -4.06420695E-05
   2.85719991      -3.86175743E-05
   2.86919999      -3.65195374E-05
   2.88120008      -3.43864886E-05
   2.89319992      -3.22550113E-05
   2.90520000      -3.01587515E-05
   2.91720009      -2.81275279E-05
   2.92919993      -2.61866226E-05
   2.94120002      -2.43562808E-05
   2.95320010      -2.26514385E-05
   2.96519995      -2.10816597E-05
   2.97720003      -1.96513156E-05
   2.98920012      -1.83599550E-05
   3.00119996      -1.72028704E-05
   3.01320004      -1.61717981E-05
   3.02519989      -1.52557341E-05
   3.03719997      -1.44418009E-05
   3.04920006      -1.37161333E-05
   3.06119990      -1.30647268E-05
   3.07319999      -1.24742028E-05
   3.08520007      -1.19324723E-05
   3.09719992      -1.14292388E-05
   3.10920000      -1.09563380E-05
   3.12120008      -1.05079125E-05
   3.13319993      -1.00803982E-05
   3.14520001      -9.67235428E-06
   3.15720010      -9.28415557E-06
   3.16919994      -8.91757099E-06
   3.18120003      -8.57526447E-06
   3.19320011      -8.26026371E-06
   3.20519996      -7.97543362E-06
   3.21720004      -7.72298699E-06
   3.22919989      -7.50407025E-06
   3.24119997      -7.31845739E-06
   3.25320005      -7.16435397E-06
   3.26519990      -7.03834121E-06
   3.27719998      -6.93544189E-06
   3.28920007      -6.84931683E-06
   3.30119991      -6.77255912E-06
   3.31320000      -6.69707606E-06
   3.32520008      -6.61452350E-06
   3.33719993      -6.51677010E-06
   3.34920001      -6.39634709E-06
   3.36120009      -6.24687027E-06
   3.37319994      -6.06339199E-06
   3.38520002      -5.84267173E-06
   3.39720011      -5.58334750E-06
   3.40919995      -5.28599230E-06
   3.42120004      -4.95306358E-06
   3.43319988      -4.58874320E-06
   3.44519997      -4.19868411E-06
   3.45720005      -3.78967297E-06
   3.46919990      -3.36924245E-06
   3.48119998      -2.94525125E-06
   3.49320006      -2.52545942E-06
   3.50519991      -2.11712586E-06
   3.51719999      -1.72665727E-06
   3.52920008      -1.35932908E-06
   3.54119992      -1.01909654E-06
   3.55320001      -7.08508935E-07
   3.56520009      -4.28733955E-07
   3.57719994      -1.79687561E-07
   3.58920002       3.97363031E-08
   3.60120010       2.31353553E-07
   3.61319995       3.97312732E-07
   3.62520003       5.39684777E-07
   3.63720012       6.60042417E-07
   3.64919996       7.59063880E-07
   3.66120005       8.36190281E-07
   3.67319989       8.89364287E-07
   3.68519998       9.14880047E-07
   3.69720006       9.07361311E-07
   3.70919991       8.59879492E-07
   3.72119999       7.64217248E-07
   3.73320007       6.11270309E-07
   3.74519992       3.91574105E-07
   3.75720000       9.59254578E-08
   3.76920009      -2.83934128E-07
   3.78119993      -7.54610710E-07
   3.79320002      -1.32037201E-06
   3.80520010      -1.98252928E-06
   3.81719995      -2.73891987E-06
   3.82920003      -3.58354055E-06
   3.84120011      -4.50633797E-06
   3.85319996      -5.49319293E-06
   3.86520004      -6.52610152E-06
   3.87719989      -7.58354690E-06
   3.88919997      -8.64104823E-06
   3.90120006      -9.67186497E-06
   3.91319990      -1.06478219E-05
   3.92519999      -1.15402090E-05
   3.93720007      -1.23207237E-05
   3.94919991      -1.29624068E-05
   3.96120000      -1.34405109E-05
   3.97320008      -1.37332972E-05
   3.98519993      -1.38226960E-05
   3.99720001      -1.36948156E-05
   4.00920010      -1.33403128E-05
   4.02120018      -1.27545836E-05
   4.03319979      -1.19378064E-05
   4.04519987      -1.08948516E-05
   4.05719995      -9.63504135E-06
   4.06920004      -8.17183081E-06
   4.08120012      -6.52239487E-06
   4.09320021      -4.70715941E-06
   4.10519981      -2.74930471E-06
   4.11719990      -6.74249065E-07
   4.12919998       1.49087418E-06
   4.14120007       3.71772217E-06
   4.15320015       5.97724056E-06
   4.16520023       8.24014387E-06
   4.17719984       1.04773881E-05
   4.18919992       1.26606374E-05
   4.20120001       1.47627334E-05
   4.21320009       1.67581602E-05
   4.22520018       1.86235120E-05
   4.23719978       2.03379568E-05
   4.24919987       2.18836703E-05
   4.26119995       2.32462480E-05
   4.27320004       2.44150597E-05
   4.28520012       2.53835533E-05
   4.29720020       2.61494333E-05
   4.30919981       2.67147771E-05
   4.32119989       2.70860000E-05
   4.33319998       2.72737034E-05
   4.34520006       2.72923789E-05
   4.35720015       2.71599692E-05
   4.36920023       2.68973199E-05
   4.38119984       2.65274866E-05
   4.39319992       2.60749857E-05
   4.40520000       2.55649556E-05
   4.41720009       2.50223220E-05
   4.42920017       2.44709572E-05
   4.44119978       2.39329074E-05
   4.45319986       2.34277049E-05
   4.46519995       2.29717971E-05
   4.47720003       2.25781114E-05
   4.48920012       2.22557646E-05
   4.50120020       2.20099246E-05
   4.51319981       2.18417899E-05
   4.52519989       2.17486959E-05
   4.53719997       2.17243178E-05
   4.54920006       2.17589150E-05
   4.56120014       2.18396162E-05
   4.57320023       2.19506910E-05
   4.58519983       2.20737875E-05
   4.59719992       2.21881273E-05
   4.60920000       2.22706203E-05
   4.62120008       2.22959297E-05
   4.63320017       2.22364815E-05
   4.64519978       2.20624534E-05
   4.65719986       2.17417837E-05
   4.66919994       2.12402356E-05
   4.68120003       2.05215711E-05
   4.69320011       1.95478733E-05
   4.70520020       1.82800559E-05
   4.71719980       1.66785921E-05
   4.72919989       1.47044611E-05
   4.74119997       1.23203336E-05
   4.75320005       9.49193691E-06
   4.76520014       6.18959348E-06
   4.77720022       2.38984171E-06
   4.78919983      -1.92291805E-06
   4.80119991      -6.75484534E-06
   4.81320000      -1.21012608E-05
   4.82520008      -1.79454983E-05
   4.83720016      -2.42581045E-05
   4.84919977      -3.09964780E-05
   4.86119986      -3.81049831E-05
   4.87319994      -4.55155714E-05
   4.88520002      -5.31489568E-05
   4.89720011      -6.09162526E-05
   4.90920019      -6.87210922E-05
   4.92119980      -7.64621072E-05
   4.93319988      -8.40356588E-05
   4.94519997      -9.13387848E-05
   4.95720005      -9.82721176E-05
   4.96920013      -1.04742787E-04
   4.98120022      -1.10667097E-04
   4.99319983      -1.15972871E-04
   5.00519991      -1.20601406E-04
   5.01719999      -1.24508966E-04
   5.02920008      -1.27667721E-04
   5.04120016      -1.30066197E-04
   5.05319977      -1.31709166E-04
   5.06519985      -1.32616959E-04
   5.07719994      -1.32824396E-04
   5.08920002      -1.32379311E-04
   5.10120010      -1.31340639E-04
   5.11320019      -1.29776468E-04
   5.12519979      -1.27761668E-04
   5.13719988      -1.25375635E-04
   5.14919996      -1.22700061E-04
   5.16120005      -1.19816599E-04
   5.17320013      -1.16804891E-04
   5.18520021      -1.13740607E-04
   5.19719982      -1.10693822E-04
   5.20919991      -1.07727574E-04
   5.22119999      -1.04896717E-04
   5.23320007      -1.02247119E-04
   5.24520016      -9.98150717E-05
   5.25719976      -9.76270167E-05
   5.26919985      -9.56995791E-05
   5.28119993      -9.40398313E-05
   5.29320002      -9.26458306E-05
   5.30520010      -9.15073324E-05
   5.31720018      -9.06067362E-05
   5.32919979      -8.99201113E-05
   5.34119987      -8.94183904E-05
   5.35319996      -8.90685478E-05
   5.36520004      -8.88348732E-05
   5.37720013      -8.86801208E-05
   5.38920021      -8.85666814E-05
   5.40119982      -8.84575638E-05
   5.41319990      -8.83173416E-05
   5.42519999      -8.81128872E-05
   5.43720007      -8.78139690E-05
   5.44920015      -8.73936806E-05
   5.46120024      -8.68288043E-05
   5.47319984      -8.60998771E-05
   5.48519993      -8.51913428E-05
   5.49720001      -8.40914945E-05
   5.50920010      -8.27924014E-05
   5.52120018      -8.12898143E-05
   5.53319979      -7.95830638E-05
   5.54519987      -7.76749803E-05
   5.55719995      -7.55718211E-05
   5.56920004      -7.32832414E-05
   5.58120012      -7.08222360E-05
   5.59320021      -6.82051541E-05
   5.60519981      -6.54516407E-05
   5.61719990      -6.25845132E-05
   5.62919998      -5.96296595E-05
   5.64120007      -5.66157178E-05
   5.65320015      -5.35737599E-05
   5.66520023      -5.05367607E-05
   5.67719984      -4.75389643E-05
   5.68919992      -4.46151644E-05
   5.70120001      -4.17998053E-05
   5.71320009      -3.91260619E-05
   5.72520018      -3.66248387E-05
   5.73719978      -3.43237552E-05
   5.74919987      -3.22462220E-05
   5.76119995      -3.04105361E-05
   5.77320004      -2.88291430E-05
   5.78520012      -2.75080984E-05
   5.79720020      -2.64467071E-05
   5.80919981      -2.56374205E-05
   5.82119989      -2.50660105E-05
   5.83319998      -2.47119860E-05
   5.84520006      -2.45492811E-05
   5.85720015      -2.45471747E-05
   5.86920023      -2.46713917E-05
   5.88119984      -2.48853776E-05
   5.89319992      -2.51516449E-05
   5.90520000      -2.54331590E-05
   5.91720009      -2.56946914E-05
   5.92920017      -2.59040917E-05
   5.94119978      -2.60333927E-05
   5.95319986      -2.60597208E-05
   5.96519995      -2.59659664E-05
   5.97720003      -2.57411793E-05
   5.98920012      -2.53806920E-05
   6.00120020      -2.48859196E-05
   6.01319981      -2.42639326E-05
   6.02519989      -2.35267398E-05
   6.03719997      -2.26903994E-05
   6.04920006      -2.17739343E-05
   6.06120014      -2.07981957E-05
   6.07320023      -1.97846493E-05
   6.08519983      -1.87542137E-05
   6.09719992      -1.77261682E-05
   6.10920000      -1.67172257E-05
   6.12120008      -1.57407740E-05
   6.13320017      -1.48063664E-05
   6.14519978      -1.39194699E-05
   6.15719986      -1.30814915E-05
   6.16919994      -1.22900647E-05
   6.18120003      -1.15396069E-05
   6.19320011      -1.08220820E-05
   6.20520020      -1.01279593E-05
   6.21719980      -9.44726617E-06
   6.22919989      -8.77070124E-06
   6.24119997      -8.09072208E-06
   6.25320005      -7.40252381E-06
   6.26520014      -6.70486133E-06
   6.27720022      -6.00063231E-06
   6.28919983      -5.29718682E-06
   6.30119991      -4.60632282E-06
   6.31320000      -3.94395556E-06
   6.32520008      -3.32946956E-06
   6.33720016      -2.78477773E-06
   6.34919977      -2.33313608E-06
   6.36119986      -1.99778333E-06
   6.37319994      -1.80047959E-06
   6.38520002      -1.76003550E-06
   6.39720011      -1.89091986E-06
   6.40920019      -2.20203719E-06
   6.42119980      -2.69575230E-06
   6.43319988      -3.36722792E-06
   6.44519997      -4.20412835E-06
   6.45720005      -5.18670595E-06
   6.46920013      -6.28828730E-06
   6.48120022      -7.47612467E-06
   6.49319983      -8.71258908E-06
   6.50519991      -9.95662595E-06
   6.51719999      -1.11654126E-05
   6.52920008      -1.22961155E-05
   6.54120016      -1.33076737E-05
   6.55319977      -1.41624996E-05
   6.56519985      -1.48280333E-05
   6.57719994      -1.52780485E-05
   6.58920002      -1.54936879E-05
   6.60120010      -1.54641657E-05
   6.61320019      -1.51871100E-05
   6.62519979      -1.46685616E-05
   6.63719988      -1.39226267E-05
   6.64919996      -1.29708114E-05
   6.66120005      -1.18410835E-05
   6.67320013      -1.05667095E-05
   6.68520021      -9.18492970E-06
   6.69719982      -7.73551801E-06
   6.70919991      -6.25931034E-06
   6.72119999      -4.79673918E-06
   6.73320007      -3.38645123E-06
   6.74520016      -2.06404252E-06
   6.75719976      -8.60959915E-07
   6.76919985       1.96397323E-07
   6.78119993       1.08735389E-06
   6.79320002       1.79739504E-06
   6.80520010       2.31835725E-06
   6.81720018       2.64837377E-06
   6.82919979       2.79158121E-06
   6.84119987       2.75761454E-06
   6.85319996       2.56090652E-06
   6.86520004       2.21983214E-06
   6.87720013       1.75573769E-06
   6.88920021       1.19189986E-06
   6.90119982       5.52459653E-07
   6.91319990      -1.38612336E-07
   6.92519999      -8.58479893E-07
   6.93720007      -1.58628666E-06
   6.94920015      -2.30385103E-06
   6.96120024      -2.99618296E-06
   6.97319984      -3.65180313E-06
   6.98519993      -4.26285806E-06
   6.99720001      -4.82503401E-06
   7.00920010      -5.33728189E-06
   7.02120018      -5.80138021E-06
   7.03319979      -6.22135349E-06
   7.04519987      -6.60280557E-06
   7.05719995      -6.95218841E-06
   7.06920004      -7.27606675E-06
   7.08120012      -7.58041551E-06
   7.09320021      -7.86999954E-06
   7.10519981      -8.14786654E-06
   7.11719990      -8.41497967E-06
   7.12919998      -8.67001836E-06
   7.14120007      -8.90934280E-06
   7.15320015      -9.12713131E-06
   7.16520023      -9.31566774E-06
   7.17719984      -9.46577711E-06
   7.18919992      -9.56736403E-06
   7.20120001      -9.61003570E-06
   7.21320009      -9.58377950E-06
   7.22520018      -9.47964418E-06
   7.23719978      -9.29041562E-06
   7.24919987      -9.01121894E-06
   7.26119995      -8.64004869E-06
   7.27320004      -8.17817090E-06
   7.28520012      -7.63038497E-06
   7.29720020      -7.00512737E-06
   7.30919981      -6.31440298E-06
   7.32119989      -5.57354724E-06
   7.33319998      -4.80081872E-06
   7.34520006      -4.01684656E-06
   7.35720015      -3.24394455E-06
   7.36920023      -2.50533162E-06
   7.38119984      -1.82428175E-06
   7.39319992      -1.22324741E-06
   7.40520000      -7.22992525E-07
   7.41720009      -3.41774353E-07
   7.42920017      -9.46113587E-08
   7.44119978       7.32605310E-09
   7.45319986      -4.28253486E-08
   7.46519995      -2.47331883E-07
   7.47720003      -6.03758735E-07
   7.48920012      -1.10504936E-06
   7.50120020      -1.73978071E-06
   7.51319981      -2.49257755E-06
   7.52519989      -3.34465858E-06
   7.53719997      -4.27448549E-06
   7.54920006      -5.25847690E-06
   7.56120014      -6.27176041E-06
   7.57320023      -7.28891746E-06
   7.58519983      -8.28471093E-06
   7.59719992      -9.23474363E-06
   7.60920000      -1.01160595E-05
   7.62120008      -1.09076454E-05
   7.63320017      -1.15908442E-05
   7.64519978      -1.21496778E-05
   7.65719986      -1.25710685E-05
   7.66919994      -1.28450029E-05
   7.68120003      -1.29646132E-05
   7.69320011      -1.29262253E-05
   7.70520020      -1.27293533E-05
   7.71719980      -1.23766777E-05
   7.72919989      -1.18739963E-05
   7.74119997      -1.12301486E-05
   7.75320005      -1.04569053E-05
   7.76520014      -9.56882650E-06
   7.77720022      -8.58306248E-06
   7.78919983      -7.51909283E-06
   7.80119991      -6.39839482E-06
   7.81320000      -5.24403413E-06
   7.82520008      -4.08017604E-06
   7.83720016      -2.93152993E-06
   7.84919977      -1.82272640E-06
   7.86119986      -7.77656680E-07
   7.87319994       1.81208762E-07
   7.88520002       1.03349055E-06
   7.89720011       1.76152480E-06
   7.90920019       2.35090920E-06
   7.92119980       2.79094093E-06
   7.93319988       3.07491518E-06
   7.94519997       3.20026993E-06
   7.95720005       3.16856585E-06
   7.96920013       2.98529972E-06
   7.98120022       2.65956646E-06
   7.99319983       2.20359016E-06
   8.00520039       1.63215429E-06
   8.01720047       9.61965156E-07
   8.02919960       2.10991445E-07
   8.04119968      -6.02182297E-07
   8.05319977      -1.45894603E-06
   8.06519985      -2.34116919E-06
   8.07719994      -3.23158906E-06
   8.08920002      -4.11407427E-06
   8.10120010      -4.97375413E-06
   8.11320019      -5.79702692E-06
   8.12520027      -6.57146757E-06
   8.13720036      -7.28565965E-06
   8.14920044      -7.92899846E-06
   8.16119957      -8.49149365E-06
   8.17319965      -8.96361689E-06
   8.18519974      -9.33622869E-06
   8.19719982      -9.60059970E-06
   8.20919991      -9.74855175E-06
   8.22119999      -9.77271702E-06
   8.23320007      -9.66689458E-06
   8.24520016      -9.42649513E-06
   8.25720024      -9.04903573E-06
   8.26920033      -8.53463825E-06
   8.28120041      -7.88649140E-06
   8.29319954      -7.11123494E-06
   8.30519962      -6.21921026E-06
   8.31719971      -5.22454548E-06
   8.32919979      -4.14505166E-06
   8.34119987      -3.00191027E-06
   8.35319996      -1.81915561E-06
   8.36520004      -6.22963967E-07
   8.37720013       5.59219643E-07
   8.38920021       1.69967529E-06
   8.40120029       2.77147046E-06
   8.41320038       3.74953129E-06
   8.42520046       4.61166792E-06
   8.43719959       5.33949242E-06
   8.44919968       5.91918251E-06
   8.46119976       6.34204935E-06
   8.47319984       6.60488467E-06
   8.48519993       6.71006819E-06
   8.49720001       6.66543428E-06
   8.50920010       6.48391324E-06
   8.52120018       6.18295917E-06
   8.53320026       5.78380104E-06
   8.54520035       5.31055048E-06
   8.55720043       4.78921129E-06
   8.56919956       4.24663085E-06
   8.58119965       3.70945145E-06
   8.59319973       3.20308527E-06
   8.60519981       2.75076968E-06
   8.61719990       2.37272002E-06
   8.62919998       2.08541019E-06
   8.64120007       1.90099388E-06
   8.65320015       1.82687609E-06
   8.66520023       1.86544082E-06
   8.67720032       2.01393709E-06
   8.68920040       2.26452539E-06
   8.70119953       2.60448701E-06
   8.71319962       3.01658770E-06
   8.72519970       3.47960463E-06
   8.73719978       3.96900077E-06
   8.74919987       4.45773730E-06
   8.76119995       4.91720630E-06
   8.77320004       5.31825935E-06
   8.78520012       5.63230242E-06
   8.79720020       5.83241945E-06
   8.80920029       5.89448427E-06
   8.82120037       5.79822790E-06
   8.83320045       5.52819893E-06
   8.84519958       5.07458481E-06
   8.85719967       4.43383669E-06
   8.86919975       3.60906984E-06
   8.88119984       2.61018977E-06
   8.89319992       1.45373167E-06
   8.90520000       1.62405783E-07
   8.91720009      -1.23564348E-06
   8.92920017      -2.70783516E-06
   8.94120026      -4.21836239E-06
   8.95320034      -5.72955742E-06
   8.96520042      -7.20334265E-06
   8.97719955      -8.60269483E-06
   8.98919964      -9.89305136E-06
   9.00119972      -1.10435876E-05
   9.01319981      -1.20283139E-05
   9.02519989      -1.28269276E-05
   9.03719997      -1.34253960E-05
   9.04920006      -1.38162468E-05
   9.06120014      -1.39985568E-05
   9.07320023      -1.39776630E-05
   9.08520031      -1.37646239E-05
   9.09720039      -1.33754820E-05
   9.10919952      -1.28303755E-05
   9.12119961      -1.21525709E-05
   9.13319969      -1.13674805E-05
   9.14519978      -1.05017034E-05
   9.15719986      -9.58216697E-06
   9.16919994      -8.63536661E-06
   9.18120003      -7.68675454E-06
   9.19320011      -6.76025138E-06
   9.20520020      -5.87790419E-06
   9.21720028      -5.05965136E-06
   9.22920036      -4.32318166E-06
   9.24120045      -3.68385781E-06
   9.25319958      -3.15467560E-06
   9.26519966      -2.74623062E-06
   9.27719975      -2.46667105E-06
   9.28919983      -2.32161847E-06
   9.30119991      -2.31405556E-06
   9.31320000      -2.44417447E-06
   9.32520008      -2.70920896E-06
   9.33720016      -3.10326050E-06
   9.34920025      -3.61715865E-06
   9.36120033      -4.23837810E-06
   9.37320042      -4.95105223E-06
   9.38519955      -5.73610805E-06
   9.39719963      -6.57154760E-06
   9.40919971      -7.43289229E-06
   9.42119980      -8.29378041E-06
   9.43319988      -9.12672294E-06
   9.44519997      -9.90397712E-06
