 -0.622799993       0.00000000    
 -0.610800028       0.00000000    
 -0.598800004       0.00000000    
 -0.586799979       0.00000000    
 -0.574800014       0.00000000    
 -0.562799990       0.00000000    
 -0.550800025       0.00000000    
 -0.538800001       0.00000000    
 -0.526799977       0.00000000    
 -0.514800012       0.00000000    
 -0.502799988       0.00000000    
 -0.490799993      -3.71481824E-37
 -0.478799999      -7.51790698E-36
 -0.466800004      -7.66399243E-35
 -0.454800010      -5.25856250E-34
 -0.442799985      -2.72156403E-33
 -0.430799991      -1.12530691E-32
 -0.418799996      -3.84529857E-32
 -0.406800002      -1.11042709E-31
 -0.394800007      -2.76126115E-31
 -0.382800013      -6.06490574E-31
 -0.370799989      -1.23557594E-30
 -0.358799994      -2.54537559E-30
 -0.346799999      -5.77679414E-30
 -0.334800005      -1.43152236E-29
 -0.322800010      -3.50423495E-29
 -0.310799986      -7.61740802E-29
 -0.298799992      -1.31716347E-28
 -0.286799997      -1.34189193E-28
 -0.274800003       1.45685201E-28
 -0.262800008       1.25224167E-27
 -0.250800014       4.17629396E-27
 -0.238800004       1.02388607E-26
 -0.226799995       2.02964913E-26
 -0.214800000       3.27069250E-26
 -0.202800006       3.97184163E-26
 -0.190799996       2.29254088E-26
 -0.178800002      -4.95224381E-26
 -0.166800007      -2.18373659E-25
 -0.154799998      -5.13366469E-25
 -0.142800003      -9.10750565E-25
 -0.130799994      -1.26902358E-24
 -0.118799999      -1.26211611E-24
 -0.106799997      -3.57371074E-25
  -9.48000029E-02   2.08570425E-24
  -8.28000009E-02   6.51123030E-24
  -7.07999989E-02   1.26134504E-23
  -5.88000007E-02   1.86083642E-23
  -4.67999987E-02   2.06058893E-23
  -3.48000005E-02   1.25975296E-23
  -2.28000004E-02  -1.22608746E-23
  -1.08000003E-02  -5.84798556E-23
   1.20000006E-03  -1.23121977E-22
   1.31999999E-02  -1.89764946E-22
   2.52000000E-02  -2.24069389E-22
   3.72000001E-02  -1.74930209E-22
   4.91999984E-02   1.42621382E-23
   6.12000003E-02   3.81148686E-22
   7.32000023E-02   9.07883229E-22
   8.51999968E-02   1.48091512E-21
   9.71999988E-02   1.86414158E-21
  0.109200001       1.70955554E-21
  0.121200003       6.30198384E-22
  0.133200005      -1.65054178E-21
  0.145199999      -5.08456856E-21
  0.157199994      -9.06933991E-21
  0.169200003      -1.22952659E-20
  0.181199998      -1.27936051E-20
  0.193200007      -8.30526574E-21
  0.205200002       2.96681231E-21
  0.217199996       2.12819080E-20
  0.229200006       4.41992070E-20
  0.241200000       6.57546872E-20
  0.253199995       7.65323723E-20
  0.265199989       6.51649526E-20
  0.277200013       2.15481018E-20
  0.289200008      -5.84621336E-20
  0.301200002      -1.67822448E-19
  0.313199997      -2.84260152E-19
  0.325199991      -3.69645354E-19
  0.337199986      -3.74939982E-19
  0.349200010      -2.51946471E-19
  0.361200005       2.88298681E-20
  0.373199999       4.57538878E-19
  0.385199994       9.67647151E-19
  0.397199988       1.42984125E-18
  0.409200013       1.66493476E-18
  0.421200007       1.48042562E-18
  0.433200002       7.29077354E-19
  0.445199996      -6.20650519E-19
  0.457199991      -2.42121080E-18
  0.469199985      -4.31426719E-18
  0.481200010      -5.75484359E-18
  0.493200004      -6.10632256E-18
  0.505200028      -4.80330340E-18
  0.517199993      -1.55546651E-18
  0.529200017       3.45801035E-18
  0.541199982       9.46888371E-18
  0.553200006       1.51387701E-17
  0.565199971       1.87567389E-17
  0.577199996       1.86116233E-17
  0.589200020       1.34790959E-17
  0.601199985       3.11077151E-18
  0.613200009      -1.14181671E-17
  0.625199974      -2.76394312E-17
  0.637199998      -4.19853255E-17
  0.649200022      -5.04416888E-17
  0.661199987      -4.94509283E-17
  0.673200011      -3.68660238E-17
  0.685199976      -1.27140564E-17
  0.697200000       2.04458881E-17
  0.709200025       5.76913677E-17
  0.721199989       9.24153510E-17
  0.733200014       1.17363747E-16
  0.745199978       1.25798223E-16
  0.757200003       1.12555948E-16
  0.769200027       7.48724583E-17
  0.781199992       1.29773455E-17
  0.793200016      -6.94092678E-17
  0.805199981      -1.64537857E-16
  0.817200005      -2.60049623E-16
  0.829200029      -3.38639537E-16
  0.841199994      -3.78569782E-16
  0.853200018      -3.55835629E-16
  0.865199983      -2.48666003E-16
  0.877200007      -4.44771475E-17
  0.889199972       2.51593270E-16
  0.901199996       6.08651353E-16
  0.913200021       9.65618725E-16
  0.925199986       1.23386358E-15
  0.937200010       1.30956228E-15
  0.949199975       1.09636302E-15
  0.961199999       5.35707099E-16
  0.973200023      -3.61452093E-16
  0.985199988      -1.49073362E-15
  0.997200012      -2.64843380E-15
   1.00919998      -3.55195177E-15
   1.02119994      -3.88963670E-15
   1.03320003      -3.39528117E-15
   1.04519999      -1.93361189E-15
   1.05719995       4.24276500E-16
   1.06920004       3.35982035E-15
   1.08120000       6.32134590E-15
   1.09319997       8.60479341E-15
   1.10520005       9.49560865E-15
   1.11720002       8.44799575E-15
   1.12919998       5.26152303E-15
   1.14119995       2.06683173E-16
   1.15320003      -5.94538778E-15
   1.16520000      -1.20165811E-14
   1.17719996      -1.66377413E-14
   1.18920004      -1.85516512E-14
   1.20120001      -1.69372894E-14
   1.21319997      -1.16721945E-14
   1.22520006      -3.45302065E-15
   1.23720002       6.27883374E-15
   1.24919999       1.56131821E-14
   1.26119995       2.25993964E-14
   1.27320004       2.57278499E-14
   1.28520000       2.43365203E-14
   1.29719996       1.88197439E-14
   1.30920005       1.05583013E-14
   1.32120001       1.56221177E-15
   1.33319998      -6.09736201E-15
   1.34519994      -1.09171942E-14
   1.35720003      -1.24642474E-14
   1.36919999      -1.15779079E-14
   1.38119996      -1.01691582E-14
   1.39320004      -1.06254930E-14
   1.40520000      -1.49552476E-14
   1.41719997      -2.39060006E-14
   1.42920005      -3.63344812E-14
   1.44120002      -4.90688863E-14
   1.45319998      -5.73898839E-14
   1.46519995      -5.60887870E-14
   1.47720003      -4.08856298E-14
   1.48920000      -9.85791005E-15
   1.50119996       3.55129032E-14
   1.51320004       9.00036203E-14
   1.52520001       1.45181217E-13
   1.53719997       1.90742184E-13
   1.54920006       2.16379811E-13
   1.56120002       2.13754524E-13
   1.57319999       1.78115958E-13
   1.58519995       1.09230835E-13
   1.59720004       1.14771109E-14
   1.60920000      -1.06793419E-13
   1.62119997      -2.34326501E-13
   1.63320005      -3.58094739E-13
   1.64520001      -4.64182620E-13
   1.65719998      -5.38330285E-13
   1.66919994      -5.66305032E-13
   1.68120003      -5.34492914E-13
   1.69319999      -4.31174383E-13
   1.70519996      -2.48803446E-13
   1.71720004       1.27448025E-14
   1.72920001       3.42487242E-13
   1.74119997       7.15207407E-13
   1.75320005       1.09017331E-12
   1.76520002       1.41291839E-12
   1.77719998       1.62082988E-12
   1.78919995       1.65244858E-12
   1.80120003       1.45934599E-12
   1.81320000       1.01847903E-12
   1.82519996       3.42309460E-13
   1.83720005      -5.16040932E-13
   1.84920001      -1.46464806E-12
   1.86119998      -2.38239701E-12
   1.87320006      -3.13541467E-12
   1.88520002      -3.59773344E-12
   1.89719999      -3.67238965E-12
   1.90919995      -3.30875713E-12
   1.92120004      -2.51248848E-12
   1.93320000      -1.34593118E-12
   1.94519997       8.10434077E-14
   1.95720005       1.62768572E-12
   1.96920002       3.14267362E-12
   1.98119998       4.48351642E-12
   1.99319994       5.53093378E-12
   2.00519991       6.19567245E-12
   2.01719999       6.41752797E-12
   2.02920008       6.15879656E-12
   2.04119992       5.39622557E-12
   2.05320001       4.11620000E-12
   2.06520009       2.31707557E-12
   2.07719994       2.03411134E-14
   2.08920002      -2.71084110E-12
   2.10120010      -5.75036850E-12
   2.11319995      -8.89219080E-12
   2.12520003      -1.18452253E-11
   2.13720012      -1.42464721E-11
   2.14919996      -1.56951535E-11
   2.16120005      -1.58059590E-11
   2.17319989      -1.42744028E-11
   2.18519998      -1.09432133E-11
   2.19720006      -5.85662508E-12
   2.20919991       7.09702425E-13
   2.22119999       8.25187228E-12
   2.23320007       1.60769141E-11
   2.24519992       2.33740163E-11
   2.25720000       2.93076952E-11
   2.26920009       3.31184281E-11
   2.28119993       3.42151273E-11
   2.29320002       3.22456228E-11
   2.30520010       2.71362550E-11
   2.31719995       1.90977737E-11
   2.32920003       8.60116318E-12
   2.34120011      -3.66834297E-12
   2.35319996      -1.68687113E-11
   2.36520004      -3.00604541E-11
   2.37719989      -4.22617254E-11
   2.38919997      -5.24974612E-11
   2.40120006      -5.98451566E-11
   2.41319990      -6.34822472E-11
   2.42519999      -6.27395705E-11
   2.43720007      -5.71628127E-11
   2.44919991      -4.65781753E-11
   2.46120000      -3.11539787E-11
   2.47320008      -1.14455589E-11
   2.48519993       1.15895167E-11
   2.49720001       3.66161858E-11
   2.50920010       6.19902740E-11
   2.52119994       8.58661614E-11
   2.53320003       1.06331340E-10
   2.54520011       1.21550006E-10
   2.55719995       1.29897162E-10
   2.56920004       1.30068054E-10
   2.58119988       1.21156266E-10
   2.59319997       1.02703047E-10
   2.60520005       7.47292159E-11
   2.61719990       3.77654956E-11
   2.62919998      -7.10526386E-12
   2.64120007      -5.81883326E-11
   2.65319991      -1.13108085E-10
   2.66520000      -1.68752914E-10
   2.67720008      -2.21269628E-10
   2.68919992      -2.66147826E-10
   2.70120001      -2.98430280E-10
   2.71320009      -3.13068155E-10
   2.72519994      -3.05416303E-10
   2.73720002      -2.71831752E-10
   2.74920011      -2.10311282E-10
   2.76119995      -1.21081603E-10
   2.77320004      -7.04605862E-12
   2.78520012       1.25999974E-10
   2.79719996       2.69453487E-10
   2.80920005       4.12321122E-10
   2.82119989       5.41964085E-10
   2.83319998       6.45124509E-10
   2.84520006       7.09153958E-10
   2.85719991       7.23341331E-10
   2.86919999       6.80223766E-10
   2.88120008       5.76764303E-10
   2.89319992       4.15285695E-10
   2.90520000       2.04060380E-10
   2.91720009      -4.25303716E-11
   2.92919993      -3.04339498E-10
   2.94120002      -5.56354407E-10
   2.95320010      -7.70183251E-10
   2.96519995      -9.16120568E-10
   2.97720003      -9.65732050E-10
   2.98920012      -8.94836039E-10
   3.00119996      -6.86678825E-10
   3.01320004      -3.35021705E-10
   3.02519989       1.53207599E-10
   3.03719997       7.56092133E-10
   3.04920006       1.43612422E-09
   3.06119990       2.14116724E-09
   3.07319999       2.80721579E-09
   3.08520007       3.36302963E-09
   3.09719992       3.73651199E-09
   3.10920000       3.86248189E-09
   3.12120008       3.69126663E-09
   3.13319993       3.19734328E-09
   3.14520001       2.38712183E-09
   3.15720010       1.30489253E-09
   3.16919994       3.59746712E-11
   3.18120003      -1.29379796E-09
   3.19320011      -2.52291943E-09
   3.20519996      -3.46380102E-09
   3.21720004      -3.91722343E-09
   3.22919989      -3.69140141E-09
   3.24119997      -2.62510991E-09
   3.25320005      -6.13898210E-10
   3.26519990       2.36174125E-09
   3.27719998       6.20773433E-09
   3.28920007       1.06888800E-08
   3.30119991       1.54040354E-08
   3.31320000       1.97656025E-08
   3.32520008       2.29847377E-08
   3.33719993       2.40634446E-08
   3.34920001       2.17942979E-08
   3.36120009       1.47682959E-08
   3.37319994       1.39072776E-09
   3.38520002      -2.00954968E-08
   3.39720011      -5.15797645E-08
   3.40919995      -9.50483141E-08
   3.42120004      -1.52544615E-07
   3.43319988      -2.26127412E-07
   3.44519997      -3.17827499E-07
   3.45720005      -4.29604995E-07
   3.46919990      -5.63307879E-07
   3.48119998      -7.20632954E-07
   3.49320006      -9.03090267E-07
   3.50519991      -1.11197016E-06
   3.51719999      -1.34831475E-06
   3.52920008      -1.61289222E-06
   3.54119992      -1.90617584E-06
   3.55320001      -2.22832523E-06
   3.56520009      -2.57917259E-06
   3.57719994      -2.95821178E-06
   3.58920002      -3.36459266E-06
   3.60120010      -3.79711923E-06
   3.61319995      -4.25425378E-06
   3.62520003      -4.73412683E-06
   3.63720012      -5.23455446E-06
   3.64919996      -5.75306103E-06
   3.66120005      -6.28691396E-06
   3.67319989      -6.83316148E-06
   3.68519998      -7.38868130E-06
   3.69720006      -7.95023516E-06
   3.70919991      -8.51452933E-06
   3.72119999      -9.07827689E-06
   3.73320007      -9.63826733E-06
   3.74519992      -1.01914347E-05
   3.75720000      -1.07349142E-05
   3.76920009      -1.12661073E-05
   3.78119993      -1.17827294E-05
   3.79320002      -1.22828505E-05
   3.80520010      -1.27649228E-05
   3.81719995      -1.32278019E-05
   3.82920003      -1.36707404E-05
   3.84120011      -1.40933817E-05
   3.85319996      -1.44957394E-05
   3.86520004      -1.48781564E-05
   3.87719989      -1.52412722E-05
   3.88919997      -1.55859689E-05
   3.90120006      -1.59133233E-05
   3.91319990      -1.62245633E-05
   3.92519999      -1.65210167E-05
   3.93720007      -1.68040588E-05
   3.94919991      -1.70750900E-05
   3.96120000      -1.73354965E-05
   3.97320008      -1.75866262E-05
   3.98519993      -1.78297651E-05
   3.99720001      -1.80661318E-05
   4.00920010      -1.82968561E-05
   4.02120018      -1.85229801E-05
   4.03319979      -1.87454443E-05
   4.04519987      -1.89650873E-05
   4.05719995      -1.91826366E-05
   4.06920004      -1.93986962E-05
   4.08120012      -1.96137516E-05
   4.09320021      -1.98281541E-05
   4.10519981      -2.00421237E-05
   4.11719990      -2.02557421E-05
   4.12919998      -2.04689604E-05
   4.14120007      -2.06815967E-05
   4.15320015      -2.08933561E-05
   4.16520023      -2.11038387E-05
   4.17719984      -2.13125641E-05
   4.18919992      -2.15189903E-05
   4.20120001      -2.17225497E-05
   4.21320009      -2.19226749E-05
   4.22520018      -2.21188311E-05
   4.23719978      -2.23105326E-05
   4.24919987      -2.24973846E-05
   4.26119995      -2.26790908E-05
   4.27320004      -2.28554654E-05
   4.28520012      -2.30264450E-05
   4.29720020      -2.31920785E-05
   4.30919981      -2.33525261E-05
   4.32119989      -2.35080370E-05
   4.33319998      -2.36589294E-05
   4.34520006      -2.38055836E-05
   4.35720015      -2.39483979E-05
   4.36920023      -2.40877962E-05
   4.38119984      -2.42241858E-05
   4.39319992      -2.43579689E-05
   4.40520000      -2.44895364E-05
   4.41720009      -2.46192703E-05
   4.42920017      -2.47475709E-05
   4.44119978      -2.48748656E-05
   4.45319986      -2.50016419E-05
   4.46519995      -2.51284855E-05
   4.47720003      -2.52561003E-05
   4.48920012      -2.53853377E-05
   4.50120020      -2.55172217E-05
   4.51319981      -2.56529602E-05
   4.52519989      -2.57939391E-05
   4.53719997      -2.59417193E-05
   4.54920006      -2.60980032E-05
   4.56120014      -2.62645972E-05
   4.57320023      -2.64433693E-05
   4.58519983      -2.66361767E-05
   4.59719992      -2.68448075E-05
   4.60920000      -2.70709097E-05
   4.62120008      -2.73159258E-05
   4.63320017      -2.75810307E-05
   4.64519978      -2.78670832E-05
   4.65719986      -2.81745870E-05
   4.66919994      -2.85036695E-05
   4.68120003      -2.88540614E-05
   4.69320011      -2.92251298E-05
   4.70520020      -2.96158796E-05
   4.71719980      -3.00250085E-05
   4.72919989      -3.04509522E-05
   4.74119997      -3.08919480E-05
   4.75320005      -3.13461169E-05
   4.76520014      -3.18115199E-05
   4.77720022      -3.22862579E-05
   4.78919983      -3.27685266E-05
   4.80119991      -3.32567142E-05
   4.81320000      -3.37494494E-05
   4.82520008      -3.42456478E-05
   4.83720016      -3.47445784E-05
   4.84919977      -3.52458846E-05
   4.86119986      -3.57495810E-05
   4.87319994      -3.62560531E-05
   4.88520002      -3.67660396E-05
   4.89720011      -3.72805844E-05
   4.90920019      -3.78009609E-05
   4.92119980      -3.83286060E-05
   4.93319988      -3.88650078E-05
   4.94519997      -3.94116068E-05
   4.95720005      -3.99696874E-05
   4.96920013      -4.05402425E-05
   4.98120022      -4.11238761E-05
   4.99319983      -4.17206975E-05
   5.00519991      -4.23302372E-05
   5.01719999      -4.29513893E-05
   5.02920008      -4.35823713E-05
   5.04120016      -4.42207383E-05
   5.05319977      -4.48633982E-05
   5.06519985      -4.55066984E-05
   5.07719994      -4.61465279E-05
   5.08920002      -4.67784557E-05
   5.10120010      -4.73978907E-05
   5.11320019      -4.80002782E-05
   5.12519979      -4.85812816E-05
   5.13719988      -4.91369829E-05
   5.14919996      -4.96640787E-05
   5.16120005      -5.01600371E-05
   5.17320013      -5.06232609E-05
   5.18520021      -5.10531681E-05
   5.19719982      -5.14502826E-05
   5.20919991      -5.18162487E-05
   5.22119999      -5.21538095E-05
   5.23320007      -5.24667194E-05
   5.24520016      -5.27596603E-05
   5.25719976      -5.30380312E-05
   5.26919985      -5.33077909E-05
   5.28119993      -5.35752406E-05
   5.29320002      -5.38467539E-05
   5.30520010      -5.41285517E-05
   5.31720018      -5.44264476E-05
   5.32919979      -5.47456184E-05
   5.34119987      -5.50903897E-05
   5.35319996      -5.54640392E-05
   5.36520004      -5.58686552E-05
   5.37720013      -5.63049944E-05
   5.38920021      -5.67724310E-05
   5.40119982      -5.72689278E-05
   5.41319990      -5.77910323E-05
   5.42519999      -5.83339643E-05
   5.43720007      -5.88917101E-05
   5.44920015      -5.94571866E-05
   5.46120024      -6.00224485E-05
   5.47319984      -6.05788919E-05
   5.48519993      -6.11175419E-05
   5.49720001      -6.16293255E-05
   5.50920010      -6.21053841E-05
   5.52120018      -6.25373432E-05
   5.53319979      -6.29176648E-05
   5.54519987      -6.32399024E-05
   5.55719995      -6.34990211E-05
   5.56920004      -6.36915793E-05
   5.58120012      -6.38159763E-05
   5.59320021      -6.38725687E-05
   5.60519981      -6.38637866E-05
   5.61719990      -6.37941703E-05
   5.62919998      -6.36703044E-05
   5.64120007      -6.35007673E-05
   5.65320015      -6.32959855E-05
   5.66520023      -6.30679569E-05
   5.67719984      -6.28301059E-05
   5.68919992      -6.25969114E-05
   5.70120001      -6.23835949E-05
   5.71320009      -6.22058142E-05
   5.72520018      -6.20792707E-05
   5.73719978      -6.20193823E-05
   5.74919987      -6.20409555E-05
   5.76119995      -6.21577929E-05
   5.77320004      -6.23825108E-05
   5.78520012      -6.27261688E-05
   5.79720020      -6.31980511E-05
   5.80919981      -6.38054626E-05
   5.82119989      -6.45535401E-05
   5.83319998      -6.54450632E-05
   5.84520006      -6.64803301E-05
   5.85720015      -6.76570271E-05
   5.86920023      -6.89701046E-05
   5.88119984      -7.04117265E-05
   5.89319992      -7.19711607E-05
   5.90520000      -7.36347210E-05
   5.91720009      -7.53857239E-05
   5.92920017      -7.72044950E-05
   5.94119978      -7.90683116E-05
   5.95319986      -8.09514459E-05
   5.96519995      -8.28252014E-05
   5.97720003      -8.46580006E-05
   5.98920012      -8.64154499E-05
   6.00120020      -8.80604639E-05
   6.01319981      -8.95534613E-05
   6.02519989      -9.08524962E-05
   6.03719997      -9.19135200E-05
   6.04920006      -9.26905777E-05
   6.06120014      -9.31361137E-05
   6.07320023      -9.32012554E-05
   6.08519983      -9.28361478E-05
   6.09719992      -9.19903396E-05
   6.10920000      -9.06132045E-05
   6.12120008      -8.86543567E-05
   6.13320017      -8.60642249E-05
   6.14519978      -8.27945623E-05
   6.15719986      -7.87990866E-05
   6.16919994      -7.40341566E-05
   6.18120003      -6.84594852E-05
   6.19320011      -6.20389183E-05
   6.20520020      -5.47412710E-05
   6.21719980      -4.65411576E-05
   6.22919989      -3.74198971E-05
   6.24119997      -2.73663609E-05
   6.25320005      -1.63778441E-05
   6.26520014      -4.46087415E-06
   6.27720022       8.36804975E-06
   6.28919983       2.20817983E-05
   6.30119991       3.66420973E-05
   6.31320000       5.19991409E-05
   6.32520008       6.80913945E-05
   6.33720016       8.48455602E-05
   6.34919977       1.02176797E-04
   6.36119986       1.19989083E-04
   6.37319994       1.38175863E-04
   6.38520002       1.56620838E-04
   6.39720011       1.75199064E-04
   6.40920019       1.93778134E-04
   6.42119980       2.12219529E-04
   6.43319988       2.30380174E-04
   6.44519997       2.48114084E-04
   6.45720005       2.65274080E-04
   6.46920013       2.81713525E-04
   6.48120022       2.97288148E-04
   6.49319983       3.11857817E-04
   6.50519991       3.25288245E-04
   6.51719999       3.37452831E-04
   6.52920008       3.48234142E-04
   6.54120016       3.57525394E-04
   6.55319977       3.65232059E-04
   6.56519985       3.71273025E-04
   6.57719994       3.75581702E-04
   6.58920002       3.78107070E-04
   6.60120010       3.78814555E-04
   6.61320019       3.77686491E-04
   6.62519979       3.74722731E-04
   6.63719988       3.69940710E-04
   6.64919996       3.63375701E-04
   6.66120005       3.55080410E-04
   6.67320013       3.45124688E-04
   6.68520021       3.33594769E-04
   6.69719982       3.20592633E-04
   6.70919991       3.06234608E-04
   6.72119999       2.90650321E-04
   6.73320007       2.73981190E-04
   6.74520016       2.56378727E-04
   6.75719976       2.38002816E-04
   6.76919985       2.19019668E-04
   6.78119993       1.99599963E-04
   6.79320002       1.79916635E-04
   6.80520010       1.60142779E-04
   6.81720018       1.40449527E-04
   6.82919979       1.21003875E-04
   6.84119987       1.01966623E-04
   6.85319996       8.34903185E-05
   6.86520004       6.57173878E-05
   6.87720013       4.87783800E-05
   6.88920021       3.27903253E-05
   6.90119982       1.78553619E-05
   6.91319990       4.05956143E-06
   6.92519999      -8.52800076E-06
   6.93720007      -1.98559082E-05
   6.94920015      -2.98907744E-05
   6.96120024      -3.86172978E-05
   6.97319984      -4.60380325E-05
   6.98519993      -5.21728070E-05
   6.99720001      -5.70578704E-05
   7.00920010      -6.07447218E-05
   7.02120018      -6.32986485E-05
   7.03319979      -6.47970810E-05
   7.04519987      -6.53276657E-05
   7.05719995      -6.49862413E-05
   7.06920004      -6.38746569E-05
   7.08120012      -6.20985738E-05
   7.09320021      -5.97651924E-05
   7.10519981      -5.69811273E-05
   7.11719990      -5.38503227E-05
   7.12919998      -5.04721502E-05
   7.14120007      -4.69397237E-05
   7.15320015      -4.33384594E-05
   7.16520023      -3.97449403E-05
   7.17719984      -3.62260653E-05
   7.18919992      -3.28385613E-05
   7.20120001      -2.96287672E-05
   7.21320009      -2.66327497E-05
   7.22520018      -2.38767188E-05
   7.23719978      -2.13776639E-05
   7.24919987      -1.91442177E-05
   7.26119995      -1.71776956E-05
   7.27320004      -1.54732315E-05
   7.28520012      -1.40210122E-05
   7.29720020      -1.28074926E-05
   7.30919981      -1.18165945E-05
   7.32119989      -1.10308274E-05
   7.33319998      -1.04322735E-05
   7.34520006      -1.00034413E-05
   7.35720015      -9.72794078E-06
   7.36920023      -9.59097815E-06
   7.38119984      -9.57967859E-06
   7.39319992      -9.68322547E-06
   7.40520000      -9.89284672E-06
   7.41720009      -1.02016638E-05
   7.42920017      -1.06044154E-05
   7.44119978      -1.10970996E-05
   7.45319986      -1.16765605E-05
   7.46519995      -1.23400350E-05
   7.47720003      -1.30847156E-05
   7.48920012      -1.39073336E-05
   7.50120020      -1.48038034E-05
   7.51319981      -1.57689374E-05
   7.52519989      -1.67962571E-05
   7.53719997      -1.78778828E-05
   7.54920006      -1.90045466E-05
   7.56120014      -2.01656658E-05
   7.57320023      -2.13495241E-05
   7.58519983      -2.25435142E-05
   7.59719992      -2.37344284E-05
   7.60920000      -2.49087989E-05
   7.62120008      -2.60532488E-05
   7.63320017      -2.71548197E-05
   7.64519978      -2.82013025E-05
   7.65719986      -2.91814868E-05
   7.66919994      -3.00853571E-05
   7.68120003      -3.09041970E-05
   7.69320011      -3.16306250E-05
   7.70520020      -3.22585111E-05
   7.71719980      -3.27828056E-05
   7.72919989      -3.31993360E-05
   7.74119997      -3.35044897E-05
   7.75320005      -3.36948906E-05
   7.76520014      -3.37670499E-05
   7.77720022      -3.37170532E-05
   7.78919983      -3.35402547E-05
   7.80119991      -3.32310847E-05
   7.81320000      -3.27829221E-05
   7.82520008      -3.21881089E-05
   7.83720016      -3.14380741E-05
   7.84919977      -3.05236463E-05
   7.86119986      -2.94354377E-05
   7.87319994      -2.81644243E-05
   7.88520002      -2.67025935E-05
   7.89720011      -2.50436842E-05
   7.90920019      -2.31839731E-05
   7.92119980      -2.11230617E-05
   7.93319988      -1.88646209E-05
   7.94519997      -1.64170633E-05
   7.95720005      -1.37940851E-05
   7.96920013      -1.10150277E-05
   7.98120022      -8.10505935E-06
   7.99319983      -5.09511256E-06
   8.00520039      -2.02159436E-06
   8.01720047       1.07416054E-06
   8.02919960       4.14666965E-06
   8.04119968       7.14730231E-06
   8.05319977       1.00254665E-05
   8.06519985       1.27299490E-05
   8.07719994       1.52103567E-05
   8.08920002       1.74186043E-05
   8.10120010       1.93104097E-05
   8.11320019       2.08467318E-05
   8.12520027       2.19950798E-05
   8.13720036       2.27306900E-05
   8.14920044       2.30374935E-05
   8.16119957       2.29088328E-05
   8.17319965       2.23479510E-05
   8.18519974       2.13681888E-05
   8.19719982       1.99929091E-05
   8.20919991       1.82551739E-05
   8.22119999       1.61971657E-05
   8.23320007       1.38693586E-05
   8.24520016       1.13295446E-05
   8.25720024       8.64165395E-06
   8.26920033       5.87445493E-06
   8.28120041       3.10016549E-06
   8.29319954       3.92980866E-07
   8.30519962      -2.17242405E-06
   8.31719971      -4.52240783E-06
   8.32919979      -6.58586578E-06
   8.34119987      -8.29570126E-06
   8.35319996      -9.59024692E-06
   8.36520004      -1.04146211E-05
   8.37720013      -1.07220094E-05
   8.38920021      -1.04748506E-05
   8.40120029      -9.64590981E-06
   8.41320038      -8.21921640E-06
   8.42520046      -6.19084767E-06
   8.43719959      -3.56952637E-06
   8.44919968      -3.77009997E-07
   8.46119976       3.35176219E-06
   8.47319984       7.56878535E-06
   8.48519993       1.22133943E-05
   8.49720001       1.72129749E-05
   8.50920010       2.24839878E-05
   8.52120018       2.79333271E-05
   8.53320026       3.34599645E-05
   8.54520035       3.89568995E-05
   8.55720043       4.43133758E-05
   8.56919956       4.94172964E-05
   8.58119965       5.41578047E-05
   8.59319973       5.84279624E-05
   8.60519981       6.21274230E-05
   8.61719990       6.51650844E-05
   8.62919998       6.74615367E-05
   8.64120007       6.89513618E-05
   8.65320015       6.95850758E-05
   8.66520023       6.93307229E-05
   8.67720032       6.81751262E-05
   8.68920040       6.61245285E-05
   8.70119953       6.32048977E-05
   8.71319962       5.94616104E-05
   8.72519970       5.49586912E-05
   8.73719978       4.97775363E-05
   8.74919987       4.40151671E-05
   8.76119995       3.77820725E-05
   8.77320004       3.11996955E-05
   8.78520012       2.43976356E-05
   8.79720020       1.75105979E-05
   8.80920029       1.06752595E-05
   8.82120037       4.02706064E-06
   8.83320045      -2.30296109E-06
   8.84519958      -8.19120305E-06
   8.85719967      -1.35243245E-05
   8.86919975      -1.82017848E-05
   8.88119984      -2.21380305E-05
   8.89319992      -2.52642640E-05
   8.90520000      -2.75297625E-05
   8.91720009      -2.89026957E-05
   8.92920017      -2.93704597E-05
   8.94120026      -2.89395030E-05
   8.95320034      -2.76346582E-05
   8.96520042      -2.54980550E-05
   8.97719955      -2.25876065E-05
   8.98919964      -1.89751663E-05
   9.00119972      -1.47444134E-05
   9.01319981      -9.98852465E-06
   9.02519989      -4.80774361E-06
   9.03719997       6.93104028E-07
   9.04920006       6.40705275E-06
   9.06120014       1.22273350E-05
   9.07320023       1.80495517E-05
   9.08520031       2.37736094E-05
   9.09720039       2.93054291E-05
   9.10919952       3.45583394E-05
   9.12119961       3.94541894E-05
   9.13319969       4.39241885E-05
   9.14519978       4.79094524E-05
   9.15719986       5.13612940E-05
   9.16919994       5.42413145E-05
   9.18120003       5.65212795E-05
   9.19320011       5.81828572E-05
   9.20520020       5.92172510E-05
   9.21720028       5.96247337E-05
   9.22920036       5.94141602E-05
   9.24120045       5.86024289E-05
   9.25319958       5.72139579E-05
   9.26519966       5.52801575E-05
   9.27719975       5.28389355E-05
   9.28919983       4.99341477E-05
   9.30119991       4.66151178E-05
   9.31320000       4.29360771E-05
   9.32520008       3.89556262E-05
   9.33720016       3.47360910E-05
   9.34920025       3.03428442E-05
   9.36120033       2.58435557E-05
   9.37320042       2.13073235E-05
   9.38519955       1.68037350E-05
   9.39719963       1.24018343E-05
   9.40919971       8.16901229E-06
   9.42119980       4.16984676E-06
   9.43319988       4.64915985E-07
   9.44519997      -2.89037484E-06
