 -6.6666670E-02  0.0000000E+00
 -6.6166669E-02  0.0000000E+00
 -6.5666668E-02  0.0000000E+00
 -6.5166667E-02  0.0000000E+00
 -6.4666666E-02  0.0000000E+00
 -6.4166665E-02  0.0000000E+00
 -6.3666664E-02  0.0000000E+00
 -6.3166663E-02  0.0000000E+00
 -6.2666669E-02  0.0000000E+00
 -6.2166668E-02  0.0000000E+00
 -6.1666667E-02  0.0000000E+00
 -6.1166666E-02  0.0000000E+00
 -6.0666665E-02  0.0000000E+00
 -6.0166668E-02  0.0000000E+00
 -5.9666667E-02  0.0000000E+00
 -5.9166666E-02  0.0000000E+00
 -5.8666665E-02  0.0000000E+00
 -5.8166668E-02  0.0000000E+00
 -5.7666667E-02  0.0000000E+00
 -5.7166666E-02  0.0000000E+00
 -5.6666669E-02  0.0000000E+00
 -5.6166667E-02  0.0000000E+00
 -5.5666666E-02  0.0000000E+00
 -5.5166665E-02  0.0000000E+00
 -5.4666668E-02  0.0000000E+00
 -5.4166667E-02  0.0000000E+00
 -5.3666666E-02  0.0000000E+00
 -5.3166665E-02  0.0000000E+00
 -5.2666668E-02  0.0000000E+00
 -5.2166667E-02  0.0000000E+00
 -5.1666666E-02  0.0000000E+00
 -5.1166665E-02  0.0000000E+00
 -5.0666668E-02  0.0000000E+00
 -5.0166667E-02  0.0000000E+00
 -4.9666665E-02  0.0000000E+00
 -4.9166668E-02  0.0000000E+00
 -4.8666667E-02  0.0000000E+00
 -4.8166666E-02  0.0000000E+00
 -4.7666665E-02  0.0000000E+00
 -4.7166668E-02  0.0000000E+00
 -4.6666667E-02  0.0000000E+00
 -4.6166666E-02  0.0000000E+00
 -4.5666665E-02  0.0000000E+00
 -4.5166668E-02  0.0000000E+00
 -4.4666667E-02  0.0000000E+00
 -4.4166666E-02  0.0000000E+00
 -4.3666668E-02  0.0000000E+00
 -4.3166667E-02  0.0000000E+00
 -4.2666666E-02  0.0000000E+00
 -4.2166665E-02  0.0000000E+00
 -4.1666668E-02  0.0000000E+00
 -4.1166667E-02  0.0000000E+00
 -4.0666666E-02  0.0000000E+00
 -4.0166665E-02  0.0000000E+00
 -3.9666668E-02  0.0000000E+00
 -3.9166667E-02  0.0000000E+00
 -3.8666666E-02  0.0000000E+00
 -3.8166668E-02  0.0000000E+00
 -3.7666667E-02  0.0000000E+00
 -3.7166666E-02  0.0000000E+00
 -3.6666665E-02  0.0000000E+00
 -3.6166668E-02  0.0000000E+00
 -3.5666667E-02  0.0000000E+00
 -3.5166666E-02  0.0000000E+00
 -3.4666665E-02  0.0000000E+00
 -3.4166668E-02  0.0000000E+00
 -3.3666667E-02  0.0000000E+00
 -3.3166666E-02  0.0000000E+00
 -3.2666668E-02  0.0000000E+00
 -3.2166667E-02  0.0000000E+00
 -3.1666666E-02  0.0000000E+00
 -3.1166667E-02  0.0000000E+00
 -3.0666666E-02  0.0000000E+00
 -3.0166667E-02  0.0000000E+00
 -2.9666666E-02  0.0000000E+00
 -2.9166667E-02  0.0000000E+00
 -2.8666666E-02  0.0000000E+00
 -2.8166667E-02  0.0000000E+00
 -2.7666667E-02  0.0000000E+00
 -2.7166666E-02  0.0000000E+00
 -2.6666667E-02  0.0000000E+00
 -2.6166666E-02  0.0000000E+00
 -2.5666667E-02  0.0000000E+00
 -2.5166666E-02  0.0000000E+00
 -2.4666667E-02  0.0000000E+00
 -2.4166666E-02  0.0000000E+00
 -2.3666667E-02  0.0000000E+00
 -2.3166666E-02  0.0000000E+00
 -2.2666667E-02  0.0000000E+00
 -2.2166668E-02  0.0000000E+00
 -2.1666666E-02  0.0000000E+00
 -2.1166667E-02  0.0000000E+00
 -2.0666666E-02  0.0000000E+00
 -2.0166667E-02  0.0000000E+00
 -1.9666666E-02  0.0000000E+00
 -1.9166667E-02  0.0000000E+00
 -1.8666666E-02  0.0000000E+00
 -1.8166667E-02  0.0000000E+00
 -1.7666666E-02  0.0000000E+00
 -1.7166667E-02  0.0000000E+00
 -1.6666668E-02  0.0000000E+00
 -1.6166667E-02  0.0000000E+00
 -1.5666667E-02  0.0000000E+00
 -1.5166666E-02  0.0000000E+00
 -1.4666666E-02  0.0000000E+00
 -1.4166667E-02  0.0000000E+00
 -1.3666667E-02  0.0000000E+00
 -1.3166667E-02  0.0000000E+00
 -1.2666667E-02  0.0000000E+00
 -1.2166667E-02  0.0000000E+00
 -1.1666667E-02  0.0000000E+00
 -1.1166667E-02  0.0000000E+00
 -1.0666667E-02  0.0000000E+00
 -1.0166666E-02  0.0000000E+00
 -9.6666664E-03  0.0000000E+00
 -9.1666663E-03  0.0000000E+00
 -8.6666662E-03  0.0000000E+00
 -8.1666671E-03  0.0000000E+00
 -7.6666665E-03  0.0000000E+00
 -7.1666664E-03  0.0000000E+00
 -6.6666668E-03  0.0000000E+00
 -6.1666667E-03  0.0000000E+00
 -5.6666667E-03  0.0000000E+00
 -5.1666666E-03  0.0000000E+00
 -4.6666665E-03  0.0000000E+00
 -4.1666669E-03  0.0000000E+00
 -3.6666666E-03  0.0000000E+00
 -3.1666667E-03  0.0000000E+00
 -2.6666666E-03  0.0000000E+00
 -2.1666666E-03  0.0000000E+00
 -1.6666667E-03  0.0000000E+00
 -1.1666666E-03  0.0000000E+00
 -6.6666666E-04  0.0000000E+00
 -1.6666666E-04  0.0000000E+00
  3.3333333E-04  0.0000000E+00
  8.3333335E-04  0.0000000E+00
  1.3333333E-03  0.0000000E+00
  1.8333333E-03  0.0000000E+00
  2.3333333E-03  0.0000000E+00
  2.8333333E-03  0.0000000E+00
  3.3333334E-03  0.0000000E+00
  3.8333333E-03  0.0000000E+00
  4.3333331E-03  0.0000000E+00
  4.8333332E-03  0.0000000E+00
  5.3333333E-03  0.0000000E+00
  5.8333334E-03  0.0000000E+00
  6.3333334E-03  0.0000000E+00
  6.8333335E-03  0.0000000E+00
  7.3333331E-03  0.0000000E+00
  7.8333337E-03  0.0000000E+00
  8.3333338E-03  0.0000000E+00
  8.8333329E-03  0.0000000E+00
  9.3333330E-03  0.0000000E+00
  9.8333331E-03  0.0000000E+00
  1.0333333E-02  0.0000000E+00
  1.0833333E-02  0.0000000E+00
  1.1333333E-02  0.0000000E+00
  1.1833333E-02  0.0000000E+00
  1.2333333E-02  0.0000000E+00
  1.2833334E-02  0.0000000E+00
  1.3333334E-02  0.0000000E+00
  1.3833334E-02  0.0000000E+00
  1.4333333E-02  0.0000000E+00
  1.4833333E-02  0.0000000E+00
  1.5333333E-02  0.0000000E+00
  1.5833333E-02  0.0000000E+00
  1.6333334E-02  0.0000000E+00
  1.6833333E-02  0.0000000E+00
  1.7333332E-02  0.0000000E+00
  1.7833333E-02  0.0000000E+00
  1.8333333E-02  0.0000000E+00
  1.8833334E-02  0.0000000E+00
  1.9333333E-02  0.0000000E+00
  1.9833334E-02  0.0000000E+00
  2.0333333E-02  0.0000000E+00
  2.0833334E-02  0.0000000E+00
  2.1333333E-02  0.0000000E+00
  2.1833334E-02  0.0000000E+00
  2.2333333E-02  0.0000000E+00
  2.2833332E-02  0.0000000E+00
  2.3333333E-02  0.0000000E+00
  2.3833333E-02  0.0000000E+00
  2.4333334E-02  0.0000000E+00
  2.4833333E-02  0.0000000E+00
  2.5333334E-02  0.0000000E+00
  2.5833333E-02  0.0000000E+00
  2.6333334E-02  0.0000000E+00
  2.6833333E-02  0.0000000E+00
  2.7333334E-02  0.0000000E+00
  2.7833333E-02  0.0000000E+00
  2.8333334E-02  0.0000000E+00
  2.8833333E-02  0.0000000E+00
  2.9333333E-02  0.0000000E+00
  2.9833334E-02  0.0000000E+00
  3.0333333E-02  0.0000000E+00
  3.0833334E-02  0.0000000E+00
  3.1333335E-02  0.0000000E+00
  3.1833332E-02  0.0000000E+00
  3.2333333E-02  0.0000000E+00
  3.2833334E-02  0.0000000E+00
  3.3333335E-02  0.0000000E+00
  3.3833332E-02  0.0000000E+00
  3.4333333E-02  0.0000000E+00
  3.4833334E-02  0.0000000E+00
  3.5333332E-02  0.0000000E+00
  3.5833333E-02  0.0000000E+00
  3.6333334E-02  0.0000000E+00
  3.6833335E-02  0.0000000E+00
  3.7333332E-02  0.0000000E+00
  3.7833333E-02  0.0000000E+00
  3.8333334E-02  0.0000000E+00
  3.8833335E-02  0.0000000E+00
  3.9333332E-02  0.0000000E+00
  3.9833333E-02  0.0000000E+00
  4.0333334E-02  0.0000000E+00
  4.0833332E-02  0.0000000E+00
  4.1333333E-02  0.0000000E+00
  4.1833334E-02  0.0000000E+00
  4.2333335E-02  0.0000000E+00
  4.2833332E-02  0.0000000E+00
  4.3333333E-02  0.0000000E+00
  4.3833334E-02  0.0000000E+00
  4.4333335E-02  0.0000000E+00
  4.4833332E-02  0.0000000E+00
  4.5333333E-02  0.0000000E+00
  4.5833334E-02  0.0000000E+00
  4.6333332E-02  0.0000000E+00
  4.6833333E-02  0.0000000E+00
  4.7333334E-02  0.0000000E+00
  4.7833335E-02  0.0000000E+00
  4.8333332E-02  0.0000000E+00
  4.8833333E-02  0.0000000E+00
  4.9333334E-02  0.0000000E+00
  4.9833335E-02  0.0000000E+00
  5.0333332E-02  0.0000000E+00
  5.0833333E-02  0.0000000E+00
  5.1333334E-02  0.0000000E+00
  5.1833332E-02  0.0000000E+00
  5.2333333E-02  0.0000000E+00
  5.2833334E-02  1.6571992E-38
  5.3333335E-02  2.3776190E-38
  5.3833332E-02  1.5888250E-38
  5.4333333E-02 -1.5530707E-38
  5.4833334E-02 -5.4680656E-38
  5.5333335E-02 -7.7179259E-38
  5.5833332E-02 -5.2608242E-38
  5.6333333E-02  2.4923635E-38
  5.6833334E-02  1.2561855E-37
  5.7333332E-02  1.9248099E-37
  5.7833333E-02  1.5032250E-37
  5.8333334E-02  0.0000000E+00
  5.8833335E-02 -2.5969424E-37
  5.9333332E-02 -4.6246114E-37
  5.9833333E-02 -4.8200560E-37
  6.0333334E-02 -2.0165790E-37
  6.0833335E-02  3.2423789E-37
  6.1333332E-02  8.7817083E-37
  6.1833333E-02  1.1358939E-36
  6.2333334E-02  8.0053226E-37
  6.2833332E-02 -1.7550298E-37
  6.3333333E-02 -1.4714657E-36
  6.3833334E-02 -2.4369726E-36
  6.4333335E-02 -2.3604517E-36
  6.4833336E-02 -8.6253396E-37
  6.5333337E-02  1.7529317E-36
  6.5833330E-02  4.3922145E-36
  6.6333331E-02  5.5248658E-36
  6.6833332E-02  3.9081528E-36
  6.7333333E-02 -5.8162603E-37
  6.7833334E-02 -6.4608797E-36
  6.8333335E-02 -1.0897488E-35
  6.8833336E-02 -1.0852630E-35
  6.9333330E-02 -4.7077153E-36
  6.9833331E-02  6.3258865E-36
  7.0333332E-02  1.7878533E-35
  7.0833333E-02  2.3766318E-35
  7.1333334E-02  1.8770069E-35
  7.1833335E-02  1.8145376E-36
  7.2333336E-02 -2.2102568E-35
  7.2833337E-02 -4.2552396E-35
  7.3333330E-02 -4.7367512E-35
  7.3833331E-02 -2.8528350E-35
  7.4333332E-02  1.2262230E-35
  7.4833333E-02  6.1217576E-35
  7.5333335E-02  9.5571789E-35
  7.5833336E-02  9.2359446E-35
  7.6333337E-02  4.0249756E-35
  7.6833330E-02 -5.0713673E-35
  7.7333331E-02 -1.4680678E-34
  7.7833332E-02 -1.9976216E-34
  7.8333333E-02 -1.6662845E-34
  7.8833334E-02 -3.3889956E-35
  7.9333335E-02  1.6507381E-34
  7.9833336E-02  3.5037859E-34
  8.0333330E-02  4.2047451E-34
  8.0833331E-02  2.9714300E-34
  8.1333332E-02 -2.5199072E-35
  8.1833333E-02 -4.5041660E-34
  8.2333334E-02 -7.9398793E-34
  8.2833335E-02 -8.4786084E-34
  8.3333336E-02 -4.8168402E-34
  8.3833337E-02  2.6072194E-34
  8.4333330E-02  1.1227143E-33
  8.4833331E-02  1.6956703E-33
  8.5333332E-02  1.5822931E-33
  8.5833333E-02  6.1116803E-34
  8.6333334E-02 -9.9534828E-34
  8.6833335E-02 -2.6071030E-33
  8.7333336E-02 -3.3858454E-33
  8.7833330E-02 -2.6624723E-33
  8.8333331E-02 -3.4626096E-34
  8.8833332E-02  2.8452222E-33
  8.9333333E-02  5.5174755E-33
  8.9833334E-02  6.1339257E-33
  9.0333335E-02  3.7878190E-33
  9.0833336E-02 -1.1356217E-33
  9.1333330E-02 -6.7975503E-33
  9.1833331E-02 -1.0475804E-32
  9.2333332E-02 -9.7641491E-33
  9.2833333E-02 -3.9244889E-33
  9.3333334E-02  5.2979218E-33
  9.3833335E-02  1.3975923E-32
  9.4333336E-02  1.7539522E-32
  9.4833337E-02  1.3028041E-32
  9.5333330E-02  1.0124274E-33
  9.5833331E-02 -1.3925060E-32
  9.6333332E-02 -2.4739442E-32
  9.6833333E-02 -2.5112412E-32
  9.7333334E-02 -1.2915334E-32
  9.7833335E-02  7.8626716E-33
  9.8333336E-02  2.8068031E-32
  9.8833330E-02  3.7263606E-32
  9.9333331E-02  2.8995361E-32
  9.9833332E-02  4.8568168E-33
  0.1003333     -2.5052585E-32
  0.1008333     -4.6133187E-32
  0.1013333     -4.6319514E-32
  0.1018333     -2.2816733E-32
  0.1023333      1.5148945E-32
  0.1028333      4.9629924E-32
  0.1033333      6.2355473E-32
  0.1038333      4.4349768E-32
  0.1043333      1.7110266E-33
  0.1048333     -4.6028483E-32
  0.1053333     -7.4881229E-32
  0.1058333     -6.8592100E-32
  0.1063333     -2.7717819E-32
  0.1068333      2.9582491E-32
  0.1073333      7.6057229E-32
  0.1078333      8.9075294E-32
  0.1083333      6.2270573E-32
  0.1088333      8.6371291E-33
  0.1093333     -4.6782733E-32
  0.1098333     -8.0484564E-32
  0.1103333     -8.2409272E-32
  0.1108333     -5.9105178E-32
  0.1113333     -2.6484114E-32
  0.1118333      2.6727077E-33
  0.1123333      2.7458566E-32
  0.1128333      5.6902032E-32
  0.1133333      9.7726339E-32
  0.1138333      1.4037496E-31
  0.1143333      1.5521430E-31
  0.1148333      1.0595363E-31
  0.1153333     -2.4026014E-32
  0.1158333     -2.0791138E-31
  0.1163333     -3.7273280E-31
  0.1168333     -4.2683516E-31
  0.1173333     -3.0852721E-31
  0.1178333     -3.0161025E-32
  0.1183333      3.1166737E-31
  0.1188333      5.7398463E-31
  0.1193333      6.3954538E-31
  0.1198333      4.8419929E-31
  0.1203333      1.9567588E-31
  0.1208333     -7.6817016E-32
  0.1213333     -2.2057745E-31
  0.1218333     -2.4608617E-31
  0.1223333     -2.9731673E-31
  0.1228333     -5.5728278E-31
  0.1233333     -1.0861291E-30
  0.1238333     -1.6875598E-30
  0.1243333     -1.9102789E-30
  0.1248333     -1.2349051E-30
  0.1253333      6.0786134E-31
  0.1258333      3.3416179E-30
  0.1263333      6.0568819E-30
  0.1268333      7.4467563E-30
  0.1273333      6.3265377E-30
  0.1278333      2.2341039E-30
  0.1283333     -4.1741872E-30
  0.1288333     -1.1157905E-29
  0.1293333     -1.6395548E-29
  0.1298333     -1.7768222E-29
  0.1303333     -1.4093626E-29
  0.1308333     -5.5077970E-30
  0.1313333      6.6161155E-30
  0.1318333      2.0073984E-29
  0.1323333      3.2270888E-29
  0.1328333      4.0455943E-29
  0.1333333      4.1754203E-29
  0.1338333      3.3281971E-29
  0.1343333      1.2749292E-29
  0.1348333     -2.0241006E-29
  0.1353333     -6.2464944E-29
  0.1358333     -1.0572060E-28
  0.1363333     -1.3690834E-28
  0.1368333     -1.4035608E-28
  0.1373333     -1.0240350E-28
  0.1378333     -1.7205226E-29
  0.1383333      1.0813687E-28
  0.1388333      2.5121423E-28
  0.1393333      3.7623297E-28
  0.1398333      4.4051006E-28
  0.1403333      4.0447644E-28
  0.1408333      2.4310886E-28
  0.1413333     -4.3670061E-29
  0.1418333     -4.2389911E-28
  0.1423333     -8.3164159E-28
  0.1428333     -1.1716694E-27
  0.1433333     -1.3319063E-27
  0.1438333     -1.2041307E-27
  0.1443333     -7.1197446E-28
  0.1448333      1.5730333E-28
  0.1453333      1.3240364E-27
  0.1458333      2.5999201E-27
  0.1463333      3.6946339E-27
  0.1468333      4.2530126E-27
  0.1473333      3.9241624E-27
  0.1478333      2.4549787E-27
  0.1483333     -2.0885425E-28
  0.1488333     -3.8383152E-27
  0.1493333     -7.8793446E-27
  0.1498333     -1.1476959E-26
  0.1503333     -1.3579091E-26
  0.1508333     -1.3120362E-26
  0.1513333     -9.2692420E-27
  0.1518333     -1.7041189E-27
  0.1523333      9.1329909E-27
  0.1528333      2.1869065E-26
  0.1533333      3.4186745E-26
  0.1538333      4.3023084E-26
  0.1543333      4.5010915E-26
  0.1548333      3.7147759E-26
  0.1553333      1.7617567E-26
  0.1558333     -1.3371510E-26
  0.1563333     -5.2920611E-26
  0.1568333     -9.5153604E-26
  0.1573333     -1.3149875E-25
  0.1578333     -1.5165905E-25
  0.1583333     -1.4527802E-25
  0.1588333     -1.0416403E-25
  0.1593333     -2.4779888E-26
  0.1598333      8.9434011E-26
  0.1603333      2.2643010E-25
  0.1608333      3.6516416E-25
  0.1613333      4.7691483E-25
  0.1618333      5.2858774E-25
  0.1623333      4.8797530E-25
  0.1628333      3.3054840E-25
  0.1633333      4.6924617E-26
  0.1638333     -3.5023455E-25
  0.1643333     -8.2141414E-25
  0.1648333     -1.2990831E-24
  0.1653333     -1.6915016E-24
  0.1658333     -1.8922702E-24
  0.1663333     -1.7955488E-24
  0.1668333     -1.3158384E-24
  0.1673333     -4.1010125E-25
  0.1678333      9.0099965E-25
  0.1683333      2.5166720E-24
  0.1688333      4.2485283E-24
  0.1693333      5.8258447E-24
  0.1698333      6.9161873E-24
  0.1703333      7.1622709E-24
  0.1708333      6.2335465E-24
  0.1713333      3.8883427E-24
  0.1718333      3.9753200E-26
  0.1723333     -5.1836859E-24
  0.1728333     -1.1392803E-23
  0.1733333     -1.7918393E-23
  0.1738333     -2.3826507E-23
  0.1743333     -2.7974510E-23
  0.1748333     -2.9109901E-23
  0.1753333     -2.6008955E-23
  0.1758333     -1.7647219E-23
  0.1763333     -3.3892833E-24
  0.1768333      1.6818120E-23
  0.1773333      4.2267101E-23
  0.1778333      7.1340371E-23
  0.1783333      1.0140696E-22
  0.1788333      1.2876972E-22
  0.1793333      1.4866460E-22
  0.1798333      1.5530379E-22
  0.1803333      1.4194573E-22
  0.1808333      1.0096865E-22
  0.1813333      2.3918851E-23
  0.1818333     -9.8496276E-23
  0.1823333     -2.7649933E-22
  0.1828333     -5.2144170E-22
  0.1833333     -8.4612645E-22
  0.1838333     -1.2652620E-21
  0.1843333     -1.7960476E-21
  0.1848333     -2.4588754E-21
  0.1853333     -3.2781424E-21
  0.1858333     -4.2831485E-21
  0.1863333     -5.5090754E-21
  0.1868333     -6.9980263E-21
  0.1873333     -8.8001572E-21
  0.1878333     -1.0974878E-20
  0.1883333     -1.3592196E-20
  0.1888333     -1.6734205E-20
  0.1893333     -2.0496820E-20
  0.1898333     -2.4991753E-20
  0.1903333     -3.0348827E-20
  0.1908333     -3.6718702E-20
  0.1913333     -4.4276006E-20
  0.1918333     -5.3222904E-20
  0.1923333     -6.3793229E-20
  0.1928333     -7.6257063E-20
  0.1933333     -9.0925845E-20
  0.1938333     -1.0815807E-19
  0.1943333     -1.2836544E-19
  0.1948333     -1.5201969E-19
  0.1953333     -1.7965993E-19
  0.1958333     -2.1190080E-19
  0.1963333     -2.4944107E-19
  0.1968333     -2.9307337E-19
  0.1973333     -3.4369448E-19
  0.1978333     -4.0231661E-19
  0.1983333     -4.7007976E-19
  0.1988333     -5.4826477E-19
  0.1993333     -6.3830798E-19
  0.1998333     -7.4181619E-19
  0.2003333     -8.6058273E-19
  0.2008333     -9.9660478E-19
  0.2013333     -1.1521011E-18
  0.2018333     -1.3295305E-18
  0.2023333     -1.5316108E-18
  0.2028333     -1.7613386E-18
  0.2033333     -2.0220097E-18
  0.2038333     -2.3172369E-18
  0.2043333     -2.6509724E-18
  0.2048333     -3.0275257E-18
  0.2053333     -3.4515834E-18
  0.2058333     -3.9282265E-18
  0.2063333     -4.4629492E-18
  0.2068333     -5.0616720E-18
  0.2073333     -5.7307573E-18
  0.2078333     -6.4770207E-18
  0.2083333     -7.3077387E-18
  0.2088333     -8.2306514E-18
  0.2093333     -9.2539665E-18
  0.2098333     -1.0386357E-17
  0.2103333     -1.1636945E-17
  0.2108333     -1.3015294E-17
  0.2113333     -1.4531381E-17
  0.2118333     -1.6195574E-17
  0.2123333     -1.8018594E-17
  0.2128333     -2.0011459E-17
  0.2133333     -2.2185454E-17
  0.2138333     -2.4552051E-17
  0.2143333     -2.7122840E-17
  0.2148333     -2.9909461E-17
  0.2153333     -3.2923482E-17
  0.2158333     -3.6176327E-17
  0.2163333     -3.9679149E-17
  0.2168333     -4.3442709E-17
  0.2173333     -4.7477246E-17
  0.2178333     -5.1792313E-17
  0.2183333     -5.6396658E-17
  0.2188333     -6.1298034E-17
  0.2193333     -6.6503051E-17
  0.2198333     -7.2016978E-17
  0.2203333     -7.7843585E-17
  0.2208333     -8.3984931E-17
  0.2213333     -9.0441215E-17
  0.2218333     -9.7210544E-17
  0.2223333     -1.0428878E-16
  0.2228333     -1.1166937E-16
  0.2233333     -1.1934310E-16
  0.2238333     -1.2729807E-16
  0.2243333     -1.3551938E-16
  0.2248333     -1.4398912E-16
  0.2253333     -1.5268615E-16
  0.2258333     -1.6158607E-16
  0.2263333     -1.7066111E-16
  0.2268333     -1.7988009E-16
  0.2273333     -1.8920839E-16
  0.2278333     -1.9860793E-16
  0.2283333     -2.0803727E-16
  0.2288333     -2.1745170E-16
  0.2293333     -2.2680318E-16
  0.2298333     -2.3604071E-16
  0.2303333     -2.4511037E-16
  0.2308333     -2.5395567E-16
  0.2313333     -2.6251769E-16
  0.2318333     -2.7073547E-16
  0.2323333     -2.7854631E-16
  0.2328333     -2.8588625E-16
  0.2333333     -2.9269033E-16
  0.2338333     -2.9889326E-16
  0.2343333     -3.0442965E-16
  0.2348333     -3.0923468E-16
  0.2353333     -3.1324464E-16
  0.2358333     -3.1639740E-16
  0.2363333     -3.1863304E-16
  0.2368333     -3.1989435E-16
  0.2373333     -3.2012747E-16
  0.2378333     -3.1928240E-16
  0.2383333     -3.1731368E-16
  0.2388333     -3.1418069E-16
  0.2393333     -3.0984844E-16
  0.2398333     -3.0428785E-16
  0.2403333     -2.9747630E-16
  0.2408333     -2.8939807E-16
  0.2413333     -2.8004460E-16
  0.2418333     -2.6941487E-16
  0.2423333     -2.5751564E-16
  0.2428333     -2.4436165E-16
  0.2433333     -2.2997572E-16
  0.2438333     -2.1438886E-16
  0.2443333     -1.9764012E-16
  0.2448333     -1.7977668E-16
  0.2453333     -1.6085358E-16
  0.2458333     -1.4093352E-16
  0.2463333     -1.2008656E-16
  0.2468333     -9.8389706E-17
  0.2473333     -7.5926518E-17
  0.2478333     -5.2786544E-17
  0.2483333     -2.9064807E-17
  0.2488333     -4.8611659E-18
  0.2493333      1.9720373E-17
  0.2498333      4.4572336E-17
  0.2503333      6.9584557E-17
  0.2508333      9.4644954E-17
  0.2513333      1.1964028E-16
  0.2518333      1.4445700E-16
  0.2523333      1.6898205E-16
  0.2528333      1.9310370E-16
  0.2533333      2.1671227E-16
  0.2538333      2.3970101E-16
  0.2543333      2.6196680E-16
  0.2548333      2.8341090E-16
  0.2553333      3.0393951E-16
  0.2558333      3.2346460E-16
  0.2563333      3.4190432E-16
  0.2568333      3.5918350E-16
  0.2573333      3.7523433E-16
  0.2578333      3.8999652E-16
  0.2583333      4.0341771E-16
  0.2588333      4.1545367E-16
  0.2593333      4.2606866E-16
  0.2598333      4.3523531E-16
  0.2603333      4.4293468E-16
  0.2608333      4.4915648E-16
  0.2613333      4.5389859E-16
  0.2618333      4.5716724E-16
  0.2623333      4.5897650E-16
  0.2628333      4.5934819E-16
  0.2633333      4.5831153E-16
  0.2638333      4.5590251E-16
  0.2643333      4.5216387E-16
  0.2648333      4.4714403E-16
  0.2653333      4.4089738E-16
  0.2658333      4.3348295E-16
  0.2663333      4.2496442E-16
  0.2668333      4.1540926E-16
  0.2673333      4.0488821E-16
  0.2678333      3.9347481E-16
  0.2683333      3.8124469E-16
  0.2688333      3.6827508E-16
  0.2693333      3.5464412E-16
  0.2698333      3.4043056E-16
  0.2703333      3.2571302E-16
  0.2708333      3.1056947E-16
  0.2713333      2.9507703E-16
  0.2718333      2.7931118E-16
  0.2723333      2.6334564E-16
  0.2728333      2.4725183E-16
  0.2733333      2.3109859E-16
  0.2738333      2.1495184E-16
  0.2743333      1.9887435E-16
  0.2748333      1.8292554E-16
  0.2753333      1.6716121E-16
  0.2758333      1.5163347E-16
  0.2763333      1.3639060E-16
  0.2768333      1.2147693E-16
  0.2773333      1.0693285E-16
  0.2778333      9.2794782E-17
  0.2783333      7.9095169E-17
  0.2788333      6.5862516E-17
  0.2793333      5.3121473E-17
  0.2798333      4.0892921E-17
  0.2803333      2.9194072E-17
  0.2808333      1.8038611E-17
  0.2813333      7.4368310E-18
  0.2818333     -2.6041987E-18
  0.2823333     -1.2080466E-17
  0.2828333     -2.0990841E-17
  0.2833333     -2.9336890E-17
  0.2838333     -3.7122695E-17
  0.2843333     -4.4354642E-17
  0.2848333     -5.1041243E-17
  0.2853333     -5.7192915E-17
  0.2858333     -6.2821813E-17
  0.2863333     -6.7941618E-17
  0.2868333     -7.2567364E-17
  0.2873333     -7.6715258E-17
  0.2878333     -8.0402505E-17
  0.2883333     -8.3647137E-17
  0.2888333     -8.6467869E-17
  0.2893333     -8.8883912E-17
  0.2898333     -9.0914872E-17
  0.2903333     -9.2580575E-17
  0.2908333     -9.3900987E-17
  0.2913333     -9.4896072E-17
  0.2918333     -9.5585683E-17
  0.2923333     -9.5989499E-17
  0.2928333     -9.6126917E-17
  0.2933333     -9.6016962E-17
  0.2938333     -9.5678241E-17
  0.2943333     -9.5128874E-17
  0.2948333     -9.4386450E-17
  0.2953333     -9.3467962E-17
  0.2958333     -9.2389781E-17
  0.2963333     -9.1167638E-17
  0.2968333     -8.9816581E-17
  0.2973333     -8.8350963E-17
  0.2978333     -8.6784428E-17
  0.2983333     -8.5129921E-17
  0.2988333     -8.3399658E-17
  0.2993333     -8.1605166E-17
  0.2998333     -7.9757251E-17
  0.3003333     -7.7866018E-17
  0.3008333     -7.5940911E-17
  0.3013333     -7.3990697E-17
  0.3018333     -7.2023476E-17
  0.3023333     -7.0046740E-17
  0.3028333     -6.8067356E-17
  0.3033333     -6.6091612E-17
  0.3038333     -6.4125225E-17
  0.3043333     -6.2173376E-17
  0.3048333     -6.0240732E-17
  0.3053333     -5.8331473E-17
  0.3058333     -5.6449320E-17
  0.3063333     -5.4597563E-17
  0.3068333     -5.2779066E-17
  0.3073333     -5.0996327E-17
  0.3078333     -4.9251472E-17
  0.3083333     -4.7546302E-17
  0.3088333     -4.5882292E-17
  0.3093333     -4.4260651E-17
  0.3098333     -4.2682301E-17
  0.3103333     -4.1147921E-17
  0.3108333     -3.9657970E-17
  0.3113333     -3.8212687E-17
  0.3118333     -3.6812128E-17
  0.3123333     -3.5456177E-17
  0.3128333     -3.4144553E-17
  0.3133333     -3.2876839E-17
  0.3138333     -3.1652480E-17
  0.3143333     -3.0470793E-17
  0.3148333     -2.9330991E-17
  0.3153333     -2.8232167E-17
  0.3158333     -2.7173331E-17
  0.3163333     -2.6153388E-17
  0.3168333     -2.5171161E-17
  0.3173333     -2.4225385E-17
  0.3178333     -2.3314722E-17
  0.3183333     -2.2437742E-17
  0.3188333     -2.1592938E-17
  0.3193333     -2.0778703E-17
  0.3198333     -1.9993343E-17
  0.3203333     -1.9235061E-17
  0.3208333     -1.8501954E-17
  0.3213333     -1.7791997E-17
  0.3218333     -1.7103038E-17
  0.3223333     -1.6432788E-17
  0.3228333     -1.5778801E-17
  0.3233333     -1.5138456E-17
  0.3238333     -1.4508938E-17
  0.3243333     -1.3887218E-17
  0.3248333     -1.3270029E-17
  0.3253333     -1.2653843E-17
  0.3258333     -1.2034844E-17
  0.3263333     -1.1408897E-17
  0.3268333     -1.0771519E-17
  0.3273333     -1.0117844E-17
  0.3278333     -9.4425926E-18
  0.3283333     -8.7400317E-18
  0.3288333     -8.0039377E-18
  0.3293333     -7.2275617E-18
  0.3298333     -6.4035865E-18
  0.3303333     -5.5240904E-18
  0.3308333     -4.5805060E-18
  0.3313333     -3.5635793E-18
  0.3318333     -2.4633331E-18
  0.3323333     -1.2690288E-18
  0.3328333      3.0868093E-20
  0.3333333      1.4487176E-18
  0.3338333      2.9977340E-18
  0.3343333      4.6920096E-18
  0.3348333      6.5465299E-18
  0.3353333      8.5771847E-18
  0.3358333      1.0800769E-17
  0.3363333      1.3234973E-17
  0.3368333      1.5898373E-17
  0.3373333      1.8810396E-17
  0.3378333      2.1991275E-17
  0.3383333      2.5462002E-17
  0.3388333      2.9244253E-17
  0.3393333      3.3360287E-17
  0.3398333      3.7832879E-17
  0.3403333      4.2685140E-17
  0.3408333      4.7940420E-17
  0.3413333      5.3622139E-17
  0.3418333      5.9753575E-17
  0.3423333      6.6357699E-17
  0.3428333      7.3456907E-17
  0.3433333      8.1072812E-17
  0.3438333      8.9225941E-17
  0.3443333      9.7935485E-17
  0.3448333      1.0721894E-16
  0.3453333      1.1709189E-16
  0.3458333      1.2756752E-16
  0.3463333      1.3865636E-16
  0.3468333      1.5036596E-16
  0.3473333      1.6270046E-16
  0.3478333      1.7566015E-16
  0.3483333      1.8924124E-16
  0.3488333      2.0343541E-16
  0.3493333      2.1822945E-16
  0.3498333      2.3360494E-16
  0.3503333      2.4953792E-16
  0.3508333      2.6599855E-16
  0.3513333      2.8295085E-16
  0.3518333      3.0035251E-16
  0.3523333      3.1815465E-16
  0.3528333      3.3630165E-16
  0.3533333      3.5473105E-16
  0.3538333      3.7337353E-16
  0.3543333      3.9215288E-16
  0.3548333      4.1098624E-16
  0.3553333      4.2978396E-16
  0.3558333      4.4845011E-16
  0.3563333      4.6688260E-16
  0.3568333      4.8497364E-16
  0.3573333      5.0261013E-16
  0.3578333      5.1967430E-16
  0.3583333      5.3604427E-16
  0.3588333      5.5159468E-16
  0.3593333      5.6619759E-16
  0.3598333      5.7972317E-16
  0.3603333      5.9204072E-16
  0.3608333      6.0301954E-16
  0.3613333      6.1252997E-16
  0.3618333      6.2044454E-16
  0.3623333      6.2663884E-16
  0.3628333      6.3099291E-16
  0.3633333      6.3339202E-16
  0.3638333      6.3372813E-16
  0.3643333      6.3190103E-16
  0.3648333      6.2781913E-16
  0.3653333      6.2140073E-16
  0.3658333      6.1257513E-16
  0.3663333      6.0128344E-16
  0.3668333      5.8747945E-16
  0.3673333      5.7113071E-16
  0.3678333      5.5221895E-16
  0.3683333      5.3074084E-16
  0.3688333      5.0670845E-16
  0.3693333      4.8014978E-16
  0.3698333      4.5110878E-16
  0.3703333      4.1964567E-16
  0.3708333      3.8583680E-16
  0.3713333      3.4977463E-16
  0.3718333      3.1156731E-16
  0.3723333      2.7133830E-16
  0.3728333      2.2922567E-16
  0.3733333      1.8538151E-16
  0.3738333      1.3997104E-16
  0.3743333      9.3171606E-17
  0.3748333      4.5171582E-17
  0.3753333     -3.8308426E-18
  0.3758333     -5.3628932E-17
  0.3763333     -1.0400879E-16
  0.3768333     -1.5475088E-16
  0.3773333     -2.0563145E-16
  0.3778333     -2.5642422E-16
  0.3783333     -3.0690185E-16
  0.3788333     -3.5683762E-16
  0.3793333     -4.0600693E-16
  0.3798333     -4.5418902E-16
  0.3803333     -5.0116832E-16
  0.3808333     -5.4673626E-16
  0.3813333     -5.9069224E-16
  0.3818333     -6.3284547E-16
  0.3823333     -6.7301585E-16
  0.3828333     -7.1103535E-16
  0.3833333     -7.4674912E-16
  0.3838333     -7.8001602E-16
  0.3843333     -8.1070995E-16
  0.3848333     -8.3872038E-16
  0.3853333     -8.6395264E-16
  0.3858333     -8.8632845E-16
  0.3863333     -9.0578643E-16
  0.3868333     -9.2228187E-16
  0.3873333     -9.3578686E-16
  0.3878333     -9.4629070E-16
  0.3883333     -9.5379817E-16
  0.3888333     -9.5833075E-16
  0.3893333     -9.5992529E-16
  0.3898333     -9.5863335E-16
  0.3903333     -9.5452079E-16
  0.3908333     -9.4766671E-16
  0.3913333     -9.3816258E-16
  0.3918333     -9.2611173E-16
  0.3923333     -9.1162768E-16
  0.3928333     -8.9483335E-16
  0.3933333     -8.7586023E-16
  0.3938333     -8.5484677E-16
  0.3943333     -8.3193760E-16
  0.3948333     -8.0728233E-16
  0.3953333     -7.8103431E-16
  0.3958333     -7.5334957E-16
  0.3963333     -7.2438581E-16
  0.3968333     -6.9430121E-16
  0.3973333     -6.6325359E-16
  0.3978333     -6.3139943E-16
  0.3983333     -5.9889269E-16
  0.3988333     -5.6588434E-16
  0.3993333     -5.3252146E-16
  0.3998333     -4.9894629E-16
  0.4003333     -4.6529590E-16
  0.4008333     -4.3170162E-16
  0.4013333     -3.9828818E-16
  0.4018333     -3.6517372E-16
  0.4023333     -3.3246919E-16
  0.4028333     -3.0027810E-16
  0.4033333     -2.6869632E-16
  0.4038333     -2.3781191E-16
  0.4043333     -2.0770509E-16
  0.4048333     -1.7844815E-16
  0.4053333     -1.5010551E-16
  0.4058333     -1.2273380E-16
  0.4063333     -9.6381986E-17
  0.4068333     -7.1091555E-17
  0.4073333     -4.6896707E-17
  0.4078333     -2.3824646E-17
  0.4083333     -1.8958359E-18
  0.4088333      1.8875689E-17
  0.4093333      3.8481997E-17
  0.4098333      5.6920899E-17
  0.4103333      7.4195586E-17
  0.4108333      9.0314279E-17
  0.4113333      1.0528980E-16
  0.4118333      1.1913926E-16
  0.4123333      1.3188363E-16
  0.4128333      1.4354736E-16
  0.4133333      1.5415805E-16
  0.4138333      1.6374609E-16
  0.4143333      1.7234425E-16
  0.4148333      1.7998730E-16
  0.4153333      1.8671180E-16
  0.4158333      1.9255570E-16
  0.4163333      1.9755798E-16