  -1.99999996E-02     1.51538795E-31
  -1.79999992E-02     4.54616422E-31
  -1.60000008E-02     7.57693942E-31
  -1.40000004E-02     1.06077165E-30
  -1.20000001E-02     1.36384926E-30
  -9.99999978E-03     1.66692697E-30
  -8.00000038E-03     1.97000459E-30
  -6.00000005E-03     2.27308201E-30
  -4.00000019E-03     2.57615944E-30
  -2.00000009E-03     2.87923687E-30
   0.00000000         3.18231411E-30
   2.00000009E-03     3.48539191E-30
   4.00000019E-03     3.78846933E-30
   6.00000005E-03     4.09154676E-30
   8.00000038E-03     4.39462419E-30
   9.99999978E-03     4.69770161E-30
   1.20000001E-02     5.00077866E-30
   1.40000004E-02     5.30504889E-30
   1.60000008E-02     5.61840634E-30
   1.79999992E-02     5.95056343E-30
   1.99999996E-02     6.29541999E-30
   2.19999999E-02     6.64527909E-30
   2.40000002E-02     7.00480808E-30
   2.60000005E-02     7.39289500E-30
   2.80000009E-02     7.85060278E-30
   2.99999993E-02     8.34958339E-30
   3.20000015E-02     8.82413253E-30
   3.40000018E-02     9.29017523E-30
   3.59999985E-02     9.76790290E-30
   3.79999988E-02     1.02465123E-29
   3.99999991E-02     1.07065643E-29
   4.19999994E-02     1.11617985E-29
   4.39999998E-02     1.16195634E-29
   4.60000001E-02     1.20742251E-29
   4.80000004E-02     1.25392619E-29
   5.00000007E-02     1.31342133E-29
   5.20000011E-02     1.38971223E-29
   5.40000014E-02     1.47999681E-29
   5.60000017E-02     1.57784233E-29
   5.79999983E-02     1.67452868E-29
   5.99999987E-02     1.77089469E-29
   6.19999990E-02     1.86222274E-29
   6.40000030E-02     1.93606199E-29
   6.59999996E-02     1.98655822E-29
   6.80000037E-02     2.01447563E-29
   7.00000003E-02     2.00311821E-29
   7.19999969E-02     1.94661398E-29
   7.40000010E-02     1.84988174E-29
   7.59999976E-02     1.73257199E-29
   7.80000016E-02     1.61505521E-29
   7.99999982E-02     1.49659382E-29
   8.20000023E-02     1.37823459E-29
   8.39999989E-02     1.26799331E-29
   8.60000029E-02     1.16795456E-29
   8.79999995E-02     1.07846871E-29
   9.00000036E-02     9.96470436E-30
   9.20000002E-02     9.13937792E-30
   9.39999968E-02     8.35426431E-30
   9.60000008E-02     7.62171804E-30
   9.79999974E-02     6.89410848E-30
  0.100000001         6.16658130E-30
  0.101999998         5.48082272E-30
  0.104000002         4.80626726E-30
  0.105999999         4.09671066E-30
  0.108000003         3.41798549E-30
  0.109999999         2.90741695E-30
  0.112000003         2.55468288E-30
  0.114000000         2.39706413E-30
  0.115999997         2.42929807E-30
  0.118000001         2.65830524E-30
  0.119999997         3.18282418E-30
  0.122000001         3.89035629E-30
  0.123999998         4.72544027E-30
  0.126000002         5.70877383E-30
  0.128000006         6.89290778E-30
  0.129999995         8.37129750E-30
  0.131999999         1.01237147E-29
  0.134000003         1.20110102E-29
  0.136000007         1.41233213E-29
  0.137999997         1.65490571E-29
  0.140000001         1.94029121E-29
  0.142000005         2.30153278E-29
  0.143999994         2.72546802E-29
  0.145999998         3.19936174E-29
  0.148000002         3.71662109E-29
  0.150000006         4.25409848E-29
  0.151999995         4.79416535E-29
  0.153999999         5.29769041E-29
  0.156000003         5.68458205E-29
  0.158000007         5.87836972E-29
  0.159999996         5.80418169E-29
  0.162000000         5.35123005E-29
  0.164000005         4.47026667E-29
  0.165999994         3.11917084E-29
  0.167999998         1.20019267E-29
  0.170000002        -1.36730102E-29
  0.172000006        -4.64462321E-29
  0.173999995        -8.70284469E-29
  0.175999999        -1.35955861E-28
  0.178000003        -1.93193138E-28
  0.180000007        -2.57930288E-28
  0.181999996        -3.28699282E-28
  0.184000000        -4.03641044E-28
  0.186000004        -4.80376376E-28
  0.187999994        -5.55531604E-28
  0.189999998        -6.24716255E-28
  0.192000002        -6.82816699E-28
  0.194000006        -7.23673328E-28
  0.195999995        -7.40636149E-28
  0.197999999        -7.26436412E-28
  0.200000003        -6.73634057E-28
  0.202000007        -5.75332667E-28
  0.203999996        -4.24513238E-28
  0.206000000        -2.15970245E-28
  0.208000004         5.33333455E-29
  0.209999993         3.84978783E-28
  0.211999997         7.76957647E-28
  0.214000002         1.22281298E-27
  0.216000006         1.71274394E-27
  0.217999995         2.23263294E-27
  0.219999999         2.76343945E-27
  0.222000003         3.28183547E-27
  0.224000007         3.76081040E-27
  0.225999996         4.17037018E-27
  0.228000000         4.47890031E-27
  0.230000004         4.65504625E-27
  0.231999993         4.66966945E-27
  0.233999997         4.49798974E-27
  0.236000001         4.12183521E-27
  0.238000005         3.53339890E-27
  0.239999995         2.73683716E-27
  0.241999999         1.74931755E-27
  0.244000003         6.02359627E-28
  0.246000007        -6.57752309E-28
  0.247999996        -1.97174840E-27
  0.250000000        -3.27106374E-27
  0.252000004        -4.48236005E-27
  0.254000008        -5.53428950E-27
  0.256000012        -6.36635595E-27
  0.257999986        -6.93951001E-27
  0.259999990        -7.24654407E-27
  0.261999995        -7.32315294E-27
  0.263999999        -7.25863891E-27
  0.266000003        -7.20421367E-27
  0.268000007        -7.37703584E-27
  0.270000011        -8.05922642E-27
  0.272000015        -9.58944940E-27
  0.273999989        -1.23455838E-26
  0.275999993        -1.67171567E-26
  0.277999997        -2.30667366E-26
  0.280000001        -3.16796894E-26
  0.282000005        -4.27027479E-26
  0.284000009        -5.60745689E-26
  0.286000013        -7.14490181E-26
  0.287999988        -8.81173100E-26
  0.289999992        -1.04935917E-25
  0.291999996        -1.20267688E-25
  0.294000000        -1.31946329E-25
  0.296000004        -1.37274518E-25
  0.298000008        -1.33065945E-25
  0.300000012        -1.15744544E-25
  0.301999986        -8.15103473E-26
  0.303999990        -2.65805696E-26
  0.305999994         5.24901329E-26
  0.307999998         1.58407300E-25
  0.310000002         2.92661677E-25
  0.312000006         4.54994115E-25
  0.314000010         6.42821945E-25
  0.316000015         8.50662142E-25
  0.317999989         1.06959185E-24
  0.319999993         1.28680233E-24
  0.321999997         1.48530725E-24
  0.324000001         1.64387480E-24
  0.326000005         1.73725887E-24
  0.328000009         1.73680528E-24
  0.330000013         1.61149492E-24
  0.331999987         1.32949055E-24
  0.333999991         8.60213177E-25
  0.335999995         1.76961814E-25
  0.338000000        -7.39950099E-25
  0.340000004        -1.89961867E-24
  0.342000008        -3.29665801E-24
  0.344000012        -4.90718184E-24
  0.345999986        -6.68489882E-24
  0.347999990        -8.55763252E-24
  0.349999994        -1.04246407E-23
  0.351999998        -1.21551325E-23
  0.354000002        -1.35884462E-23
  0.356000006        -1.45363336E-23
  0.358000010        -1.47878019E-23
  0.360000014        -1.41168962E-23
  0.361999989        -1.22937038E-23
  0.363999993        -9.09875955E-24
  0.365999997        -4.34080258E-24
  0.368000001         2.12235828E-24
  0.370000005         1.03604282E-23
  0.372000009         2.03455037E-23
  0.374000013         3.19264693E-23
  0.375999987         4.48044122E-23
  0.377999991         5.85109745E-23
  0.379999995         7.23918657E-23
  0.381999999         8.55979589E-23
  0.384000003         9.70865442E-23
  0.386000007         1.05635386E-22
  0.388000011         1.09872130E-22
  0.389999986         1.08321015E-22
  0.391999990         9.94686769E-23
  0.393999994         8.18496327E-23
  0.395999998         5.41514957E-23
  0.398000002         1.53380198E-23
  0.400000006        -3.52129901E-23
  0.402000010        -9.75614574E-23
  0.404000014        -1.71053342E-22
  0.405999988        -2.54174089E-22
  0.407999992        -3.44416924E-22
  0.409999996        -4.38178482E-22
  0.412000000        -5.30694676E-22
  0.414000005        -6.16030846E-22
  0.416000009        -6.87139854E-22
  0.418000013        -7.36002731E-22
  0.419999987        -7.53861431E-22
  0.421999991        -7.31555777E-22
  0.423999995        -6.59966233E-22
  0.425999999        -5.30565075E-22
  0.428000003        -3.36067721E-22
  0.430000007        -7.11710940E-23
  0.432000011         2.66643973E-22
  0.433999985         6.76277454E-22
  0.435999990         1.15218353E-21
  0.437999994         1.68360214E-21
  0.439999998         2.25390662E-21
  0.442000002         2.84013352E-21
  0.444000006         3.41276343E-21
  0.446000010         3.93582512E-21
  0.448000014         4.36739085E-21
  0.449999988         4.66052783E-21
  0.451999992         4.76475581E-21
  0.453999996         4.62804483E-21
  0.456000000         4.19936656E-21
  0.458000004         3.43178132E-21
  0.460000008         2.28600813E-21
  0.462000012         7.34398453E-22
  0.463999987        -1.23483020E-21
  0.465999991        -3.61326547E-21
  0.467999995        -6.36809559E-21
  0.469999999        -9.43829316E-21
  0.472000003        -1.27314753E-20
  0.474000007        -1.61217614E-20
  0.476000011        -1.94489775E-20
  0.477999985        -2.25195220E-20
  0.479999989        -2.51092468E-20
  0.481999993        -2.69685970E-20
  0.483999997        -2.78302655E-20
  0.486000001        -2.74194476E-20
  0.488000005        -2.54668005E-20
  0.490000010        -2.17238518E-20
  0.492000014        -1.59807611E-20
  0.493999988        -8.08580681E-21
  0.495999992         2.03392181E-21
  0.497999996         1.43515352E-20
  0.500000000         2.87200340E-20
  0.501999974         4.48539269E-20
  0.504000008         6.23141393E-20
  0.505999982         8.04976306E-20
  0.508000016         9.86332683E-20
  0.509999990         1.15785472E-19
  0.512000024         1.30867069E-19
  0.513999999         1.42662548E-19
  0.515999973         1.49862612E-19
  0.518000007         1.51110789E-19
  0.519999981         1.45061953E-19
  0.522000015         1.30452341E-19
  0.523999989         1.06179850E-19
  0.526000023         7.13925693E-20
  0.527999997         2.55830000E-20
  0.529999971        -3.13160434E-20
  0.532000005        -9.88377047E-20
  0.533999979        -1.75895110E-19
  0.536000013        -2.60708821E-19
  0.537999988        -3.50753660E-19
  0.540000021        -4.42731672E-19
  0.541999996        -5.32577446E-19
  0.544000030        -6.15502250E-19
  0.546000004        -6.86081229E-19
  0.547999978        -7.38389805E-19
  0.550000012        -7.66189743E-19
  0.551999986        -7.63167328E-19
  0.554000020        -7.23221174E-19
  0.555999994        -6.40795727E-19
  0.558000028        -5.11252936E-19
  0.560000002        -3.31271360E-19
  0.561999977        -9.92595151E-20
  0.564000010         1.84234060E-19
  0.565999985         5.16133767E-19
  0.568000019         8.90495808E-19
  0.569999993         1.29823753E-18
  0.572000027         1.72696287E-18
  0.574000001         2.16090988E-18
  0.575999975         2.58104505E-18
  0.578000009         2.96532897E-18
  0.579999983         3.28916707E-18
  0.582000017         3.52606540E-18
  0.583999991         3.64849475E-18
  0.586000025         3.62895591E-18
  0.588000000         3.44124733E-18
  0.589999974         3.06189486E-18
  0.592000008         2.47172527E-18
  0.593999982         1.65752405E-18
  0.596000016         6.13723605E-19
  0.597999990        -6.55951744E-19
  0.600000024        -2.13696321E-18
  0.601999998        -3.80265226E-18
  0.603999972        -5.61324557E-18
  0.606000006        -7.51527087E-18
  0.607999980        -9.44148004E-18
  0.610000014        -1.13113748E-17
  0.611999989        -1.30324134E-17
  0.614000022        -1.45019584E-17
  0.615999997        -1.56100132E-17
  0.617999971        -1.62427534E-17
  0.620000005        -1.62868488E-17
  0.621999979        -1.56344961E-17
  0.624000013        -1.41890923E-17
  0.625999987        -1.18713628E-17
  0.628000021        -8.62581792E-18
  0.629999995        -4.42724724E-18
  0.632000029         7.12982539E-19
  0.634000003         6.74114645E-18
  0.635999978         1.35562304E-17
  0.638000011         2.10062053E-17
  0.639999986         2.88858749E-17
  0.642000020         3.69366220E-17
  0.643999994         4.48484027E-17
  0.646000028         5.22642456E-17
  0.648000002         5.87875210E-17
  0.649999976         6.39920157E-17
  0.652000010         6.74349995E-17
  0.653999984         6.86730572E-17
  0.656000018         6.72805218E-17
  0.657999992         6.28702132E-17
  0.660000026         5.51158714E-17
  0.662000000         4.37756520E-17
  0.663999975         2.87159489E-17
  0.666000009         9.93444826E-18
  0.667999983        -1.24185089E-17
  0.670000017        -3.80215256E-17
  0.671999991        -6.63678835E-17
  0.674000025        -9.67565934E-17
  0.675999999        -1.28290062E-16
  0.677999973        -1.59879467E-16
  0.680000007        -1.90258754E-16
  0.681999981        -2.18007977E-16
  0.684000015        -2.41586634E-16
  0.685999990        -2.59377000E-16
  0.688000023        -2.69737192E-16
  0.689999998        -2.71063566E-16
  0.691999972        -2.61860818E-16
  0.694000006        -2.40818799E-16
  0.695999980        -2.06893316E-16
  0.698000014        -1.59388612E-16
  0.699999988        -9.80384190E-17
  0.702000022        -2.30822153E-17
  0.703999996         6.46674914E-17
  0.705999970         1.63770101E-16
  0.708000004         2.72118810E-16
  0.709999979         3.86923168E-16
  0.712000012         5.04715699E-16
  0.713999987         6.21386229E-16
  0.716000021         7.32246695E-16
  0.717999995         8.32127656E-16
  0.720000029         9.15508044E-16
  0.722000003         9.76677269E-16
  0.723999977         1.00992850E-15
  0.726000011         1.00977889E-15
  0.727999985         9.71214330E-16
  0.730000019         8.89949989E-16
  0.731999993         7.62700547E-16
  0.734000027         5.87450701E-16
  0.736000001         3.63714889E-16
  0.737999976         9.27759753E-17
  0.740000010        -2.22110515E-16
  0.741999984        -5.75558305E-16
  0.744000018        -9.59951121E-16
  0.745999992        -1.36541415E-15
  0.748000026        -1.77986716E-15
  0.750000000        -2.18916788E-15
  0.751999974        -2.57735418E-15
  0.754000008        -2.92698630E-15
  0.755999982        -3.21959298E-15
  0.758000016        -3.43621637E-15
  0.759999990        -3.55805083E-15
  0.762000024        -3.56716067E-15
  0.763999999        -3.44726464E-15
  0.765999973        -3.18456478E-15
  0.768000007        -2.76859389E-15
  0.769999981        -2.19305449E-15
  0.772000015        -1.45661662E-15
  0.773999989        -5.63635417E-16
  0.776000023         4.75241599E-16
  0.777999997         1.64261690E-15
  0.779999971         2.91407519E-15
  0.782000005         4.25813415E-15
  0.783999979         5.63644819E-15
  0.786000013         7.00428612E-15
  0.787999988         8.31130412E-15
  0.790000021         9.50262462E-15
  0.791999996         1.05202119E-14
  0.794000030         1.13045441E-14
  0.796000004         1.17965499E-14
  0.797999978         1.19397815E-14
  0.800000012         1.16827638E-14
  0.801999986         1.09814662E-14
  0.804000020         9.80182376E-15
  0.805999994         8.12221502E-15
  0.808000028         5.93581843E-15
  0.810000002         3.25272870E-15
  0.811999977         1.01741316E-16
  0.814000010        -3.46829986E-15
  0.815999985        -7.38769601E-15
  0.818000019        -1.15657224E-14
  0.819999993        -1.58911733E-14
  0.822000027        -2.02336927E-14
  0.824000001        -2.44459367E-14
  0.825999975        -2.83665879E-14
  0.828000009        -3.18242306E-14
  0.829999983        -3.46420416E-14
  0.832000017        -3.66432145E-14
  0.833999991        -3.76570689E-14
  0.836000025        -3.75256500E-14
  0.838000000        -3.61106883E-14
  0.839999974        -3.33006904E-14
  0.842000008        -2.90179664E-14
  0.843999982        -2.32253249E-14
  0.846000016        -1.59321544E-14
  0.847999990        -7.19964453E-15
  0.850000024         2.85517781E-15
  0.851999998         1.40568226E-14
  0.853999972         2.61703806E-14
  0.856000006         3.89024885E-14
  0.857999980         5.19043799E-14
  0.860000014         6.47771428E-14
  0.861999989         7.70792596E-14
  0.864000022         8.83364630E-14
  0.865999997         9.80537808E-14
  0.867999971         1.05729587E-13
  0.870000005         1.10871564E-13
  0.871999979         1.13014016E-13
  0.874000013         1.11736331E-13
  0.875999987         1.06681862E-13
  0.878000021         9.75769216E-14
  0.879999995         8.42490547E-14
  0.882000029         6.66439153E-14
  0.884000003         4.48402471E-14
  0.885999978         1.90619852E-14
  0.888000011        -1.03130666E-14
  0.889999986        -4.27485738E-14
  0.892000020        -7.75498033E-14
  0.893999994        -1.13868862E-13
  0.896000028        -1.50715486E-13
  0.898000002        -1.86973633E-13
  0.899999976        -2.21423791E-13
  0.902000010        -2.52771220E-13
  0.903999984        -2.79679329E-13
  0.906000018        -3.00808071E-13
  0.907999992        -3.14856322E-13
  0.910000026        -3.20607554E-13
  0.912000000        -3.16977456E-13
  0.913999975        -3.03062019E-13
  0.916000009        -2.78185244E-13
  0.917999983        -2.41944106E-13
  0.920000017        -1.94249483E-13
  0.921999991        -1.35361449E-13
  0.924000025        -6.59168155E-14
  0.925999999         1.30522339E-14
  0.927999973         1.00110187E-13
  0.930000007         1.93422061E-13
  0.931999981         2.90770527E-13
  0.934000015         3.89586258E-13
  0.935999990         4.86992337E-13
  0.938000023         5.79863035E-13
  0.939999998         6.64895331E-13
  0.941999972         7.38693828E-13
  0.944000006         7.97865897E-13
  0.945999980         8.39126294E-13
  0.948000014         8.59408465E-13
  0.949999988         8.55979729E-13
  0.952000022         8.26557084E-13
  0.953999996         7.69420335E-13
  0.955999970         6.83518075E-13
  0.958000004         5.68564184E-13
  0.959999979         4.25118816E-13
  0.962000012         2.54652012E-13
  0.963999987         5.95852916E-14
  0.966000021        -1.56692164E-13
  0.967999995        -3.89834703E-13
  0.970000029        -6.34581363E-13
  0.972000003        -8.84828398E-13
  0.973999977        -1.13373406E-12
  0.976000011        -1.37385459E-12
  0.977999985        -1.59731050E-12
  0.980000019        -1.79598101E-12
  0.981999993        -1.96172267E-12
  0.984000027        -2.08660780E-12
  0.986000001        -2.16317827E-12
  0.987999976        -2.18470663E-12
  0.990000010        -2.14545937E-12
  0.991999984        -2.04095226E-12
  0.994000018        -1.86819245E-12
  0.995999992        -1.62589625E-12
  0.998000026        -1.31467677E-12
   1.00000000        -9.37189454E-13
   1.00199997        -4.98232748E-13
   1.00399995        -4.79378762E-15
   1.00600004         5.33966914E-13
   1.00800002         1.10679326E-12
   1.00999999         1.70048025E-12
   1.01199996         2.30008851E-12
   1.01400006         2.88922640E-12
   1.01600003         3.45039774E-12
   1.01800001         3.96540743E-12
   1.01999998         4.41582534E-12
   1.02199996         4.78348611E-12
   1.02400005         5.05102904E-12
   1.02600002         5.20245349E-12
   1.02800000         5.22368000E-12
   1.02999997         5.10310457E-12
   1.03199995         4.83211951E-12
   1.03400004         4.40559698E-12
   1.03600001         3.82230836E-12
   1.03799999         3.08526403E-12
   1.03999996         2.20196604E-12
   1.04200006         1.18454736E-12
   1.04400003         4.97967011E-14
   1.04600000        -1.18094803E-12
   1.04799998        -2.48203780E-12
   1.04999995        -3.82389259E-12
   1.05200005        -5.17351223E-12
   1.05400002        -6.49512692E-12
   1.05599999        -7.75096914E-12
   1.05799997        -8.90215419E-12
   1.05999994        -9.90965469E-12
   1.06200004        -1.07353579E-11
   1.06400001        -1.13431634E-11
   1.06599998        -1.17001062E-11
   1.06799996        -1.17774757E-11
   1.07000005        -1.15518992E-11
   1.07200003        -1.10063495E-11
   1.07400000        -1.01310531E-11
   1.07599998        -8.92426931E-12
   1.07799995        -7.39289793E-12
   1.08000004        -5.55289929E-12
   1.08200002        -3.42950516E-12
   1.08399999        -1.05718169E-12
   1.08599997         1.52064559E-12
   1.08800006         4.25212860E-12
   1.09000003         7.07779104E-12
   1.09200001         9.93157986E-12
   1.09399998         1.27421572E-11
   1.09599996         1.54344194E-11
   1.09800005         1.79311965E-11
   1.10000002         2.01551449E-11
   1.10200000         2.20307279E-11
   1.10399997         2.34862945E-11
   1.10599995         2.44561836E-11
   1.10800004         2.48827989E-11
   1.11000001         2.47185883E-11
   1.11199999         2.39279065E-11
   1.11399996         2.24886654E-11
   1.11600006         2.03937318E-11
   1.11800003         1.76520291E-11
   1.12000000         1.42892885E-11
   1.12199998         1.03484088E-11
   1.12399995         5.88940485E-12
   1.12600005         9.88911860E-13
   1.12800002        -4.26076232E-12
   1.13000000        -9.75303865E-12
   1.13199997        -1.53688971E-11
   1.13399994        -2.09791386E-11
   1.13600004        -2.64470078E-11
   1.13800001        -3.16311734E-11
   1.13999999        -3.63889474E-11
   1.14199996        -4.05797722E-11
   1.14400005        -4.40687382E-11
   1.14600003        -4.67302620E-11
   1.14800000        -4.84516281E-11
   1.14999998        -4.91364484E-11
   1.15199995        -4.87078676E-11
   1.15400004        -4.71114640E-11
   1.15600002        -4.43177266E-11
   1.15799999        -4.03240670E-11
   1.15999997        -3.51562356E-11
   1.16199994        -2.88691657E-11
   1.16400003        -2.15471044E-11
   1.16600001        -1.33030505E-11
   1.16799998        -4.27749286E-12
   1.16999996         5.36359715E-12
   1.17200005         1.54314617E-11
   1.17400002         2.57179156E-11
   1.17600000         3.59993355E-11
   1.17799997         4.60411570E-11
   1.17999995         5.56028626E-11
   1.18200004         6.44433049E-11
   1.18400002         7.23262353E-11
   1.18599999         7.90260288E-11
   1.18799996         8.43332834E-11
   1.19000006         8.80603507E-11
   1.19200003         9.00465258E-11
   1.19400001         9.01628772E-11
   1.19599998         8.83164306E-11
   1.19799995         8.44537842E-11
   1.20000005         7.85638499E-11
   1.20200002         7.06798370E-11
   1.20400000         6.08801898E-11
   1.20599997         4.92886218E-11
   1.20799994         3.60730612E-11
   1.21000004         2.14436056E-11
   1.21200001         5.64945920E-12
   1.21399999        -1.10251088E-11
   1.21599996        -2.82656988E-11
   1.21800005        -4.57335454E-11
   1.22000003        -6.30719851E-11
   1.22200000        -7.99135064E-11
   1.22399998        -9.58872357E-11
   1.22599995        -1.10626681E-10
   1.22800004        -1.23777655E-10
   1.23000002        -1.35006076E-10
   1.23199999        -1.44005530E-10
   1.23399997        -1.50504539E-10
   1.23599994        -1.54273108E-10
   1.23800004        -1.55128702E-10
   1.24000001        -1.52941271E-10
   1.24199998        -1.47637264E-10
   1.24399996        -1.39202733E-10
   1.24600005        -1.27685099E-10
   1.24800003        -1.13193822E-10
   1.25000000        -9.58997465E-11
   1.25199997        -7.60332561E-11
   1.25399995        -5.38812397E-11
   1.25600004        -2.97828776E-11
   1.25800002        -4.12431721E-12
   1.25999999         2.26675883E-11
   1.26199996         5.01324225E-11
   1.26400006         7.77840570E-11
   1.26600003         1.05119115E-10
   1.26800001         1.31625780E-10
   1.26999998         1.56792884E-10
   1.27199996         1.80119059E-10
   1.27400005         2.01121800E-10
   1.27600002         2.19346305E-10
   1.27800000         2.34373743E-10
   1.27999997         2.45829190E-10
   1.28199995         2.53388643E-10
   1.28400004         2.56785482E-10
   1.28600001         2.55815702E-10
   1.28799999         2.50342552E-10
   1.28999996         2.40299863E-10
   1.29200006         2.25694394E-10
   1.29400003         2.06607190E-10
   1.29600000         1.83193682E-10
   1.29799998         1.55682855E-10
   1.29999995         1.24375385E-10
   1.30200005         8.96406699E-11
   1.30400002         5.19130260E-11
   1.30599999         1.16870211E-11
   1.30799997        -3.04880426E-11
   1.30999994        -7.40144890E-11
   1.31200004        -1.18253116E-10
   1.31400001        -1.62530739E-10
   1.31599998        -2.06148404E-10
   1.31799996        -2.48389836E-10
   1.32000005        -2.88530477E-10
   1.32200003        -3.25846850E-10
   1.32400000        -3.59626273E-10
   1.32599998        -3.89176663E-10
   1.32799995        -4.13836770E-10
   1.33000004        -4.32986397E-10
   1.33200002        -4.46056636E-10
   1.33399999        -4.52540200E-10
   1.33599997        -4.52001492E-10
   1.33800006        -4.44086767E-10
   1.34000003        -4.28533514E-10
   1.34200001        -4.05179695E-10
   1.34399998        -3.73972325E-10
   1.34599996        -3.34975075E-10
   1.34800005        -2.88375018E-10
   1.35000002        -2.34488151E-10
   1.35200000        -1.73763531E-10
   1.35399997        -1.06785691E-10
   1.35599995        -3.42753326E-11
   1.35800004         4.29122848E-11
   1.36000001         1.23790950E-10
   1.36199999         2.07249926E-10
   1.36399996         2.92062707E-10
   1.36600006         3.76898845E-10
   1.36800003         4.60338295E-10
   1.37000000         5.40888889E-10
   1.37199998         6.17006612E-10
   1.37399995         6.87118529E-10
   1.37600005         7.49648454E-10
   1.37800002         8.03044631E-10
   1.38000000         8.45809645E-10
   1.38199997         8.76531514E-10
   1.38399994         8.93916163E-10
   1.38600004         8.96820451E-10
   1.38800001         8.84284368E-10
   1.38999999         8.55562898E-10
   1.39199996         8.10155665E-10
   1.39400005         7.47835072E-10
   1.39600003         6.68669842E-10
   1.39800000         5.73045500E-10
   1.39999998         4.61679334E-10
   1.40199995         3.35630412E-10
   1.40400004         1.96302585E-10
   1.40600002         4.54410988E-11
   1.40799999        -1.14878072E-10
   1.40999997        -2.82266960E-10
   1.41199994        -4.54051907E-10
   1.41400003        -6.27307817E-10
   1.41600001        -7.98899613E-10
   1.41799998        -9.65532099E-10
   1.41999996        -1.12380516E-09
   1.42200005        -1.27027600E-09
   1.42400002        -1.40152634E-09
   1.42600000        -1.51423285E-09
   1.42799997        -1.60524050E-09
   1.42999995        -1.67163761E-09
   1.43200004        -1.71082959E-09
   1.43400002        -1.72061032E-09
   1.43599999        -1.69923087E-09
   1.43799996        -1.64546154E-09
   1.44000006        -1.55864621E-09
   1.44200003        -1.43874923E-09
   1.44400001        -1.28638911E-09
   1.44599998        -1.10286269E-09
   1.44799995        -8.90154228E-10
   1.45000005        -6.50930643E-10
   1.45200002        -3.88522520E-10
   1.45400000        -1.06888678E-10
   1.45599997         1.89434371E-10
   1.45799994         4.95397834E-10
   1.46000004         8.05521039E-10
   1.46200001         1.11398502E-09
   1.46399999         1.41473799E-09
   1.46599996         1.70161096E-09
   1.46800005         1.96844274E-09
   1.47000003         2.20920904E-09
   1.47200000         2.41815501E-09
   1.47399998         2.58993027E-09
   1.47599995         2.71971734E-09
   1.47800004         2.80335777E-09
   1.48000002         2.83746737E-09
   1.48199999         2.81953971E-09
   1.48399997         2.74803558E-09
   1.48599994         2.62245381E-09
   1.48800004         2.44338283E-09
   1.49000001         2.21253083E-09
   1.49199998         1.93273086E-09
   1.49399996         1.60792157E-09
   1.49600005         1.24310462E-09
   1.49800003         8.44274262E-10
   1.50000000         4.18323154E-10
   1.50199997        -2.70744833E-11
   1.50399995        -4.83602935E-10
   1.50600004        -9.42464107E-10
   1.50800002        -1.39455192E-09
   1.50999999        -1.83064086E-09
   1.51199996        -2.24158359E-09
   1.51400006        -2.61851296E-09
   1.51600003        -2.95304514E-09
   1.51800001        -3.23747806E-09
   1.51999998        -3.46497986E-09
   1.52199996        -3.62976560E-09
   1.52400005        -3.72725406E-09
   1.52600002        -3.75420184E-09
   1.52800000        -3.70881126E-09
   1.52999997        -3.59080943E-09
   1.53199995        -3.40149131E-09
   1.53400004        -3.14373261E-09
   1.53600001        -2.82196111E-09
   1.53799999        -2.44209564E-09
   1.53999996        -2.01144523E-09
   1.54200006        -1.53857604E-09
   1.54400003        -1.03314268E-09
   1.54600000        -5.05689990E-10
   1.54799998         3.25696657E-11
   1.54999995         5.70003711E-10
   1.55200005         1.09482090E-09
   1.55400002         1.59534475E-09
   1.55599999         2.06029016E-09
   1.55799997         2.47903920E-09
   1.55999994         2.84190760E-09
   1.56200004         3.14039461E-09
   1.56400001         3.36741190E-09
   1.56599998         3.51748342E-09
   1.56799996         3.58691143E-09
   1.57000005         3.57390317E-09
   1.57200003         3.47865536E-09
   1.57400000         3.30339067E-09
   1.57599998         3.05234660E-09
   1.57799995         2.73171352E-09
   1.58000004         2.34952324E-09
   1.58200002         1.91548954E-09
   1.58399999         1.44080337E-09
   1.58599997         9.37883216E-10
   1.58800006         4.20091989E-10
   1.59000003        -9.85790893E-11
   1.59200001        -6.03851025E-10
   1.59399998        -1.08151377E-09
   1.59599996        -1.51778989E-09
   1.59800005        -1.89969951E-09