  -1.99999996E-02   0.00000000    
  -1.79999992E-02   0.00000000    
  -1.60000008E-02   0.00000000    
  -1.40000004E-02   0.00000000    
  -1.20000001E-02   0.00000000    
  -9.99999978E-03   0.00000000    
  -8.00000038E-03   0.00000000    
  -6.00000005E-03   0.00000000    
  -4.00000019E-03   0.00000000    
  -2.00000009E-03   0.00000000    
   0.00000000       0.00000000    
   2.00000009E-03   0.00000000    
   4.00000019E-03   0.00000000    
   6.00000005E-03   0.00000000    
   8.00000038E-03   0.00000000    
   9.99999978E-03   0.00000000    
   1.20000001E-02   0.00000000    
   1.40000004E-02   0.00000000    
   1.60000008E-02   0.00000000    
   1.79999992E-02   0.00000000    
   1.99999996E-02   0.00000000    
   2.19999999E-02   0.00000000    
   2.40000002E-02   0.00000000    
   2.60000005E-02   0.00000000    
   2.80000009E-02   0.00000000    
   2.99999993E-02   0.00000000    
   3.20000015E-02   0.00000000    
   3.40000018E-02   0.00000000    
   3.59999985E-02   0.00000000    
   3.79999988E-02   0.00000000    
   3.99999991E-02   0.00000000    
   4.19999994E-02   0.00000000    
   4.39999998E-02   0.00000000    
   4.60000001E-02   0.00000000    
   4.80000004E-02   0.00000000    
   5.00000007E-02   1.34046558E-38
   5.20000011E-02   2.27002434E-38
   5.40000014E-02   3.12122193E-38
   5.60000017E-02   3.61140650E-38
   5.79999983E-02   5.19627927E-38
   5.99999987E-02   1.05528749E-37
   6.19999990E-02   1.87404612E-37
   6.40000030E-02   3.17876037E-37
   6.59999996E-02   5.99255132E-37
   6.80000037E-02   1.05403016E-36
   7.00000003E-02   1.79918526E-36
   7.19999969E-02   3.39897879E-36
   7.40000010E-02   6.03290907E-36
   7.59999976E-02   1.03544680E-35
   7.80000016E-02   1.55819267E-35
   7.99999982E-02   2.05235746E-35
   8.20000023E-02   2.48746371E-35
   8.39999989E-02   2.57783931E-35
   8.60000029E-02   2.40773558E-35
   8.79999995E-02   1.90157463E-35
   9.00000036E-02   5.08977323E-36
   9.20000002E-02  -1.88123005E-35
   9.39999968E-02  -5.15227611E-35
   9.60000008E-02  -1.01019562E-34
   9.79999974E-02  -1.60062049E-34
  0.100000001      -2.17644845E-34
  0.101999998      -2.20340768E-34
  0.104000002      -1.51845573E-34
  0.105999999      -5.07516988E-35
  0.108000003       2.24350283E-34
  0.109999999       7.91051219E-34
  0.112000003       1.49781821E-33
  0.114000000       2.39764940E-33
  0.115999997       3.76314313E-33
  0.118000001       5.40191890E-33
  0.119999997       6.40490138E-33
  0.122000001       6.38683697E-33
  0.123999998       5.94445950E-33
  0.126000002       5.89078790E-33
  0.128000006       6.49454751E-33
  0.129999995       2.85937091E-33
  0.131999999      -6.87040449E-33
  0.134000003      -1.98388387E-32
  0.136000007      -4.54466335E-32
  0.137999997      -8.81982874E-32
  0.140000001      -1.38711672E-31
  0.142000005      -2.02229391E-31
  0.143999994      -2.87723025E-31
  0.145999998      -3.92045680E-31
  0.148000002      -5.24311764E-31
  0.150000006      -6.71958979E-31
  0.151999995      -8.18536495E-31
  0.153999999      -9.62655582E-31
  0.156000003      -1.08991940E-30
  0.158000007      -1.17245932E-30
  0.159999996      -1.21561557E-30
  0.162000000      -1.21359842E-30
  0.164000005      -1.14535477E-30
  0.165999994      -8.83899435E-31
  0.167999998      -4.60506495E-31
  0.170000002       6.30997080E-32
  0.172000006       6.22190382E-31
  0.173999995       1.00954897E-30
  0.175999999       1.51282766E-30
  0.178000003       2.19906631E-30
  0.180000007       2.69520373E-30
  0.181999996       2.82066396E-30
  0.184000000       3.28819022E-30
  0.186000004       4.50790423E-30
  0.187999994       5.82288180E-30
  0.189999998       6.74116181E-30
  0.192000002       7.42642950E-30
  0.194000006       8.46480968E-30
  0.195999995       9.00717036E-30
  0.197999999       8.22049418E-30
  0.200000003       5.90059420E-30
  0.202000007       2.41773214E-30
  0.203999996      -1.08149740E-30
  0.206000000      -5.52958975E-30
  0.208000004      -1.05979027E-29
  0.209999993      -1.35444650E-29
  0.211999997      -1.82127536E-29
  0.214000002      -2.69264416E-29
  0.216000006      -3.26848006E-29
  0.217999995      -3.15005794E-29
  0.219999999      -2.45607541E-29
  0.222000003      -6.15063595E-30
  0.224000007       2.98831563E-29
  0.225999996       7.62647374E-29
  0.228000000       1.33883006E-28
  0.230000004       2.15248744E-28
  0.231999993       3.12764427E-28
  0.233999997       4.27200151E-28
  0.236000001       5.56977688E-28
  0.238000005       7.08461178E-28
  0.239999995       8.73005747E-28
  0.241999999       1.02438923E-27
  0.244000003       1.17110215E-27
  0.246000007       1.29210861E-27
  0.247999996       1.37930914E-27
  0.250000000       1.45233510E-27
  0.252000004       1.49592516E-27
  0.254000008       1.41282870E-27
  0.256000012       1.26492132E-27
  0.257999986       1.13187413E-27
  0.259999990       9.49194284E-28
  0.261999995       6.05042881E-28
  0.263999999       1.36058043E-28
  0.266000003      -4.72380204E-28
  0.268000007      -1.45944179E-27
  0.270000011      -2.57581940E-27
  0.272000015      -3.28523551E-27
  0.273999989      -3.48234558E-27
  0.275999993      -3.22088788E-27
  0.277999997      -2.49142284E-27
  0.280000001      -9.64739813E-28
  0.282000005       1.83628445E-27
  0.284000009       5.99670490E-27
  0.286000013       1.17702323E-26
  0.287999988       1.95427732E-26
  0.289999992       2.94503131E-26
  0.291999996       4.13811563E-26
  0.294000000       5.50571664E-26
  0.296000004       7.08856296E-26
  0.298000008       8.69362990E-26
  0.300000012       1.02311364E-25
  0.301999986       1.17648423E-25
  0.303999990       1.31499341E-25
  0.305999994       1.41778704E-25
  0.307999998       1.46379107E-25
  0.310000002       1.42051317E-25
  0.312000006       1.24355750E-25
  0.314000010       9.41703384E-26
  0.316000015       5.22904525E-26
  0.317999989      -5.81624988E-27
  0.319999993      -8.26446923E-26
  0.321999997      -1.77959637E-25
  0.324000001      -2.93219475E-25
  0.326000005      -4.26228844E-25
  0.328000009      -5.75569581E-25
  0.330000013      -7.37694845E-25
  0.331999987      -9.09950857E-25
  0.333999991      -1.08669228E-24
  0.335999995      -1.25752189E-24
  0.338000000      -1.42088394E-24
  0.340000004      -1.55095300E-24
  0.342000008      -1.62195857E-24
  0.344000012      -1.60815360E-24
  0.345999986      -1.46968820E-24
  0.347999990      -1.18718892E-24
  0.349999994      -7.62490321E-25
  0.351999998      -1.82832308E-25
  0.354000002       5.72067088E-25
  0.356000006       1.52596011E-24
  0.358000010       2.69703714E-24
  0.360000014       4.03824090E-24
  0.361999989       5.51652167E-24
  0.363999993       7.10657100E-24
  0.365999997       8.74436457E-24
  0.368000001       1.03768901E-23
  0.370000005       1.19264433E-23
  0.372000009       1.32673609E-23
  0.374000013       1.42978609E-23
  0.375999987       1.49107080E-23
  0.377999991       1.49170047E-23
  0.379999995       1.40688672E-23
  0.381999999       1.21988307E-23
  0.384000003       9.22414268E-24
  0.386000007       4.95486414E-24
  0.388000011      -7.38159582E-25
  0.389999986      -7.80103603E-24
  0.391999990      -1.64158263E-23
  0.393999994      -2.65439325E-23
  0.395999998      -3.78262496E-23
  0.398000002      -5.01848222E-23
  0.400000006      -6.34822876E-23
  0.402000010      -7.70680123E-23
  0.404000014      -9.03508900E-23
  0.405999988      -1.02805735E-22
  0.407999992      -1.13599858E-22
  0.409999996      -1.21682211E-22
  0.412000000      -1.26196755E-22
  0.414000005      -1.26155141E-22
  0.416000009      -1.20110926E-22
  0.418000013      -1.06729422E-22
  0.419999987      -8.49981154E-23
  0.421999991      -5.44240250E-23
  0.423999995      -1.39080848E-23
  0.425999999       3.69687357E-23
  0.428000003       9.79933619E-23
  0.430000007       1.68483044E-22
  0.432000011       2.47730269E-22
  0.433999985       3.34567901E-22
  0.435999990       4.26019220E-22
  0.437999994       5.19003176E-22
  0.439999998       6.10144051E-22
  0.442000002       6.94753005E-22
  0.444000006       7.66945264E-22
  0.446000010       8.21042745E-22
  0.448000014       8.51240946E-22
  0.449999988       8.51182482E-22
  0.451999992       8.13522086E-22
  0.453999996       7.30263812E-22
  0.456000000       5.94616693E-22
  0.458000004       4.02695746E-22
  0.460000008       1.51927416E-22
  0.462000012      -1.58990346E-22
  0.463999987      -5.33512512E-22
  0.465999991      -9.68526109E-22
  0.467999995      -1.45271465E-21
  0.469999999      -1.98020193E-21
  0.472000003      -2.53999560E-21
  0.474000007      -3.11175512E-21
  0.476000011      -3.67411575E-21
  0.477999985      -4.19762091E-21
  0.479999989      -4.65219261E-21
  0.481999993      -5.01187279E-21
  0.483999997      -5.24528272E-21
  0.486000001      -5.31360711E-21
  0.488000005      -5.17213823E-21
  0.490000010      -4.78942179E-21
  0.492000014      -4.13845852E-21
  0.493999988      -3.19286567E-21
  0.495999992      -1.92889976E-21
  0.497999996      -3.31017471E-22
  0.500000000       1.60988048E-21
  0.501999974       3.87820520E-21
  0.504000008       6.44539981E-21
  0.505999982       9.27748731E-21
  0.508000016       1.23141828E-20
  0.509999990       1.54655423E-20
  0.512000024       1.86069464E-20
  0.513999999       2.16331479E-20
  0.515999973       2.44230876E-20
  0.518000007       2.68033531E-20
  0.519999981       2.85992495E-20
  0.522000015       2.96518820E-20
  0.523999989       2.97812647E-20
  0.526000023       2.88039960E-20
  0.527999997       2.65595707E-20
  0.529999971       2.29206319E-20
  0.532000005       1.77859632E-20
  0.533999979       1.10802539E-20
  0.536000013       2.76159195E-21
  0.537999988      -7.15028331E-21
  0.540000021      -1.85464007E-20
  0.541999996      -3.12973220E-20
  0.544000030      -4.51943408E-20
  0.546000004      -5.99339981E-20
  0.547999978      -7.51143715E-20
  0.550000012      -9.02059263E-20
  0.551999986      -1.04638238E-19
  0.554000020      -1.17918525E-19
  0.555999994      -1.29428899E-19
  0.558000028      -1.38332399E-19
  0.560000002      -1.43855084E-19
  0.561999977      -1.45275960E-19
  0.564000010      -1.41845190E-19
  0.565999985      -1.32829723E-19
  0.568000019      -1.17717469E-19
  0.569999993      -9.60609627E-20
  0.572000027      -6.74810196E-20
  0.574000001      -3.18042868E-20
  0.575999975       1.07809050E-20
  0.578000009       6.00154754E-20
  0.579999983       1.15138462E-19
  0.582000017       1.75416535E-19
  0.583999991       2.39767038E-19
  0.586000025       3.06191399E-19
  0.588000000       3.72899974E-19
  0.589999974       4.37987740E-19
  0.592000008       4.98798440E-19
  0.593999982       5.52425644E-19
  0.596000016       5.96029798E-19
  0.597999990       6.26385362E-19
  0.600000024       6.40421273E-19
  0.601999998       6.35048321E-19
  0.603999972       6.07307165E-19
  0.606000006       5.55062851E-19
  0.607999980       4.76712407E-19
  0.610000014       3.70854614E-19
  0.611999989       2.36772696E-19
  0.614000022       7.38883477E-20
  0.615999997      -1.16618210E-19
  0.617999971      -3.32037846E-19
  0.620000005      -5.69059213E-19
  0.621999979      -8.22673719E-19
  0.624000013      -1.08752558E-18
  0.625999987      -1.35689498E-18
  0.628000021      -1.62201640E-18
  0.629999995      -1.87344229E-18
  0.632000029      -2.10165707E-18
  0.634000003      -2.29614006E-18
  0.635999978      -2.44635399E-18
  0.638000011      -2.54089473E-18
  0.639999986      -2.56876617E-18
  0.642000020      -2.52006695E-18
  0.643999994      -2.38502702E-18
  0.646000028      -2.15707693E-18
  0.648000002      -1.83196311E-18
  0.649999976      -1.40442622E-18
  0.652000010      -8.72329578E-19
  0.653999984      -2.38624029E-19
  0.656000018       4.91514701E-19
  0.657999992       1.31074678E-18
  0.660000026       2.20504224E-18
  0.662000000       3.15433953E-18
  0.663999975       4.13837178E-18
  0.666000009       5.13221481E-18
  0.667999983       6.10950265E-18
  0.670000017       7.03759806E-18
  0.671999991       7.87601178E-18
  0.674000025       8.58926729E-18
  0.675999999       9.14106211E-18
  0.677999973       9.49059555E-18
  0.680000007       9.59815963E-18
  0.681999981       9.42943299E-18
  0.684000015       8.95138215E-18
  0.685999990       8.13706419E-18
  0.688000023       6.96883536E-18
  0.689999998       5.43694567E-18
  0.691999972       3.52818629E-18
  0.694000006       1.25070019E-18
  0.695999980      -1.37080940E-18
  0.698000014      -4.30031183E-18
  0.699999988      -7.48353692E-18
  0.702000022      -1.08554940E-17
  0.703999996      -1.43359565E-17
  0.705999970      -1.78379001E-17
  0.708000004      -2.12613558E-17
  0.709999979      -2.44949686E-17
  0.712000012      -2.74158724E-17
  0.713999987      -2.99025163E-17
  0.716000021      -3.18225414E-17
  0.717999995      -3.30296362E-17
  0.720000029      -3.33920075E-17
  0.722000003      -3.28045438E-17
  0.723999977      -3.11687147E-17
  0.726000011      -2.83793823E-17
  0.727999985      -2.43673379E-17
  0.730000019      -1.91026030E-17
  0.731999993      -1.25861039E-17
  0.734000027      -4.84841576E-18
  0.736000001       4.07205051E-18
  0.737999976       1.40498364E-17
  0.740000010       2.49109875E-17
  0.741999984       3.64663863E-17
  0.744000018       4.84446928E-17
  0.745999992       6.05335338E-17
  0.748000026       7.23903341E-17
  0.750000000       8.36179941E-17
  0.751999974       9.37910980E-17
  0.754000008       1.02450647E-16
  0.755999982       1.09138660E-16
  0.758000016       1.13394127E-16
  0.759999990       1.14748930E-16
  0.762000024       1.12804063E-16
  0.763999999       1.07154585E-16
  0.765999973       9.74548000E-17
  0.768000007       8.35100635E-17
  0.769999981       6.51859086E-17
  0.772000015       4.24609312E-17
  0.773999989       1.54384758E-17
  0.776000023      -1.56059484E-17
  0.777999997      -5.02184824E-17
  0.779999971      -8.78180665E-17
  0.782000005      -1.27607287E-16
  0.783999979      -1.68688597E-16
  0.786000013      -2.09971765E-16
  0.787999988      -2.50121047E-16
  0.790000021      -2.87755515E-16
  0.791999996      -3.21379176E-16
  0.794000030      -3.49417687E-16
  0.796000004      -3.70295011E-16
  0.797999978      -3.82358904E-16
  0.800000012      -3.84079228E-16
  0.801999986      -3.74081857E-16
  0.804000020      -3.51171813E-16
  0.805999994      -3.14436100E-16
  0.808000028      -2.63278672E-16
  0.810000002      -1.97423726E-16
  0.811999977      -1.17022062E-16
  0.814000010      -2.27267724E-17
  0.815999985       8.43302164E-17
  0.818000019       2.02449927E-16
  0.819999993       3.29196364E-16
  0.822000027       4.61580493E-16
  0.824000001       5.96255608E-16
  0.825999975       7.29183347E-16
  0.828000009       8.55899371E-16
  0.829999983       9.71616459E-16
  0.832000017       1.07141812E-15
  0.833999991       1.15022077E-15
  0.836000025       1.20286662E-15
  0.838000000       1.22452599E-15
  0.839999974       1.21070739E-15
  0.842000008       1.15746142E-15
  0.843999982       1.06164336E-15
  0.846000016       9.21098038E-16
  0.847999990       7.34744648E-16
  0.850000024       5.02914377E-16
  0.851999998       2.27427526E-16
  0.853999972      -8.83614778E-17
  0.856000006      -4.39439317E-16
  0.857999980      -8.19242008E-16
  0.860000014      -1.21922018E-15
  0.861999989      -1.62915480E-15
  0.864000022      -2.03772537E-15
  0.865999997      -2.43240673E-15
  0.867999971      -2.79956417E-15
  0.870000005      -3.12480110E-15
  0.871999979      -3.39342320E-15
  0.874000013      -3.59096992E-15
  0.875999987      -3.70351604E-15
  0.878000021      -3.71801258E-15
  0.879999995      -3.62332277E-15
  0.882000029      -3.41027005E-15
  0.884000003      -3.07220459E-15
  0.885999978      -2.60567769E-15
  0.888000011      -2.01058623E-15
  0.889999986      -1.29089272E-15
  0.892000020      -4.54657163E-16
  0.893999994       4.85789489E-16
  0.896000028       1.51373967E-15
  0.898000002       2.60849619E-15
  0.899999976       3.74528069E-15
  0.902000010       4.89557261E-15
  0.903999984       6.02764697E-15
  0.906000018       7.10705790E-15
  0.907999992       8.09729616E-15
  0.910000026       8.96130280E-15
  0.912000000       9.66256985E-15
  0.913999975       1.01646520E-14
  0.916000009       1.04340161E-14
  0.917999983       1.04412828E-14
  0.920000017       1.01605066E-14
  0.921999991       9.57202711E-15
  0.924000025       8.66339369E-15
  0.925999999       7.42958263E-15
  0.927999973       5.87432765E-15
  0.930000007       4.00992512E-15
  0.931999981       1.85865075E-15
  0.934000015      -5.46558279E-16
  0.935999990      -3.16360030E-15
  0.938000023      -5.94118311E-15
  0.939999998      -8.81999992E-15
  0.941999972      -1.17325303E-14
  0.944000006      -1.46054518E-14
  0.945999980      -1.73596861E-14
  0.948000014      -1.99128569E-14
  0.949999988      -2.21821954E-14
  0.952000022      -2.40850989E-14
  0.953999996      -2.55431408E-14
  0.955999970      -2.64826562E-14
  0.958000004      -2.68373885E-14
  0.959999979      -2.65517317E-14
  0.962000012      -2.55816452E-14
  0.963999987      -2.38977336E-14
  0.966000021      -2.14860935E-14
  0.967999995      -1.83493035E-14
  0.970000029      -1.45086037E-14
  0.972000003      -1.00047212E-14
  0.973999977      -4.89627226E-15
  0.976000011       7.39594706E-16
  0.977999985       6.80545572E-15
  0.980000019       1.31888027E-14
  0.981999993       1.97630845E-14
  0.984000027       2.63866636E-14
  0.986000001       3.29077890E-14
  0.987999976       3.91688228E-14
  0.990000010       4.50070143E-14
  0.991999984       5.02589235E-14
  0.994000018       5.47655623E-14
  0.995999992       5.83748477E-14
  0.998000026       6.09464871E-14
   1.00000000       6.23545608E-14
   1.00199997       6.24900048E-14
   1.00399995       6.12675736E-14
   1.00600004       5.86261522E-14
   1.00800002       5.45303650E-14
   1.00999999       4.89750689E-14
   1.01199996       4.19861357E-14
   1.01400006       3.36225561E-14
   1.01600003       2.39749067E-14
   1.01800001       1.31635095E-14
   1.01999998       1.34013064E-15
   1.02199996      -1.13129627E-14
   1.02400005      -2.45879892E-14
   1.02600002      -3.82519469E-14
   1.02800000      -5.20579233E-14
   1.02999997      -6.57399618E-14
   1.03199995      -7.90165866E-14
   1.03400004      -9.16011516E-14
   1.03600001      -1.03207089E-13
   1.03799999      -1.13553142E-13
   1.03999996      -1.22365198E-13
   1.04200006      -1.29384391E-13
   1.04400003      -1.34365270E-13
   1.04600000      -1.37093069E-13
   1.04799998      -1.37382429E-13
   1.04999995      -1.35076873E-13
   1.05200005      -1.30064240E-13
   1.05400002      -1.22278503E-13
   1.05599999      -1.11693363E-13
   1.05799997      -9.83287074E-14
   1.05999994      -8.22564673E-14
   1.06200004      -6.36033178E-14
   1.06400001      -4.25466445E-14
   1.06599998      -1.93107401E-14
   1.06799996       5.82667527E-15
   1.07000005       3.25391942E-14
   1.07200003       6.04482352E-14
   1.07400000       8.91350795E-14
   1.07599998       1.18144820E-13
   1.07799995       1.46987836E-13
   1.08000004       1.75150733E-13
   1.08200002       2.02088875E-13
   1.08399999       2.27244696E-13
   1.08599997       2.50053667E-13
   1.08800006       2.69962492E-13
   1.09000003       2.86431523E-13
   1.09200001       2.98917087E-13
   1.09399998       3.06926305E-13
   1.09599996       3.10015414E-13
   1.09800005       3.07782554E-13
   1.10000002       2.99887854E-13
   1.10200000       2.86075851E-13
   1.10399997       2.66180307E-13
   1.10599995       2.40120369E-13
   1.10800004       2.07921720E-13
   1.11000001       1.69713608E-13
   1.11199999       1.25749143E-13
   1.11399996       7.64128276E-14
   1.11600006       2.22106252E-14
   1.11800003      -3.62207585E-14
   1.12000000      -9.81209132E-14
   1.12199998      -1.62607531E-13
   1.12399995      -2.28686319E-13
   1.12600005      -2.95256305E-13
   1.12800002      -3.61124542E-13
   1.13000000      -4.25024355E-13
   1.13199997      -4.85635620E-13
   1.13399994      -5.41604359E-13
   1.13600004      -5.91545096E-13
   1.13800001      -6.34085286E-13
   1.13999999      -6.67925893E-13
   1.14199996      -6.91844531E-13
   1.14400005      -7.04700404E-13
   1.14600003      -7.05485692E-13
   1.14800000      -6.93372931E-13
   1.14999998      -6.67717888E-13
   1.15199995      -6.28090733E-13
   1.15400004      -5.74337236E-13
   1.15600002      -5.06543375E-13
   1.15799999      -4.25088187E-13
   1.15999997      -3.30664885E-13
   1.16199994      -2.24241768E-13
   1.16400003      -1.07093093E-13
   1.16600001       1.91957605E-14
   1.16799998       1.52767298E-13
   1.16999996       2.91514263E-13
   1.17200005       4.33089789E-13
   1.17400002       5.74957887E-13
   1.17600000       7.14432148E-13
   1.17799997       8.48703757E-13
   1.17999995       9.74915244E-13
   1.18200004       1.09020464E-12
   1.18400002       1.19178777E-12
   1.18599999       1.27701387E-12
   1.18799996       1.34342364E-12
   1.19000006       1.38880433E-12
   1.19200003       1.41124981E-12
   1.19400001       1.40922582E-12
   1.19599998       1.38160197E-12
   1.19799995       1.32769891E-12
   1.20000005       1.24739509E-12
   1.20200002       1.14104939E-12
   1.20400000       1.00952157E-12
   1.20599997       8.54239043E-13
   1.20799994       6.77088431E-13
   1.21000004       4.80516505E-13
   1.21200001       2.67426489E-13
   1.21399999       4.11308899E-14
   1.21599996      -1.94658553E-13
   1.21800005      -4.35954034E-13
   1.22000003      -6.78522342E-13
   1.22200000      -9.17973922E-13
   1.22399998      -1.14989897E-12
   1.22599995      -1.36990365E-12
   1.22800004      -1.57368107E-12
   1.23000002      -1.75716017E-12
   1.23199999      -1.91654136E-12
   1.23399997      -2.04843564E-12
   1.23599994      -2.14994277E-12
   1.23800004      -2.21864953E-12
   1.24000001      -2.25275007E-12
   1.24199998      -2.25105958E-12
   1.24399996      -2.21304182E-12
   1.24600005      -2.13888325E-12
   1.24800003      -2.02941310E-12
   1.25000000      -1.88609198E-12
   1.25199997      -1.71106250E-12
   1.25399995      -1.50700405E-12
   1.25600004      -1.27719591E-12
   1.25800002      -1.02532837E-12
   1.25999999      -7.55435536E-13
   1.26199996      -4.71874167E-13
   1.26400006      -1.79191907E-13
   1.26600003       1.17932397E-13
   1.26800001       4.14936884E-13
   1.26999998       7.07260585E-13
   1.27199996       9.90489266E-13
   1.27400005       1.26046775E-12
   1.27600002       1.51340442E-12
   1.27800000       1.74601501E-12
   1.27999997       1.95552277E-12
   1.28199995       2.13957649E-12
   1.28400004       2.29637490E-12
   1.28600001       2.42468740E-12
   1.28799999       2.52379758E-12
   1.28999996       2.59358680E-12
   1.29200006       2.63438446E-12
   1.29400003       2.64698810E-12
   1.29600000       2.63259141E-12
   1.29799998       2.59272747E-12
   1.29999995       2.52921664E-12
   1.30200005       2.44405256E-12
   1.30400002       2.33934291E-12
   1.30599999       2.21731292E-12
   1.30799997       2.07996576E-12
   1.30999994       1.92902552E-12
   1.31200004       1.76618984E-12
   1.31400001       1.59310293E-12
   1.31599998       1.41089516E-12
   1.31799996       1.22041624E-12
   1.32000005       1.02230995E-12
   1.32200003       8.16642544E-13
   1.32400000       6.03179561E-13
   1.32599998       3.81494451E-13
   1.32799995       1.50716530E-13
   1.33000004      -9.01554290E-14
   1.33200002      -3.42192664E-13
   1.33399999      -6.06619355E-13
   1.33599997      -8.84427514E-13
   1.33800006      -1.17690482E-12
   1.34000003      -1.48500916E-12
   1.34200001      -1.80918214E-12
   1.34399998      -2.14979033E-12
   1.34599996      -2.50669646E-12
   1.34800005      -2.87921033E-12
   1.35000002      -3.26624209E-12
   1.35200000      -3.66606051E-12
   1.35399997      -4.07621419E-12
   1.35599995      -4.49381157E-12
   1.35800004      -4.91528823E-12
   1.36000001      -5.33635072E-12
   1.36199999      -5.75210929E-12
   1.36399996      -6.15769848E-12
   1.36600006      -6.54773718E-12
   1.36800003      -6.91613477E-12
   1.37000000      -7.25691382E-12
   1.37199998      -7.56371007E-12
   1.37399995      -7.83040126E-12
   1.37600005      -8.05118125E-12
   1.37800002      -8.22070970E-12
   1.38000000      -8.33372954E-12
   1.38199997      -8.38521440E-12
   1.38399994      -8.37124727E-12
   1.38600004      -8.28872214E-12
   1.38800001      -8.13529365E-12
   1.38999999      -7.90954368E-12
   1.39199996      -7.61123109E-12
   1.39400005      -7.24118638E-12
   1.39600003      -6.80119806E-12
   1.39800000      -6.29398183E-12
   1.39999998      -5.72377735E-12
   1.40199995      -5.09568256E-12
   1.40400004      -4.41584356E-12
   1.40600002      -3.69144255E-12
   1.40799999      -2.93064878E-12
   1.40999997      -2.14205455E-12
   1.41199994      -1.33490539E-12
   1.41400003      -5.19531304E-13
   1.41600001       2.93527247E-13
   1.41799998       1.09356079E-12
   1.41999996       1.87010130E-12
   1.42200005       2.61246276E-12
   1.42400002       3.30942478E-12
   1.42600000       3.95063669E-12
   1.42799997       4.52631335E-12
   1.42999995       5.02720782E-12
   1.43200004       5.44470068E-12
   1.43400002       5.77101908E-12
   1.43599999       5.99993796E-12
   1.43799996       6.12508308E-12
   1.44000006       6.14208771E-12
   1.44200003       6.04820881E-12
   1.44400001       5.84137036E-12
   1.44599998       5.52152638E-12
   1.44799995       5.08967478E-12
   1.45000005       4.54862190E-12
   1.45200002       3.90263342E-12
   1.45400000       3.15696731E-12
   1.45599997       2.31906313E-12
   1.45799994       1.39733364E-12
   1.46000004       4.01575800E-13
   1.46200001      -6.56251691E-13
   1.46399999      -1.76406925E-12
   1.46599996      -2.90900138E-12
   1.46800005      -4.07584817E-12
   1.47000003      -5.24999271E-12
   1.47200000      -6.41663025E-12
   1.47399998      -7.55784237E-12
   1.47599995      -8.65739164E-12
   1.47800004      -9.69999341E-12
   1.48000002      -1.06699597E-11
   1.48199999      -1.15519460E-11
   1.48399997      -1.23313504E-11
   1.48599994      -1.29945820E-11
   1.48800004      -1.35291977E-11
   1.49000001      -1.39240112E-11
   1.49199998      -1.41689204E-11
   1.49399996      -1.42568483E-11
   1.49600005      -1.41829820E-11
   1.49800003      -1.39430776E-11
   1.50000000      -1.35359311E-11
   1.50199997      -1.29628643E-11
   1.50399995      -1.22271108E-11
   1.50600004      -1.13342027E-11
   1.50800002      -1.02920094E-11
   1.50999999      -9.10996452E-12
   1.51199996      -7.79925256E-12
   1.51400006      -6.37365941E-12
   1.51600003      -4.84852653E-12
   1.51800001      -3.24048037E-12
   1.51999998      -1.56707600E-12
   1.52199996       1.54952277E-13
   1.52400005       1.90527390E-12
   1.52600002       3.66368220E-12
   1.52800000       5.41382000E-12
   1.52999997       7.13772574E-12
   1.53199995       8.81844077E-12
   1.53400004       1.04412590E-11
   1.53600001       1.19916672E-11
   1.53799999       1.34581556E-11
   1.53999996       1.48314451E-11
   1.54200006       1.61026175E-11
   1.54400003       1.72654842E-11
   1.54600000       1.83165670E-11
   1.54799998       1.92544296E-11
   1.54999995       2.00789142E-11
   1.55200005       2.07947097E-11
   1.55400002       2.14053723E-11
   1.55599999       2.19138110E-11
   1.55799997       2.23270586E-11
   1.55999994       2.26545119E-11
   1.56200004       2.29013735E-11
   1.56400001       2.30753628E-11
   1.56599998       2.31850407E-11
   1.56799996       2.32348429E-11
   1.57000005       2.32315313E-11
   1.57200003       2.31816979E-11
   1.57400000       2.30908938E-11
   1.57599998       2.29617315E-11
   1.57799995       2.27948355E-11
   1.58000004       2.25876817E-11
   1.58200002       2.23375294E-11
   1.58399999       2.20432804E-11
   1.58599997       2.16999717E-11
   1.58800006       2.12999202E-11
   1.59000003       2.08336334E-11
   1.59200001       2.02925298E-11
   1.59399998       1.96664508E-11
   1.59599996       1.89471685E-11
   1.59800005       1.81274180E-11
   1.60000002       1.71930751E-11
   1.60200000       1.61363197E-11
   1.60399997       1.49523068E-11
   1.60599995       1.36254766E-11
   1.60800004       1.21440202E-11
   1.61000001       1.05082384E-11
   1.61199999       8.71574167E-12
   1.61399996       6.76733886E-12
   1.61600006       4.66511985E-12
   1.61800003       2.41251984E-12
   1.62000000       1.65175423E-14
   1.62199998      -2.52521832E-12
   1.62399995      -5.20629763E-12
   1.62600005      -8.01270248E-12
   1.62800002      -1.09286061E-11
   1.63000000      -1.39451072E-11
   1.63199997      -1.70584432E-11
   1.63399994      -2.02443201E-11
   1.63600004      -2.34884005E-11
   1.63800001      -2.67827305E-11
   1.63999999      -3.01031942E-11
   1.64199996      -3.34262271E-11
   1.64400005      -3.67333317E-11
   1.64600003      -4.00039862E-11
   1.64800000      -4.32160592E-11
   1.64999998      -4.63513707E-11
   1.65199995      -4.93912168E-11
   1.65400004      -5.23078386E-11
   1.65600002      -5.50801418E-11
   1.65799999      -5.76862759E-11
   1.65999997      -6.00926808E-11
   1.66199994      -6.22651999E-11
   1.66400003      -6.41798767E-11
   1.66600001      -6.58100241E-11
   1.66799998      -6.71322581E-11
   1.66999996      -6.81051257E-11
   1.67200005      -6.86933843E-11
   1.67400002      -6.88832533E-11
   1.67600000      -6.86330368E-11
   1.67799997      -6.79220777E-11
   1.67999995      -6.67229674E-11
   1.68200004      -6.50053136E-11
   1.68400002      -6.27468077E-11
   1.68599999      -5.99643529E-11
   1.68799996      -5.66688189E-11
   1.69000006      -5.28480454E-11
   1.69200003      -4.85194766E-11